<event>
 8    1  0.1287848E-011  0.1577352E+04  0.7818608E-02  0.8834584E-01
         -4   -1    0    0    0  501 -0.00000000000E+00  0.00000000000E+00  0.59068550713E+03  0.59068687240E+03  0.12700000000E+01 0. -1.
          4   -1    0    0  501    0  0.00000000000E+00 -0.00000000000E+00 -0.10530272020E+04  0.10530279678E+04  0.12700000000E+01 0.  1.
     200001    2    1    2    0    0 -0.15048668235E+03 -0.85524460923E+02 -0.56424031430E+03  0.91546762695E+03  0.69982366974E+03 0.  0.
    5000001    2    3    3    0    0  0.40428026980E+02 -0.20044377229E+02 -0.91248280009E+02  0.19821067710E+03  0.17007357669E+03 0.  0.
        -11    1    4    4    0    0  0.62648856129E+02 -0.59623789282E+02 -0.11065591993E+03  0.14044432363E+03  0.51100000000E-03 0. -1.
     200002    1    4    4    0    0 -0.22220829149E+02  0.39579412053E+02  0.19407639924E+02  0.57766353476E+02  0.30000000000E+02 0. -1.
     200000    1    3    3    0    0 -0.19091470933E+03 -0.65480083694E+02 -0.47299203429E+03  0.71725694985E+03  0.50000000000E+03 0.  1.
    -200001    1    1    2    0    0  0.15048668235E+03  0.85524460923E+02  0.10189861946E+03  0.72824721327E+03  0.70000000000E+03 0. -1.
<mgrwt>
<rscale>  0 0.15773518E+04</rscale>
<asrwt>0</asrwt>
<pdfrwt beam="1">  1        4 0.15043261E+00 0.15773518E+04</pdfrwt>
<pdfrwt beam="2">  1       -4 0.84383796E-01 0.15773518E+04</pdfrwt>
<totfact> 0.70197829E-01</totfact>
</mgrwt>
</event>
<event>
 8    1  0.1287848E-011  0.1519358E+04  0.7818608E-02  0.8871681E-01
         -4   -1    0    0    0  501 -0.00000000000E+00  0.00000000000E+00  0.53792565470E+03  0.53792715389E+03  0.12700000000E+01 0. -1.
          4   -1    0    0  501    0  0.00000000000E+00 -0.00000000000E+00 -0.10728438942E+04  0.10728446459E+04  0.12700000000E+01 0.  1.
     200001    2    1    2    0    0 -0.24792353965E+03 -0.37686718516E+02 -0.10324894027E+03  0.75098999363E+03  0.70031368443E+03 0.  0.
    5000001    2    3    3    0    0 -0.40690847196E+02 -0.35649636699E+02  0.18281459324E+02  0.19626557867E+03  0.18777466276E+03 0.  0.
        -11    1    4    4    0    0 -0.94095400114E+01  0.49091297555E+02  0.71482143295E+02  0.87224949121E+02  0.51100000000E-03 0. -1.
     200002    1    4    4    0    0 -0.31281307185E+02 -0.84740934254E+02 -0.53200683971E+02  0.10904062955E+03  0.30000000000E+02 0. -1.
     200000    1    3    3    0    0 -0.20723269246E+03 -0.20370818171E+01 -0.12153039959E+03  0.55472441496E+03  0.50000000000E+03 0. -1.
    -200001    1    1    2    0    0  0.24792353965E+03  0.37686718516E+02 -0.43166929920E+03  0.85978180612E+03  0.70000000000E+03 0. -1.
<mgrwt>
<rscale>  0 0.15193578E+04</rscale>
<asrwt>0</asrwt>
<pdfrwt beam="1">  1        4 0.15326357E+00 0.15193578E+04</pdfrwt>
<pdfrwt beam="2">  1       -4 0.76846683E-01 0.15193578E+04</pdfrwt>
<totfact> 0.82945457E-01</totfact>
</mgrwt>
</event>
<event>
 8    1  0.1287848E-011  0.1436190E+04  0.7818608E-02  0.8928031E-01
          4   -1    0    0  501    0  0.00000000000E+00  0.00000000000E+00  0.99010127293E+03  0.99010208744E+03  0.12700000000E+01 0.  1.
         -4   -1    0    0    0  501 -0.00000000000E+00 -0.00000000000E+00 -0.52081396114E+03  0.52081550958E+03  0.12700000000E+01 0. -1.
     200001    2    1    2    0    0  0.72272404252E+02  0.45244216304E+02  0.37773309233E+03  0.79982511736E+03  0.69983397303E+03 0.  0.
    5000001    2    3    3    0    0  0.26506505002E+02  0.13705486780E+02  0.18792219159E+03  0.26212874669E+03  0.18029502094E+03 0.  0.
        -11    1    4    4    0    0 -0.10243464845E+02 -0.46311570633E+02  0.17891817835E+03  0.18509836490E+03  0.51100000000E-03 0. -1.
     200002    1    4    4    0    0  0.36749969847E+02  0.60017057413E+02  0.90040132464E+01  0.77030381791E+02  0.30000000000E+02 0. -1.
     200000    1    3    3    0    0  0.45765899251E+02  0.31538729524E+02  0.18981090073E+03  0.53769637067E+03  0.50000000000E+03 0. -1.
    -200001    1    1    2    0    0 -0.72272404252E+02 -0.45244216304E+02  0.91554219462E+02  0.71109247966E+03  0.70000000000E+03 0. -1.
<mgrwt>
<rscale>  0 0.14361899E+04</rscale>
<asrwt>0</asrwt>
<pdfrwt beam="1">  1        4 0.14144321E+00 0.14361899E+04</pdfrwt>
<pdfrwt beam="2">  1       -4 0.74402164E-01 0.14361899E+04</pdfrwt>
<totfact> 0.11095052E+00</totfact>
</mgrwt>
</event>
<event>
 8    1  0.1287848E-011  0.1679444E+04  0.7818608E-02  0.8773176E-01
          4   -1    0    0  501    0  0.00000000000E+00  0.00000000000E+00  0.24337934803E+03  0.24338266155E+03  0.12700000000E+01 0.  1.
         -4   -1    0    0    0  501 -0.00000000000E+00 -0.00000000000E+00 -0.28972360445E+04  0.28972363228E+04  0.12700000000E+01 0. -1.
     200001    2    1    2    0    0  0.32498868725E+03 -0.31973064751E+03 -0.14831959864E+04  0.17024632794E+04  0.70047523134E+03 0.  0.
    5000001    2    3    3    0    0  0.49069928292E+02 -0.32091529052E+02 -0.28489682363E+03  0.34423343596E+03  0.18409979419E+03 0.  0.
        -11    1    4    4    0    0  0.69293152094E+02 -0.63881152045E+02 -0.28045514887E+03  0.29586725577E+03  0.51100000000E-03 0. -1.
     200002    1    4    4    0    0 -0.20223223802E+02  0.31789622994E+02 -0.44416747594E+01  0.48366180185E+02  0.30000000000E+02 0. -1.
     200000    1    3    3    0    0  0.27591875896E+03 -0.28763911845E+03 -0.11982991628E+04  0.13582298434E+04  0.50000000000E+03 0. -1.
    -200001    1    1    2    0    0 -0.32498868725E+03  0.31973064751E+03 -0.11706607100E+04  0.14381557050E+04  0.70000000000E+03 0.  1.
<mgrwt>
<rscale>  0 0.16794440E+04</rscale>
<asrwt>0</asrwt>
<pdfrwt beam="1">  1        4 0.34768737E-01 0.16794440E+04</pdfrwt>
<pdfrwt beam="2">  1       -4 0.41389110E+00 0.16794440E+04</pdfrwt>
<totfact> 0.85189008E-02</totfact>
</mgrwt>
</event>
<event>
 8    1  0.1287848E-011  0.1849353E+04  0.7818608E-02  0.8680485E-01
         -4   -1    0    0    0  501 -0.00000000000E+00  0.00000000000E+00  0.80402347699E+03  0.80402448001E+03  0.12700000000E+01 0. -1.
          4   -1    0    0  501    0  0.00000000000E+00 -0.00000000000E+00 -0.10634333777E+04  0.10634341360E+04  0.12700000000E+01 0.  1.
     200001    2    1    2    0    0 -0.45468779586E+03 -0.86457862103E+02 -0.51511665601E+03  0.99018904608E+03  0.70775223352E+03 0.  0.
    5000001    2    3    3    0    0 -0.55128357374E+02 -0.85463341263E+02 -0.88341502053E+02  0.22091291491E+03  0.17508619735E+03 0.  0.
        -11    1    4    4    0    0 -0.79732509078E+02 -0.12304262664E+03 -0.50946360232E+02  0.15521692110E+03  0.51100000000E-03 0. -1.
     200002    1    4    4    0    0  0.24604151705E+02  0.37579285377E+02 -0.37395141821E+02  0.65695993808E+02  0.30000000000E+02 0. -1.
     200000    1    3    3    0    0 -0.39955943848E+03 -0.99452084073E+00 -0.42677515396E+03  0.76927613117E+03  0.50000000000E+03 0.  1.
    -200001    1    1    2    0    0  0.45468779586E+03  0.86457862103E+02  0.25570675534E+03  0.87726956994E+03  0.70000000000E+03 0. -1.
<mgrwt>
<rscale>  0 0.18493535E+04</rscale>
<asrwt>0</asrwt>
<pdfrwt beam="1">  1        4 0.15191918E+00 0.18493535E+04</pdfrwt>
<pdfrwt beam="2">  1       -4 0.11486062E+00 0.18493535E+04</pdfrwt>
<totfact> 0.32208173E-01</totfact>
</mgrwt>
</event>
<event>
 8    1  0.1287848E-011  0.1837228E+04  0.7818608E-02  0.8686749E-01
         -4   -1    0    0    0  501 -0.00000000000E+00  0.00000000000E+00  0.11254583371E+04  0.11254590536E+04  0.12700000000E+01 0. -1.
          4   -1    0    0  501    0  0.00000000000E+00 -0.00000000000E+00 -0.74978376001E+03  0.74978483559E+03  0.12700000000E+01 0.  1.
     200001    2    1    2    0    0 -0.13301204227E+03 -0.21879008102E+03 -0.36021685663E+03  0.82781966516E+03  0.69997707912E+03 0.  0.
    5000001    2    3    3    0    0 -0.12628330166E+02  0.92606792786E+01 -0.77687972188E+01  0.16395294511E+03  0.16301833975E+03 0.  0.
        -11    1    4    4    0    0  0.67095413277E+02 -0.11567363165E+02 -0.28557273025E+02  0.73831674885E+02  0.51100000000E-03 0. -1.
     200002    1    4    4    0    0 -0.79723743443E+02  0.20828042443E+02  0.20788475806E+02  0.90121270224E+02  0.30000000000E+02 0. -1.
     200000    1    3    3    0    0 -0.12038371211E+03 -0.22805076030E+03 -0.35244805941E+03  0.66386672005E+03  0.50000000000E+03 0.  1.
    -200001    1    1    2    0    0  0.13301204227E+03  0.21879008102E+03  0.73589143369E+03  0.10474242240E+04  0.70000000000E+03 0. -1.
<mgrwt>
<rscale>  0 0.18372284E+04</rscale>
<asrwt>0</asrwt>
<pdfrwt beam="1">  1        4 0.10711210E+00 0.18372284E+04</pdfrwt>
<pdfrwt beam="2">  1       -4 0.16077989E+00 0.18372284E+04</pdfrwt>
<totfact> 0.32777539E-01</totfact>
</mgrwt>
</event>
<event>
 8    1  0.1287848E-011  0.1968396E+04  0.7818608E-02  0.8621541E-01
         -4   -1    0    0    0  501 -0.00000000000E+00  0.00000000000E+00  0.51100716997E+03  0.51100874813E+03  0.12700000000E+01 0. -1.
          4   -1    0    0  501    0  0.00000000000E+00 -0.00000000000E+00 -0.18955565267E+04  0.18955569521E+04  0.12700000000E+01 0.  1.
     200001    2    1    2    0    0 -0.44095773499E+03 -0.34796142899E+03 -0.19892983698E+03  0.91955039243E+03  0.70034203363E+03 0.  0.
    5000001    2    3    3    0    0 -0.10546203498E+03 -0.20594587045E+03 -0.39278547840E+02  0.28063387385E+03  0.15387210420E+03 0.  0.
        -11    1    4    4    0    0 -0.11607862193E+03 -0.69258894726E+02 -0.37516688284E+02  0.14028022979E+03  0.51100000000E-03 0. -1.
     200002    1    4    4    0    0  0.10616586957E+02 -0.13668697573E+03 -0.17618595560E+01  0.14035364406E+03  0.30000000000E+02 0. -1.
     200000    1    3    3    0    0 -0.33549570002E+03 -0.14201555853E+03 -0.15965128914E+03  0.63891651858E+03  0.50000000000E+03 0. -1.
    -200001    1    1    2    0    0  0.44095773499E+03  0.34796142899E+03 -0.11856195197E+04  0.14870153078E+04  0.70000000000E+03 0.  1.
<mgrwt>
<rscale>  0 0.19683957E+04</rscale>
<asrwt>0</asrwt>
<pdfrwt beam="1">  1        4 0.27079393E+00 0.19683957E+04</pdfrwt>
<pdfrwt beam="2">  1       -4 0.73001169E-01 0.19683957E+04</pdfrwt>
<totfact> 0.15030970E-01</totfact>
</mgrwt>
</event>
<event>
 8    1  0.1287848E-011  0.1704130E+04  0.7818608E-02  0.8759012E-01
         -4   -1    0    0    0  501 -0.00000000000E+00  0.00000000000E+00  0.74084509918E+03  0.74084618773E+03  0.12700000000E+01 0. -1.
          4   -1    0    0  501    0  0.00000000000E+00 -0.00000000000E+00 -0.97997974676E+03  0.97998056969E+03  0.12700000000E+01 0.  1.
     200001    2    1    2    0    0 -0.44283764680E+03 -0.17059362073E+02  0.82175264562E+02  0.83221195735E+03  0.69959114101E+03 0.  0.
    5000001    2    3    3    0    0 -0.13514008983E+03  0.15992230138E+02  0.14202306875E+02  0.24027402370E+03  0.19751279867E+03 0.  0.
        -11    1    4    4    0    0 -0.17381309437E+02  0.28779256855E+02  0.90278550760E+02  0.96335726865E+02  0.51100000000E-03 0. -1.
     200002    1    4    4    0    0 -0.11775878039E+03 -0.12787026718E+02 -0.76076243885E+02  0.14393829683E+03  0.30000000000E+02 0. -1.
     200000    1    3    3    0    0 -0.30769755697E+03 -0.33051592210E+02  0.67972957687E+02  0.59193793365E+03  0.50000000000E+03 0.  1.
    -200001    1    1    2    0    0  0.44283764680E+03  0.17059362073E+02 -0.32130991215E+03  0.88861480007E+03  0.70000000000E+03 0.  1.
<mgrwt>
<rscale>  0 0.17041301E+04</rscale>
<asrwt>0</asrwt>
<pdfrwt beam="1">  1        4 0.13999724E+00 0.17041301E+04</pdfrwt>
<pdfrwt beam="2">  1       -4 0.10583515E+00 0.17041301E+04</pdfrwt>
<totfact> 0.49340027E-01</totfact>
</mgrwt>
</event>
<event>
 8    1  0.1287848E-011  0.1825458E+04  0.7818608E-02  0.8692877E-01
         -4   -1    0    0    0  501 -0.00000000000E+00  0.00000000000E+00  0.67799897566E+03  0.67800016511E+03  0.12700000000E+01 0. -1.
          4   -1    0    0  501    0  0.00000000000E+00 -0.00000000000E+00 -0.12287221908E+04  0.12287228471E+04  0.12700000000E+01 0.  1.
     200001    2    1    2    0    0 -0.49581902728E+03 -0.93183727216E+02 -0.59087145025E+03  0.10429339201E+04  0.69574591353E+03 0.  0.
    5000001    2    3    3    0    0 -0.15264612415E+03  0.48586675402E+02 -0.21249593598E+03  0.31421276749E+03  0.16707374480E+03 0.  0.
        -11    1    4    4    0    0 -0.41523887830E+02  0.37614686920E+02  0.15881176992E+02  0.58234952696E+02  0.51100000000E-03 0. -1.
     200002    1    4    4    0    0 -0.11112223632E+03  0.10971988482E+02 -0.22837711297E+03  0.25597781480E+03  0.30000000000E+02 0. -1.
     200000    1    3    3    0    0 -0.34317290312E+03 -0.14177040262E+03 -0.37837551427E+03  0.72872115263E+03  0.50000000000E+03 0.  1.
    -200001    1    1    2    0    0  0.49581902728E+03  0.93183727216E+02  0.40148235140E+02  0.86378909209E+03  0.70000000000E+03 0. -1.
<mgrwt>
<rscale>  0 0.18254579E+04</rscale>
<asrwt>0</asrwt>
<pdfrwt beam="1">  1        4 0.17553187E+00 0.18254579E+04</pdfrwt>
<pdfrwt beam="2">  1       -4 0.96857128E-01 0.18254579E+04</pdfrwt>
<totfact> 0.32680147E-01</totfact>
</mgrwt>
</event>
<event>
 8    1  0.1287848E-011  0.1820240E+04  0.7818608E-02  0.8695609E-01
          4   -1    0    0  501    0  0.00000000000E+00  0.00000000000E+00  0.28426337206E+03  0.28426620903E+03  0.12700000000E+01 0. -1.
         -4   -1    0    0    0  501 -0.00000000000E+00 -0.00000000000E+00 -0.29138956755E+04  0.29138959522E+04  0.12700000000E+01 0.  1.
     200001    2    1    2    0    0 -0.48204890540E+03 -0.30503523491E+03 -0.15138144728E+04  0.17627294485E+04  0.70011656802E+03 0.  0.
    5000001    2    3    3    0    0 -0.40113079852E+02 -0.51268946182E+02 -0.34150478531E+03  0.39013533275E+03  0.17703811865E+03 0.  0.
        -11    1    4    4    0    0  0.52773254037E+02  0.29329228216E+00 -0.32440468217E+02  0.61947448215E+02  0.51100000000E-03 0. -1.
     200002    1    4    4    0    0 -0.92886333889E+02 -0.51562238464E+02 -0.30906431709E+03  0.32818788454E+03  0.30000000000E+02 0. -1.
     200000    1    3    3    0    0 -0.44193582554E+03 -0.25376628873E+03 -0.11723096875E+04  0.13725941158E+04  0.50000000000E+03 0.  1.
    -200001    1    1    2    0    0  0.48204890540E+03  0.30503523491E+03 -0.11158178306E+04  0.14354327127E+04  0.70000000000E+03 0. -1.
<mgrwt>
<rscale>  0 0.18202404E+04</rscale>
<asrwt>0</asrwt>
<pdfrwt beam="1">  1        4 0.40609277E-01 0.18202404E+04</pdfrwt>
<pdfrwt beam="2">  1       -4 0.41627102E+00 0.18202404E+04</pdfrwt>
<totfact> 0.59259799E-02</totfact>
</mgrwt>
</event>
<event>
 8    1  0.1287848E-011  0.1514975E+04  0.7818608E-02  0.8874556E-01
          4   -1    0    0  501    0  0.00000000000E+00  0.00000000000E+00  0.10470879509E+04  0.10470887211E+04  0.12700000000E+01 0.  1.
         -4   -1    0    0    0  501 -0.00000000000E+00 -0.00000000000E+00 -0.54798194003E+03  0.54798341170E+03  0.12700000000E+01 0. -1.
     200001    2    1    2    0    0  0.74183709955E+02  0.27887343591E+03  0.20868442678E+03  0.78413544439E+03  0.69860259740E+03 0.  0.
    5000001    2    3    3    0    0  0.81810972067E+00  0.10833203000E+03  0.62660464399E+02  0.23115273217E+03  0.19434184769E+03 0.  0.
        -11    1    4    4    0    0  0.79440732813E+02  0.11273390989E+03  0.32871001381E+02  0.14177541113E+03  0.51100000000E-03 0. -1.
     200002    1    4    4    0    0 -0.78622623092E+02 -0.44018798923E+01  0.29789463018E+02  0.89377321035E+02  0.30000000000E+02 0. -1.
     200000    1    3    3    0    0  0.73365600234E+02  0.17054140591E+03  0.14602396238E+03  0.55298271222E+03  0.50000000000E+03 0. -1.
    -200001    1    1    2    0    0 -0.74183709955E+02 -0.27887343591E+03  0.29042158410E+03  0.81093668840E+03  0.70000000000E+03 0.  1.
<mgrwt>
<rscale>  0 0.15149747E+04</rscale>
<asrwt>0</asrwt>
<pdfrwt beam="1">  1        4 0.14958415E+00 0.15149747E+04</pdfrwt>
<pdfrwt beam="2">  1       -4 0.78283295E-01 0.15149747E+04</pdfrwt>
<totfact> 0.84915605E-01</totfact>
</mgrwt>
</event>
<event>
 8    1  0.1287848E-011  0.1599505E+04  0.7818608E-02  0.8820852E-01
          4   -1    0    0  501    0  0.00000000000E+00  0.00000000000E+00  0.87491129070E+03  0.87491221245E+03  0.12700000000E+01 0.  1.
         -4   -1    0    0    0  501 -0.00000000000E+00 -0.00000000000E+00 -0.73104816000E+03  0.73104926314E+03  0.12700000000E+01 0. -1.
     200001    2    1    2    0    0  0.34637376278E+03 -0.72645049982E+02 -0.85193504404E+02  0.78882071114E+03  0.69980575469E+03 0.  0.
    5000001    2    3    3    0    0  0.10725030284E+03  0.19272620761E+02 -0.81445468552E+02  0.22699962302E+03  0.18171792188E+03 0.  0.
        -11    1    4    4    0    0 -0.30658761747E+02  0.52294043500E+02 -0.50242084549E+02  0.78733053526E+02  0.51100000000E-03 0. -1.
     200002    1    4    4    0    0  0.13790906459E+03 -0.33021422739E+02 -0.31203384003E+02  0.14826656949E+03  0.30000000000E+02 0. -1.
     200000    1    3    3    0    0  0.23912345994E+03 -0.91917670744E+02 -0.37480358523E+01  0.56182108812E+03  0.50000000000E+03 0. -1.
    -200001    1    1    2    0    0 -0.34637376278E+03  0.72645049982E+02  0.22905663510E+03  0.81714076444E+03  0.70000000000E+03 0.  1.
<mgrwt>
<rscale>  0 0.15995048E+04</rscale>
<asrwt>0</asrwt>
<pdfrwt beam="1">  1        4 0.12498747E+00 0.15995048E+04</pdfrwt>
<pdfrwt beam="2">  1       -4 0.10443560E+00 0.15995048E+04</pdfrwt>
<totfact> 0.68643101E-01</totfact>
</mgrwt>
</event>
<event>
 8    1  0.1287848E-011  0.3077780E+04  0.7818608E-02  0.8221863E-01
         -4   -1    0    0    0  501 -0.00000000000E+00  0.00000000000E+00  0.27751245266E+04  0.27751248172E+04  0.12700000000E+01 0. -1.
          4   -1    0    0  501    0  0.00000000000E+00 -0.00000000000E+00 -0.85335993802E+03  0.85336088304E+03  0.12700000000E+01 0.  1.
     200001    2    1    2    0    0  0.78394710345E+02  0.61600498532E+03  0.24011756288E+04  0.25770852922E+04  0.70008308809E+03 0.  0.
    5000001    2    3    3    0    0  0.47698542957E+02  0.23584484884E+03  0.88067723472E+03  0.93167368699E+03  0.18581045060E+03 0.  0.
        -11    1    4    4    0    0 -0.16532368564E+02  0.21361361379E+03  0.50253078752E+03  0.54629780121E+03  0.51100000000E-03 0. -1.
     200002    1    4    4    0    0  0.64230911521E+02  0.22231235048E+02  0.37814644721E+03  0.38537588578E+03  0.30000000000E+02 0. -1.
     200000    1    3    3    0    0  0.30696167388E+02  0.38016013648E+03  0.15204983941E+04  0.16454116052E+04  0.50000000000E+03 0. -1.
    -200001    1    1    2    0    0 -0.78394710345E+02 -0.61600498532E+03 -0.47941104024E+03  0.10514004080E+04  0.70000000000E+03 0.  1.
<mgrwt>
<rscale>  0 0.30777799E+04</rscale>
<asrwt>0</asrwt>
<pdfrwt beam="1">  1        4 0.12190865E+00 0.30777799E+04</pdfrwt>
<pdfrwt beam="2">  1       -4 0.39644645E+00 0.30777799E+04</pdfrwt>
<totfact> 0.62604723E-03</totfact>
</mgrwt>
</event>
<event>
 8    1  0.1287848E-011  0.2002699E+04  0.7818608E-02  0.8605360E-01
         -4   -1    0    0    0  501 -0.00000000000E+00  0.00000000000E+00  0.94380856820E+03  0.94380942267E+03  0.12700000000E+01 0. -1.
          4   -1    0    0  501    0  0.00000000000E+00 -0.00000000000E+00 -0.10623970712E+04  0.10623978303E+04  0.12700000000E+01 0.  1.
     200001    2    1    2    0    0  0.43372084660E+03 -0.53098907369E+02  0.50906130615E+03  0.96944423775E+03  0.69981815492E+03 0.  0.
    5000001    2    3    3    0    0  0.46598459657E+02 -0.81616897757E+02  0.15112940913E+03  0.24226320035E+03  0.16437343307E+03 0.  0.
        -11    1    4    4    0    0  0.41369711709E+02  0.35025350616E+02  0.74593012510E+01  0.54716262738E+02  0.51100000000E-03 0. -1.
     200002    1    4    4    0    0  0.52287479483E+01 -0.11664224837E+03  0.14367010788E+03  0.18754693761E+03  0.30000000000E+02 0. -1.
     200000    1    3    3    0    0  0.38712238695E+03  0.28517990387E+02  0.35793189702E+03  0.72718103740E+03  0.50000000000E+03 0. -1.
    -200001    1    1    2    0    0 -0.43372084660E+03  0.53098907369E+02 -0.62764980912E+03  0.10367630152E+04  0.70000000000E+03 0.  1.
<mgrwt>
<rscale>  0 0.20026993E+04</rscale>
<asrwt>0</asrwt>
<pdfrwt beam="1">  1        4 0.15177112E+00 0.20026993E+04</pdfrwt>
<pdfrwt beam="2">  1       -4 0.13482991E+00 0.20026993E+04</pdfrwt>
<totfact> 0.21313117E-01</totfact>
</mgrwt>
</event>
<event>
 8    1  0.1287848E-011  0.2068464E+04  0.7818608E-02  0.8575264E-01
         -4   -1    0    0    0  501 -0.00000000000E+00  0.00000000000E+00  0.30063697605E+04  0.30063700287E+04  0.12700000000E+01 0. -1.
          4   -1    0    0  501    0  0.00000000000E+00 -0.00000000000E+00 -0.35578837982E+03  0.35579064647E+03  0.12700000000E+01 0.  1.
     200001    2    1    2    0    0  0.68322084921E+03  0.22729849145E+02  0.18689023168E+04  0.21098310326E+04  0.70091635847E+03 0.  0.
    5000001    2    3    3    0    0  0.15709177879E+03  0.16018541375E+03  0.50685431006E+03  0.56035350658E+03  0.82204421855E+02 0.  0.
        -11    1    4    4    0    0  0.10010697266E+03  0.13870406629E+03  0.36199204440E+03  0.40037290641E+03  0.51100000000E-03 0. -1.
     200002    1    4    4    0    0  0.56984806135E+02  0.21481347457E+02  0.14486226566E+03  0.15998060017E+03  0.30000000000E+02 0. -1.
     200000    1    3    3    0    0  0.52612907042E+03 -0.13745556461E+03  0.13620480067E+04  0.15494775260E+04  0.50000000000E+03 0. -1.
    -200001    1    1    2    0    0 -0.68322084921E+03 -0.22729849145E+02  0.78167906389E+03  0.12523296426E+04  0.70000000000E+03 0.  1.
<mgrwt>
<rscale>  0 0.20684639E+04</rscale>
<asrwt>0</asrwt>
<pdfrwt beam="1">  1        4 0.50827091E-01 0.20684639E+04</pdfrwt>
<pdfrwt beam="2">  1       -4 0.42948159E+00 0.20684639E+04</pdfrwt>
<totfact> 0.29293418E-02</totfact>
</mgrwt>
</event>
<event>
 8    1  0.1287848E-011  0.1715703E+04  0.7818608E-02  0.8752459E-01
          4   -1    0    0  501    0  0.00000000000E+00  0.00000000000E+00  0.39334347571E+03  0.39334552595E+03  0.12700000000E+01 0.  1.
         -4   -1    0    0    0  501 -0.00000000000E+00 -0.00000000000E+00 -0.18709001771E+04  0.18709006082E+04  0.12700000000E+01 0. -1.
     200001    2    1    2    0    0 -0.18525215691E+03  0.38854026100E+03 -0.41599275283E+03  0.92178573880E+03  0.70096867390E+03 0.  0.
    5000001    2    3    3    0    0  0.11481686221E+02  0.14196214428E+03 -0.68300758520E+02  0.23593247783E+03  0.17525427513E+03 0.  0.
        -11    1    4    4    0    0  0.61763363821E+02  0.13176172399E+03 -0.16684052846E+00  0.14551938996E+03  0.51100000000E-03 0. -1.
     200002    1    4    4    0    0 -0.50281677600E+02  0.10200420289E+02 -0.68133917992E+02  0.90413087865E+02  0.30000000000E+02 0. -1.
     200000    1    3    3    0    0 -0.19673384314E+03  0.24657811672E+03 -0.34769199431E+03  0.68585326097E+03  0.50000000000E+03 0.  1.
    -200001    1    1    2    0    0  0.18525215691E+03 -0.38854026100E+03 -0.10615639486E+04  0.13424603953E+04  0.70000000000E+03 0. -1.
<mgrwt>
<rscale>  0 0.17157030E+04</rscale>
<asrwt>0</asrwt>
<pdfrwt beam="1">  1        4 0.56192103E-01 0.17157030E+04</pdfrwt>
<pdfrwt beam="2">  1       -4 0.26727163E+00 0.17157030E+04</pdfrwt>
<totfact> 0.28535342E-01</totfact>
</mgrwt>
</event>
<event>
 8    1  0.1287848E-011  0.1451301E+04  0.7818608E-02  0.8917499E-01
          4   -1    0    0  501    0  0.00000000000E+00  0.00000000000E+00  0.10668935085E+04  0.10668942644E+04  0.12700000000E+01 0.  1.
         -4   -1    0    0    0  501 -0.00000000000E+00 -0.00000000000E+00 -0.49355124198E+03  0.49355287595E+03  0.12700000000E+01 0. -1.
     200001    2    1    2    0    0 -0.96841554822E+02 -0.12000169573E+03  0.16576144790E+03  0.73588615570E+03  0.70019488917E+03 0.  0.
    5000001    2    3    3    0    0  0.65796331515E+01 -0.24241137158E+02  0.92227126543E+02  0.21122119297E+03  0.18835505086E+03 0.  0.
        -11    1    4    4    0    0  0.57521722354E+02  0.45519112211E+02  0.94650375580E+02  0.11974736622E+03  0.51100000000E-03 0. -1.
     200002    1    4    4    0    0 -0.50942089202E+02 -0.69760249369E+02 -0.24232490365E+01  0.91473826750E+02  0.30000000000E+02 0. -1.
     200000    1    3    3    0    0 -0.10342118797E+03 -0.95760558572E+02  0.73534321357E+02  0.52466496273E+03  0.50000000000E+03 0. -1.
    -200001    1    1    2    0    0  0.96841554822E+02  0.12000169573E+03  0.40758081866E+03  0.82456098468E+03  0.70000000000E+03 0.  1.
<mgrwt>
<rscale>  0 0.14513008E+04</rscale>
<asrwt>0</asrwt>
<pdfrwt beam="1">  1        4 0.15241353E+00 0.14513008E+04</pdfrwt>
<pdfrwt beam="2">  1       -4 0.70507492E-01 0.14513008E+04</pdfrwt>
<totfact> 0.10250800E+00</totfact>
</mgrwt>
</event>
<event>
 8    1  0.1287848E-011  0.1568451E+04  0.7818608E-02  0.8840168E-01
          4   -1    0    0  501    0  0.00000000000E+00  0.00000000000E+00  0.12633074299E+04  0.12633080682E+04  0.12700000000E+01 0.  1.
         -4   -1    0    0    0  501 -0.00000000000E+00 -0.00000000000E+00 -0.48682325906E+03  0.48682491561E+03  0.12700000000E+01 0. -1.
     200001    2    1    2    0    0 -0.31756030865E+03  0.22833205582E+02  0.56217594787E+03  0.95182607586E+03  0.69897437537E+03 0.  0.
    5000001    2    3    3    0    0 -0.49997406006E+02  0.95069519965E+02  0.19132402018E+03  0.27040172624E+03  0.15803246066E+03 0.  0.
        -11    1    4    4    0    0 -0.36728918233E+02  0.53118865938E+02  0.20540524537E+03  0.21531823467E+03  0.51100000000E-03 0. -1.
     200002    1    4    4    0    0 -0.13268487773E+02  0.41950654027E+02 -0.14081225192E+02  0.55083491574E+02  0.30000000000E+02 0. -1.
     200000    1    3    3    0    0 -0.26756290264E+03 -0.72236314384E+02  0.37085192769E+03  0.68142434962E+03  0.50000000000E+03 0. -1.
    -200001    1    1    2    0    0  0.31756030865E+03 -0.22833205582E+02  0.21430822293E+03  0.79830690798E+03  0.70000000000E+03 0.  1.
<mgrwt>
<rscale>  0 0.15684508E+04</rscale>
<asrwt>0</asrwt>
<pdfrwt beam="1">  1        4 0.18047265E+00 0.15684508E+04</pdfrwt>
<pdfrwt beam="2">  1       -4 0.69546343E-01 0.15684508E+04</pdfrwt>
<totfact> 0.65541367E-01</totfact>
</mgrwt>
</event>
<event>
 8    1  0.1287848E-011  0.2029710E+04  0.7818608E-02  0.8592855E-01
          4   -1    0    0  501    0  0.00000000000E+00  0.00000000000E+00  0.98745750137E+03  0.98745831806E+03  0.12700000000E+01 0.  1.
         -4   -1    0    0    0  501 -0.00000000000E+00 -0.00000000000E+00 -0.10430105583E+04  0.10430113315E+04  0.12700000000E+01 0. -1.
     200001    2    1    2    0    0 -0.42001166854E+03  0.31892198337E+03 -0.53964560240E+03  0.10292370963E+04  0.69999327929E+03 0.  0.
    5000001    2    3    3    0    0 -0.15365440484E+03  0.67887235232E+02 -0.17261762592E+03  0.30904672411E+03  0.19363543082E+03 0.  0.
        -11    1    4    4    0    0 -0.59512488524E+02  0.51001608146E+02  0.29254003809E+02  0.83658215752E+02  0.51100000000E-03 0. -1.
     200002    1    4    4    0    0 -0.94141916312E+02  0.16885627086E+02 -0.20187162973E+03  0.22538850836E+03  0.30000000000E+02 0. -1.
     200000    1    3    3    0    0 -0.26635726370E+03  0.25103474814E+03 -0.36702797648E+03  0.72019037221E+03  0.50000000000E+03 0.  1.
    -200001    1    1    2    0    0  0.42001166854E+03 -0.31892198337E+03  0.48409254544E+03  0.10012325533E+04  0.70000000000E+03 0. -1.
<mgrwt>
<rscale>  0 0.20297095E+04</rscale>
<asrwt>0</asrwt>
<pdfrwt beam="1">  1        4 0.14106547E+00 0.20297095E+04</pdfrwt>
<pdfrwt beam="2">  1       -4 0.14900162E+00 0.20297095E+04</pdfrwt>
<totfact> 0.19864225E-01</totfact>
</mgrwt>
</event>
<event>
 8    1  0.1287848E-011  0.1633818E+04  0.7818608E-02  0.8800038E-01
         -4   -1    0    0    0  501 -0.00000000000E+00  0.00000000000E+00  0.99528111165E+03  0.99528192193E+03  0.12700000000E+01 0. -1.
          4   -1    0    0  501    0  0.00000000000E+00 -0.00000000000E+00 -0.67050252913E+03  0.67050373188E+03  0.12700000000E+01 0.  1.
     200001    2    1    2    0    0 -0.14617054632E+02 -0.14493387124E+03 -0.24065770912E+03  0.75422781953E+03  0.69980281899E+03 0.  0.
    5000001    2    3    3    0    0 -0.95005917697E+02 -0.89755035123E+02 -0.66641386324E+02  0.21590751166E+03  0.15840734987E+03 0.  0.
        -11    1    4    4    0    0 -0.65150460428E+02  0.22813957297E+02 -0.66202038415E+02  0.95643970182E+02  0.51100000000E-03 0. -1.
     200002    1    4    4    0    0 -0.29855457269E+02 -0.11256899242E+03 -0.43934790868E+00  0.12026354148E+03  0.30000000000E+02 0. -1.
     200000    1    3    3    0    0  0.80388863065E+02 -0.55178836120E+02 -0.17401632280E+03  0.53832030787E+03  0.50000000000E+03 0.  1.
    -200001    1    1    2    0    0  0.14617054632E+02  0.14493387124E+03  0.56543629165E+03  0.91155783428E+03  0.70000000000E+03 0. -1.
<mgrwt>
<rscale>  0 0.16338178E+04</rscale>
<asrwt>0</asrwt>
<pdfrwt beam="1">  1        4 0.95786220E-01 0.16338178E+04</pdfrwt>
<pdfrwt beam="2">  1       -4 0.14218316E+00 0.16338178E+04</pdfrwt>
<totfact> 0.60448033E-01</totfact>
</mgrwt>
</event>
<event>
 8    1  0.1287848E-011  0.1557054E+04  0.7818608E-02  0.8847375E-01
          4   -1    0    0  501    0  0.00000000000E+00  0.00000000000E+00  0.43529435225E+03  0.43529620490E+03  0.12700000000E+01 0.  1.
         -4   -1    0    0    0  501 -0.00000000000E+00 -0.00000000000E+00 -0.13923950164E+04  0.13923955956E+04  0.12700000000E+01 0. -1.
     200001    2    1    2    0    0  0.30475813316E+03  0.14746762637E+03 -0.43076731313E+03  0.88872906590E+03  0.69975328078E+03 0.  0.
    5000001    2    3    3    0    0  0.17229948190E+03  0.33503024928E+02 -0.67185885210E+02  0.24629254810E+03  0.15917447011E+03 0.  0.
        -11    1    4    4    0    0  0.20413936356E+02  0.28890210609E+02 -0.83366239647E+02  0.90561045597E+02  0.51100000000E-03 0. -1.
     200002    1    4    4    0    0  0.15188554554E+03  0.46128143188E+01  0.16180354436E+02  0.15573150250E+03  0.30000000000E+02 0. -1.
     200000    1    3    3    0    0  0.13245865126E+03  0.11396460144E+03 -0.36358142792E+03  0.64243651780E+03  0.50000000000E+03 0.  1.
    -200001    1    1    2    0    0 -0.30475813316E+03 -0.14746762637E+03 -0.52633335105E+03  0.93896273461E+03  0.70000000000E+03 0. -1.
<mgrwt>
<rscale>  0 0.15570535E+04</rscale>
<asrwt>0</asrwt>
<pdfrwt beam="1">  1        4 0.62185082E-01 0.15570535E+04</pdfrwt>
<pdfrwt beam="2">  1       -4 0.19891375E+00 0.15570535E+04</pdfrwt>
<totfact> 0.62845377E-01</totfact>
</mgrwt>
</event>
<event>
 8    1  0.1409773E-011  0.1483770E+04  0.7818608E-02  0.8895318E-01
          4   -1    0    0  501    0  0.00000000000E+00  0.00000000000E+00  0.86911462257E+03  0.86911555047E+03  0.12700000000E+01 0.  1.
         -4   -1    0    0    0  501 -0.00000000000E+00 -0.00000000000E+00 -0.63327884482E+03  0.63328011827E+03  0.12700000000E+01 0. -1.
     200001    2    1    2    0    0 -0.16299581838E+02  0.22746180429E+03  0.19561192265E+03  0.76508806177E+03  0.70362715212E+03 0.  0.
    5000001    2    3    3    0    0 -0.36747369844E+02 -0.24399457764E+02  0.90804944999E+02  0.19514358208E+03  0.16700232592E+03 0.  0.
        -11    1    4    4    0    0  0.17065226104E+02 -0.23880005241E+02 -0.40549416568E+02  0.50057284950E+02  0.51100000000E-03 0. -1.
     200002    1    4    4    0    0 -0.53812595948E+02 -0.51945252242E+00  0.13135436157E+03  0.14508629713E+03  0.30000000000E+02 0. -1.
     200000    1    3    3    0    0  0.20447788006E+02  0.25186126205E+03  0.10480697765E+03  0.56994447968E+03  0.50000000000E+03 0. -1.
    -200001    1    1    2    0    0  0.16299581838E+02 -0.22746180429E+03  0.40223855101E+02  0.73730760697E+03  0.70000000000E+03 0. -1.
<mgrwt>
<rscale>  0 0.14837703E+04</rscale>
<asrwt>0</asrwt>
<pdfrwt beam="1">  1        4 0.12415939E+00 0.14837703E+04</pdfrwt>
<pdfrwt beam="2">  1       -4 0.90468565E-01 0.14837703E+04</pdfrwt>
<totfact> 0.98870496E-01</totfact>
</mgrwt>
</event>
<event>
 8    1  0.1287848E-011  0.1755994E+04  0.7818608E-02  0.8730058E-01
         -4   -1    0    0    0  501 -0.00000000000E+00  0.00000000000E+00  0.96625846628E+03  0.96625930089E+03  0.12700000000E+01 0. -1.
          4   -1    0    0  501    0  0.00000000000E+00 -0.00000000000E+00 -0.79779622779E+03  0.79779723863E+03  0.12700000000E+01 0.  1.
     200001    2    1    2    0    0  0.45180367888E+03 -0.22331912042E+03 -0.75232531955E+02  0.86773899817E+03  0.70236247145E+03 0.  0.
    5000001    2    3    3    0    0  0.12201942866E+03 -0.65028927984E+02 -0.12059904751E+03  0.24655339190E+03  0.16470258756E+03 0.  0.
        -11    1    4    4    0    0  0.18594586827E+02 -0.67201930300E+02  0.17040483851E+02  0.71779079023E+02  0.51100000000E-03 0. -1.
     200002    1    4    4    0    0  0.10342484183E+03  0.21730023153E+01 -0.13763953136E+03  0.17477431287E+03  0.30000000000E+02 0. -1.
     200000    1    3    3    0    0  0.32978425022E+03 -0.15829019244E+03  0.45366515555E+02  0.62118560628E+03  0.50000000000E+03 0.  1.
    -200001    1    1    2    0    0 -0.45180367888E+03  0.22331912042E+03  0.24369477045E+03  0.89631754135E+03  0.70000000000E+03 0. -1.
<mgrwt>
<rscale>  0 0.17559943E+04</rscale>
<asrwt>0</asrwt>
<pdfrwt beam="1">  1        4 0.11397102E+00 0.17559943E+04</pdfrwt>
<pdfrwt beam="2">  1       -4 0.13803706E+00 0.17559943E+04</pdfrwt>
<totfact> 0.42576695E-01</totfact>
</mgrwt>
</event>
<event>
 8    1  0.1287848E-011  0.2106511E+04  0.7818608E-02  0.8558381E-01
         -4   -1    0    0    0  501 -0.00000000000E+00  0.00000000000E+00  0.63433787632E+03  0.63433914764E+03  0.12700000000E+01 0. -1.
          4   -1    0    0  501    0  0.00000000000E+00 -0.00000000000E+00 -0.17488239774E+04  0.17488244386E+04  0.12700000000E+01 0.  1.
     200001    2    1    2    0    0 -0.50388612372E+02  0.72576648607E+03 -0.22133992685E+03  0.10352073209E+04  0.70241499804E+03 0.  0.
    5000001    2    3    3    0    0 -0.41565251409E+01  0.17925918475E+03 -0.55544830186E+02  0.27474979390E+03  0.20062674067E+03 0.  0.
        -11    1    4    4    0    0 -0.32050933912E+02  0.13064498176E+03  0.56518733956E+02  0.14591004390E+03  0.51100000000E-03 0. -1.
     200002    1    4    4    0    0  0.27894408771E+02  0.48614202991E+02 -0.11206356414E+03  0.12883975000E+03  0.30000000000E+02 0. -1.
     200000    1    3    3    0    0 -0.46232087231E+02  0.54650730133E+03 -0.16579509666E+03  0.76045752700E+03  0.50000000000E+03 0.  1.
    -200001    1    1    2    0    0  0.50388612372E+02 -0.72576648607E+03 -0.89314617426E+03  0.13479562653E+04  0.70000000000E+03 0. -1.
<mgrwt>
<rscale>  0 0.21065112E+04</rscale>
<asrwt>0</asrwt>
<pdfrwt beam="1">  1        4 0.24983212E+00 0.21065112E+04</pdfrwt>
<pdfrwt beam="2">  1       -4 0.90619821E-01 0.21065112E+04</pdfrwt>
<totfact> 0.12243469E-01</totfact>
</mgrwt>
</event>
<event>
 8    1  0.1287848E-011  0.1505364E+04  0.7818608E-02  0.8880894E-01
         -4   -1    0    0    0  501 -0.00000000000E+00  0.00000000000E+00  0.15696009451E+04  0.15696014589E+04  0.12700000000E+01 0.  1.
          4   -1    0    0  501    0  0.00000000000E+00 -0.00000000000E+00 -0.36093748046E+03  0.36093971477E+03  0.12700000000E+01 0. -1.
     200001    2    1    2    0    0 -0.11998026451E+03 -0.24426668077E+03  0.67977672141E+03  0.10119647412E+04  0.69850896284E+03 0.  0.
    5000001    2    3    3    0    0 -0.63242816899E+02 -0.63986019216E+02  0.30875617338E+03  0.36129085821E+03  0.16464156547E+03 0.  0.
        -11    1    4    4    0    0  0.17669482281E+02 -0.92219127647E+02  0.18866389845E+03  0.21073833227E+03  0.51100000000E-03 0. -1.
     200002    1    4    4    0    0 -0.80912299180E+02  0.28233108430E+02  0.12009227493E+03  0.15055252594E+03  0.30000000000E+02 0. -1.
     200000    1    3    3    0    0 -0.56737447606E+02 -0.18028066155E+03  0.37102054803E+03  0.65067388295E+03  0.50000000000E+03 0. -1.
    -200001    1    1    2    0    0  0.11998026451E+03  0.24426668077E+03  0.52888674324E+03  0.91857643252E+03  0.70000000000E+03 0.  1.
<mgrwt>
<rscale>  0 0.15053644E+04</rscale>
<asrwt>0</asrwt>
<pdfrwt beam="1">  1        4 0.51562694E-01 0.15053644E+04</pdfrwt>
<pdfrwt beam="2">  1       -4 0.22422890E+00 0.15053644E+04</pdfrwt>
<totfact> 0.64490694E-01</totfact>
</mgrwt>
</event>
<event>
 8    1  0.1287848E-011  0.1414082E+04  0.7818608E-02  0.8943688E-01
         -4   -1    0    0    0  501 -0.00000000000E+00  0.00000000000E+00  0.14541747526E+04  0.14541753071E+04  0.12700000000E+01 0. -1.
          4   -1    0    0  501    0  0.00000000000E+00 -0.00000000000E+00 -0.34377172042E+03  0.34377406630E+03  0.12700000000E+01 0.  1.
     200001    2    1    2    0    0  0.20086190215E+02 -0.96885343205E+02  0.56583594951E+03  0.90556855099E+03  0.70006703538E+03 0.  0.
    5000001    2    3    3    0    0 -0.10678249786E+03  0.11148487854E+02  0.14206300404E+03  0.22929162400E+03  0.14445054895E+03 0.  0.
        -11    1    4    4    0    0 -0.88246078891E+02  0.64527326259E+01  0.16481381707E+03  0.18706309763E+03  0.51100000000E-03 0. -1.
     200002    1    4    4    0    0 -0.18536418966E+02  0.46957552278E+01 -0.22750813038E+02  0.42228526367E+02  0.30000000000E+02 0. -1.
     200000    1    3    3    0    0  0.12686868807E+03 -0.10803383106E+03  0.42377294548E+03  0.67627692699E+03  0.50000000000E+03 0.  1.
    -200001    1    1    2    0    0 -0.20086190215E+02  0.96885343205E+02  0.54456708263E+03  0.89238082244E+03  0.70000000000E+03 0. -1.
<mgrwt>
<rscale>  0 0.14140817E+04</rscale>
<asrwt>0</asrwt>
<pdfrwt beam="1">  1        4 0.49110452E-01 0.14140817E+04</pdfrwt>
<pdfrwt beam="2">  1       -4 0.20773946E+00 0.14140817E+04</pdfrwt>
<totfact> 0.91671790E-01</totfact>
</mgrwt>
</event>
<event>
 8    1  0.1287848E-011  0.1816039E+04  0.7818608E-02  0.8697816E-01
          4   -1    0    0  501    0  0.00000000000E+00  0.00000000000E+00  0.39661294245E+03  0.39661497579E+03  0.12700000000E+01 0. -1.
         -4   -1    0    0    0  501 -0.00000000000E+00 -0.00000000000E+00 -0.20788448889E+04  0.20788452768E+04  0.12700000000E+01 0.  1.
     200001    2    1    2    0    0 -0.39890629432E+03 -0.13124556079E+03 -0.29737466574E+03  0.86792135207E+03  0.69893072094E+03 0.  0.
    5000001    2    3    3    0    0 -0.25156336423E+03  0.15702827765E+02 -0.15074219312E+03  0.30684662445E+03  0.88887215753E+02 0.  0.
        -11    1    4    4    0    0 -0.18839994637E+03  0.26228540386E+01 -0.74615515032E+02  0.20265461811E+03  0.51100000000E-03 0. -1.
     200002    1    4    4    0    0 -0.63163417859E+02  0.13079973727E+02 -0.76126678087E+02  0.10419200634E+03  0.30000000000E+02 0. -1.
     200000    1    3    3    0    0 -0.14734293008E+03 -0.14694838856E+03 -0.14663247262E+03  0.56107472762E+03  0.50000000000E+03 0. -1.
    -200001    1    1    2    0    0  0.39890629432E+03  0.13124556079E+03 -0.13848572807E+04  0.16075389006E+04  0.70000000000E+03 0.  1.
<mgrwt>
<rscale>  0 0.18160394E+04</rscale>
<asrwt>0</asrwt>
<pdfrwt beam="1">  1        4 0.56659166E-01 0.18160394E+04</pdfrwt>
<pdfrwt beam="2">  1       -4 0.29697801E+00 0.18160394E+04</pdfrwt>
<totfact> 0.18207868E-01</totfact>
</mgrwt>
</event>
<event>
 8    1  0.1287848E-011  0.1521502E+04  0.7818608E-02  0.8870279E-01
          4   -1    0    0  501    0  0.00000000000E+00  0.00000000000E+00  0.16403914652E+04  0.16403919568E+04  0.12700000000E+01 0.  1.
         -4   -1    0    0    0  501 -0.00000000000E+00 -0.00000000000E+00 -0.35280567698E+03  0.35280796279E+03  0.12700000000E+01 0. -1.
     200001    2    1    2    0    0  0.77234013717E+02  0.78593488892E+02  0.28227801983E+03  0.76324636822E+03  0.70051560208E+03 0.  0.
    5000001    2    3    3    0    0  0.29157543599E+02  0.26191009636E+02  0.11578831100E+03  0.23147932340E+03  0.19656961328E+03 0.  0.
        -11    1    4    4    0    0 -0.15839896601E+02  0.56039563204E+02 -0.35405683586E+02  0.68153484129E+02  0.51100000000E-03 0. -1.
     200002    1    4    4    0    0  0.44997440200E+02 -0.29848553567E+02  0.15119399459E+03  0.16332583928E+03  0.30000000000E+02 0. -1.
     200000    1    3    3    0    0  0.48076470118E+02  0.52402479256E+02  0.16648970882E+03  0.53176704482E+03  0.50000000000E+03 0. -1.
    -200001    1    1    2    0    0 -0.77234013717E+02 -0.78593488892E+02  0.10053077683E+04  0.12299535513E+04  0.70000000000E+03 0.  1.
<mgrwt>
<rscale>  0 0.15215021E+04</rscale>
<asrwt>0</asrwt>
<pdfrwt beam="1">  1        4 0.23434184E+00 0.15215021E+04</pdfrwt>
<pdfrwt beam="2">  1       -4 0.50401008E-01 0.15215021E+04</pdfrwt>
<totfact> 0.58339737E-01</totfact>
</mgrwt>
</event>
<event>
 8    1  0.1287848E-011  0.1475265E+04  0.7818608E-02  0.8901070E-01
          4   -1    0    0  501    0  0.00000000000E+00  0.00000000000E+00  0.33546182736E+03  0.33546423136E+03  0.12700000000E+01 0.  1.
         -4   -1    0    0    0  501 -0.00000000000E+00 -0.00000000000E+00 -0.16219392213E+04  0.16219397185E+04  0.12700000000E+01 0. -1.
     200001    2    1    2    0    0  0.21288429051E+03 -0.92647461494E+02 -0.65738209770E+03  0.98804118752E+03  0.70012205550E+03 0.  0.
    5000001    2    3    3    0    0  0.15014978535E+03 -0.62715459505E+02 -0.21594867788E+03  0.31744816115E+03  0.16631691627E+03 0.  0.
        -11    1    4    4    0    0  0.35490969889E+02 -0.69817622250E+02 -0.89695710227E+01  0.78832496629E+02  0.51100000000E-03 0. -1.
     200002    1    4    4    0    0  0.11465881547E+03  0.71021627446E+01 -0.20697910686E+03  0.23861566452E+03  0.30000000000E+02 0. -1.
     200000    1    3    3    0    0  0.62734505152E+02 -0.29932001989E+02 -0.44143341982E+03  0.67059302637E+03  0.50000000000E+03 0.  1.
    -200001    1    1    2    0    0 -0.21288429051E+03  0.92647461494E+02 -0.62909529621E+03  0.96936276232E+03  0.70000000000E+03 0. -1.
<mgrwt>
<rscale>  0 0.14752648E+04</rscale>
<asrwt>0</asrwt>
<pdfrwt beam="1">  1        4 0.47923326E-01 0.14752648E+04</pdfrwt>
<pdfrwt beam="2">  1       -4 0.23170581E+00 0.14752648E+04</pdfrwt>
<totfact> 0.67535538E-01</totfact>
</mgrwt>
</event>
<event>
 8    1  0.1287848E-011  0.1718199E+04  0.7818608E-02  0.8751053E-01
          4   -1    0    0  501    0  0.00000000000E+00  0.00000000000E+00  0.15221521281E+04  0.15221526579E+04  0.12700000000E+01 0.  1.
         -4   -1    0    0    0  501 -0.00000000000E+00 -0.00000000000E+00 -0.48487231516E+03  0.48487397838E+03  0.12700000000E+01 0. -1.
     200001    2    1    2    0    0  0.28791391245E+03 -0.28955672467E+02  0.99196993054E+03  0.12482211029E+04  0.70022762497E+03 0.  0.
    5000001    2    3    3    0    0  0.11428827100E+03 -0.49553898261E+02  0.27517570568E+03  0.35695003807E+03  0.19019532844E+03 0.  0.
        -11    1    4    4    0    0  0.12457474384E+03 -0.26072089303E+01  0.67552410659E+02  0.14173564311E+03  0.51100000000E-03 0. -1.
     200002    1    4    4    0    0 -0.10286472837E+02 -0.46946689331E+02  0.20762329503E+03  0.21521439496E+03  0.30000000000E+02 0. -1.
     200000    1    3    3    0    0  0.17362564145E+03  0.20598225795E+02  0.71679422485E+03  0.89127106486E+03  0.50000000000E+03 0.  1.
    -200001    1    1    2    0    0 -0.28791391245E+03  0.28955672467E+02  0.45309882366E+02  0.75880553332E+03  0.70000000000E+03 0. -1.
<mgrwt>
<rscale>  0 0.17181986E+04</rscale>
<asrwt>0</asrwt>
<pdfrwt beam="1">  1        4 0.21745046E+00 0.17181986E+04</pdfrwt>
<pdfrwt beam="2">  1       -4 0.69267631E-01 0.17181986E+04</pdfrwt>
<totfact> 0.37151851E-01</totfact>
</mgrwt>
</event>
<event>
 8    1  0.1287848E-011  0.2300372E+04  0.7818608E-02  0.8477774E-01
          4   -1    0    0  501    0  0.00000000000E+00  0.00000000000E+00  0.11470802115E+04  0.11470809146E+04  0.12700000000E+01 0.  1.
         -4   -1    0    0    0  501 -0.00000000000E+00 -0.00000000000E+00 -0.11532989930E+04  0.11532996922E+04  0.12700000000E+01 0. -1.
     200001    2    1    2    0    0 -0.74700529314E+03  0.33146210815E+03  0.40292160191E+03  0.11491725933E+04  0.70026266126E+03 0.  0.
    5000001    2    3    3    0    0 -0.10913088853E+03  0.94423491210E+02  0.93202418928E+02  0.24972996906E+03  0.18125402072E+03 0.  0.
        -11    1    4    4    0    0 -0.78320848226E+02  0.86685802699E+02  0.14222877748E+03  0.18405871020E+03  0.51100000000E-03 0. -1.
     200002    1    4    4    0    0 -0.30810040307E+02  0.77376885112E+01 -0.49026358551E+02  0.65671258858E+02  0.30000000000E+02 0. -1.
     200000    1    3    3    0    0 -0.63787440460E+03  0.23703861694E+03  0.30971918298E+03  0.89944262423E+03  0.50000000000E+03 0.  1.
    -200001    1    1    2    0    0  0.74700529314E+03 -0.33146210815E+03 -0.40914038337E+03  0.11512080135E+04  0.70000000000E+03 0. -1.
<mgrwt>
<rscale>  0 0.23003722E+04</rscale>
<asrwt>0</asrwt>
<pdfrwt beam="1">  1        4 0.16386870E+00 0.23003722E+04</pdfrwt>
<pdfrwt beam="2">  1       -4 0.16475710E+00 0.23003722E+04</pdfrwt>
<totfact> 0.98871348E-02</totfact>
</mgrwt>
</event>
<event>
 8    1  0.1287848E-011  0.1672949E+04  0.7818608E-02  0.8776945E-01
         -4   -1    0    0    0  501 -0.00000000000E+00  0.00000000000E+00  0.76321328721E+03  0.76321434386E+03  0.12700000000E+01 0. -1.
          4   -1    0    0  501    0  0.00000000000E+00 -0.00000000000E+00 -0.91676604521E+03  0.91676692487E+03  0.12700000000E+01 0.  1.
     200001    2    1    2    0    0  0.26729447174E+03  0.32092451990E+03  0.11103205143E+03  0.82298418386E+03  0.70038272990E+03 0.  0.
    5000001    2    3    3    0    0  0.16462820075E+03  0.58315003451E+02 -0.71862726515E+02  0.22052703092E+03  0.11386323285E+03 0.  0.
        -11    1    4    4    0    0  0.88692230250E+02  0.84036669791E+02 -0.33297958008E+02  0.12663817586E+03  0.51100000000E-03 0. -1.
     200002    1    4    4    0    0  0.75935970501E+02 -0.25721666340E+02 -0.38564768507E+02  0.93888855064E+02  0.30000000000E+02 0. -1.
     200000    1    3    3    0    0  0.10266627099E+03  0.26260951645E+03  0.18289477795E+03  0.60245715294E+03  0.50000000000E+03 0. -1.
    -200001    1    1    2    0    0 -0.26729447174E+03 -0.32092451990E+03 -0.26458480943E+03  0.85699708487E+03  0.70000000000E+03 0.  1.
<mgrwt>
<rscale>  0 0.16729491E+04</rscale>
<asrwt>0</asrwt>
<pdfrwt beam="1">  1        4 0.13096672E+00 0.16729491E+04</pdfrwt>
<pdfrwt beam="2">  1       -4 0.10903061E+00 0.16729491E+04</pdfrwt>
<totfact> 0.54638657E-01</totfact>
</mgrwt>
</event>
<event>
 8    1  0.1287848E-011  0.2128939E+04  0.7818608E-02  0.8548602E-01
          4   -1    0    0  501    0  0.00000000000E+00  0.00000000000E+00  0.12105790899E+04  0.12105797560E+04  0.12700000000E+01 0.  1.
         -4   -1    0    0    0  501 -0.00000000000E+00 -0.00000000000E+00 -0.93599287324E+03  0.93599373484E+03  0.12700000000E+01 0. -1.
     200001    2    1    2    0    0  0.56263213775E+03 -0.22160793374E+03  0.66860874391E+03  0.11411289371E+04  0.69962318420E+03 0.  0.
    5000001    2    3    3    0    0  0.93628364504E+02  0.15688317476E+02  0.24388568671E+03  0.30049600560E+03  0.14766593127E+03 0.  0.
        -11    1    4    4    0    0 -0.95391971388E+01 -0.92810027461E+01 -0.14420749375E+02  0.19623743446E+02  0.51100000000E-03 0. -1.
     200002    1    4    4    0    0  0.10316756164E+03  0.24969320222E+02  0.25830643608E+03  0.28087226216E+03  0.30000000000E+02 0. -1.
     200000    1    3    3    0    0  0.46900377325E+03 -0.23729625122E+03  0.42472305720E+03  0.84063293148E+03  0.50000000000E+03 0.  1.
    -200001    1    1    2    0    0 -0.56263213775E+03  0.22160793374E+03 -0.39402252729E+03  0.10054445538E+04  0.70000000000E+03 0. -1.
<mgrwt>
<rscale>  0 0.21289387E+04</rscale>
<asrwt>0</asrwt>
<pdfrwt beam="1">  1        4 0.17293998E+00 0.21289387E+04</pdfrwt>
<pdfrwt beam="2">  1       -4 0.13371338E+00 0.21289387E+04</pdfrwt>
<totfact> 0.15045672E-01</totfact>
</mgrwt>
</event>
<event>
 8    1  0.1287848E-011  0.1673130E+04  0.7818608E-02  0.8776839E-01
          4   -1    0    0  501    0  0.00000000000E+00  0.00000000000E+00  0.83663955014E+03  0.83664051406E+03  0.12700000000E+01 0.  1.
         -4   -1    0    0    0  501 -0.00000000000E+00 -0.00000000000E+00 -0.83648895650E+03  0.83648992059E+03  0.12700000000E+01 0. -1.
     200001    2    1    2    0    0 -0.22827062415E+03  0.29002916427E+03  0.27341476065E+03  0.83593410227E+03  0.69843095437E+03 0.  0.
    5000001    2    3    3    0    0  0.16843014293E+02 -0.74238562246E+01  0.15779947087E+03  0.19411957269E+03  0.11154790326E+03 0.  0.
        -11    1    4    4    0    0 -0.15631266144E+02  0.37823737162E+02  0.27594278078E+02  0.49360062369E+02  0.51100000000E-03 0. -1.
     200002    1    4    4    0    0  0.32474280438E+02 -0.45247593386E+02  0.13020519280E+03  0.14475951032E+03  0.30000000000E+02 0. -1.
     200000    1    3    3    0    0 -0.24511363844E+03  0.29745302049E+03  0.11561528978E+03  0.64181452958E+03  0.50000000000E+03 0. -1.
    -200001    1    1    2    0    0  0.22827062415E+03 -0.29002916427E+03 -0.27326416701E+03  0.83719633238E+03  0.70000000000E+03 0. -1.
<mgrwt>
<rscale>  0 0.16731304E+04</rscale>
<asrwt>0</asrwt>
<pdfrwt beam="1">  1        4 0.11952007E+00 0.16731304E+04</pdfrwt>
<pdfrwt beam="2">  1       -4 0.11949856E+00 0.16731304E+04</pdfrwt>
<totfact> 0.54959393E-01</totfact>
</mgrwt>
</event>
<event>
 8    1  0.1287848E-011  0.1869108E+04  0.7818608E-02  0.8670388E-01
          4   -1    0    0  501    0  0.00000000000E+00  0.00000000000E+00  0.33364321593E+03  0.33364563302E+03  0.12700000000E+01 0.  1.
         -4   -1    0    0    0  501 -0.00000000000E+00 -0.00000000000E+00 -0.26177270337E+04  0.26177273418E+04  0.12700000000E+01 0. -1.
     200001    2    1    2    0    0 -0.52237810604E+03 -0.26196253708E+03 -0.81827701898E+03  0.12250784380E+04  0.69981186249E+03 0.  0.
    5000001    2    3    3    0    0 -0.19037457206E+03 -0.45506572031E+02 -0.28361155262E+03  0.39264424099E+03  0.18820377631E+03 0.  0.
        -11    1    4    4    0    0 -0.12214933227E+03 -0.47718810989E+02 -0.38843398371E+02  0.13677117348E+03  0.51100000000E-03 0. -1.
     200002    1    4    4    0    0 -0.68225239787E+02  0.22122389576E+01 -0.24476815424E+03  0.25587306751E+03  0.30000000000E+02 0. -1.
     200000    1    3    3    0    0 -0.33200353398E+03 -0.21645596505E+03 -0.53466546636E+03  0.83243419698E+03  0.50000000000E+03 0.  1.
    -200001    1    1    2    0    0  0.52237810604E+03  0.26196253708E+03 -0.14658067988E+04  0.17262945368E+04  0.70000000000E+03 0. -1.
<mgrwt>
<rscale>  0 0.18691077E+04</rscale>
<asrwt>0</asrwt>
<pdfrwt beam="1">  1        4 0.47663513E-01 0.18691077E+04</pdfrwt>
<pdfrwt beam="2">  1       -4 0.37396119E+00 0.18691077E+04</pdfrwt>
<totfact> 0.83374501E-02</totfact>
</mgrwt>
</event>
<event>
 8    1  0.1287848E-011  0.1659214E+04  0.7818608E-02  0.8784974E-01
          4   -1    0    0  501    0  0.00000000000E+00  0.00000000000E+00  0.12783704198E+04  0.12783710506E+04  0.12700000000E+01 0.  1.
         -4   -1    0    0    0  501 -0.00000000000E+00 -0.00000000000E+00 -0.53837770060E+03  0.53837919852E+03  0.12700000000E+01 0. -1.
     200001    2    1    2    0    0 -0.18724456809E+03 -0.22809565614E+03  0.86702024093E+01  0.76227370595E+03  0.70277868048E+03 0.  0.
    5000001    2    3    3    0    0 -0.45458113511E+02 -0.16986546120E+03  0.42331521440E+02  0.23822481634E+03  0.15504318888E+03 0.  0.
        -11    1    4    4    0    0  0.37546862867E+02 -0.94469669239E+02 -0.24107326168E+02  0.10447702375E+03  0.51100000000E-03 0. -1.
     200002    1    4    4    0    0 -0.83004976378E+02 -0.75395791962E+02  0.66438847608E+02  0.13374779258E+03  0.30000000000E+02 0. -1.
     200000    1    3    3    0    0 -0.14178645458E+03 -0.58230194936E+02 -0.33661319031E+02  0.52404888961E+03  0.50000000000E+03 0. -1.
    -200001    1    1    2    0    0  0.18724456809E+03  0.22809565614E+03  0.73132251680E+03  0.10544765432E+04  0.70000000000E+03 0.  1.
<mgrwt>
<rscale>  0 0.16592143E+04</rscale>
<asrwt>0</asrwt>
<pdfrwt beam="1">  1        4 0.18262450E+00 0.16592143E+04</pdfrwt>
<pdfrwt beam="2">  1       -4 0.76911253E-01 0.16592143E+04</pdfrwt>
<totfact> 0.50258870E-01</totfact>
</mgrwt>
</event>
<event>
 8    1  0.1287848E-011  0.1618094E+04  0.7818608E-02  0.8809509E-01
          4   -1    0    0  501    0  0.00000000000E+00  0.00000000000E+00  0.10185579938E+04  0.10185587856E+04  0.12700000000E+01 0.  1.
         -4   -1    0    0    0  501 -0.00000000000E+00 -0.00000000000E+00 -0.64262941714E+03  0.64263067206E+03  0.12700000000E+01 0. -1.
     200001    2    1    2    0    0 -0.23183767165E+03  0.86137641045E+02 -0.14118764944E+03  0.75643667895E+03  0.70078106261E+03 0.  0.
    5000001    2    3    3    0    0 -0.19586597095E+02  0.55543157209E+02 -0.19002698613E+02  0.19883852320E+03  0.18896290285E+03 0.  0.
        -11    1    4    4    0    0 -0.44803930267E+01  0.11255596553E+03 -0.52947677130E+02  0.12446837273E+03  0.51100000000E-03 0. -1.
     200002    1    4    4    0    0 -0.15106204068E+02 -0.57012808318E+02  0.33944978518E+02  0.74370150466E+02  0.30000000000E+02 0. -1.
     200000    1    3    3    0    0 -0.21225107455E+03  0.30594483836E+02 -0.12218495083E+03  0.55759815575E+03  0.50000000000E+03 0. -1.
    -200001    1    1    2    0    0  0.23183767165E+03 -0.86137641045E+02  0.51711622611E+03  0.90475277867E+03  0.70000000000E+03 0.  1.
<mgrwt>
<rscale>  0 0.16180940E+04</rscale>
<asrwt>0</asrwt>
<pdfrwt beam="1">  1        4 0.14550843E+00 0.16180940E+04</pdfrwt>
<pdfrwt beam="2">  1       -4 0.91804349E-01 0.16180940E+04</pdfrwt>
<totfact> 0.62907813E-01</totfact>
</mgrwt>
</event>
<event>
 8    1  0.1287848E-011  0.1843285E+04  0.7818608E-02  0.8683614E-01
          4   -1    0    0  501    0  0.00000000000E+00  0.00000000000E+00  0.57272088009E+03  0.57272228820E+03  0.12700000000E+01 0.  1.
         -4   -1    0    0    0  501 -0.00000000000E+00 -0.00000000000E+00 -0.14831362729E+04  0.14831368167E+04  0.12700000000E+01 0. -1.
     200001    2    1    2    0    0 -0.19985326741E+02 -0.41609792004E+03 -0.93648985629E+03  0.12408641540E+04  0.69942383816E+03 0.  0.
    5000001    2    3    3    0    0  0.20096786427E+02 -0.21632946143E+03 -0.30118535604E+03  0.40712209503E+03  0.16683364427E+03 0.  0.
        -11    1    4    4    0    0  0.62871892683E+01 -0.13905220504E+03 -0.59745737103E+02  0.15147474237E+03  0.51100000000E-03 0. -1.
     200002    1    4    4    0    0  0.13809597159E+02 -0.77277256391E+02 -0.24143961893E+03  0.25564735265E+03  0.30000000000E+02 0. -1.
     200000    1    3    3    0    0 -0.40082113168E+02 -0.19976845861E+03 -0.63530450025E+03  0.83374205897E+03  0.50000000000E+03 0. -1.
    -200001    1    1    2    0    0  0.19985326741E+02  0.41609792004E+03  0.26074463432E+02  0.81499495090E+03  0.70000000000E+03 0.  1.
<mgrwt>
<rscale>  0 0.18432852E+04</rscale>
<asrwt>0</asrwt>
<pdfrwt beam="1">  1        4 0.81817409E-01 0.18432852E+04</pdfrwt>
<pdfrwt beam="2">  1       -4 0.21187675E+00 0.18432852E+04</pdfrwt>
<totfact> 0.27502985E-01</totfact>
</mgrwt>
</event>
<event>
 8    1  0.1287848E-011  0.1648677E+04  0.7818608E-02  0.8791190E-01
          4   -1    0    0  501    0  0.00000000000E+00  0.00000000000E+00  0.55558423355E+03  0.55558568509E+03  0.12700000000E+01 0.  1.
         -4   -1    0    0    0  501 -0.00000000000E+00 -0.00000000000E+00 -0.12230942641E+04  0.12230949234E+04  0.12700000000E+01 0. -1.
     200001    2    1    2    0    0 -0.34423643466E+03 -0.22219092056E+03 -0.18000164547E+03  0.83235510764E+03  0.70181685981E+03 0.  0.
    5000001    2    3    3    0    0 -0.10192517787E+03 -0.44849495499E+02 -0.10628132136E+03  0.24447806914E+03  0.18993048173E+03 0.  0.
        -11    1    4    4    0    0  0.37191543564E+02  0.32104164372E+02  0.30283218610E+01  0.49224577360E+02  0.51100000000E-03 0. -1.
     200002    1    4    4    0    0 -0.13911672144E+03 -0.76953659871E+02 -0.10930964322E+03  0.19525349178E+03  0.30000000000E+02 0. -1.
     200000    1    3    3    0    0 -0.24231125678E+03 -0.17734142506E+03 -0.73720324109E+02  0.58787703850E+03  0.50000000000E+03 0.  1.
    -200001    1    1    2    0    0  0.34423643466E+03  0.22219092056E+03 -0.48750838506E+03  0.94632550089E+03  0.70000000000E+03 0. -1.
<mgrwt>
<rscale>  0 0.16486768E+04</rscale>
<asrwt>0</asrwt>
<pdfrwt beam="1">  1        4 0.79369327E-01 0.16486768E+04</pdfrwt>
<pdfrwt beam="2">  1       -4 0.17472790E+00 0.16486768E+04</pdfrwt>
<totfact> 0.53189823E-01</totfact>
</mgrwt>
</event>
<event>
 8    1  0.1287848E-011  0.1568437E+04  0.7818608E-02  0.8840176E-01
          4   -1    0    0  501    0  0.00000000000E+00  0.00000000000E+00  0.10232919956E+04  0.10232927837E+04  0.12700000000E+01 0.  1.
         -4   -1    0    0    0  501 -0.00000000000E+00 -0.00000000000E+00 -0.60099872870E+03  0.60100007054E+03  0.12700000000E+01 0. -1.
     200001    2    1    2    0    0  0.35285862953E+03 -0.46057698720E+01  0.24600456813E+03  0.82079541745E+03  0.69903965854E+03 0.  0.
    5000001    2    3    3    0    0  0.17905223718E+03  0.69581681377E+01  0.59714249241E+02  0.25950541256E+03  0.17795827556E+03 0.  0.
        -11    1    4    4    0    0  0.40832427285E+02 -0.67274623254E+02 -0.19690854125E+02  0.81122695889E+02  0.51100000000E-03 0. -1.
     200002    1    4    4    0    0  0.13821980989E+03  0.74232791391E+02  0.79405103365E+02  0.17838271667E+03  0.30000000000E+02 0. -1.
     200000    1    3    3    0    0  0.17380639235E+03 -0.11563938010E+02  0.18629031889E+03  0.56129000490E+03  0.50000000000E+03 0.  1.
    -200001    1    1    2    0    0 -0.35285862953E+03  0.46057698720E+01  0.17628869873E+03  0.80349743674E+03  0.70000000000E+03 0.  1.
<mgrwt>
<rscale>  0 0.15684373E+04</rscale>
<asrwt>0</asrwt>
<pdfrwt beam="1">  1        4 0.14618472E+00 0.15684373E+04</pdfrwt>
<pdfrwt beam="2">  1       -4 0.85857114E-01 0.15684373E+04</pdfrwt>
<totfact> 0.72840589E-01</totfact>
</mgrwt>
</event>
<event>
 8    1  0.1287848E-011  0.1594380E+04  0.7818608E-02  0.8824008E-01
          4   -1    0    0  501    0  0.00000000000E+00  0.00000000000E+00  0.11685935930E+04  0.11685942831E+04  0.12700000000E+01 0.  1.
         -4   -1    0    0    0  501 -0.00000000000E+00 -0.00000000000E+00 -0.54382496509E+03  0.54382644801E+03  0.12700000000E+01 0. -1.
     200001    2    1    2    0    0 -0.18852495098E+03  0.31966894389E+03  0.21780941780E+03  0.82172118049E+03  0.70003918830E+03 0.  0.
    5000001    2    3    3    0    0 -0.13460731736E+03  0.12256825641E+03  0.46303152238E+02  0.25500238660E+03  0.17245326294E+03 0.  0.
        -11    1    4    4    0    0 -0.66231883450E+02  0.11475131236E+03 -0.42100723264E+02  0.13902157017E+03  0.51100000000E-03 0. -1.
     200002    1    4    4    0    0 -0.68375433909E+02  0.78169440564E+01  0.88403875502E+02  0.11598081643E+03  0.30000000000E+02 0. -1.
     200000    1    3    3    0    0 -0.53917633619E+02  0.19710068748E+03  0.17150626556E+03  0.56671879389E+03  0.50000000000E+03 0. -1.
    -200001    1    1    2    0    0  0.18852495098E+03 -0.31966894389E+03  0.40695921014E+03  0.89069955066E+03  0.70000000000E+03 0.  1.
<mgrwt>
<rscale>  0 0.15943804E+04</rscale>
<asrwt>0</asrwt>
<pdfrwt beam="1">  1        4 0.16694210E+00 0.15943804E+04</pdfrwt>
<pdfrwt beam="2">  1       -4 0.77689435E-01 0.15943804E+04</pdfrwt>
<totfact> 0.63705360E-01</totfact>
</mgrwt>
</event>
<event>
 8    1  0.1287848E-011  0.1842724E+04  0.7818608E-02  0.8683904E-01
          4   -1    0    0  501    0  0.00000000000E+00  0.00000000000E+00  0.62142989040E+03  0.62143118813E+03  0.12700000000E+01 0.  1.
         -4   -1    0    0    0  501 -0.00000000000E+00 -0.00000000000E+00 -0.13660524067E+04  0.13660529971E+04  0.12700000000E+01 0. -1.
     200001    2    1    2    0    0  0.51061564936E+03 -0.30839372589E+03 -0.31009401828E+03  0.97030669473E+03  0.69964401671E+03 0.  0.
    5000001    2    3    3    0    0  0.15378847659E+03 -0.27755785152E+02 -0.20794253033E+03  0.28728531036E+03  0.12194865514E+03 0.  0.
        -11    1    4    4    0    0 -0.97385297362E+01  0.20761098458E+02 -0.39600774434E+02  0.45761157182E+02  0.51100000000E-03 0. -1.
     200002    1    4    4    0    0  0.16352700632E+03 -0.48516883610E+02 -0.16834175589E+03  0.24152415318E+03  0.30000000000E+02 0. -1.
     200000    1    3    3    0    0  0.35682717277E+03 -0.28063794074E+03 -0.10215148796E+03  0.68302138437E+03  0.50000000000E+03 0.  1.
    -200001    1    1    2    0    0 -0.51061564936E+03  0.30839372589E+03 -0.43452849806E+03  0.10171774905E+04  0.70000000000E+03 0. -1.
<mgrwt>
<rscale>  0 0.18427237E+04</rscale>
<asrwt>0</asrwt>
<pdfrwt beam="1">  1        4 0.88775834E-01 0.18427237E+04</pdfrwt>
<pdfrwt beam="2">  1       -4 0.19515048E+00 0.18427237E+04</pdfrwt>
<totfact> 0.29360758E-01</totfact>
</mgrwt>
</event>
<event>
 8    1  0.1287848E-011  0.1664295E+04  0.7818608E-02  0.8781994E-01
          4   -1    0    0  501    0  0.00000000000E+00  0.00000000000E+00  0.26932848484E+04  0.26932851478E+04  0.12700000000E+01 0.  1.
         -4   -1    0    0    0  501 -0.00000000000E+00 -0.00000000000E+00 -0.25710773092E+03  0.25711086752E+03  0.12700000000E+01 0. -1.
     200001    2    1    2    0    0 -0.15190533011E+03  0.17151551295E+03  0.19025692852E+04  0.20408740974E+04  0.70207150344E+03 0.  0.
    5000001    2    3    3    0    0 -0.59901255265E+02  0.85212434580E+02  0.70546860878E+03  0.73743134813E+03  0.18780233185E+03 0.  0.
        -11    1    4    4    0    0 -0.62263358086E+02  0.83491964450E+02  0.15865022517E+03  0.18978284389E+03  0.51100000000E-03 0. -1.
     200002    1    4    4    0    0  0.23621028213E+01  0.17204701299E+01  0.54681838361E+03  0.54764850424E+03  0.30000000000E+02 0. -1.
     200000    1    3    3    0    0 -0.92004074841E+02  0.86303078365E+02  0.11971006765E+04  0.13034427493E+04  0.50000000000E+03 0.  1.
    -200001    1    1    2    0    0  0.15190533011E+03 -0.17151551295E+03  0.53360783219E+03  0.90952191786E+03  0.70000000000E+03 0. -1.
<mgrwt>
<rscale>  0 0.16642950E+04</rscale>
<asrwt>0</asrwt>
<pdfrwt beam="1">  1        4 0.38475523E+00 0.16642950E+04</pdfrwt>
<pdfrwt beam="2">  1       -4 0.36729921E-01 0.16642950E+04</pdfrwt>
<totfact> 0.12194300E-01</totfact>
</mgrwt>
</event>
<event>
 8    1  0.1287848E-011  0.1455203E+04  0.7818608E-02  0.8914801E-01
         -4   -1    0    0    0  501 -0.00000000000E+00  0.00000000000E+00  0.98695369770E+03  0.98695451481E+03  0.12700000000E+01 0. -1.
          4   -1    0    0  501    0  0.00000000000E+00 -0.00000000000E+00 -0.53640027647E+03  0.53640177992E+03  0.12700000000E+01 0.  1.
     200001    2    1    2    0    0  0.73588544292E+02 -0.17075175315E+03  0.25365869972E+03  0.77279719218E+03  0.70590461767E+03 0.  0.
    5000001    2    3    3    0    0 -0.22770891805E+02 -0.47309587553E+02  0.80652052946E+02  0.22102331730E+03  0.19897196425E+03 0.  0.
        -11    1    4    4    0    0  0.15637477949E+02 -0.35653153352E+02 -0.60105181214E+02  0.71612225699E+02  0.51100000000E-03 0. -1.
     200002    1    4    4    0    0 -0.38408369754E+02 -0.11656434202E+02  0.14075723416E+03  0.14941109160E+03  0.30000000000E+02 0. -1.
     200000    1    3    3    0    0  0.96359436098E+02 -0.12344216560E+03  0.17300664678E+03  0.55177387488E+03  0.50000000000E+03 0. -1.
    -200001    1    1    2    0    0 -0.73588544292E+02  0.17075175315E+03  0.19689472151E+03  0.75055910254E+03  0.70000000000E+03 0. -1.
<mgrwt>
<rscale>  0 0.14552031E+04</rscale>
<asrwt>0</asrwt>
<pdfrwt beam="1">  1        4 0.76628777E-01 0.14552031E+04</pdfrwt>
<pdfrwt beam="2">  1       -4 0.14099355E+00 0.14552031E+04</pdfrwt>
<totfact> 0.10458517E+00</totfact>
</mgrwt>
</event>
<event>
 8    1  0.1287848E-011  0.2207732E+04  0.7818608E-02  0.8515217E-01
         -4   -1    0    0    0  501 -0.00000000000E+00  0.00000000000E+00  0.13948882660E+04  0.13948888441E+04  0.12700000000E+01 0. -1.
          4   -1    0    0  501    0  0.00000000000E+00 -0.00000000000E+00 -0.87355963620E+03  0.87356055937E+03  0.12700000000E+01 0.  1.
     200001    2    1    2    0    0 -0.76861247149E+02  0.29360167011E+03 -0.55910200441E+03  0.94578544492E+03  0.69986103227E+03 0.  0.
    5000001    2    3    3    0    0  0.17360189980E+02  0.11396437793E+03 -0.91728518153E+02  0.23193307110E+03  0.17913562681E+03 0.  0.
        -11    1    4    4    0    0 -0.69629627249E+02  0.28624110348E+02  0.19770178010E+01  0.75309582948E+02  0.51100000000E-03 0. -1.
     200002    1    4    4    0    0  0.86989817229E+02  0.85340267582E+02 -0.93705535954E+02  0.15662348815E+03  0.30000000000E+02 0. -1.
     200000    1    3    3    0    0 -0.94221437129E+02  0.17963729218E+03 -0.46737348626E+03  0.71385237382E+03  0.50000000000E+03 0.  1.
    -200001    1    1    2    0    0  0.76861247149E+02 -0.29360167011E+03  0.10804306342E+04  0.13226639586E+04  0.70000000000E+03 0. -1.
<mgrwt>
<rscale>  0 0.22077317E+04</rscale>
<asrwt>0</asrwt>
<pdfrwt beam="1">  1        4 0.12479434E+00 0.22077317E+04</pdfrwt>
<pdfrwt beam="2">  1       -4 0.19926986E+00 0.22077317E+04</pdfrwt>
<totfact> 0.11760236E-01</totfact>
</mgrwt>
</event>
<event>
 8    1  0.1287848E-011  0.1447229E+04  0.7818608E-02  0.8920324E-01
          4   -1    0    0  501    0  0.00000000000E+00  0.00000000000E+00  0.87369594769E+03  0.87369687073E+03  0.12700000000E+01 0.  1.
         -4   -1    0    0    0  501 -0.00000000000E+00 -0.00000000000E+00 -0.59931200771E+03  0.59931335333E+03  0.12700000000E+01 0. -1.
     200001    2    1    2    0    0  0.15041984145E+03 -0.92760501163E+02  0.82765945775E+02  0.72605099158E+03  0.69933482776E+03 0.  0.
    5000001    2    3    3    0    0  0.94182329091E+02  0.40566502261E+02  0.13021375057E+03  0.20337514383E+03  0.11785531839E+03 0.  0.
        -11    1    4    4    0    0  0.59743061474E+02 -0.23447748193E+02  0.18561772537E+02  0.66809952025E+02  0.51100000000E-03 0. -1.
     200002    1    4    4    0    0  0.34439267617E+02  0.64014250454E+02  0.11165197803E+03  0.13656519181E+03  0.30000000000E+02 0. -1.
     200000    1    3    3    0    0  0.56237512361E+02 -0.13332700342E+03 -0.47447804792E+02  0.52267584775E+03  0.50000000000E+03 0. -1.
    -200001    1    1    2    0    0 -0.15041984145E+03  0.92760501163E+02  0.19161799421E+03  0.74695923248E+03  0.70000000000E+03 0.  1.
<mgrwt>
<rscale>  0 0.14472293E+04</rscale>
<asrwt>0</asrwt>
<pdfrwt beam="1">  1        4 0.12481387E+00 0.14472293E+04</pdfrwt>
<pdfrwt beam="2">  1       -4 0.85616164E-01 0.14472293E+04</pdfrwt>
<totfact> 0.11111373E+00</totfact>
</mgrwt>
</event>
<event>
 8    1  0.1287848E-011  0.1497330E+04  0.7818608E-02  0.8886231E-01
          4   -1    0    0  501    0  0.00000000000E+00  0.00000000000E+00  0.41520023806E+03  0.41520218038E+03  0.12700000000E+01 0. -1.
         -4   -1    0    0    0  501 -0.00000000000E+00 -0.00000000000E+00 -0.13499435277E+04  0.13499441251E+04  0.12700000000E+01 0.  1.
     200001    2    1    2    0    0 -0.48489952157E+02 -0.26122772725E+03 -0.43985382472E+03  0.86764600828E+03  0.69910443256E+03 0.  0.
    5000001    2    3    3    0    0 -0.81481036999E+01 -0.12046016163E+03 -0.10690446802E+03  0.24934329408E+03  0.19017484294E+03 0.  0.
        -11    1    4    4    0    0  0.85741315312E+02 -0.47831831373E+02 -0.72865880854E+02  0.12226566909E+03  0.51100000000E-03 0. -1.
     200002    1    4    4    0    0 -0.93889419012E+02 -0.72628330254E+02 -0.34038587164E+02  0.12707762499E+03  0.30000000000E+02 0. -1.
     200000    1    3    3    0    0 -0.40341848457E+02 -0.14076756562E+03 -0.33294935670E+03  0.61830271420E+03  0.50000000000E+03 0.  1.
    -200001    1    1    2    0    0  0.48489952157E+02  0.26122772725E+03 -0.49488946489E+03  0.89750029716E+03  0.70000000000E+03 0. -1.
<mgrwt>
<rscale>  0 0.14973298E+04</rscale>
<asrwt>0</asrwt>
<pdfrwt beam="1">  1        4 0.59314502E-01 0.14973298E+04</pdfrwt>
<pdfrwt beam="2">  1       -4 0.19284926E+00 0.14973298E+04</pdfrwt>
<totfact> 0.76707564E-01</totfact>
</mgrwt>
</event>
<event>
 8    1  0.1287848E-011  0.1992210E+04  0.7818608E-02  0.8610272E-01
          4   -1    0    0  501    0  0.00000000000E+00  0.00000000000E+00  0.52061874044E+03  0.52062028946E+03  0.12700000000E+01 0.  1.
         -4   -1    0    0    0  501 -0.00000000000E+00 -0.00000000000E+00 -0.19058521815E+04  0.19058526046E+04  0.12700000000E+01 0. -1.
     200001    2    1    2    0    0  0.59685303526E+03 -0.34819887963E+03 -0.50244104576E+03  0.11048078765E+04  0.70048371437E+03 0.  0.
    5000001    2    3    3    0    0  0.15741595487E+03 -0.42925751382E+02 -0.21762217301E+03  0.31904810362E+03  0.16676294329E+03 0.  0.
        -11    1    4    4    0    0  0.93758872355E+02  0.54423387894E+02 -0.13553495454E+03  0.17355793038E+03  0.51100000000E-03 0. -1.
     200002    1    4    4    0    0  0.63657082514E+02 -0.97349139276E+02 -0.82087218472E+02  0.14549017324E+03  0.30000000000E+02 0. -1.
     200000    1    3    3    0    0  0.43943708039E+03 -0.30527312825E+03 -0.28481887274E+03  0.78575977291E+03  0.50000000000E+03 0.  1.
    -200001    1    1    2    0    0 -0.59685303526E+03  0.34819887963E+03 -0.88279239529E+03  0.13216650176E+04  0.70000000000E+03 0. -1.
<mgrwt>
<rscale>  0 0.19922096E+04</rscale>
<asrwt>0</asrwt>
<pdfrwt beam="1">  1        4 0.74374247E-01 0.19922096E+04</pdfrwt>
<pdfrwt beam="2">  1       -4 0.27226474E+00 0.19922096E+04</pdfrwt>
<totfact> 0.14090680E-01</totfact>
</mgrwt>
</event>
<event>
 8    1  0.1287848E-011  0.1600976E+04  0.7818608E-02  0.8819949E-01
         -4   -1    0    0    0  501 -0.00000000000E+00  0.00000000000E+00  0.49260286319E+03  0.49260450031E+03  0.12700000000E+01 0. -1.
          4   -1    0    0  501    0  0.00000000000E+00 -0.00000000000E+00 -0.13008017562E+04  0.13008023762E+04  0.12700000000E+01 0.  1.
     200001    2    1    2    0    0 -0.18220365658E+03  0.12540541963E+03 -0.47593320747E+02  0.73631391544E+03  0.70069134870E+03 0.  0.
    5000001    2    3    3    0    0 -0.82232652278E+00 -0.46988554947E+02  0.46921288274E+01  0.17475124075E+03  0.16824797043E+03 0.  0.
        -11    1    4    4    0    0  0.33601321900E+01 -0.23977937867E+02 -0.79103357140E+02  0.82725891375E+02  0.51100000000E-03 0. -1.
     200002    1    4    4    0    0 -0.41824587128E+01 -0.23010617080E+02  0.83795485967E+02  0.92025349376E+02  0.30000000000E+02 0. -1.
     200000    1    3    3    0    0 -0.18138133006E+03  0.17239397457E+03 -0.52285449574E+02  0.56156267469E+03  0.50000000000E+03 0. -1.
    -200001    1    1    2    0    0  0.18220365658E+03 -0.12540541963E+03 -0.76060557230E+03  0.10570929611E+04  0.70000000000E+03 0.  1.
<mgrwt>
<rscale>  0 0.16009756E+04</rscale>
<asrwt>0</asrwt>
<pdfrwt beam="1">  1        4 0.18582898E+00 0.16009756E+04</pdfrwt>
<pdfrwt beam="2">  1       -4 0.70371999E-01 0.16009756E+04</pdfrwt>
<totfact> 0.58514414E-01</totfact>
</mgrwt>
</event>
<event>
 8    1  0.1287848E-011  0.1444781E+04  0.7818608E-02  0.8922027E-01
          4   -1    0    0  501    0  0.00000000000E+00  0.00000000000E+00  0.34289202265E+04  0.34289204617E+04  0.12700000000E+01 0.  1.
         -4   -1    0    0    0  501 -0.00000000000E+00 -0.00000000000E+00 -0.15218729738E+03  0.15219259635E+03  0.12700000000E+01 0. -1.
     200001    2    1    2    0    0  0.58199844756E+02 -0.62282468174E+02  0.12461074200E+04  0.14315302413E+04  0.69944892722E+03 0.  0.
    5000001    2    3    3    0    0  0.77591879941E+01 -0.31284735664E+02  0.48520899327E+03  0.51913146056E+03  0.18174368355E+03 0.  0.
        -11    1    4    4    0    0  0.10442127505E+00 -0.29013194462E+02 -0.36906468667E+01  0.29247174757E+02  0.51100000000E-03 0. -1.
     200002    1    4    4    0    0  0.76547667191E+01 -0.22715412019E+01  0.48889964014E+03  0.48988428581E+03  0.30000000000E+02 0. -1.
     200000    1    3    3    0    0  0.50440656762E+02 -0.30997732510E+02  0.76089842670E+03  0.91239878071E+03  0.50000000000E+03 0. -1.
    -200001    1    1    2    0    0 -0.58199844756E+02  0.62282468174E+02  0.20306255091E+04  0.21495828167E+04  0.70000000000E+03 0.  1.
<mgrwt>
<rscale>  0 0.14447810E+04</rscale>
<asrwt>0</asrwt>
<pdfrwt beam="1">  1        4 0.48984615E+00 0.14447810E+04</pdfrwt>
<pdfrwt beam="2">  1       -4 0.21741438E-01 0.14447810E+04</pdfrwt>
<totfact> 0.57778547E-02</totfact>
</mgrwt>
</event>
<event>
 8    1  0.1287848E-011  0.1957875E+04  0.7818608E-02  0.8626573E-01
         -4   -1    0    0    0  501 -0.00000000000E+00  0.00000000000E+00  0.88096488477E+03  0.88096580019E+03  0.12700000000E+01 0. -1.
          4   -1    0    0  501    0  0.00000000000E+00 -0.00000000000E+00 -0.10878042618E+04  0.10878050032E+04  0.12700000000E+01 0.  1.
     200001    2    1    2    0    0  0.10578462509E+03  0.12842073364E+03  0.56406907466E+03  0.91426517860E+03  0.70001758841E+03 0.  0.
    5000001    2    3    3    0    0  0.42941987391E+02 -0.53623489643E+02  0.25164768826E+03  0.29402617707E+03  0.13566628495E+03 0.  0.
        -11    1    4    4    0    0 -0.62825597419E+01 -0.75865057309E+02  0.19824604744E+03  0.21235930120E+03  0.51100000000E-03 0. -1.
     200002    1    4    4    0    0  0.49224547133E+02  0.22241567666E+02  0.53401640817E+02  0.81666875872E+02  0.30000000000E+02 0. -1.
     200000    1    3    3    0    0  0.62842637696E+02  0.18204422328E+03  0.31242138640E+03  0.62023900153E+03  0.50000000000E+03 0. -1.
    -200001    1    1    2    0    0 -0.10578462509E+03 -0.12842073364E+03 -0.77090845168E+03  0.10545056247E+04  0.70000000000E+03 0.  1.
<mgrwt>
<rscale>  0 0.19578754E+04</rscale>
<asrwt>0</asrwt>
<pdfrwt beam="1">  1        4 0.15540073E+00 0.19578754E+04</pdfrwt>
<pdfrwt beam="2">  1       -4 0.12585224E+00 0.19578754E+04</pdfrwt>
<totfact> 0.23923712E-01</totfact>
</mgrwt>
</event>
<event>
 8    1  0.1436111E-011  0.1739510E+04  0.7818608E-02  0.8739146E-01
         -4   -1    0    0    0  501 -0.00000000000E+00  0.00000000000E+00  0.11227290818E+04  0.11227298001E+04  0.12700000000E+01 0. -1.
          4   -1    0    0  501    0  0.00000000000E+00 -0.00000000000E+00 -0.67377949324E+03  0.67378069014E+03  0.12700000000E+01 0.  1.
     200001    2    1    2    0    0  0.16730838830E+03 -0.43220082800E+03  0.44760411415E+03  0.95699190034E+03  0.70759762704E+03 0.  0.
    5000001    2    3    3    0    0  0.13887463879E+03 -0.10116924319E+03  0.29397285920E+02  0.22535856360E+03  0.14283172162E+03 0.  0.
        -11    1    4    4    0    0  0.11687127032E+03 -0.10303302440E+03  0.69519721039E+02  0.17060975809E+03  0.51100000000E-03 0. -1.
     200002    1    4    4    0    0  0.22003368467E+02  0.18637812093E+01 -0.40122435119E+02  0.54748805504E+02  0.30000000000E+02 0. -1.
     200000    1    3    3    0    0  0.28433749510E+02 -0.33103158482E+03  0.41820682823E+03  0.73163333675E+03  0.50000000000E+03 0. -1.
    -200001    1    1    2    0    0 -0.16730838830E+03  0.43220082800E+03  0.13454744372E+01  0.83951858992E+03  0.70000000000E+03 0.  1.
<mgrwt>
<rscale>  0 0.17395098E+04</rscale>
<asrwt>0</asrwt>
<pdfrwt beam="1">  1        4 0.96254351E-01 0.17395098E+04</pdfrwt>
<pdfrwt beam="2">  1       -4 0.16039000E+00 0.17395098E+04</pdfrwt>
<totfact> 0.42942299E-01</totfact>
</mgrwt>
</event>
<event>
 8    1  0.1287848E-011  0.1530361E+04  0.7818608E-02  0.8864511E-01
         -4   -1    0    0    0  501 -0.00000000000E+00  0.00000000000E+00  0.17347612367E+04  0.17347617016E+04  0.12700000000E+01 0. -1.
          4   -1    0    0  501    0  0.00000000000E+00 -0.00000000000E+00 -0.33750933658E+03  0.33751172598E+03  0.12700000000E+01 0.  1.
     200001    2    1    2    0    0 -0.21330904238E+03  0.55827425381E+02  0.40430783024E+03  0.83754456059E+03  0.69957031126E+03 0.  0.
    5000001    2    3    3    0    0 -0.15608053067E+01  0.93109813142E+02  0.13821919500E+03  0.23171417662E+03  0.16098149075E+03 0.  0.
        -11    1    4    4    0    0 -0.60380455066E+02 -0.12173316011E+02  0.49498246125E+02  0.79019398545E+02  0.51100000000E-03 0. -1.
     200002    1    4    4    0    0  0.58819649760E+02  0.10528312915E+03  0.88720948873E+02  0.15269477807E+03  0.30000000000E+02 0. -1.
     200000    1    3    3    0    0 -0.21174823707E+03 -0.37282387761E+02  0.26608863524E+03  0.60583038397E+03  0.50000000000E+03 0.  1.
    -200001    1    1    2    0    0  0.21330904238E+03 -0.55827425381E+02  0.99294406986E+03  0.12347288669E+04  0.70000000000E+03 0. -1.
<mgrwt>
<rscale>  0 0.15303608E+04</rscale>
<asrwt>0</asrwt>
<pdfrwt beam="1">  1        4 0.48215823E-01 0.15303608E+04</pdfrwt>
<pdfrwt beam="2">  1       -4 0.24782324E+00 0.15303608E+04</pdfrwt>
<totfact> 0.52687537E-01</totfact>
</mgrwt>
</event>
<event>
 8    1  0.1287848E-011  0.1592955E+04  0.7818608E-02  0.8824887E-01
          4   -1    0    0  501    0  0.00000000000E+00  0.00000000000E+00  0.13337419444E+04  0.13337425490E+04  0.12700000000E+01 0. -1.
         -4   -1    0    0    0  501 -0.00000000000E+00 -0.00000000000E+00 -0.47563524733E+03  0.47563694285E+03  0.12700000000E+01 0.  1.
     200001    2    1    2    0    0  0.18289691149E+03 -0.13336730557E+03  0.82337169003E+02  0.74024129732E+03  0.69995689184E+03 0.  0.
    5000001    2    3    3    0    0  0.43637139141E+02  0.44939295972E+00  0.11998579730E+02  0.19964189837E+03  0.19444413029E+03 0.  0.
        -11    1    4    4    0    0  0.12140660290E+02 -0.45283094677E+02  0.88690020202E+02  0.10031886153E+03  0.51100000000E-03 0. -1.
     200002    1    4    4    0    0  0.31496478851E+02  0.45732487636E+02 -0.76691440472E+02  0.99323036840E+02  0.30000000000E+02 0. -1.
     200000    1    3    3    0    0  0.13925977234E+03 -0.13381669853E+03  0.70338589273E+02  0.54059939894E+03  0.50000000000E+03 0.  1.
    -200001    1    1    2    0    0 -0.18289691149E+03  0.13336730557E+03  0.77576952802E+03  0.10691381945E+04  0.70000000000E+03 0. -1.
<mgrwt>
<rscale>  0 0.15929554E+04</rscale>
<asrwt>0</asrwt>
<pdfrwt beam="1">  1        4 0.19053473E+00 0.15929554E+04</pdfrwt>
<pdfrwt beam="2">  1       -4 0.67948057E-01 0.15929554E+04</pdfrwt>
<totfact> 0.58773189E-01</totfact>
</mgrwt>
</event>
<event>
 8    1  0.1287848E-011  0.1711165E+04  0.7818608E-02  0.8755022E-01
         -4   -1    0    0    0  501 -0.00000000000E+00  0.00000000000E+00  0.13330666398E+04  0.13330672447E+04  0.12700000000E+01 0. -1.
          4   -1    0    0  501    0  0.00000000000E+00 -0.00000000000E+00 -0.54912457823E+03  0.54912604684E+03  0.12700000000E+01 0.  1.
     200001    2    1    2    0    0 -0.37269533360E+03 -0.90975718249E+01  0.74179629351E+03  0.10879887566E+04  0.70318789525E+03 0.  0.
    5000001    2    3    3    0    0 -0.15060568336E+03  0.50704860941E+00  0.14251734956E+03  0.27647701050E+03  0.18288251269E+03 0.  0.
        -11    1    4    4    0    0 -0.15727359218E+03  0.41421043726E+02  0.15406042274E+03  0.22402075689E+03  0.51100000000E-03 0. -1.
     200002    1    4    4    0    0  0.66679088195E+01 -0.40913995117E+02 -0.11543073179E+02  0.52456253611E+02  0.30000000000E+02 0. -1.
     200000    1    3    3    0    0 -0.22208965024E+03 -0.96046204343E+01  0.59927894395E+03  0.81151174615E+03  0.50000000000E+03 0. -1.
    -200001    1    1    2    0    0  0.37269533360E+03  0.90975718249E+01  0.42145768007E+02  0.79420453490E+03  0.70000000000E+03 0.  1.
<mgrwt>
<rscale>  0 0.17111652E+04</rscale>
<asrwt>0</asrwt>
<pdfrwt beam="1">  1        4 0.78446518E-01 0.17111652E+04</pdfrwt>
<pdfrwt beam="2">  1       -4 0.19043824E+00 0.17111652E+04</pdfrwt>
<totfact> 0.42349059E-01</totfact>
</mgrwt>
</event>
<event>
 8    1  0.1287848E-011  0.1895975E+04  0.7818608E-02  0.8656863E-01
          4   -1    0    0  501    0  0.00000000000E+00  0.00000000000E+00  0.13207856166E+04  0.13207862272E+04  0.12700000000E+01 0.  1.
         -4   -1    0    0    0  501 -0.00000000000E+00 -0.00000000000E+00 -0.68041199345E+03  0.68041317868E+03  0.12700000000E+01 0. -1.
     200001    2    1    2    0    0  0.22409479165E+02 -0.19345906697E+03  0.96299133605E+03  0.12062083468E+04  0.69975543382E+03 0.  0.
    5000001    2    3    3    0    0  0.46026179190E+02 -0.76588534986E+02  0.25145143734E+03  0.32842392151E+03  0.19144250839E+03 0.  0.
        -11    1    4    4    0    0 -0.53716863716E+02  0.24865781773E+02  0.11342792771E+03  0.12794414146E+03  0.51100000000E-03 0. -1.
     200002    1    4    4    0    0  0.99743042907E+02 -0.10145431676E+03  0.13802350963E+03  0.20047978005E+03  0.30000000000E+02 0. -1.
     200000    1    3    3    0    0 -0.23616700025E+02 -0.11687053198E+03  0.71153989871E+03  0.87778442525E+03  0.50000000000E+03 0.  1.
    -200001    1    1    2    0    0 -0.22409479165E+02  0.19345906697E+03 -0.32261771291E+03  0.79499105909E+03  0.70000000000E+03 0. -1.
<mgrwt>
<rscale>  0 0.18959749E+04</rscale>
<asrwt>0</asrwt>
<pdfrwt beam="1">  1        4 0.18868378E+00 0.18959749E+04</pdfrwt>
<pdfrwt beam="2">  1       -4 0.97201843E-01 0.18959749E+04</pdfrwt>
<totfact> 0.26138310E-01</totfact>
</mgrwt>
</event>
<event>
 8    1  0.1287848E-011  0.1640248E+04  0.7818608E-02  0.8796197E-01
          4   -1    0    0  501    0  0.00000000000E+00  0.00000000000E+00  0.28495783227E+04  0.28495786057E+04  0.12700000000E+01 0.  1.
         -4   -1    0    0    0  501 -0.00000000000E+00 -0.00000000000E+00 -0.23603407293E+03  0.23603748958E+03  0.12700000000E+01 0. -1.
     200001    2    1    2    0    0 -0.28055795571E+03  0.14759336663E+03  0.18453165745E+04  0.19990295458E+04  0.70030657331E+03 0.  0.
    5000001    2    3    3    0    0 -0.20090800909E+02  0.14980094913E+03  0.27281712428E+03  0.32851988316E+03  0.10320932948E+03 0.  0.
        -11    1    4    4    0    0 -0.31751894489E+02  0.14264859739E+03  0.19241900784E+03  0.24162342543E+03  0.51100000000E-03 0. -1.
     200002    1    4    4    0    0  0.11661093580E+02  0.71523517470E+01  0.80398116439E+02  0.86896457729E+02  0.30000000000E+02 0. -1.
     200000    1    3    3    0    0 -0.26046715480E+03 -0.22075825031E+01  0.15724994502E+04  0.16705096626E+04  0.50000000000E+03 0.  1.
    -200001    1    1    2    0    0  0.28055795571E+03 -0.14759336663E+03  0.76822767527E+03  0.10865865494E+04  0.70000000000E+03 0. -1.
<mgrwt>
<rscale>  0 0.16402479E+04</rscale>
<asrwt>0</asrwt>
<pdfrwt beam="1">  1        4 0.40708287E+00 0.16402479E+04</pdfrwt>
<pdfrwt beam="2">  1       -4 0.33719418E-01 0.16402479E+04</pdfrwt>
<totfact> 0.10146876E-01</totfact>
</mgrwt>
</event>
<event>
 8    1  0.1287848E-011  0.1565913E+04  0.7818608E-02  0.8841767E-01
         -4   -1    0    0    0  501 -0.00000000000E+00  0.00000000000E+00  0.13352166857E+04  0.13352172897E+04  0.12700000000E+01 0. -1.
          4   -1    0    0  501    0  0.00000000000E+00 -0.00000000000E+00 -0.45911541719E+03  0.45911717372E+03  0.12700000000E+01 0.  1.
     200001    2    1    2    0    0  0.14764566299E+02  0.27465290401E+03  0.68286511697E+03  0.10178085975E+04  0.70283523185E+03 0.  0.
    5000001    2    3    3    0    0  0.48573767135E+02  0.11427766519E+03  0.24023964299E+03  0.33021817475E+03  0.18949976584E+03 0.  0.
        -11    1    4    4    0    0 -0.21011060694E+02  0.79468719809E+00 -0.24557472979E+02  0.32329022234E+02  0.51100000000E-03 0. -1.
     200002    1    4    4    0    0  0.69584827829E+02  0.11348297799E+03  0.26479711597E+03  0.29788915252E+03  0.30000000000E+02 0. -1.
     200000    1    3    3    0    0 -0.33809200836E+02  0.16037523882E+03  0.44262547397E+03  0.68759042278E+03  0.50000000000E+03 0.  1.
    -200001    1    1    2    0    0 -0.14764566299E+02 -0.27465290401E+03  0.19323615153E+03  0.77652586587E+03  0.70000000000E+03 0. -1.
<mgrwt>
<rscale>  0 0.15659127E+04</rscale>
<asrwt>0</asrwt>
<pdfrwt beam="1">  1        4 0.65588085E-01 0.15659127E+04</pdfrwt>
<pdfrwt beam="2">  1       -4 0.19074541E+00 0.15659127E+04</pdfrwt>
<totfact> 0.63428319E-01</totfact>
</mgrwt>
</event>
<event>
 8    1  0.1287848E-011  0.1516460E+04  0.7818608E-02  0.8873581E-01
         -4   -1    0    0    0  501 -0.00000000000E+00  0.00000000000E+00  0.75697081410E+03  0.75697187947E+03  0.12700000000E+01 0. -1.
          4   -1    0    0  501    0  0.00000000000E+00 -0.00000000000E+00 -0.75948875986E+03  0.75948982169E+03  0.12700000000E+01 0.  1.
     200001    2    1    2    0    0 -0.46233188441E+02  0.89652604738E+02  0.27243919821E+03  0.75766230193E+03  0.69975277762E+03 0.  0.
    5000001    2    3    3    0    0 -0.36125674942E+02  0.38248387567E+02  0.58702043434E+02  0.21137654639E+03  0.19612779231E+03 0.  0.
        -11    1    4    4    0    0  0.45003259403E+01 -0.35664669855E+02  0.10472303196E+03  0.11072097828E+03  0.51100000000E-03 0. -1.
     200002    1    4    4    0    0 -0.40626000883E+02  0.73913057422E+02 -0.46020988525E+02  0.10065556810E+03  0.30000000000E+02 0. -1.
     200000    1    3    3    0    0 -0.10107513499E+02  0.51404217171E+02  0.21373715478E+03  0.54628575554E+03  0.50000000000E+03 0. -1.
    -200001    1    1    2    0    0  0.46233188441E+02 -0.89652604738E+02 -0.27495714397E+03  0.75879939923E+03  0.70000000000E+03 0.  1.
<mgrwt>
<rscale>  0 0.15164596E+04</rscale>
<asrwt>0</asrwt>
<pdfrwt beam="1">  1        4 0.10849855E+00 0.15164596E+04</pdfrwt>
<pdfrwt beam="2">  1       -4 0.10813884E+00 0.15164596E+04</pdfrwt>
<totfact> 0.90016114E-01</totfact>
</mgrwt>
</event>
<event>
 8    1  0.1287848E-011  0.1580793E+04  0.7818608E-02  0.8832435E-01
          4   -1    0    0  501    0  0.00000000000E+00  0.00000000000E+00  0.60733498155E+03  0.60733630940E+03  0.12700000000E+01 0.  1.
         -4   -1    0    0    0  501 -0.00000000000E+00 -0.00000000000E+00 -0.10286335974E+04  0.10286343814E+04  0.12700000000E+01 0. -1.
     200001    2    1    2    0    0  0.35551727126E+03 -0.90458170305E+02 -0.22708066412E+03  0.82215509531E+03  0.69985581514E+03 0.  0.
    5000001    2    3    3    0    0  0.11035854252E+03 -0.46324807068E+02  0.14075480295E+02  0.21370884294E+03  0.17648896495E+03 0.  0.
        -11    1    4    4    0    0  0.66176467375E+02  0.59835077975E+02 -0.17125546397E+02  0.90845174501E+02  0.51100000000E-03 0. -1.
     200002    1    4    4    0    0  0.44182075141E+02 -0.10615988504E+03  0.31201026692E+02  0.12286366844E+03  0.30000000000E+02 0. -1.
     200000    1    3    3    0    0  0.24515872874E+03 -0.44133363237E+02 -0.24115614442E+03  0.60844625237E+03  0.50000000000E+03 0. -1.
    -200001    1    1    2    0    0 -0.35551727126E+03  0.90458170305E+02 -0.19421795178E+03  0.81381559553E+03  0.70000000000E+03 0.  1.
<mgrwt>
<rscale>  0 0.15807933E+04</rscale>
<asrwt>0</asrwt>
<pdfrwt beam="1">  1        4 0.86762292E-01 0.15807933E+04</pdfrwt>
<pdfrwt beam="2">  1       -4 0.14694781E+00 0.15807933E+04</pdfrwt>
<totfact> 0.70065783E-01</totfact>
</mgrwt>
</event>
<event>
 8    1  0.1287848E-011  0.1505745E+04  0.7818608E-02  0.8880642E-01
         -4   -1    0    0    0  501 -0.00000000000E+00  0.00000000000E+00  0.19224038093E+04  0.19224042288E+04  0.12700000000E+01 0. -1.
          4   -1    0    0  501    0  0.00000000000E+00 -0.00000000000E+00 -0.29484612478E+03  0.29484885993E+03  0.12700000000E+01 0.  1.
     200001    2    1    2    0    0  0.29491628752E+02  0.56906813303E+02  0.41151374011E+03  0.81266381913E+03  0.69783291915E+03 0.  0.
    5000001    2    3    3    0    0 -0.16678111525E+02  0.57254370010E+02  0.12144990372E+03  0.23277693801E+03  0.18941700416E+03 0.  0.
        -11    1    4    4    0    0 -0.47457745577E+02 -0.53726835882E+02  0.78359808686E+02  0.10620296666E+03  0.51100000000E-03 0. -1.
     200002    1    4    4    0    0  0.30779634052E+02  0.11098120589E+03  0.43090095035E+02  0.12657397135E+03  0.30000000000E+02 0. -1.
     200000    1    3    3    0    0  0.46169740277E+02 -0.34755670663E+00  0.29006383639E+03  0.57988688112E+03  0.50000000000E+03 0.  1.
    -200001    1    1    2    0    0 -0.29491628752E+02 -0.56906813303E+02  0.12160439444E+04  0.14045892696E+04  0.70000000000E+03 0. -1.
<mgrwt>
<rscale>  0 0.15057447E+04</rscale>
<asrwt>0</asrwt>
<pdfrwt beam="1">  1        4 0.42121101E-01 0.15057447E+04</pdfrwt>
<pdfrwt beam="2">  1       -4 0.27462934E+00 0.15057447E+04</pdfrwt>
<totfact> 0.47578436E-01</totfact>
</mgrwt>
</event>
<event>
 8    1  0.1287848E-011  0.1714686E+04  0.7818608E-02  0.8753032E-01
         -4   -1    0    0    0  501 -0.00000000000E+00  0.00000000000E+00  0.40099034939E+03  0.40099236053E+03  0.12700000000E+01 0. -1.
          4   -1    0    0  501    0  0.00000000000E+00 -0.00000000000E+00 -0.18330477467E+04  0.18330481867E+04  0.12700000000E+01 0.  1.
     200001    2    1    2    0    0  0.29830481915E+03 -0.62123052363E+02 -0.12241016850E+04  0.14427816660E+04  0.70024921409E+03 0.  0.
    5000001    2    3    3    0    0  0.76182935578E+01 -0.43444539825E+02 -0.28745865164E+03  0.34180586478E+03  0.17959205538E+03 0.  0.
        -11    1    4    4    0    0  0.43047624494E+02  0.30437480763E+02 -0.23313167742E+03  0.23901865456E+03  0.51100000000E-03 0. -1.
     200002    1    4    4    0    0 -0.35429330936E+02 -0.73882020588E+02 -0.54326974224E+02  0.10278721022E+03  0.30000000000E+02 0. -1.
     200000    1    3    3    0    0  0.29068652559E+03 -0.18678512539E+02 -0.93664303336E+03  0.11009758012E+04  0.50000000000E+03 0.  1.
    -200001    1    1    2    0    0 -0.29830481915E+03  0.62123052363E+02 -0.20795571235E+03  0.79125888119E+03  0.70000000000E+03 0. -1.
<mgrwt>
<rscale>  0 0.17146862E+04</rscale>
<asrwt>0</asrwt>
<pdfrwt beam="1">  1        4 0.26186413E+00 0.17146862E+04</pdfrwt>
<pdfrwt beam="2">  1       -4 0.57284512E-01 0.17146862E+04</pdfrwt>
<totfact> 0.29580382E-01</totfact>
</mgrwt>
</event>
<event>
 8    1  0.1287848E-011  0.2163315E+04  0.7818608E-02  0.8533854E-01
          4   -1    0    0  501    0  0.00000000000E+00  0.00000000000E+00  0.11743812946E+04  0.11743819813E+04  0.12700000000E+01 0.  1.
         -4   -1    0    0    0  501 -0.00000000000E+00 -0.00000000000E+00 -0.99625359119E+03  0.99625440068E+03  0.12700000000E+01 0. -1.
     200001    2    1    2    0    0  0.36081950649E+03  0.13045957586E+03  0.82145208449E+03  0.11454160756E+04  0.69998860127E+03 0.  0.
    5000001    2    3    3    0    0  0.18534380677E+03  0.13923039686E+03  0.36026510559E+03  0.44287634148E+03  0.11229905352E+03 0.  0.
        -11    1    4    4    0    0  0.86325999236E+02  0.20964251696E+02  0.71138060822E+02  0.11380817937E+03  0.51100000000E-03 0. -1.
     200002    1    4    4    0    0  0.99017807535E+02  0.11826614517E+03  0.28912704477E+03  0.32906816212E+03  0.30000000000E+02 0. -1.
     200000    1    3    3    0    0  0.17547569972E+03 -0.87708209966E+01  0.46118697890E+03  0.70253973411E+03  0.50000000000E+03 0.  1.
    -200001    1    1    2    0    0 -0.36081950649E+03 -0.13045957586E+03 -0.64332438113E+03  0.10252203063E+04  0.70000000000E+03 0. -1.
<mgrwt>
<rscale>  0 0.21633152E+04</rscale>
<asrwt>0</asrwt>
<pdfrwt beam="1">  1        4 0.16776886E+00 0.21633152E+04</pdfrwt>
<pdfrwt beam="2">  1       -4 0.14232205E+00 0.21633152E+04</pdfrwt>
<totfact> 0.13894529E-01</totfact>
</mgrwt>
</event>
<event>
 8    1  0.1287848E-011  0.1782900E+04  0.7818608E-02  0.8715447E-01
         -4   -1    0    0    0  501 -0.00000000000E+00  0.00000000000E+00  0.15396660572E+04  0.15396665810E+04  0.12700000000E+01 0. -1.
          4   -1    0    0  501    0  0.00000000000E+00 -0.00000000000E+00 -0.51613825316E+03  0.51613981563E+03  0.12700000000E+01 0.  1.
     200001    2    1    2    0    0  0.41225232299E+03 -0.11696993714E+03  0.11128661263E+03  0.82868866170E+03  0.70050427827E+03 0.  0.
    5000001    2    3    3    0    0  0.57956165651E+02 -0.60783102215E+02 -0.64915638647E+00  0.20321896307E+03  0.18505140608E+03 0.  0.
        -11    1    4    4    0    0 -0.84724551443E+01  0.56796753713E+02  0.24811592049E+02  0.62556125430E+02  0.51100000000E-03 0. -1.
     200002    1    4    4    0    0  0.66428620796E+02 -0.11757985593E+03 -0.25460748436E+02  0.14066283764E+03  0.30000000000E+02 0. -1.
     200000    1    3    3    0    0  0.35429615734E+03 -0.56186834926E+02  0.11193576902E+03  0.62546969864E+03  0.50000000000E+03 0.  1.
    -200001    1    1    2    0    0 -0.41225232299E+03  0.11696993714E+03  0.91224119140E+03  0.12271177349E+04  0.70000000000E+03 0. -1.
<mgrwt>
<rscale>  0 0.17828995E+04</rscale>
<asrwt>0</asrwt>
<pdfrwt beam="1">  1        4 0.73734186E-01 0.17828995E+04</pdfrwt>
<pdfrwt beam="2">  1       -4 0.21995244E+00 0.17828995E+04</pdfrwt>
<totfact> 0.31010293E-01</totfact>
</mgrwt>
</event>
<event>
 8    1  0.1287848E-011  0.1519645E+04  0.7818608E-02  0.8871493E-01
         -4   -1    0    0    0  501 -0.00000000000E+00  0.00000000000E+00  0.70657746604E+03  0.70657860739E+03  0.12700000000E+01 0. -1.
          4   -1    0    0  501    0  0.00000000000E+00 -0.00000000000E+00 -0.81707758361E+03  0.81707857061E+03  0.12700000000E+01 0.  1.
     200001    2    1    2    0    0  0.23662244738E+03 -0.16073707564E+03 -0.13049330899E+03  0.76720075639E+03  0.69981562345E+03 0.  0.
    5000001    2    3    3    0    0  0.40590094842E+02 -0.18182044576E+02  0.41860157246E+01  0.19545855869E+03  0.19028500439E+03 0.  0.
        -11    1    4    4    0    0  0.11232819439E+03 -0.30767861988E+02 -0.15914580474E+01  0.11647668147E+03  0.51100000000E-03 0. -1.
     200002    1    4    4    0    0 -0.71738099550E+02  0.12585817412E+02  0.57774737719E+01  0.78981877226E+02  0.30000000000E+02 0. -1.
     200000    1    3    3    0    0  0.19603235254E+03 -0.14255503106E+03 -0.13467932472E+03  0.57174219770E+03  0.50000000000E+03 0.  1.
    -200001    1    1    2    0    0 -0.23662244738E+03  0.16073707564E+03  0.19993191422E+02  0.75645642161E+03  0.70000000000E+03 0. -1.
<mgrwt>
<rscale>  0 0.15196450E+04</rscale>
<asrwt>0</asrwt>
<pdfrwt beam="1">  1        4 0.11672552E+00 0.15196450E+04</pdfrwt>
<pdfrwt beam="2">  1       -4 0.10093979E+00 0.15196450E+04</pdfrwt>
<totfact> 0.88883983E-01</totfact>
</mgrwt>
</event>
<event>
 8    1  0.1287848E-011  0.1454362E+04  0.7818608E-02  0.8915382E-01
         -4   -1    0    0    0  501 -0.00000000000E+00  0.00000000000E+00  0.24758184169E+03  0.24758509897E+03  0.12700000000E+01 0. -1.
          4   -1    0    0  501    0  0.00000000000E+00 -0.00000000000E+00 -0.21358112596E+04  0.21358116372E+04  0.12700000000E+01 0.  1.
     200001    2    1    2    0    0  0.13178643753E+03 -0.14507451362E+03 -0.87712611920E+03  0.11381079503E+04  0.69823004651E+03 0.  0.
    5000001    2    3    3    0    0 -0.19716206458E+01  0.10221410992E+03 -0.26017676896E+03  0.29568918135E+03  0.96377016479E+02 0.  0.
        -11    1    4    4    0    0  0.21618348525E+01  0.44852927218E+02 -0.24304044277E+02  0.51060211304E+02  0.51100000000E-03 0. -1.
     200002    1    4    4    0    0 -0.41334554983E+01  0.57361182699E+02 -0.23587272468E+03  0.24462897004E+03  0.30000000000E+02 0. -1.
     200000    1    3    3    0    0  0.13375805817E+03 -0.24728862353E+03 -0.61694935024E+03  0.84241876891E+03  0.50000000000E+03 0. -1.
    -200001    1    1    2    0    0 -0.13178643753E+03  0.14507451362E+03 -0.10111032987E+04  0.12452887859E+04  0.70000000000E+03 0.  1.
<mgrwt>
<rscale>  0 0.14543623E+04</rscale>
<asrwt>0</asrwt>
<pdfrwt beam="1">  1        4 0.30511614E+00 0.14543623E+04</pdfrwt>
<pdfrwt beam="2">  1       -4 0.35369095E-01 0.14543623E+04</pdfrwt>
<totfact> 0.43927682E-01</totfact>
</mgrwt>
</event>
<event>
 8    1  0.1287848E-011  0.1483852E+04  0.7818608E-02  0.8895263E-01
          4   -1    0    0  501    0  0.00000000000E+00  0.00000000000E+00  0.41342421325E+03  0.41342616390E+03  0.12700000000E+01 0.  1.
         -4   -1    0    0    0  501 -0.00000000000E+00 -0.00000000000E+00 -0.13314452628E+04  0.13314458685E+04  0.12700000000E+01 0. -1.
     200001    2    1    2    0    0 -0.22985394773E+03  0.75484734606E+02 -0.48485622597E+03  0.88687287924E+03  0.70208771647E+03 0.  0.
    5000001    2    3    3    0    0 -0.78271553207E+02 -0.92187306215E+02 -0.86526390930E+02  0.20881846174E+03  0.14660626920E+03 0.  0.
        -11    1    4    4    0    0 -0.10853622118E+03 -0.32004133851E+02 -0.33569694854E+02  0.11803092944E+03  0.51100000000E-03 0. -1.
     200002    1    4    4    0    0  0.30264667968E+02 -0.60183172365E+02 -0.52956696076E+02  0.90787532307E+02  0.30000000000E+02 0. -1.
     200000    1    3    3    0    0 -0.15158239452E+03  0.16767204082E+03 -0.39832983504E+03  0.67805441750E+03  0.50000000000E+03 0. -1.
    -200001    1    1    2    0    0  0.22985394773E+03 -0.75484734606E+02 -0.43316482360E+03  0.85799915317E+03  0.70000000000E+03 0.  1.
<mgrwt>
<rscale>  0 0.14838517E+04</rscale>
<asrwt>0</asrwt>
<pdfrwt beam="1">  1        4 0.59060785E-01 0.14838517E+04</pdfrwt>
<pdfrwt beam="2">  1       -4 0.19020665E+00 0.14838517E+04</pdfrwt>
<totfact> 0.80728332E-01</totfact>
</mgrwt>
</event>
<event>
 8    1  0.1287848E-011  0.2143749E+04  0.7818608E-02  0.8542213E-01
         -4   -1    0    0    0  501 -0.00000000000E+00  0.00000000000E+00  0.52014373144E+03  0.52014528187E+03  0.12700000000E+01 0. -1.
          4   -1    0    0  501    0  0.00000000000E+00 -0.00000000000E+00 -0.22088354406E+04  0.22088358057E+04  0.12700000000E+01 0.  1.
     200001    2    1    2    0    0 -0.27461107546E+03  0.76383518201E+03 -0.86433451394E+03  0.13767901938E+04  0.69972970323E+03 0.  0.
    5000001    2    3    3    0    0 -0.12325911152E+03  0.23169535043E+03 -0.16720124383E+03  0.35596943885E+03  0.17286538541E+03 0.  0.
        -11    1    4    4    0    0 -0.22064819927E+02  0.53717854911E+02 -0.13447223447E+03  0.14647609381E+03  0.51100000000E-03 0. -1.
     200002    1    4    4    0    0 -0.10119429159E+03  0.17797749552E+03 -0.32729009361E+02  0.20949334504E+03  0.30000000000E+02 0. -1.
     200000    1    3    3    0    0 -0.15135196394E+03  0.53213983157E+03 -0.69713327011E+03  0.10208207549E+04  0.50000000000E+03 0.  1.
    -200001    1    1    2    0    0  0.27461107546E+03 -0.76383518201E+03 -0.82435719523E+03  0.13521908938E+04  0.70000000000E+03 0. -1.
<mgrwt>
<rscale>  0 0.21437486E+04</rscale>
<asrwt>0</asrwt>
<pdfrwt beam="1">  1        4 0.31554805E+00 0.21437486E+04</pdfrwt>
<pdfrwt beam="2">  1       -4 0.74306386E-01 0.21437486E+04</pdfrwt>
<totfact> 0.74916845E-02</totfact>
</mgrwt>
</event>
<event>
 8    1  0.1287848E-011  0.1634113E+04  0.7818608E-02  0.8799861E-01
          4   -1    0    0  501    0  0.00000000000E+00  0.00000000000E+00  0.85637356386E+03  0.85637450556E+03  0.12700000000E+01 0.  1.
         -4   -1    0    0    0  501 -0.00000000000E+00 -0.00000000000E+00 -0.77954223922E+03  0.77954327374E+03  0.12700000000E+01 0. -1.
     200001    2    1    2    0    0 -0.42329292386E+03  0.11275241927E+02  0.73054528726E+02  0.81779902590E+03  0.69581193733E+03 0.  0.
    5000001    2    3    3    0    0 -0.21891614475E+03 -0.25089564804E+01 -0.76771894712E+02  0.25707821380E+03  0.11074615523E+03 0.  0.
        -11    1    4    4    0    0 -0.18896594816E+03  0.24156265641E+01 -0.26013777996E+02  0.19076341751E+03  0.51100000000E-03 0. -1.
     200002    1    4    4    0    0 -0.29950196593E+02 -0.49245830446E+01 -0.50758116716E+02  0.66314796288E+02  0.30000000000E+02 0. -1.
     200000    1    3    3    0    0 -0.20437677911E+03  0.13784198408E+02  0.14982642344E+03  0.56072081210E+03  0.50000000000E+03 0.  1.
    -200001    1    1    2    0    0  0.42329292386E+03 -0.11275241927E+02  0.37767959097E+01  0.81811875340E+03  0.70000000000E+03 0. -1.
<mgrwt>
<rscale>  0 0.16341126E+04</rscale>
<asrwt>0</asrwt>
<pdfrwt beam="1">  1        4 0.12233922E+00 0.16341126E+04</pdfrwt>
<pdfrwt beam="2">  1       -4 0.11136332E+00 0.16341126E+04</pdfrwt>
<totfact> 0.61833045E-01</totfact>
</mgrwt>
</event>
<event>
 8    1  0.1287848E-011  0.1766001E+04  0.7818608E-02  0.8724591E-01
         -4   -1    0    0    0  501 -0.00000000000E+00  0.00000000000E+00  0.14921559112E+04  0.14921564516E+04  0.12700000000E+01 0. -1.
          4   -1    0    0  501    0  0.00000000000E+00 -0.00000000000E+00 -0.52252453593E+03  0.52252607930E+03  0.12700000000E+01 0.  1.
     200001    2    1    2    0    0 -0.30878221798E+03  0.40435846672E+03  0.28513966793E+03  0.91133257505E+03  0.70026438177E+03 0.  0.
    5000001    2    3    3    0    0 -0.91410866198E+02  0.68610459382E+02 -0.17562750236E+01  0.20970139623E+03  0.17580742159E+03 0.  0.
        -11    1    4    4    0    0 -0.18151053414E+02  0.97703191448E+02 -0.51352215534E+02  0.11185894868E+03  0.51100000000E-03 0. -1.
     200002    1    4    4    0    0 -0.73259812783E+02 -0.29092732066E+02  0.49595940510E+02  0.97842447553E+02  0.30000000000E+02 0. -1.
     200000    1    3    3    0    0 -0.21737135179E+03  0.33574800734E+03  0.28689594295E+03  0.70163117882E+03  0.50000000000E+03 0. -1.
    -200001    1    1    2    0    0  0.30878221798E+03 -0.40435846672E+03  0.68449170729E+03  0.11033499559E+04  0.70000000000E+03 0.  1.
<mgrwt>
<rscale>  0 0.17660013E+04</rscale>
<asrwt>0</asrwt>
<pdfrwt beam="1">  1        4 0.74646509E-01 0.17660013E+04</pdfrwt>
<pdfrwt beam="2">  1       -4 0.21316528E+00 0.17660013E+04</pdfrwt>
<totfact> 0.33396782E-01</totfact>
</mgrwt>
</event>
<event>
 8    1  0.1287848E-011  0.1450474E+04  0.7818608E-02  0.8918072E-01
         -4   -1    0    0    0  501 -0.00000000000E+00  0.00000000000E+00  0.50113222223E+03  0.50113383148E+03  0.12700000000E+01 0. -1.
          4   -1    0    0  501    0  0.00000000000E+00 -0.00000000000E+00 -0.10495570285E+04  0.10495577969E+04  0.12700000000E+01 0.  1.
     200001    2    1    2    0    0  0.22991007378E+01  0.87372701349E+02 -0.45416492652E+03  0.83898649300E+03  0.69999520010E+03 0.  0.
    5000001    2    3    3    0    0 -0.61309106965E+02  0.59413013412E+02 -0.23102375207E+03  0.28706282802E+03  0.14745975875E+03 0.  0.
        -11    1    4    4    0    0  0.20578817146E+02  0.78592792192E+01  0.11050253186E+02  0.24644757672E+02  0.51100000000E-03 0. -1.
     200002    1    4    4    0    0 -0.81887924111E+02  0.51553734192E+02 -0.24207400525E+03  0.26241807035E+03  0.30000000000E+02 0. -1.
     200000    1    3    3    0    0  0.63608207703E+02  0.27959687937E+02 -0.22314117445E+03  0.55192366499E+03  0.50000000000E+03 0.  1.
    -200001    1    1    2    0    0 -0.22991007378E+01 -0.87372701349E+02 -0.94259879793E+02  0.71170513539E+03  0.70000000000E+03 0. -1.
<mgrwt>
<rscale>  0 0.14504740E+04</rscale>
<asrwt>0</asrwt>
<pdfrwt beam="1">  1        4 0.14993689E+00 0.14504740E+04</pdfrwt>
<pdfrwt beam="2">  1       -4 0.71590488E-01 0.14504740E+04</pdfrwt>
<totfact> 0.10353927E+00</totfact>
</mgrwt>
</event>
<event>
 8    1  0.1287848E-011  0.1425795E+04  0.7818608E-02  0.8935356E-01
         -4   -1    0    0    0  501 -0.00000000000E+00  0.00000000000E+00  0.44512133522E+03  0.44512314697E+03  0.12700000000E+01 0. -1.
          4   -1    0    0  501    0  0.00000000000E+00 -0.00000000000E+00 -0.11417580529E+04  0.11417587592E+04  0.12700000000E+01 0.  1.
     200001    2    1    2    0    0 -0.12893167223E+03 -0.28599707552E+02 -0.29502318101E+03  0.76911986734E+03  0.69790069037E+03 0.  0.
    5000001    2    3    3    0    0 -0.96686284411E+02 -0.50826284023E+02 -0.13273783145E+03  0.24198580430E+03  0.17031220990E+03 0.  0.
        -11    1    4    4    0    0 -0.11656956120E+03  0.24135813890E+02 -0.73792593987E+02  0.14005837011E+03  0.51100000000E-03 0. -1.
     200002    1    4    4    0    0  0.19883276791E+02 -0.74962097913E+02 -0.58945237468E+02  0.10192743419E+03  0.30000000000E+02 0. -1.
     200000    1    3    3    0    0 -0.32245387817E+02  0.22226576471E+02 -0.16228534956E+03  0.52713406304E+03  0.50000000000E+03 0. -1.
    -200001    1    1    2    0    0  0.12893167223E+03  0.28599707552E+02 -0.40161353669E+03  0.81776203888E+03  0.70000000000E+03 0.  1.
<mgrwt>
<rscale>  0 0.14257950E+04</rscale>
<asrwt>0</asrwt>
<pdfrwt beam="1">  1        4 0.16310847E+00 0.14257950E+04</pdfrwt>
<pdfrwt beam="2">  1       -4 0.63588943E-01 0.14257950E+04</pdfrwt>
<totfact> 0.10709486E+00</totfact>
</mgrwt>
</event>
<event>
 8    1  0.1287848E-011  0.1985812E+04  0.7818608E-02  0.8613283E-01
          4   -1    0    0  501    0  0.00000000000E+00  0.00000000000E+00  0.22866081101E+04  0.22866084628E+04  0.12700000000E+01 0.  1.
         -4   -1    0    0    0  501 -0.00000000000E+00 -0.00000000000E+00 -0.43114483326E+03  0.43114670374E+03  0.12700000000E+01 0. -1.
     200001    2    1    2    0    0  0.68746448135E+03 -0.53620109907E+02  0.11235673982E+04  0.14925392237E+04  0.69984791690E+03 0.  0.
    5000001    2    3    3    0    0  0.89725418122E+02  0.84253143937E+02  0.15406685788E+03  0.24104718640E+03  0.13862866390E+03 0.  0.
        -11    1    4    4    0    0  0.21634398165E+02  0.63070250222E+02 -0.21619134686E+01  0.66712648854E+02  0.51100000000E-03 0. -1.
     200002    1    4    4    0    0  0.68091019957E+02  0.21182893715E+02  0.15622877134E+03  0.17433453754E+03  0.30000000000E+02 0. -1.
     200000    1    3    3    0    0  0.59773906323E+03 -0.13787325384E+03  0.96950054032E+03  0.12514920373E+04  0.50000000000E+03 0. -1.
    -200001    1    1    2    0    0 -0.68746448135E+03  0.53620109907E+02  0.73189587867E+03  0.12252159428E+04  0.70000000000E+03 0.  1.
<mgrwt>
<rscale>  0 0.19858120E+04</rscale>
<asrwt>0</asrwt>
<pdfrwt beam="1">  1        4 0.32665845E+00 0.19858120E+04</pdfrwt>
<pdfrwt beam="2">  1       -4 0.61592280E-01 0.19858120E+04</pdfrwt>
<totfact> 0.97626741E-02</totfact>
</mgrwt>
</event>
<event>
 8    1  0.1287848E-011  0.1916682E+04  0.7818608E-02  0.8646597E-01
         -4   -1    0    0    0  501 -0.00000000000E+00  0.00000000000E+00  0.61363831501E+03  0.61363962922E+03  0.12700000000E+01 0. -1.
          4   -1    0    0  501    0  0.00000000000E+00 -0.00000000000E+00 -0.14966727485E+04  0.14966732874E+04  0.12700000000E+01 0.  1.
     200001    2    1    2    0    0 -0.17952229771E+03  0.42610348412E+03 -0.95164165598E+03  0.12685888611E+04  0.69993101277E+03 0.  0.
    5000001    2    3    3    0    0 -0.50565666600E+02  0.17514715382E+03 -0.39698684174E+03  0.47030892566E+03  0.17423696767E+03 0.  0.
        -11    1    4    4    0    0 -0.49326775234E+01  0.47388961787E+02 -0.29278223132E+03  0.29663357865E+03  0.51100000000E-03 0. -1.
     200002    1    4    4    0    0 -0.45632989077E+02  0.12775819203E+03 -0.10420461043E+03  0.17367534701E+03  0.30000000000E+02 0. -1.
     200000    1    3    3    0    0 -0.12895663111E+03  0.25095633030E+03 -0.55465481424E+03  0.79827993547E+03  0.50000000000E+03 0.  1.
    -200001    1    1    2    0    0  0.17952229771E+03 -0.42610348412E+03  0.68607222454E+02  0.84172405545E+03  0.70000000000E+03 0. -1.
<mgrwt>
<rscale>  0 0.19166822E+04</rscale>
<asrwt>0</asrwt>
<pdfrwt beam="1">  1        4 0.21381052E+00 0.19166822E+04</pdfrwt>
<pdfrwt beam="2">  1       -4 0.87662749E-01 0.19166822E+04</pdfrwt>
<totfact> 0.22672862E-01</totfact>
</mgrwt>
</event>
<event>
 8    1  0.1287848E-011  0.1877948E+04  0.7818608E-02  0.8665911E-01
          4   -1    0    0  501    0  0.00000000000E+00  0.00000000000E+00  0.79709422208E+03  0.79709523382E+03  0.12700000000E+01 0.  1.
         -4   -1    0    0    0  501 -0.00000000000E+00 -0.00000000000E+00 -0.11061059715E+04  0.11061067006E+04  0.12700000000E+01 0. -1.
     200001    2    1    2    0    0  0.16911474718E+03  0.21746227104E+03  0.41463814334E+03  0.85938259932E+03  0.70051696986E+03 0.  0.
    5000001    2    3    3    0    0  0.29922289784E+02 -0.10902973675E+02  0.11684708799E+03  0.21891032214E+03  0.18235753044E+03 0.  0.
        -11    1    4    4    0    0 -0.46621253060E+02 -0.69652292845E+02  0.47265477146E+02  0.96223741693E+02  0.51100000000E-03 0. -1.
     200002    1    4    4    0    0  0.76543542844E+02  0.58749319170E+02  0.69581610849E+02  0.12268658045E+03  0.30000000000E+02 0. -1.
     200000    1    3    3    0    0  0.13919245740E+03  0.22836524471E+03  0.29779105534E+03  0.64047227718E+03  0.50000000000E+03 0.  1.
    -200001    1    1    2    0    0 -0.16911474718E+03 -0.21746227104E+03 -0.72364989280E+03  0.10438193351E+04  0.70000000000E+03 0. -1.
<mgrwt>
<rscale>  0 0.18779482E+04</rscale>
<asrwt>0</asrwt>
<pdfrwt beam="1">  1        4 0.11387073E+00 0.18779482E+04</pdfrwt>
<pdfrwt beam="2">  1       -4 0.15801526E+00 0.18779482E+04</pdfrwt>
<totfact> 0.29515244E-01</totfact>
</mgrwt>
</event>
<event>
 8    1  0.1287848E-011  0.3089362E+04  0.7818608E-02  0.8218664E-01
          4   -1    0    0  501    0  0.00000000000E+00  0.00000000000E+00  0.15508825637E+04  0.15508830837E+04  0.12700000000E+01 0.  1.
         -4   -1    0    0    0  501 -0.00000000000E+00 -0.00000000000E+00 -0.15385028451E+04  0.15385033692E+04  0.12700000000E+01 0. -1.
     200001    2    1    2    0    0 -0.80375875774E+03 -0.11109933297E+04 -0.12059417138E+03  0.15440656530E+04  0.69947227765E+03 0.  0.
    5000001    2    3    3    0    0 -0.20340173342E+03 -0.21790031616E+03  0.15441416684E+02  0.34968323149E+03  0.18217330238E+03 0.  0.
        -11    1    4    4    0    0 -0.14007015982E+03 -0.22890366592E+03  0.46303117295E+02  0.27232428576E+03  0.51100000000E-03 0. -1.
     200002    1    4    4    0    0 -0.63331573602E+02  0.11003349760E+02 -0.30861700611E+02  0.77358945736E+02  0.30000000000E+02 0. -1.
     200000    1    3    3    0    0 -0.60035702432E+03 -0.89309301358E+03 -0.13603558806E+03  0.11943824215E+04  0.50000000000E+03 0. -1.
    -200001    1    1    2    0    0  0.80375875774E+03  0.11109933297E+04  0.13297389004E+03  0.15453208000E+04  0.70000000000E+03 0.  1.
<mgrwt>
<rscale>  0 0.30893616E+04</rscale>
<asrwt>0</asrwt>
<pdfrwt beam="1">  1        4 0.22155473E+00 0.30893616E+04</pdfrwt>
<pdfrwt beam="2">  1       -4 0.21978619E+00 0.30893616E+04</pdfrwt>
<totfact> 0.15920600E-02</totfact>
</mgrwt>
</event>
<event>
 8    1  0.1287848E-011  0.1753839E+04  0.7818608E-02  0.8731240E-01
          4   -1    0    0  501    0  0.00000000000E+00  0.00000000000E+00  0.33730468156E+03  0.33730707241E+03  0.12700000000E+01 0.  1.
         -4   -1    0    0    0  501 -0.00000000000E+00 -0.00000000000E+00 -0.22797906883E+04  0.22797910420E+04  0.12700000000E+01 0. -1.
     200001    2    1    2    0    0  0.16971278161E+03  0.11527527630E+03 -0.24449011612E+03  0.76905026275E+03  0.69969427052E+03 0.  0.
    5000001    2    3    3    0    0  0.18927209087E+02 -0.84771123962E+02 -0.99322238290E+02  0.19127127050E+03  0.13847530176E+03 0.  0.
        -11    1    4    4    0    0 -0.44231650407E+01  0.28234797913E+02 -0.58742421125E+02  0.65325647659E+02  0.51100000000E-03 0. -1.
     200002    1    4    4    0    0  0.23350374127E+02 -0.11300592188E+03 -0.40579817165E+02  0.12594562284E+03  0.30000000000E+02 0. -1.
     200000    1    3    3    0    0  0.15078557252E+03  0.20004640026E+03 -0.14516787783E+03  0.57777899226E+03  0.50000000000E+03 0.  1.
    -200001    1    1    2    0    0 -0.16971278161E+03 -0.11527527630E+03 -0.16979958906E+04  0.18480478517E+04  0.70000000000E+03 0. -1.
<mgrwt>
<rscale>  0 0.17538388E+04</rscale>
<asrwt>0</asrwt>
<pdfrwt beam="1">  1        4 0.48186581E-01 0.17538388E+04</pdfrwt>
<pdfrwt beam="2">  1       -4 0.32568457E+00 0.17538388E+04</pdfrwt>
<totfact> 0.16995782E-01</totfact>
</mgrwt>
</event>
<event>
 8    1  0.1287848E-011  0.1806053E+04  0.7818608E-02  0.8703087E-01
          4   -1    0    0  501    0  0.00000000000E+00  0.00000000000E+00  0.33132159480E+03  0.33132402883E+03  0.12700000000E+01 0.  1.
         -4   -1    0    0    0  501 -0.00000000000E+00 -0.00000000000E+00 -0.24612140284E+04  0.24612143560E+04  0.12700000000E+01 0. -1.
     200001    2    1    2    0    0  0.17374757241E+03 -0.53830242731E+03 -0.11808463840E+04  0.14846216725E+04  0.69981826627E+03 0.  0.
    5000001    2    3    3    0    0  0.10117399015E+03 -0.25041481637E+03 -0.58148037740E+03  0.64952538394E+03  0.10401941423E+03 0.  0.
        -11    1    4    4    0    0  0.95325021079E+01 -0.16390412221E+02 -0.13471070488E+03  0.13603855416E+03  0.51100000000E-03 0. -1.
     200002    1    4    4    0    0  0.91641488047E+02 -0.23402440415E+03 -0.44676967252E+03  0.51348682978E+03  0.30000000000E+02 0. -1.
     200000    1    3    3    0    0  0.72573582256E+02 -0.28788761094E+03 -0.59936600660E+03  0.83509628860E+03  0.50000000000E+03 0.  1.
    -200001    1    1    2    0    0 -0.17374757241E+03  0.53830242731E+03 -0.94904604956E+03  0.13079167123E+04  0.70000000000E+03 0. -1.
<mgrwt>
<rscale>  0 0.18060534E+04</rscale>
<asrwt>0</asrwt>
<pdfrwt beam="1">  1        4 0.47331855E-01 0.18060534E+04</pdfrwt>
<pdfrwt beam="2">  1       -4 0.35160219E+00 0.18060534E+04</pdfrwt>
<totfact> 0.11961210E-01</totfact>
</mgrwt>
</event>
<event>
 8    1  0.1287848E-011  0.1511518E+04  0.7818608E-02  0.8876830E-01
          4   -1    0    0  501    0  0.00000000000E+00  0.00000000000E+00  0.47697330189E+03  0.47697499265E+03  0.12700000000E+01 0.  1.
         -4   -1    0    0    0  501 -0.00000000000E+00 -0.00000000000E+00 -0.11974869675E+04  0.11974876409E+04  0.12700000000E+01 0. -1.
     200001    2    1    2    0    0 -0.54462648648E+01 -0.11785735753E+03 -0.64801077679E+03  0.96089645764E+03  0.69963134360E+03 0.  0.
    5000001    2    3    3    0    0  0.40894232559E+02 -0.28685976640E+02 -0.29385908324E+03  0.33999195700E+03  0.16354249145E+03 0.  0.
        -11    1    4    4    0    0 -0.60656186355E+02 -0.15343074951E+02 -0.86210701603E+02  0.10652167837E+03  0.51100000000E-03 0. -1.
     200002    1    4    4    0    0  0.10155041891E+03 -0.13342901688E+02 -0.20764838163E+03  0.23347027863E+03  0.30000000000E+02 0. -1.
     200000    1    3    3    0    0 -0.46340497424E+02 -0.89171380895E+02 -0.35415169356E+03  0.62090450064E+03  0.50000000000E+03 0. -1.
    -200001    1    1    2    0    0  0.54462648648E+01  0.11785735753E+03 -0.72502888771E+02  0.71356617591E+03  0.70000000000E+03 0.  1.
<mgrwt>
<rscale>  0 0.15115175E+04</rscale>
<asrwt>0</asrwt>
<pdfrwt beam="1">  1        4 0.68139213E-01 0.15115175E+04</pdfrwt>
<pdfrwt beam="2">  1       -4 0.17106973E+00 0.15115175E+04</pdfrwt>
<totfact> 0.80174515E-01</totfact>
</mgrwt>
</event>
<event>
 8    1  0.1287848E-011  0.1726180E+04  0.7818608E-02  0.8746572E-01
         -4   -1    0    0    0  501 -0.00000000000E+00  0.00000000000E+00  0.16766049253E+04  0.16766054063E+04  0.12700000000E+01 0. -1.
          4   -1    0    0  501    0  0.00000000000E+00 -0.00000000000E+00 -0.44430363745E+03  0.44430545253E+03  0.12700000000E+01 0.  1.
     200001    2    1    2    0    0  0.49952928309E+03  0.25720856317E+02  0.53356284206E+03  0.10125668316E+04  0.70029366333E+03 0.  0.
    5000001    2    3    3    0    0  0.91624119633E+02 -0.11614007914E+02  0.67878597087E+02  0.21592241250E+03  0.18298939805E+03 0.  0.
        -11    1    4    4    0    0  0.75044043202E+02 -0.91093126628E+02  0.32506229888E+02  0.12241822218E+03  0.51100000000E-03 0. -1.
     200002    1    4    4    0    0  0.16580076431E+02  0.79479118714E+02  0.35372367199E+02  0.93504190319E+02  0.30000000000E+02 0. -1.
     200000    1    3    3    0    0  0.40790516345E+03  0.37334864232E+02  0.46568424498E+03  0.79664441910E+03  0.50000000000E+03 0.  1.
    -200001    1    1    2    0    0 -0.49952928309E+03 -0.25720856317E+02  0.69873844581E+03  0.11083440273E+04  0.70000000000E+03 0. -1.
<mgrwt>
<rscale>  0 0.17261797E+04</rscale>
<asrwt>0</asrwt>
<pdfrwt beam="1">  1        4 0.63472111E-01 0.17261797E+04</pdfrwt>
<pdfrwt beam="2">  1       -4 0.23951516E+00 0.17261797E+04</pdfrwt>
<totfact> 0.32614128E-01</totfact>
</mgrwt>
</event>
<event>
 8    1  0.1287848E-011  0.1463795E+04  0.7818608E-02  0.8908892E-01
          4   -1    0    0  501    0  0.00000000000E+00  0.00000000000E+00  0.26047273584E+03  0.26047583192E+03  0.12700000000E+01 0. -1.
         -4   -1    0    0    0  501 -0.00000000000E+00 -0.00000000000E+00 -0.20565293887E+04  0.20565297809E+04  0.12700000000E+01 0.  1.
     200001    2    1    2    0    0 -0.11595224117E+03  0.58405550781E+02 -0.65167827545E+03  0.96924524784E+03  0.70561720866E+03 0.  0.
    5000001    2    3    3    0    0  0.29212736342E+00 -0.18832325877E+02 -0.27945045476E+03  0.33047142769E+03  0.17539688143E+03 0.  0.
        -11    1    4    4    0    0 -0.42394796209E+02 -0.80785899840E+02 -0.11196816810E+03  0.14443182137E+03  0.51100000000E-03 0. -1.
     200002    1    4    4    0    0  0.42686923572E+02  0.61953573963E+02 -0.16748228667E+03  0.18603960632E+03  0.30000000000E+02 0. -1.
     200000    1    3    3    0    0 -0.11624436853E+03  0.77237876659E+02 -0.37222782069E+03  0.63877382015E+03  0.50000000000E+03 0. -1.
    -200001    1    1    2    0    0  0.11595224117E+03 -0.58405550781E+02 -0.11443783774E+04  0.13477603650E+04  0.70000000000E+03 0. -1.
<mgrwt>
<rscale>  0 0.14637949E+04</rscale>
<asrwt>0</asrwt>
<pdfrwt beam="1">  1        4 0.37210641E-01 0.14637949E+04</pdfrwt>
<pdfrwt beam="2">  1       -4 0.29379015E+00 0.14637949E+04</pdfrwt>
<totfact> 0.46655753E-01</totfact>
</mgrwt>
</event>
<event>
 8    1  0.1287848E-011  0.1781963E+04  0.7818608E-02  0.8715951E-01
         -4   -1    0    0    0  501 -0.00000000000E+00  0.00000000000E+00  0.80040685810E+03  0.80040786565E+03  0.12700000000E+01 0. -1.
          4   -1    0    0  501    0  0.00000000000E+00 -0.00000000000E+00 -0.99180307596E+03  0.99180388907E+03  0.12700000000E+01 0.  1.
     200001    2    1    2    0    0 -0.17208659121E+03  0.22745909935E+03 -0.56996439527E+03  0.94683296287E+03  0.70020126461E+03 0.  0.
    5000001    2    3    3    0    0 -0.16714368578E+03  0.10240591245E+03 -0.12755931582E+03  0.26757970657E+03  0.13001360590E+03 0.  0.
        -11    1    4    4    0    0 -0.12235853152E+03  0.12469183218E+03 -0.11086641698E+03  0.20690825421E+03  0.51100000000E-03 0. -1.
     200002    1    4    4    0    0 -0.44785154252E+02 -0.22285919729E+02 -0.16692898839E+02  0.60671452358E+02  0.30000000000E+02 0. -1.
     200000    1    3    3    0    0 -0.49429054328E+01  0.12505318691E+03 -0.44240507946E+03  0.67925325630E+03  0.50000000000E+03 0.  1.
    -200001    1    1    2    0    0  0.17208659121E+03 -0.22745909935E+03  0.37856817741E+03  0.84537879184E+03  0.70000000000E+03 0. -1.
<mgrwt>
<rscale>  0 0.17819625E+04</rscale>
<asrwt>0</asrwt>
<pdfrwt beam="1">  1        4 0.14168628E+00 0.17819625E+04</pdfrwt>
<pdfrwt beam="2">  1       -4 0.11434397E+00 0.17819625E+04</pdfrwt>
<totfact> 0.39376690E-01</totfact>
</mgrwt>
</event>
<event>
 8    1  0.1287848E-011  0.1476501E+04  0.7818608E-02  0.8900232E-01
         -4   -1    0    0    0  501 -0.00000000000E+00  0.00000000000E+00  0.32578559746E+03  0.32578807285E+03  0.12700000000E+01 0. -1.
          4   -1    0    0  501    0  0.00000000000E+00 -0.00000000000E+00 -0.16729118696E+04  0.16729123516E+04  0.12700000000E+01 0.  1.
     200001    2    1    2    0    0  0.66043184325E+02  0.72715257839E+02 -0.38465558777E+03  0.80454841191E+03  0.69977783259E+03 0.  0.
    5000001    2    3    3    0    0  0.11510451044E+03 -0.86711067868E+02 -0.43219676339E+02  0.17653388289E+03  0.92349411308E+02 0.  0.
        -11    1    4    4    0    0 -0.13099104370E+00 -0.41013395066E+02  0.23820681048E+01  0.41082721213E+02  0.51100000000E-03 0. -1.
     200002    1    4    4    0    0  0.11523550149E+03 -0.45697672802E+02 -0.45601744444E+02  0.13545116167E+03  0.30000000000E+02 0. -1.
     200000    1    3    3    0    0 -0.49061326119E+02  0.15942632571E+03 -0.34143591143E+03  0.62801452902E+03  0.50000000000E+03 0. -1.
    -200001    1    1    2    0    0 -0.66043184325E+02 -0.72715257839E+02 -0.96247068433E+03  0.11941520126E+04  0.70000000000E+03 0.  1.
<mgrwt>
<rscale>  0 0.14765007E+04</rscale>
<asrwt>0</asrwt>
<pdfrwt beam="1">  1        4 0.23898762E+00 0.14765007E+04</pdfrwt>
<pdfrwt beam="2">  1       -4 0.46541012E-01 0.14765007E+04</pdfrwt>
<totfact> 0.64589960E-01</totfact>
</mgrwt>
</event>
<event>
 8    1  0.1287848E-011  0.1431453E+04  0.7818608E-02  0.8931361E-01
          4   -1    0    0  501    0  0.00000000000E+00  0.00000000000E+00  0.43833791319E+03  0.43833975298E+03  0.12700000000E+01 0.  1.
         -4   -1    0    0    0  501 -0.00000000000E+00 -0.00000000000E+00 -0.11686476211E+04  0.11686483112E+04  0.12700000000E+01 0. -1.
     200001    2    1    2    0    0  0.19420310594E+02 -0.63290032861E+02 -0.21053350870E+03  0.73260252334E+03  0.69856948272E+03 0.  0.
    5000001    2    3    3    0    0 -0.81003734271E+02 -0.53941566826E+02 -0.14515827789E+03  0.21835909517E+03  0.13091398400E+03 0.  0.
        -11    1    4    4    0    0  0.10861766790E+01  0.11268521572E+02  0.18506058463E+02  0.21694090400E+02  0.51100000000E-03 0. -1.
     200002    1    4    4    0    0 -0.82089910950E+02 -0.65210088398E+02 -0.16366433635E+03  0.19666500477E+03  0.30000000000E+02 0. -1.
     200000    1    3    3    0    0  0.10042404487E+03 -0.93484660356E+01 -0.65375230813E+02  0.51424342816E+03  0.50000000000E+03 0.  1.
    -200001    1    1    2    0    0 -0.19420310594E+02  0.63290032861E+02 -0.51977619921E+03  0.87438554082E+03  0.70000000000E+03 0.  1.
<mgrwt>
<rscale>  0 0.14314532E+04</rscale>
<asrwt>0</asrwt>
<pdfrwt beam="1">  1        4 0.62619883E-01 0.14314532E+04</pdfrwt>
<pdfrwt beam="2">  1       -4 0.16694984E+00 0.14314532E+04</pdfrwt>
<totfact> 0.10377404E+00</totfact>
</mgrwt>
</event>
<event>
 8    1  0.1287848E-011  0.1594552E+04  0.7818608E-02  0.8823902E-01
         -4   -1    0    0    0  501 -0.00000000000E+00  0.00000000000E+00  0.11545177939E+04  0.11545184925E+04  0.12700000000E+01 0. -1.
          4   -1    0    0  501    0  0.00000000000E+00 -0.00000000000E+00 -0.55057398442E+03  0.55057544917E+03  0.12700000000E+01 0.  1.
     200001    2    1    2    0    0  0.18315935763E+03 -0.23427874566E+03  0.46159904813E+02  0.76193077159E+03  0.69998134470E+03 0.  0.
    5000001    2    3    3    0    0 -0.19192122144E+02 -0.52339897813E+02  0.91631694112E+02  0.19086549569E+03  0.15787801501E+03 0.  0.
        -11    1    4    4    0    0  0.65763415264E+02 -0.64337713315E+01  0.41195817327E+02  0.77867294587E+02  0.51100000000E-03 0. -1.
     200002    1    4    4    0    0 -0.84955537409E+02 -0.45906126482E+02  0.50435876785E+02  0.11299820110E+03  0.30000000000E+02 0. -1.
     200000    1    3    3    0    0  0.20235147977E+03 -0.18193884785E+03 -0.45471789299E+02  0.57106527591E+03  0.50000000000E+03 0.  1.
    -200001    1    1    2    0    0 -0.18315935763E+03  0.23427874566E+03  0.55778390471E+03  0.94316317003E+03  0.70000000000E+03 0.  1.
<mgrwt>
<rscale>  0 0.15945524E+04</rscale>
<asrwt>0</asrwt>
<pdfrwt beam="1">  1        4 0.78653581E-01 0.15945524E+04</pdfrwt>
<pdfrwt beam="2">  1       -4 0.16493127E+00 0.15945524E+04</pdfrwt>
<totfact> 0.64073304E-01</totfact>
</mgrwt>
</event>
<event>
 8    1  0.1287848E-011  0.1646534E+04  0.7818608E-02  0.8792459E-01
         -4   -1    0    0    0  501 -0.00000000000E+00  0.00000000000E+00  0.31247828719E+03  0.31248086800E+03  0.12700000000E+01 0. -1.
          4   -1    0    0  501    0  0.00000000000E+00 -0.00000000000E+00 -0.21689987220E+04  0.21689990938E+04  0.12700000000E+01 0.  1.
     200001    2    1    2    0    0  0.24394017226E+02  0.38286019071E+02 -0.15726638827E+04  0.17247531752E+04  0.70671135562E+03 0.  0.
    5000001    2    3    3    0    0  0.52324912174E+01  0.27349484740E+02 -0.47253949197E+03  0.51613394365E+03  0.20573114259E+03 0.  0.
        -11    1    4    4    0    0 -0.18468529874E+02  0.11219117430E+03 -0.23648654996E+03  0.26240014196E+03  0.51100000000E-03 0. -1.
     200002    1    4    4    0    0  0.23701021092E+02 -0.84841689560E+02 -0.23605294201E+03  0.25373380169E+03  0.30000000000E+02 0. -1.
     200000    1    3    3    0    0  0.19161526008E+02  0.10936534331E+02 -0.11001243907E+04  0.12086192316E+04  0.50000000000E+03 0.  1.
    -200001    1    1    2    0    0 -0.24394017226E+02 -0.38286019071E+02 -0.28385655208E+03  0.75672678656E+03  0.70000000000E+03 0. -1.
<mgrwt>
<rscale>  0 0.16465341E+04</rscale>
<asrwt>0</asrwt>
<pdfrwt beam="1">  1        4 0.30985716E+00 0.16465341E+04</pdfrwt>
<pdfrwt beam="2">  1       -4 0.44639967E-01 0.16465341E+04</pdfrwt>
<totfact> 0.25265484E-01</totfact>
</mgrwt>
</event>
<event>
 8    1  0.1287848E-011  0.1420537E+04  0.7818608E-02  0.8939085E-01
          4   -1    0    0  501    0  0.00000000000E+00  0.00000000000E+00  0.21985299953E+04  0.21985303622E+04  0.12700000000E+01 0.  1.
         -4   -1    0    0    0  501 -0.00000000000E+00 -0.00000000000E+00 -0.22946100342E+03  0.22946451794E+03  0.12700000000E+01 0. -1.
     200001    2    1    2    0    0  0.10027101293E+03 -0.61029405679E+02  0.10036723090E+04  0.12297588350E+04  0.70083509044E+03 0.  0.
    5000001    2    3    3    0    0  0.46812942329E+02 -0.46994298676E+01  0.18067922305E+03  0.26365922780E+03  0.18616570724E+03 0.  0.
        -11    1    4    4    0    0 -0.24380640309E+01  0.86460154188E+01 -0.37000324872E+02  0.38075212143E+02  0.51100000000E-03 0. -1.
     200002    1    4    4    0    0  0.49251006360E+02 -0.13345445286E+02  0.21767954792E+03  0.22558401566E+03  0.30000000000E+02 0. -1.
     200000    1    3    3    0    0  0.53458070599E+02 -0.56329975811E+02  0.82299308599E+03  0.96609960722E+03  0.50000000000E+03 0.  1.
    -200001    1    1    2    0    0 -0.10027101293E+03  0.61029405679E+02  0.96539668288E+03  0.11982360451E+04  0.70000000000E+03 0.  1.
<mgrwt>
<rscale>  0 0.14205374E+04</rscale>
<asrwt>0</asrwt>
<pdfrwt beam="1">  1        4 0.31407600E+00 0.14205374E+04</pdfrwt>
<pdfrwt beam="2">  1       -4 0.32780419E-01 0.14205374E+04</pdfrwt>
<totfact> 0.44979555E-01</totfact>
</mgrwt>
</event>
<event>
 8    1  0.1287848E-011  0.1743645E+04  0.7818608E-02  0.8736856E-01
         -4   -1    0    0    0  501 -0.00000000000E+00  0.00000000000E+00  0.14957361574E+04  0.14957366965E+04  0.12700000000E+01 0. -1.
          4   -1    0    0  501    0  0.00000000000E+00 -0.00000000000E+00 -0.50815908798E+03  0.50816067498E+03  0.12700000000E+01 0.  1.
     200001    2    1    2    0    0 -0.80540042131E+02  0.19206796998E+03 -0.53266271072E+02  0.73238973770E+03  0.70012900866E+03 0.  0.
    5000001    2    3    3    0    0  0.97256047759E+02  0.72267355985E+02  0.61176755317E+02  0.17645732905E+03  0.11275319959E+03 0.  0.
        -11    1    4    4    0    0  0.22941449928E+02 -0.17927833128E+02 -0.16007549771E+02  0.33225878098E+02  0.51100000000E-03 0. -1.
     200002    1    4    4    0    0  0.74314597830E+02  0.90195189113E+02  0.77184305088E+02  0.14323145095E+03  0.30000000000E+02 0. -1.
     200000    1    3    3    0    0 -0.17779608989E+03  0.11980061400E+03 -0.11444302639E+03  0.55593240865E+03  0.50000000000E+03 0.  1.
    -200001    1    1    2    0    0  0.80540042131E+02 -0.19206796998E+03  0.10408433405E+04  0.12715076338E+04  0.70000000000E+03 0. -1.
<mgrwt>
<rscale>  0 0.17436445E+04</rscale>
<asrwt>0</asrwt>
<pdfrwt beam="1">  1        4 0.72594306E-01 0.17436445E+04</pdfrwt>
<pdfrwt beam="2">  1       -4 0.21367675E+00 0.17436445E+04</pdfrwt>
<totfact> 0.35334698E-01</totfact>
</mgrwt>
</event>
<event>
 8    1  0.1287848E-011  0.2053101E+04  0.7818608E-02  0.8582189E-01
         -4   -1    0    0    0  501 -0.00000000000E+00  0.00000000000E+00  0.18337381934E+04  0.18337386332E+04  0.12700000000E+01 0. -1.
          4   -1    0    0  501    0  0.00000000000E+00 -0.00000000000E+00 -0.57467489589E+03  0.57467629921E+03  0.12700000000E+01 0.  1.
     200001    2    1    2    0    0  0.38203884821E+02 -0.97188643470E+02  0.15017267977E+04  0.16602232834E+04  0.70018055289E+03 0.  0.
    5000001    2    3    3    0    0  0.10273529275E+02  0.79381544243E+02  0.26593086025E+03  0.31517728608E+03  0.14903195716E+03 0.  0.
        -11    1    4    4    0    0  0.36641657953E+01  0.24858945631E+02  0.24911120996E+03  0.25037529474E+03  0.51100000000E-03 0. -1.
     200002    1    4    4    0    0  0.66093634796E+01  0.54522598613E+02  0.16819650291E+02  0.64801991335E+02  0.30000000000E+02 0. -1.
     200000    1    3    3    0    0  0.27930355546E+02 -0.17657018771E+03  0.12357959374E+04  0.13450459973E+04  0.50000000000E+03 0. -1.
    -200001    1    1    2    0    0 -0.38203884821E+02  0.97188643470E+02 -0.24266350021E+03  0.74819164896E+03  0.70000000000E+03 0.  1.
<mgrwt>
<rscale>  0 0.20531006E+04</rscale>
<asrwt>0</asrwt>
<pdfrwt beam="1">  1        4 0.82096546E-01 0.20531006E+04</pdfrwt>
<pdfrwt beam="2">  1       -4 0.26196273E+00 0.20531006E+04</pdfrwt>
<totfact> 0.12986251E-01</totfact>
</mgrwt>
</event>
<event>
 8    1  0.1287848E-011  0.1419849E+04  0.7818608E-02  0.8939575E-01
          4   -1    0    0  501    0  0.00000000000E+00  0.00000000000E+00  0.90514912473E+03  0.90515001569E+03  0.12700000000E+01 0.  1.
         -4   -1    0    0    0  501 -0.00000000000E+00 -0.00000000000E+00 -0.55680417708E+03  0.55680562543E+03  0.12700000000E+01 0. -1.
     200001    2    1    2    0    0  0.79116664134E+02  0.81355977487E+02  0.21322389639E+03  0.74005818296E+03  0.69953087319E+03 0.  0.
    5000001    2    3    3    0    0 -0.36286434969E+02  0.31223488872E+02  0.22213089630E+02  0.19022523560E+03  0.18275833028E+03 0.  0.
        -11    1    4    4    0    0 -0.90556917288E+02  0.69885573379E+02  0.19982122047E+01  0.11440516373E+03  0.51100000000E-03 0. -1.
     200002    1    4    4    0    0  0.54270482319E+02 -0.38662084507E+02  0.20214877425E+02  0.75820071873E+02  0.30000000000E+02 0. -1.
     200000    1    3    3    0    0  0.11540309910E+03  0.50132488615E+02  0.19101080676E+03  0.54983294735E+03  0.50000000000E+03 0.  1.
    -200001    1    1    2    0    0 -0.79116664134E+02 -0.81355977487E+02  0.13512105127E+03  0.72189745817E+03  0.70000000000E+03 0. -1.
<mgrwt>
<rscale>  0 0.14198486E+04</rscale>
<asrwt>0</asrwt>
<pdfrwt beam="1">  1        4 0.12930719E+00 0.14198486E+04</pdfrwt>
<pdfrwt beam="2">  1       -4 0.79543621E-01 0.14198486E+04</pdfrwt>
<totfact> 0.12039804E+00</totfact>
</mgrwt>
</event>
<event>
 8    1  0.1287848E-011  0.2217070E+04  0.7818608E-02  0.8511357E-01
         -4   -1    0    0    0  501 -0.00000000000E+00  0.00000000000E+00  0.98901178364E+03  0.98901259905E+03  0.12700000000E+01 0. -1.
          4   -1    0    0  501    0  0.00000000000E+00 -0.00000000000E+00 -0.12425010017E+04  0.12425016507E+04  0.12700000000E+01 0.  1.
     200001    2    1    2    0    0 -0.61765026675E+02  0.70478383097E+03  0.36433418849E+03  0.10600873726E+04  0.70036466909E+03 0.  0.
    5000001    2    3    3    0    0 -0.77417492365E+02  0.49336041026E+02  0.10177364013E+03  0.19475804420E+03  0.13836657431E+03 0.  0.
        -11    1    4    4    0    0 -0.84819887894E+02 -0.18426987545E+02  0.77679099550E+02  0.11648180012E+03  0.51100000000E-03 0. -1.
     200002    1    4    4    0    0  0.74023955291E+01  0.67763028570E+02  0.24094540581E+02  0.78276244074E+02  0.30000000000E+02 0.  1.
     200000    1    3    3    0    0  0.15652465690E+02  0.65544778994E+03  0.26256054836E+03  0.86532932839E+03  0.50000000000E+03 0. -1.
    -200001    1    1    2    0    0  0.61765026675E+02 -0.70478383097E+03 -0.61782340651E+03  0.11714268772E+04  0.70000000000E+03 0.  1.
<mgrwt>
<rscale>  0 0.22170699E+04</rscale>
<asrwt>0</asrwt>
<pdfrwt beam="1">  1        4 0.17750025E+00 0.22170699E+04</pdfrwt>
<pdfrwt beam="2">  1       -4 0.14128750E+00 0.22170699E+04</pdfrwt>
<totfact> 0.12023271E-01</totfact>
</mgrwt>
</event>
<event>
 8    1  0.1287848E-011  0.1474438E+04  0.7818608E-02  0.8901631E-01
          4   -1    0    0  501    0  0.00000000000E+00  0.00000000000E+00  0.12531613256E+04  0.12531619691E+04  0.12700000000E+01 0.  1.
         -4   -1    0    0    0  501 -0.00000000000E+00 -0.00000000000E+00 -0.43369522736E+03  0.43369708684E+03  0.12700000000E+01 0. -1.
     200001    2    1    2    0    0  0.60635378435E+02  0.21556301884E+03  0.34255657839E+03  0.81073877066E+03  0.69986304420E+03 0.  0.
    5000001    2    3    3    0    0 -0.24742806690E+02  0.10565395831E+03  0.19525425159E+03  0.27123213348E+03  0.15384304364E+03 0.  0.
        -11    1    4    4    0    0  0.29969220369E+02  0.11847224150E+03  0.10724809732E+03  0.16259145290E+03  0.51100000000E-03 0. -1.
     200002    1    4    4    0    0 -0.54712027059E+02 -0.12818283184E+02  0.88006154265E+02  0.10864068058E+03  0.30000000000E+02 0. -1.
     200000    1    3    3    0    0  0.85378185125E+02  0.10990906052E+03  0.14730232680E+03  0.53950663718E+03  0.50000000000E+03 0.  1.
    -200001    1    1    2    0    0 -0.60635378435E+02 -0.21556301884E+03  0.47690951984E+03  0.87612028530E+03  0.70000000000E+03 0.  1.
<mgrwt>
<rscale>  0 0.14744385E+04</rscale>
<asrwt>0</asrwt>
<pdfrwt beam="1">  1        4 0.17902322E+00 0.14744385E+04</pdfrwt>
<pdfrwt beam="2">  1       -4 0.61956640E-01 0.14744385E+04</pdfrwt>
<totfact> 0.86932424E-01</totfact>
</mgrwt>
</event>
<event>
 8    1  0.1287848E-011  0.1471639E+04  0.7818608E-02  0.8903535E-01
         -4   -1    0    0    0  501 -0.00000000000E+00  0.00000000000E+00  0.88144497692E+03  0.88144589184E+03  0.12700000000E+01 0. -1.
          4   -1    0    0  501    0  0.00000000000E+00 -0.00000000000E+00 -0.61425106601E+03  0.61425237891E+03  0.12700000000E+01 0.  1.
     200001    2    1    2    0    0 -0.73190152803E+02  0.16239907425E+03 -0.34721777008E+02  0.71282960974E+03  0.68934040425E+03 0.  0.
    5000001    2    3    3    0    0 -0.88229732001E+02  0.62466616109E+02 -0.14313537626E+02  0.20231106809E+03  0.17040635896E+03 0.  0.
        -11    1    4    4    0    0 -0.10185786216E+03  0.16086047202E+02  0.51541543005E+02  0.11528363133E+03  0.51100000000E-03 0. -1.
     200002    1    4    4    0    0  0.13628130154E+02  0.46380568907E+02 -0.65855080630E+02  0.87027436757E+02  0.30000000000E+02 0. -1.
     200000    1    3    3    0    0  0.15039579198E+02  0.99932458141E+02 -0.20408239382E+02  0.51051854165E+03  0.50000000000E+03 0.  1.
    -200001    1    1    2    0    0  0.73190152803E+02 -0.16239907425E+03  0.30191568792E+03  0.78286866101E+03  0.70000000000E+03 0. -1.
<mgrwt>
<rscale>  0 0.14716388E+04</rscale>
<asrwt>0</asrwt>
<pdfrwt beam="1">  1        4 0.87750313E-01 0.14716388E+04</pdfrwt>
<pdfrwt beam="2">  1       -4 0.12592087E+00 0.14716388E+04</pdfrwt>
<totfact> 0.10249939E+00</totfact>
</mgrwt>
</event>
<event>
 8    1  0.1287848E-011  0.2224152E+04  0.7818608E-02  0.8508442E-01
          4   -1    0    0  501    0  0.00000000000E+00  0.00000000000E+00  0.88256851880E+03  0.88256943255E+03  0.12700000000E+01 0.  1.
         -4   -1    0    0    0  501 -0.00000000000E+00 -0.00000000000E+00 -0.14012634120E+04  0.14012639875E+04  0.12700000000E+01 0. -1.
     200001    2    1    2    0    0  0.30542112175E+03  0.24009339809E+03 -0.10518475875E+04  0.13219713214E+04  0.70021277197E+03 0.  0.
    5000001    2    3    3    0    0  0.13064190438E+03 -0.36759754068E+02 -0.30995689965E+03  0.36929234332E+03  0.14793569040E+03 0.  0.
        -11    1    4    4    0    0  0.26920495716E+02 -0.61488890463E+02 -0.41589779738E+02  0.78963957087E+02  0.51100000000E-03 0. -1.
     200002    1    4    4    0    0  0.10372140867E+03  0.24729136395E+02 -0.26836711991E+03  0.29032838624E+03  0.30000000000E+02 0. -1.
     200000    1    3    3    0    0  0.17477921737E+03  0.27685315216E+03 -0.74189068782E+03  0.95267897812E+03  0.50000000000E+03 0. -1.
    -200001    1    1    2    0    0 -0.30542112175E+03 -0.24009339809E+03  0.53315269425E+03  0.96186209864E+03  0.70000000000E+03 0.  1.
<mgrwt>
<rscale>  0 0.22241517E+04</rscale>
<asrwt>0</asrwt>
<pdfrwt beam="1">  1        4 0.12608132E+00 0.22241517E+04</pdfrwt>
<pdfrwt beam="2">  1       -4 0.20018059E+00 0.22241517E+04</pdfrwt>
<totfact> 0.11285903E-01</totfact>
</mgrwt>
</event>
<event>
 8    1  0.1287848E-011  0.1587686E+04  0.7818608E-02  0.8828149E-01
          4   -1    0    0  501    0  0.00000000000E+00  0.00000000000E+00  0.15172050702E+04  0.15172056017E+04  0.12700000000E+01 0.  1.
         -4   -1    0    0    0  501 -0.00000000000E+00 -0.00000000000E+00 -0.41535854564E+03  0.41536048721E+03  0.12700000000E+01 0. -1.
     200001    2    1    2    0    0  0.15865794026E+03  0.30529761674E+03  0.73107953359E+03  0.10689416692E+04  0.69984286158E+03 0.  0.
    5000001    2    3    3    0    0  0.38495582693E+02 -0.18358123548E+02  0.16930420788E+03  0.24142517572E+03  0.16674312602E+03 0.  0.
        -11    1    4    4    0    0  0.50010386522E+02 -0.84170319461E+02  0.84075352185E+02  0.12905171941E+03  0.51100000000E-03 0. -1.
     200002    1    4    4    0    0 -0.11514803829E+02  0.65812195913E+02  0.85228855696E+02  0.11237345630E+03  0.30000000000E+02 0. -1.
     200000    1    3    3    0    0  0.12016235757E+03  0.32365574029E+03  0.56177532571E+03  0.82751649348E+03  0.50000000000E+03 0. -1.
    -200001    1    1    2    0    0 -0.15865794026E+03 -0.30529761674E+03  0.37076699097E+03  0.86362441975E+03  0.70000000000E+03 0. -1.
<mgrwt>
<rscale>  0 0.15876857E+04</rscale>
<asrwt>0</asrwt>
<pdfrwt beam="1">  1        4 0.21674376E+00 0.15876857E+04</pdfrwt>
<pdfrwt beam="2">  1       -4 0.59337112E-01 0.15876857E+04</pdfrwt>
<totfact> 0.53107335E-01</totfact>
</mgrwt>
</event>
<event>
 8    1  0.1287848E-011  0.1865826E+04  0.7818608E-02  0.8672057E-01
          4   -1    0    0  501    0  0.00000000000E+00  0.00000000000E+00  0.23731635161E+04  0.23731638559E+04  0.12700000000E+01 0.  1.
         -4   -1    0    0    0  501 -0.00000000000E+00 -0.00000000000E+00 -0.36673534538E+03  0.36673754437E+03  0.12700000000E+01 0. -1.
     200001    2    1    2    0    0 -0.37028959087E+03  0.48980924534E+03  0.90796269305E+03  0.12998826908E+04  0.69876410903E+03 0.  0.
    5000001    2    3    3    0    0 -0.10387244420E+03  0.15654712232E+03  0.23925237793E+03  0.36221791908E+03  0.19663070559E+03 0.  0.
        -11    1    4    4    0    0  0.36528786634E+02 -0.65906545751E+01 -0.24321160657E+01  0.37198174276E+02  0.51100000000E-03 0. -1.
     200002    1    4    4    0    0 -0.14040123084E+03  0.16313777690E+03  0.24168449400E+03  0.32501974480E+03  0.30000000000E+02 0. -1.
     200000    1    3    3    0    0 -0.26641714666E+03  0.33326212302E+03  0.66871031512E+03  0.93766477177E+03  0.50000000000E+03 0.  1.
    -200001    1    1    2    0    0  0.37028959087E+03 -0.48980924534E+03  0.10984654777E+04  0.14400187095E+04  0.70000000000E+03 0.  1.
<mgrwt>
<rscale>  0 0.18658257E+04</rscale>
<asrwt>0</asrwt>
<pdfrwt beam="1">  1        4 0.33902353E+00 0.18658257E+04</pdfrwt>
<pdfrwt beam="2">  1       -4 0.52390947E-01 0.18658257E+04</pdfrwt>
<totfact> 0.11613167E-01</totfact>
</mgrwt>
</event>
<event>
 8    1  0.1287848E-011  0.1935417E+04  0.7818608E-02  0.8637425E-01
          4   -1    0    0  501    0  0.00000000000E+00  0.00000000000E+00  0.62134484169E+03  0.62134613960E+03  0.12700000000E+01 0.  1.
         -4   -1    0    0    0  501 -0.00000000000E+00 -0.00000000000E+00 -0.15071473694E+04  0.15071479045E+04  0.12700000000E+01 0. -1.
     200001    2    1    2    0    0  0.46300677313E+03  0.32159386249E+03 -0.46234850086E+02  0.89858682413E+03  0.69822828271E+03 0.  0.
    5000001    2    3    3    0    0  0.51160653244E+02  0.74659305068E+02  0.50167808210E+02  0.19866727543E+03  0.16958907121E+03 0.  0.
        -11    1    4    4    0    0  0.10375453954E+03  0.47351743386E+02  0.64059940391E+02  0.13080851670E+03  0.51100000000E-03 0. -1.
     200002    1    4    4    0    0 -0.52593886296E+02  0.27307561681E+02 -0.13892132181E+02  0.67858758737E+02  0.30000000000E+02 0. -1.
     200000    1    3    3    0    0  0.41184611989E+03  0.24693455743E+03 -0.96402658296E+02  0.69991954870E+03  0.50000000000E+03 0.  1.
    -200001    1    1    2    0    0 -0.46300677313E+03 -0.32159386249E+03 -0.83956767760E+03  0.12299072199E+04  0.70000000000E+03 0. -1.
<mgrwt>
<rscale>  0 0.19354175E+04</rscale>
<asrwt>0</asrwt>
<pdfrwt beam="1">  1        4 0.88763680E-01 0.19354175E+04</pdfrwt>
<pdfrwt beam="2">  1       -4 0.21530690E+00 0.19354175E+04</pdfrwt>
<totfact> 0.21510621E-01</totfact>
</mgrwt>
</event>
<event>
 8    1  0.1287848E-011  0.1568829E+04  0.7818608E-02  0.8839930E-01
          4   -1    0    0  501    0  0.00000000000E+00  0.00000000000E+00  0.63943960390E+03  0.63944086508E+03  0.12700000000E+01 0. -1.
         -4   -1    0    0    0  501 -0.00000000000E+00 -0.00000000000E+00 -0.96225590639E+03  0.96225674448E+03  0.12700000000E+01 0.  1.
     200001    2    1    2    0    0  0.90705487223E+02 -0.31008409084E+03 -0.30892550336E+03  0.83061228152E+03  0.70007297247E+03 0.  0.
    5000001    2    3    3    0    0  0.51748289862E+02 -0.15295111690E+03 -0.15019863696E+03  0.28161077620E+03  0.17513728633E+03 0.  0.
        -11    1    4    4    0    0 -0.47681742999E+02 -0.11612406389E+03 -0.10013398484E+03  0.16057758794E+03  0.51100000000E-03 0. -1.
     200002    1    4    4    0    0  0.99430032861E+02 -0.36827053009E+02 -0.50064652129E+02  0.12103318826E+03  0.30000000000E+02 0. -1.
     200000    1    3    3    0    0  0.38957197361E+02 -0.15713297394E+03 -0.15872686640E+03  0.54900150532E+03  0.50000000000E+03 0.  1.
    -200001    1    1    2    0    0 -0.90705487223E+02  0.31008409084E+03 -0.13890799132E+02  0.77108532803E+03  0.70000000000E+03 0. -1.
<mgrwt>
<rscale>  0 0.15688291E+04</rscale>
<asrwt>0</asrwt>
<pdfrwt beam="1">  1        4 0.91348664E-01 0.15688291E+04</pdfrwt>
<pdfrwt beam="2">  1       -4 0.13746528E+00 0.15688291E+04</pdfrwt>
<totfact> 0.74130793E-01</totfact>
</mgrwt>
</event>
<event>
 8    1  0.1287848E-011  0.1485779E+04  0.7818608E-02  0.8893965E-01
          4   -1    0    0  501    0  0.00000000000E+00  0.00000000000E+00  0.43986198706E+03  0.43986382048E+03  0.12700000000E+01 0.  1.
         -4   -1    0    0    0  501 -0.00000000000E+00 -0.00000000000E+00 -0.12546719604E+04  0.12546726031E+04  0.12700000000E+01 0. -1.
     200001    2    1    2    0    0  0.23981486675E+03 -0.41269483298E+02 -0.35247951921E+03  0.82105843914E+03  0.70048612296E+03 0.  0.
    5000001    2    3    3    0    0 -0.14265813546E+02 -0.14289551443E+02 -0.88374266962E+02  0.20054535057E+03  0.17888745585E+03 0.  0.
        -11    1    4    4    0    0  0.66393730693E+02  0.21560585834E+02  0.31813943042E+01  0.69879235878E+02  0.51100000000E-03 0. -1.
     200002    1    4    4    0    0 -0.80659544240E+02 -0.35850137277E+02 -0.91555661266E+02  0.13066611470E+03  0.30000000000E+02 0. -1.
     200000    1    3    3    0    0  0.25408068029E+03 -0.26979931855E+02 -0.26410525224E+03  0.62051308857E+03  0.50000000000E+03 0. -1.
    -200001    1    1    2    0    0 -0.23981486675E+03  0.41269483298E+02 -0.46233045412E+03  0.87347798448E+03  0.70000000000E+03 0.  1.
<mgrwt>
<rscale>  0 0.14857787E+04</rscale>
<asrwt>0</asrwt>
<pdfrwt beam="1">  1        4 0.62837604E-01 0.14857787E+04</pdfrwt>
<pdfrwt beam="2">  1       -4 0.17923903E+00 0.14857787E+04</pdfrwt>
<totfact> 0.83957468E-01</totfact>
</mgrwt>
</event>
<event>
 8    1  0.1287848E-011  0.1612281E+04  0.7818608E-02  0.8813039E-01
          4   -1    0    0  501    0  0.00000000000E+00  0.00000000000E+00  0.65396599603E+03  0.65396722920E+03  0.12700000000E+01 0.  1.
         -4   -1    0    0    0  501 -0.00000000000E+00 -0.00000000000E+00 -0.99372243804E+03  0.99372324959E+03  0.12700000000E+01 0. -1.
     200001    2    1    2    0    0 -0.12864874738E+03  0.30687912074E+03  0.56557508625E+02  0.77717911044E+03  0.70005951388E+03 0.  0.
    5000001    2    3    3    0    0 -0.41163500017E+02 -0.22004522168E+02 -0.76503315291E+01  0.16895154956E+03  0.16219576381E+03 0.  0.
        -11    1    4    4    0    0 -0.50592325782E+02  0.21925711115E+02 -0.68266797393E+02  0.87753494873E+02  0.51100000000E-03 0. -1.
     200002    1    4    4    0    0  0.94288257646E+01 -0.43930233283E+02  0.60616465863E+02  0.81198054689E+02  0.30000000000E+02 0. -1.
     200000    1    3    3    0    0 -0.87485247366E+02  0.32888364291E+03  0.64207840155E+02  0.60822756088E+03  0.50000000000E+03 0. -1.
    -200001    1    1    2    0    0  0.12864874738E+03 -0.30687912074E+03 -0.39631395064E+03  0.87051136835E+03  0.70000000000E+03 0. -1.
<mgrwt>
<rscale>  0 0.16122808E+04</rscale>
<asrwt>0</asrwt>
<pdfrwt beam="1">  1        4 0.93423860E-01 0.16122808E+04</pdfrwt>
<pdfrwt beam="2">  1       -4 0.14196049E+00 0.16122808E+04</pdfrwt>
<totfact> 0.64467705E-01</totfact>
</mgrwt>
</event>
<event>
 8    1  0.1287848E-011  0.1485158E+04  0.7818608E-02  0.8894383E-01
         -4   -1    0    0    0  501 -0.00000000000E+00  0.00000000000E+00  0.97567245737E+03  0.97567328393E+03  0.12700000000E+01 0. -1.
          4   -1    0    0  501    0  0.00000000000E+00 -0.00000000000E+00 -0.56517081961E+03  0.56517224652E+03  0.12700000000E+01 0.  1.
     200001    2    1    2    0    0 -0.13150629493E+03  0.20956147907E+03  0.19996565157E+03  0.76913618064E+03  0.70026729428E+03 0.  0.
    5000001    2    3    3    0    0  0.22935951533E+02  0.11310196790E+03  0.10325459974E+03  0.22829436242E+03  0.16774591062E+03 0.  0.
        -11    1    4    4    0    0  0.19588091061E+02  0.13460495461E+03  0.12549556978E+03  0.18507113538E+03  0.51100000000E-03 0. -1.
     200002    1    4    4    0    0  0.33478604720E+01 -0.21502986704E+02 -0.22240970044E+02  0.43223227036E+02  0.30000000000E+02 0. -1.
     200000    1    3    3    0    0 -0.15444224646E+03  0.96459511166E+02  0.96711051827E+02  0.54084181822E+03  0.50000000000E+03 0. -1.
    -200001    1    1    2    0    0  0.13150629493E+03 -0.20956147907E+03  0.21053598620E+03  0.77170934982E+03  0.70000000000E+03 0.  1.
<mgrwt>
<rscale>  0 0.14851577E+04</rscale>
<asrwt>0</asrwt>
<pdfrwt beam="1">  1        4 0.80738851E-01 0.14851577E+04</pdfrwt>
<pdfrwt beam="2">  1       -4 0.13938194E+00 0.14851577E+04</pdfrwt>
<totfact> 0.95570341E-01</totfact>
</mgrwt>
</event>
<event>
 8    1  0.1287848E-011  0.1489990E+04  0.7818608E-02  0.8891137E-01
         -4   -1    0    0    0  501 -0.00000000000E+00  0.00000000000E+00  0.19418009993E+03  0.19418425299E+03  0.12700000000E+01 0. -1.
          4   -1    0    0  501    0  0.00000000000E+00 -0.00000000000E+00 -0.28582283308E+04  0.28582286130E+04  0.12700000000E+01 0.  1.
     200001    2    1    2    0    0  0.14116271282E+03  0.27555499697E+02 -0.90111477639E+03  0.11501456444E+04  0.70010066857E+03 0.  0.
    5000001    2    3    3    0    0  0.10675986211E+02  0.25991387832E+01 -0.26075064534E+03  0.32691066819E+03  0.19687293803E+03 0.  0.
        -11    1    4    4    0    0  0.13057399727E+02 -0.94538475831E+02 -0.12994662056E+03  0.16122699308E+03  0.51100000000E-03 0. -1.
     200002    1    4    4    0    0 -0.23814135163E+01  0.97137614614E+02 -0.13080402478E+03  0.16568367512E+03  0.30000000000E+02 0. -1.
     200000    1    3    3    0    0  0.13048672661E+03  0.24956360914E+02 -0.64036413105E+03  0.82323497624E+03  0.50000000000E+03 0. -1.
    -200001    1    1    2    0    0 -0.14116271282E+03 -0.27555499697E+02 -0.17629334545E+04  0.19022672215E+04  0.70000000000E+03 0.  1.
<mgrwt>
<rscale>  0 0.14899904E+04</rscale>
<asrwt>0</asrwt>
<pdfrwt beam="1">  1        4 0.40831863E+00 0.14899904E+04</pdfrwt>
<pdfrwt beam="2">  1       -4 0.27740333E-01 0.14899904E+04</pdfrwt>
<totfact> 0.14744164E-01</totfact>
</mgrwt>
</event>
<event>
 8    1  0.1287848E-011  0.1718001E+04  0.7818608E-02  0.8751164E-01
         -4   -1    0    0    0  501 -0.00000000000E+00  0.00000000000E+00  0.35834338486E+03  0.35834563535E+03  0.12700000000E+01 0. -1.
          4   -1    0    0  501    0  0.00000000000E+00 -0.00000000000E+00 -0.20591381382E+04  0.20591385299E+04  0.12700000000E+01 0.  1.
     200001    2    1    2    0    0  0.44509504566E+03 -0.88988278174E+02 -0.56144505455E+03  0.10053417328E+04  0.69961627842E+03 0.  0.
    5000001    2    3    3    0    0  0.95754927120E+01 -0.60800249425E+02 -0.11573831965E+03  0.20588795705E+03  0.15876439095E+03 0.  0.
        -11    1    4    4    0    0  0.38096424852E+02 -0.12585885532E+02  0.27867853583E+02  0.48850377325E+02  0.51100000000E-03 0. -1.
     200002    1    4    4    0    0 -0.28520932140E+02 -0.48214363893E+02 -0.14360617324E+03  0.15703757973E+03  0.30000000000E+02 0. -1.
     200000    1    3    3    0    0  0.43551955295E+03 -0.28188028749E+02 -0.44570673490E+03  0.79945377572E+03  0.50000000000E+03 0. -1.
    -200001    1    1    2    0    0 -0.44509504566E+03  0.88988278174E+02 -0.11393496988E+04  0.14121424324E+04  0.70000000000E+03 0.  1.
<mgrwt>
<rscale>  0 0.17180008E+04</rscale>
<asrwt>0</asrwt>
<pdfrwt beam="1">  1        4 0.29416277E+00 0.17180008E+04</pdfrwt>
<pdfrwt beam="2">  1       -4 0.51192102E-01 0.17180008E+04</pdfrwt>
<totfact> 0.23682951E-01</totfact>
</mgrwt>
</event>
<event>
 8    1  0.1287848E-011  0.1503146E+04  0.7818608E-02  0.8882364E-01
         -4   -1    0    0    0  501 -0.00000000000E+00  0.00000000000E+00  0.26384189043E+03  0.26384494698E+03  0.12700000000E+01 0. -1.
          4   -1    0    0  501    0  0.00000000000E+00 -0.00000000000E+00 -0.21408941316E+04  0.21408945083E+04  0.12700000000E+01 0.  1.
     200001    2    1    2    0    0  0.18538220988E+03 -0.50000313254E+02 -0.12446406411E+04  0.14420292045E+04  0.70246089291E+03 0.  0.
    5000001    2    3    3    0    0  0.27403411051E+02  0.66636228910E+02 -0.36769580431E+03  0.41363549067E+03  0.17522208964E+03 0.  0.
        -11    1    4    4    0    0 -0.19759868940E+02  0.90931925570E+02 -0.90451968092E+02  0.12977143769E+03  0.51100000000E-03 0. -1.
     200002    1    4    4    0    0  0.47163279991E+02 -0.24295696660E+02 -0.27724383622E+03  0.28386405298E+03  0.30000000000E+02 0. -1.
     200000    1    3    3    0    0  0.15797879883E+03 -0.11663654216E+03 -0.87694483681E+03  0.10283937138E+04  0.50000000000E+03 0.  1.
    -200001    1    1    2    0    0 -0.18538220988E+03  0.50000313254E+02 -0.63241160010E+03  0.96271025080E+03  0.70000000000E+03 0. -1.
<mgrwt>
<rscale>  0 0.15031456E+04</rscale>
<asrwt>0</asrwt>
<pdfrwt beam="1">  1        4 0.30584225E+00 0.15031456E+04</pdfrwt>
<pdfrwt beam="2">  1       -4 0.37691945E-01 0.15031456E+04</pdfrwt>
<totfact> 0.38152888E-01</totfact>
</mgrwt>
</event>
<event>
 8    1  0.1287848E-011  0.1623200E+04  0.7818608E-02  0.8806421E-01
          4   -1    0    0  501    0  0.00000000000E+00  0.00000000000E+00  0.15573551120E+04  0.15573556298E+04  0.12700000000E+01 0.  1.
         -4   -1    0    0    0  501 -0.00000000000E+00 -0.00000000000E+00 -0.42295561164E+03  0.42295751834E+03  0.12700000000E+01 0. -1.
     200001    2    1    2    0    0  0.14840708727E+03  0.32214540231E+03  0.31486367549E+03  0.84565844648E+03  0.70014052174E+03 0.  0.
    5000001    2    3    3    0    0 -0.59146306719E+02  0.14502462225E+03  0.15973730994E+03  0.25530738874E+03  0.12302612692E+03 0.  0.
        -11    1    4    4    0    0  0.29190976626E+02  0.77335156421E+02  0.80906171282E+02  0.11566610604E+03  0.51100000000E-03 0. -1.
     200002    1    4    4    0    0 -0.88337283345E+02  0.67689465830E+02  0.78831138656E+02  0.13964128270E+03  0.30000000000E+02 0. -1.
     200000    1    3    3    0    0  0.20755339399E+03  0.17712078006E+03  0.15512636555E+03  0.59035105774E+03  0.50000000000E+03 0.  1.
    -200001    1    1    2    0    0 -0.14840708727E+03 -0.32214540231E+03  0.81953582483E+03  0.11346547016E+04  0.70000000000E+03 0. -1.
<mgrwt>
<rscale>  0 0.16231999E+04</rscale>
<asrwt>0</asrwt>
<pdfrwt beam="1">  1        4 0.22247948E+00 0.16231999E+04</pdfrwt>
<pdfrwt beam="2">  1       -4 0.60422403E-01 0.16231999E+04</pdfrwt>
<totfact> 0.46822121E-01</totfact>
</mgrwt>
</event>
<event>
 8    1  0.1287848E-011  0.1523823E+04  0.7818608E-02  0.8868764E-01
         -4   -1    0    0    0  501 -0.00000000000E+00  0.00000000000E+00  0.63704336189E+03  0.63704462782E+03  0.12700000000E+01 0. -1.
          4   -1    0    0  501    0  0.00000000000E+00 -0.00000000000E+00 -0.91125271013E+03  0.91125359512E+03  0.12700000000E+01 0.  1.
     200001    2    1    2    0    0  0.16026549700E+03  0.75197548673E+02 -0.38356392467E+03  0.81802558601E+03  0.70050330064E+03 0.  0.
    5000001    2    3    3    0    0 -0.46156000810E+02  0.16480221027E+02 -0.10694077286E+03  0.20763396791E+03  0.17109518297E+03 0.  0.
        -11    1    4    4    0    0 -0.36371229393E+02  0.14002121158E+02  0.40869045570E+02  0.56473043220E+02  0.51100000000E-03 0. -1.
     200002    1    4    4    0    0 -0.97847714171E+01  0.24780998687E+01 -0.14780981843E+03  0.15116092469E+03  0.30000000000E+02 0. -1.
     200000    1    3    3    0    0  0.20642149781E+03  0.58717327646E+02 -0.27662315181E+03  0.61039161810E+03  0.50000000000E+03 0.  1.
    -200001    1    1    2    0    0 -0.16026549700E+03 -0.75197548673E+02  0.10935457644E+03  0.73027263693E+03  0.70000000000E+03 0. -1.
<mgrwt>
<rscale>  0 0.15238230E+04</rscale>
<asrwt>0</asrwt>
<pdfrwt beam="1">  1        4 0.13017911E+00 0.15238230E+04</pdfrwt>
<pdfrwt beam="2">  1       -4 0.91006349E-01 0.15238230E+04</pdfrwt>
<totfact> 0.86263035E-01</totfact>
</mgrwt>
</event>
<event>
 8    1  0.1287848E-011  0.3745440E+04  0.7818608E-02  0.8057966E-01
          4   -1    0    0  501    0  0.00000000000E+00  0.00000000000E+00  0.33633133534E+04  0.33633135932E+04  0.12700000000E+01 0.  1.
         -4   -1    0    0    0  501 -0.00000000000E+00 -0.00000000000E+00 -0.10427446770E+04  0.10427454504E+04  0.12700000000E+01 0. -1.
     200001    2    1    2    0    0  0.16711099213E+04  0.32992622867E+03  0.15631763351E+04  0.24148024443E+04  0.69734561373E+03 0.  0.
    5000001    2    3    3    0    0  0.52017996302E+03  0.11564872111E+03  0.45288513061E+03  0.72563070115E+03  0.19357983444E+03 0.  0.
        -11    1    4    4    0    0  0.25472404912E+02  0.51132024810E+02  0.10317202981E+02  0.58049737732E+02  0.51100000000E-03 0. -1.
     200002    1    4    4    0    0  0.49470755811E+03  0.64516696300E+02  0.44256792763E+03  0.66758096342E+03  0.30000000000E+02 0. -1.
     200000    1    3    3    0    0  0.11509299582E+04  0.21427750756E+03  0.11102912045E+04  0.16891717432E+04  0.50000000000E+03 0.  1.
    -200001    1    1    2    0    0 -0.16711099213E+04 -0.32992622867E+03  0.75739234129E+03  0.19912565992E+04  0.70000000000E+03 0. -1.
<mgrwt>
<rscale>  0 0.37454395E+04</rscale>
<asrwt>0</asrwt>
<pdfrwt beam="1">  1        4 0.48047341E+00 0.37454395E+04</pdfrwt>
<pdfrwt beam="2">  1       -4 0.14896360E+00 0.37454395E+04</pdfrwt>
<totfact> 0.83931448E-04</totfact>
</mgrwt>
</event>
<event>
 8    1  0.1287848E-011  0.1498682E+04  0.7818608E-02  0.8885330E-01
          4   -1    0    0  501    0  0.00000000000E+00  0.00000000000E+00  0.16690052241E+03  0.16690535426E+03  0.12700000000E+01 0.  1.
         -4   -1    0    0    0  501 -0.00000000000E+00 -0.00000000000E+00 -0.33642963629E+04  0.33642966026E+04  0.12700000000E+01 0. -1.
     200001    2    1    2    0    0 -0.14203440251E+03  0.77848404408E+02 -0.21000242251E+04  0.22195394211E+04  0.70001382138E+03 0.  0.
    5000001    2    3    3    0    0 -0.16681972734E+02  0.89113613903E+02 -0.74176623017E+03  0.76671289413E+03  0.17149926357E+03 0.  0.
        -11    1    4    4    0    0 -0.14601302588E+02 -0.28503741850E+02 -0.27528653314E+02  0.42231363822E+02  0.51100000000E-03 0. -1.
     200002    1    4    4    0    0 -0.20806701456E+01  0.11761735575E+03 -0.71423757686E+03  0.72448153031E+03  0.30000000000E+02 0. -1.
     200000    1    3    3    0    0 -0.12535242978E+03 -0.11265209495E+02 -0.13582579949E+04  0.14528265269E+04  0.50000000000E+03 0.  1.
    -200001    1    1    2    0    0  0.14203440251E+03 -0.77848404408E+02 -0.10973716154E+04  0.13116625358E+04  0.70000000000E+03 0.  1.
<mgrwt>
<rscale>  0 0.14986818E+04</rscale>
<asrwt>0</asrwt>
<pdfrwt beam="1">  1        4 0.23843296E-01 0.14986818E+04</pdfrwt>
<pdfrwt beam="2">  1       -4 0.48061408E+00 0.14986818E+04</pdfrwt>
<totfact> 0.57123365E-02</totfact>
</mgrwt>
</event>
<event>
 8    1  0.1287848E-011  0.1947791E+04  0.7818608E-02  0.8631427E-01
         -4   -1    0    0    0  501 -0.00000000000E+00  0.00000000000E+00  0.10133675640E+04  0.10133683598E+04  0.12700000000E+01 0. -1.
          4   -1    0    0  501    0  0.00000000000E+00 -0.00000000000E+00 -0.93595972590E+03  0.93596058753E+03  0.12700000000E+01 0.  1.
     200001    2    1    2    0    0  0.44988509606E+03  0.50520994819E+03  0.69714498131E+02  0.97583376043E+03  0.69982692528E+03 0.  0.
    5000001    2    3    3    0    0  0.80886809952E+02  0.26137419388E+03  0.71597906789E+02  0.30828664040E+03  0.12269982536E+03 0.  0.
        -11    1    4    4    0    0  0.33117346587E+02  0.79837354288E+02 -0.31543758333E+02  0.92009621641E+02  0.51100000000E-03 0. -1.
     200002    1    4    4    0    0  0.47769463365E+02  0.18153683960E+03  0.10314166512E+03  0.21627701876E+03  0.30000000000E+02 0. -1.
     200000    1    3    3    0    0  0.36899828611E+03  0.24383575430E+03 -0.18834086582E+01  0.66754712003E+03  0.50000000000E+03 0.  1.
    -200001    1    1    2    0    0 -0.44988509606E+03 -0.50520994819E+03  0.76933399377E+01  0.97349518688E+03  0.70000000000E+03 0. -1.
<mgrwt>
<rscale>  0 0.19477914E+04</rscale>
<asrwt>0</asrwt>
<pdfrwt beam="1">  1        4 0.13370865E+00 0.19477914E+04</pdfrwt>
<pdfrwt beam="2">  1       -4 0.14476691E+00 0.19477914E+04</pdfrwt>
<totfact> 0.24795943E-01</totfact>
</mgrwt>
</event>
<event>
 8    1  0.1287848E-011  0.1907904E+04  0.7818608E-02  0.8650932E-01
          4   -1    0    0  501    0  0.00000000000E+00  0.00000000000E+00  0.12268382814E+04  0.12268389388E+04  0.12700000000E+01 0.  1.
         -4   -1    0    0    0  501 -0.00000000000E+00 -0.00000000000E+00 -0.74176257966E+03  0.74176366686E+03  0.12700000000E+01 0. -1.
     200001    2    1    2    0    0  0.58834941703E+02  0.64515649735E+03  0.26561063481E+03  0.98990276806E+03  0.69976426349E+03 0.  0.
    5000001    2    3    3    0    0 -0.94581333589E+02  0.12502676811E+03  0.24794516551E+02  0.21397500623E+03  0.14350335827E+03 0.  0.
        -11    1    4    4    0    0  0.22402065792E+02  0.80435661159E+02  0.42229057938E+01  0.83603714460E+02  0.51100000000E-03 0. -1.
     200002    1    4    4    0    0 -0.11698339938E+03  0.44591106952E+02  0.20571610758E+02  0.13037129177E+03  0.30000000000E+02 0. -1.
     200000    1    3    3    0    0  0.15341627529E+03  0.52012972924E+03  0.24081611826E+03  0.77592776183E+03  0.50000000000E+03 0.  1.
    -200001    1    1    2    0    0 -0.58834941703E+02 -0.64515649735E+03  0.21946506696E+03  0.97869983757E+03  0.70000000000E+03 0. -1.
<mgrwt>
<rscale>  0 0.19079040E+04</rscale>
<asrwt>0</asrwt>
<pdfrwt beam="1">  1        4 0.17526273E+00 0.19079040E+04</pdfrwt>
<pdfrwt beam="2">  1       -4 0.10596621E+00 0.19079040E+04</pdfrwt>
<totfact> 0.26296826E-01</totfact>
</mgrwt>
</event>
<event>
 8    1  0.1287848E-011  0.2874621E+04  0.7818608E-02  0.8280469E-01
         -4   -1    0    0    0  501 -0.00000000000E+00  0.00000000000E+00  0.12372418860E+04  0.12372425378E+04  0.12700000000E+01 0. -1.
          4   -1    0    0  501    0  0.00000000000E+00 -0.00000000000E+00 -0.16697303963E+04  0.16697308793E+04  0.12700000000E+01 0.  1.
     200001    2    1    2    0    0  0.81947970638E+03  0.54487827920E+03 -0.10050721974E+04  0.15704512860E+04  0.69836078880E+03 0.  0.
    5000001    2    3    3    0    0  0.27359447182E+03  0.26309344939E+03 -0.28203201563E+03  0.49798660867E+03  0.15612977439E+03 0.  0.
        -11    1    4    4    0    0  0.22207774127E+03  0.16373715291E+03 -0.26182409573E+03  0.38036855222E+03  0.51100000000E-03 0. -1.
     200002    1    4    4    0    0  0.51516730554E+02  0.99356296480E+02 -0.20207919897E+02  0.11761805645E+03  0.30000000000E+02 0. -1.
     200000    1    3    3    0    0  0.54588523456E+03  0.28178482981E+03 -0.72304018176E+03  0.10724646773E+04  0.50000000000E+03 0.  1.
    -200001    1    1    2    0    0 -0.81947970638E+03 -0.54487827920E+03  0.57258368713E+03  0.13365221312E+04  0.70000000000E+03 0. -1.
<mgrwt>
<rscale>  0 0.28746214E+04</rscale>
<asrwt>0</asrwt>
<pdfrwt beam="1">  1        4 0.23853299E+00 0.28746214E+04</pdfrwt>
<pdfrwt beam="2">  1       -4 0.17674892E+00 0.28746214E+04</pdfrwt>
<totfact> 0.24537122E-02</totfact>
</mgrwt>
</event>
<event>
 8    1  0.1287848E-011  0.1933627E+04  0.7818608E-02  0.8638297E-01
          4   -1    0    0  501    0  0.00000000000E+00  0.00000000000E+00  0.20662568802E+04  0.20662572705E+04  0.12700000000E+01 0.  1.
         -4   -1    0    0    0  501 -0.00000000000E+00 -0.00000000000E+00 -0.45237650663E+03  0.45237828933E+03  0.12700000000E+01 0. -1.
     200001    2    1    2    0    0  0.23898129744E+03  0.42788842052E+03  0.13923811007E+04  0.16358771054E+04  0.70510156261E+03 0.  0.
    5000001    2    3    3    0    0  0.59583666764E+02  0.14540795306E+03  0.35195144281E+03  0.43401496801E+03  0.19951312789E+03 0.  0.
        -11    1    4    4    0    0  0.12644274322E+03  0.67966355660E+02  0.23817280125E+03  0.27808897150E+03  0.51100000000E-03 0. -1.
     200002    1    4    4    0    0 -0.66859076453E+02  0.77441597398E+02  0.11377864156E+03  0.15592599651E+03  0.30000000000E+02 0.  1.
     200000    1    3    3    0    0  0.17939763068E+03  0.28248046746E+03  0.10404296579E+04  0.12018621374E+04  0.50000000000E+03 0.  1.
    -200001    1    1    2    0    0 -0.23898129744E+03 -0.42788842052E+03  0.22149927291E+03  0.88275845442E+03  0.70000000000E+03 0. -1.
<mgrwt>
<rscale>  0 0.19336275E+04</rscale>
<asrwt>0</asrwt>
<pdfrwt beam="1">  1        4 0.29517971E+00 0.19336275E+04</pdfrwt>
<pdfrwt beam="2">  1       -4 0.64625371E-01 0.19336275E+04</pdfrwt>
<totfact> 0.13928855E-01</totfact>
</mgrwt>
</event>
<event>
 8    1  0.1287848E-011  0.1794697E+04  0.7818608E-02  0.8709125E-01
          4   -1    0    0  501    0  0.00000000000E+00  0.00000000000E+00  0.51006561464E+03  0.51006719571E+03  0.12700000000E+01 0.  1.
         -4   -1    0    0    0  501 -0.00000000000E+00 -0.00000000000E+00 -0.15786830837E+04  0.15786835946E+04  0.12700000000E+01 0. -1.
     200001    2    1    2    0    0 -0.15134259028E+03 -0.17745646367E+03  0.60643899468E+02  0.73981542686E+03  0.69946680204E+03 0.  0.
    5000001    2    3    3    0    0 -0.12976486608E+03 -0.14825773088E+03  0.10342414226E+02  0.23598172057E+03  0.12946478934E+03 0.  0.
        -11    1    4    4    0    0 -0.60391970098E+02 -0.84024923798E+02  0.65522777258E+02  0.12247698646E+03  0.51100000000E-03 0. -1.
     200002    1    4    4    0    0 -0.69372895978E+02 -0.64232807085E+02 -0.55180363033E+02  0.11350473412E+03  0.30000000000E+02 0. -1.
     200000    1    3    3    0    0 -0.21577724207E+02 -0.29198732791E+02  0.50301485242E+02  0.50383370629E+03  0.50000000000E+03 0.  1.
    -200001    1    1    2    0    0  0.15134259028E+03  0.17745646367E+03 -0.11292613686E+04  0.13489353634E+04  0.70000000000E+03 0. -1.
<mgrwt>
<rscale>  0 0.17946968E+04</rscale>
<asrwt>0</asrwt>
<pdfrwt beam="1">  1        4 0.72866667E-01 0.17946968E+04</pdfrwt>
<pdfrwt beam="2">  1       -4 0.22552630E+00 0.17946968E+04</pdfrwt>
<totfact> 0.29317776E-01</totfact>
</mgrwt>
</event>
<event>
 8    1  0.1287848E-011  0.1493450E+04  0.7818608E-02  0.8888821E-01
         -4   -1    0    0    0  501 -0.00000000000E+00  0.00000000000E+00  0.49735455157E+03  0.49735617305E+03  0.12700000000E+01 0. -1.
          4   -1    0    0  501    0  0.00000000000E+00 -0.00000000000E+00 -0.11211238325E+04  0.11211245518E+04  0.12700000000E+01 0.  1.
     200001    2    1    2    0    0 -0.23946951041E+03 -0.22932734684E+02 -0.41761927543E+03  0.85012574082E+03  0.70031161582E+03 0.  0.
    5000001    2    3    3    0    0 -0.10722486724E+03  0.43695374970E+02 -0.22644942260E+03  0.29472150670E+03  0.14891261722E+03 0.  0.
        -11    1    4    4    0    0 -0.40050615859E+02 -0.28561612368E+02 -0.37834352269E+01  0.49336922422E+02  0.51100000000E-03 0. -1.
     200002    1    4    4    0    0 -0.67174251385E+02  0.72256987337E+02 -0.22266598738E+03  0.24538458428E+03  0.30000000000E+02 0. -1.
     200000    1    3    3    0    0 -0.13224464316E+03 -0.66628109654E+02 -0.19116985282E+03  0.55540423411E+03  0.50000000000E+03 0. -1.
    -200001    1    1    2    0    0  0.23946951041E+03  0.22932734684E+02 -0.20615000548E+03  0.76835498404E+03  0.70000000000E+03 0. -1.
<mgrwt>
<rscale>  0 0.14934496E+04</rscale>
<asrwt>0</asrwt>
<pdfrwt beam="1">  1        4 0.16016071E+00 0.14934496E+04</pdfrwt>
<pdfrwt beam="2">  1       -4 0.71050817E-01 0.14934496E+04</pdfrwt>
<totfact> 0.87857528E-01</totfact>
</mgrwt>
</event>
<event>
 8    1  0.1287848E-011  0.1496541E+04  0.7818608E-02  0.8886757E-01
         -4   -1    0    0    0  501 -0.00000000000E+00  0.00000000000E+00  0.15137889903E+04  0.15137895230E+04  0.12700000000E+01 0. -1.
          4   -1    0    0  501    0  0.00000000000E+00 -0.00000000000E+00 -0.36987047950E+03  0.36987265985E+03  0.12700000000E+01 0.  1.
     200001    2    1    2    0    0  0.12275027484E+03 -0.12319336782E+03  0.81935465704E+03  0.10927222793E+04  0.70175187201E+03 0.  0.
    5000001    2    3    3    0    0  0.11691755797E+03 -0.49605245607E+02  0.26592741867E+03  0.34323516103E+03  0.17596189365E+03 0.  0.
        -11    1    4    4    0    0  0.50233940917E+02 -0.46057146722E+02  0.76896291956E+00  0.68156444218E+02  0.51100000000E-03 0. -1.
     200002    1    4    4    0    0  0.66683617050E+02 -0.35480988857E+01  0.26515845575E+03  0.27507871682E+03  0.30000000000E+02 0. -1.
     200000    1    3    3    0    0  0.58327168679E+01 -0.73588122217E+02  0.55342723837E+03  0.74948711829E+03  0.50000000000E+03 0. -1.
    -200001    1    1    2    0    0 -0.12275027484E+03  0.12319336782E+03  0.32456385372E+03  0.79093990353E+03  0.70000000000E+03 0.  1.
<mgrwt>
<rscale>  0 0.14965406E+04</rscale>
<asrwt>0</asrwt>
<pdfrwt beam="1">  1        4 0.52838832E-01 0.14965406E+04</pdfrwt>
<pdfrwt beam="2">  1       -4 0.21625577E+00 0.14965406E+04</pdfrwt>
<totfact> 0.68908775E-01</totfact>
</mgrwt>
</event>
<event>
 8    1  0.1287848E-011  0.1951444E+04  0.7818608E-02  0.8629665E-01
          4   -1    0    0  501    0  0.00000000000E+00  0.00000000000E+00  0.15649599674E+04  0.15649604827E+04  0.12700000000E+01 0.  1.
         -4   -1    0    0    0  501 -0.00000000000E+00 -0.00000000000E+00 -0.60834247153E+03  0.60834379718E+03  0.12700000000E+01 0. -1.
     200001    2    1    2    0    0 -0.10502475379E+03  0.65964606317E+03  0.34372316474E+03  0.10279647718E+04  0.70171420864E+03 0.  0.
    5000001    2    3    3    0    0 -0.43651154775E+02  0.15789804581E+03  0.19150522984E+03  0.30085536378E+03  0.16432431554E+03 0.  0.
        -11    1    4    4    0    0 -0.71769704300E+01  0.17254807230E+03  0.18125900826E+03  0.25035809201E+03  0.51100000000E-03 0. -1.
     200002    1    4    4    0    0 -0.36474184345E+02 -0.14650026493E+02  0.10246221576E+02  0.50497271772E+02  0.30000000000E+02 0. -1.
     200000    1    3    3    0    0 -0.61373599015E+02  0.50174801736E+03  0.15221793491E+03  0.72710940806E+03  0.50000000000E+03 0.  1.
    -200001    1    1    2    0    0  0.10502475379E+03 -0.65964606317E+03  0.61289433111E+03  0.11453395080E+04  0.70000000000E+03 0. -1.
<mgrwt>
<rscale>  0 0.19514442E+04</rscale>
<asrwt>0</asrwt>
<pdfrwt beam="1">  1        4 0.22356584E+00 0.19514442E+04</pdfrwt>
<pdfrwt beam="2">  1       -4 0.86906198E-01 0.19514442E+04</pdfrwt>
<totfact> 0.19976714E-01</totfact>
</mgrwt>
</event>
<event>
 8    1  0.1287848E-011  0.1594462E+04  0.7818608E-02  0.8823958E-01
          4   -1    0    0  501    0  0.00000000000E+00  0.00000000000E+00  0.17779379634E+04  0.17779384170E+04  0.12700000000E+01 0.  1.
         -4   -1    0    0    0  501 -0.00000000000E+00 -0.00000000000E+00 -0.35747818938E+03  0.35748044532E+03  0.12700000000E+01 0. -1.
     200001    2    1    2    0    0  0.23867767694E+03 -0.29594697022E+03  0.76183587400E+03  0.11018149322E+04  0.69932153067E+03 0.  0.
    5000001    2    3    3    0    0  0.69542047822E+02 -0.18102403326E+02  0.22907730856E+03  0.30204236863E+03  0.18327407272E+03 0.  0.
        -11    1    4    4    0    0  0.12035483311E+02  0.63209850662E+02  0.17146217687E+03  0.18313824334E+03  0.51100000000E-03 0. -1.
     200002    1    4    4    0    0  0.57506564511E+02 -0.81312253988E+02  0.57615131694E+02  0.11890412529E+03  0.30000000000E+02 0. -1.
     200000    1    3    3    0    0  0.16913562912E+03 -0.27784456689E+03  0.53275856544E+03  0.79977256357E+03  0.50000000000E+03 0.  1.
    -200001    1    1    2    0    0 -0.23867767694E+03  0.29594697022E+03  0.65862390002E+03  0.10336039301E+04  0.70000000000E+03 0.  1.
<mgrwt>
<rscale>  0 0.15944616E+04</rscale>
<asrwt>0</asrwt>
<pdfrwt beam="1">  1        4 0.25399133E+00 0.15944616E+04</pdfrwt>
<pdfrwt beam="2">  1       -4 0.51068506E-01 0.15944616E+04</pdfrwt>
<totfact> 0.42587842E-01</totfact>
</mgrwt>
</event>
<event>
 8    1  0.1287848E-011  0.1510635E+04  0.7818608E-02  0.8877411E-01
          4   -1    0    0  501    0  0.00000000000E+00  0.00000000000E+00  0.10113704370E+04  0.10113712344E+04  0.12700000000E+01 0.  1.
         -4   -1    0    0    0  501 -0.00000000000E+00 -0.00000000000E+00 -0.56408884910E+03  0.56409027875E+03  0.12700000000E+01 0. -1.
     200001    2    1    2    0    0 -0.20985494937E+03  0.16849948157E+03  0.31350026541E+03  0.81366848525E+03  0.70095849550E+03 0.  0.
    5000001    2    3    3    0    0 -0.98710271552E+02  0.87655260302E+02  0.69054672234E+02  0.24039492442E+03  0.18866374734E+03 0.  0.
        -11    1    4    4    0    0 -0.12438174327E+03 -0.89167758264E+01  0.49924913001E+02  0.13432357904E+03  0.51100000000E-03 0. -1.
     200002    1    4    4    0    0  0.25671471713E+02  0.96572036128E+02  0.19129759233E+02  0.10607134538E+03  0.30000000000E+02 0. -1.
     200000    1    3    3    0    0 -0.11114467782E+03  0.80844221264E+02  0.24444559318E+03  0.57327356083E+03  0.50000000000E+03 0.  1.
    -200001    1    1    2    0    0  0.20985494937E+03 -0.16849948157E+03  0.13378132246E+03  0.76179302786E+03  0.70000000000E+03 0. -1.
<mgrwt>
<rscale>  0 0.15106350E+04</rscale>
<asrwt>0</asrwt>
<pdfrwt beam="1">  1        4 0.14448165E+00 0.15106350E+04</pdfrwt>
<pdfrwt beam="2">  1       -4 0.80584281E-01 0.15106350E+04</pdfrwt>
<totfact> 0.87204317E-01</totfact>
</mgrwt>
</event>
<event>
 8    1  0.1287848E-011  0.1432090E+04  0.7818608E-02  0.8930912E-01
         -4   -1    0    0    0  501 -0.00000000000E+00  0.00000000000E+00  0.99009941279E+03  0.99010022731E+03  0.12700000000E+01 0. -1.
          4   -1    0    0  501    0  0.00000000000E+00 -0.00000000000E+00 -0.51784562294E+03  0.51784718026E+03  0.12700000000E+01 0.  1.
     200001    2    1    2    0    0  0.11977098036E+03  0.47660005472E+02  0.31695571501E+03  0.77943244141E+03  0.70031238858E+03 0.  0.
    5000001    2    3    3    0    0  0.10127662064E+03 -0.76945123610E+02  0.14389158656E+03  0.23553937096E+03  0.13636898714E+03 0.  0.
        -11    1    4    4    0    0  0.26407728972E+02 -0.91369632507E+02  0.39880886751E+02  0.10313225985E+03  0.51100000000E-03 0. -1.
     200002    1    4    4    0    0  0.74868891664E+02  0.14424508898E+02  0.10401069981E+03  0.13240711110E+03  0.30000000000E+02 0. -1.
     200000    1    3    3    0    0  0.18494359721E+02  0.12460512908E+03  0.17306412845E+03  0.54389307046E+03  0.50000000000E+03 0.  1.
    -200001    1    1    2    0    0 -0.11977098036E+03 -0.47660005472E+02  0.15529807484E+03  0.72851496615E+03  0.70000000000E+03 0.  1.
<mgrwt>
<rscale>  0 0.14320900E+04</rscale>
<asrwt>0</asrwt>
<pdfrwt beam="1">  1        4 0.73978115E-01 0.14320900E+04</pdfrwt>
<pdfrwt beam="2">  1       -4 0.14144294E+00 0.14320900E+04</pdfrwt>
<totfact> 0.11240851E+00</totfact>
</mgrwt>
</event>
<event>
 8    1  0.1287848E-011  0.1469817E+04  0.7818608E-02  0.8904776E-01
          4   -1    0    0  501    0  0.00000000000E+00  0.00000000000E+00  0.12045043497E+04  0.12045050192E+04  0.12700000000E+01 0.  1.
         -4   -1    0    0    0  501 -0.00000000000E+00 -0.00000000000E+00 -0.44839032747E+03  0.44839212601E+03  0.12700000000E+01 0. -1.
     200001    2    1    2    0    0  0.10712356398E+01 -0.16093187831E+03  0.55325603910E+03  0.90653826487E+03  0.69987081942E+03 0.  0.
    5000001    2    3    3    0    0  0.36345553319E+02  0.14186064071E+02  0.17044834968E+03  0.25197558773E+03  0.18142991275E+03 0.  0.
        -11    1    4    4    0    0 -0.11139794581E+01  0.45934620933E+02  0.18662818671E+03  0.19220122378E+03  0.51100000000E-03 0. -1.
     200002    1    4    4    0    0  0.37459532778E+02 -0.31748556862E+02 -0.16179837025E+02  0.59774363944E+02  0.30000000000E+02 0. -1.
     200000    1    3    3    0    0 -0.35274317680E+02 -0.17511794238E+03  0.38280768942E+03  0.65456267714E+03  0.50000000000E+03 0.  1.
    -200001    1    1    2    0    0 -0.10712356398E+01  0.16093187831E+03  0.20285798314E+03  0.74635888038E+03  0.70000000000E+03 0. -1.
<mgrwt>
<rscale>  0 0.14698165E+04</rscale>
<asrwt>0</asrwt>
<pdfrwt beam="1">  1        4 0.17207222E+00 0.14698165E+04</pdfrwt>
<pdfrwt beam="2">  1       -4 0.64055938E-01 0.14698165E+04</pdfrwt>
<totfact> 0.90547192E-01</totfact>
</mgrwt>
</event>
<event>
 8    1  0.1287848E-011  0.1799182E+04  0.7818608E-02  0.8706734E-01
          4   -1    0    0  501    0  0.00000000000E+00  0.00000000000E+00  0.86940079901E+03  0.86940172660E+03  0.12700000000E+01 0.  1.
         -4   -1    0    0    0  501 -0.00000000000E+00 -0.00000000000E+00 -0.93082806482E+03  0.93082893119E+03  0.12700000000E+01 0. -1.
     200001    2    1    2    0    0  0.50211197327E+02  0.16826071082E+03 -0.56797358102E+03  0.91851528388E+03  0.70017391185E+03 0.  0.
    5000001    2    3    3    0    0  0.56488730703E+02  0.10946675892E+03 -0.13920364203E+03  0.25719856944E+03  0.17776248807E+03 0.  0.
        -11    1    4    4    0    0  0.48013523670E+02 -0.33703864997E+02 -0.79910882501E+02  0.99131216644E+02  0.51100000000E-03 0. -1.
     200002    1    4    4    0    0  0.84752070330E+01  0.14317062392E+03 -0.59292759527E+02  0.15806735280E+03  0.30000000000E+02 0. -1.
     200000    1    3    3    0    0 -0.62775333761E+01  0.58793951899E+02 -0.42876993899E+03  0.66131671443E+03  0.50000000000E+03 0. -1.
    -200001    1    1    2    0    0 -0.50211197327E+02 -0.16826071082E+03  0.50654631521E+03  0.88171537392E+03  0.70000000000E+03 0.  1.
<mgrwt>
<rscale>  0 0.17991823E+04</rscale>
<asrwt>0</asrwt>
<pdfrwt beam="1">  1        4 0.12420024E+00 0.17991823E+04</pdfrwt>
<pdfrwt beam="2">  1       -4 0.13297557E+00 0.17991823E+04</pdfrwt>
<totfact> 0.37737765E-01</totfact>
</mgrwt>
</event>
<event>
 8    1  0.1287848E-011  0.1474175E+04  0.7818608E-02  0.8901810E-01
         -4   -1    0    0    0  501 -0.00000000000E+00  0.00000000000E+00  0.22151235505E+03  0.22151599568E+03  0.12700000000E+01 0. -1.
          4   -1    0    0  501    0  0.00000000000E+00 -0.00000000000E+00 -0.24526526053E+04  0.24526529341E+04  0.12700000000E+01 0.  1.
     200001    2    1    2    0    0  0.46938423070E+02  0.68588795147E+02 -0.71683633092E+03  0.10038324372E+04  0.69779481101E+03 0.  0.
    5000001    2    3    3    0    0  0.60868441970E+02  0.10317401817E+03 -0.23109999951E+03  0.30574220899E+03  0.16037843785E+03 0.  0.
        -11    1    4    4    0    0  0.58642339695E+02  0.19358819360E+02 -0.40894216886E+01  0.61890316383E+02  0.51100000000E-03 0. -1.
     200002    1    4    4    0    0  0.22261022744E+01  0.83815198806E+02 -0.22701057783E+03  0.24385189260E+03  0.30000000000E+02 0. -1.
     200000    1    3    3    0    0 -0.13930018899E+02 -0.34585223019E+02 -0.48573633140E+03  0.69809022821E+03  0.50000000000E+03 0. -1.
    -200001    1    1    2    0    0 -0.46938423070E+02 -0.68588795147E+02 -0.15143039193E+04  0.16703364926E+04  0.70000000000E+03 0.  1.
<mgrwt>
<rscale>  0 0.14741752E+04</rscale>
<asrwt>0</asrwt>
<pdfrwt beam="1">  1        4 0.35037921E+00 0.14741752E+04</pdfrwt>
<pdfrwt beam="2">  1       -4 0.31644907E-01 0.14741752E+04</pdfrwt>
<totfact> 0.28163809E-01</totfact>
</mgrwt>
</event>
<event>
 8    1  0.1287848E-011  0.1465226E+04  0.7818608E-02  0.8907912E-01
          4   -1    0    0  501    0  0.00000000000E+00  0.00000000000E+00  0.15864246099E+04  0.15864251183E+04  0.12700000000E+01 0.  1.
         -4   -1    0    0    0  501 -0.00000000000E+00 -0.00000000000E+00 -0.33831983783E+03  0.33832222152E+03  0.12700000000E+01 0. -1.
     200001    2    1    2    0    0  0.18469961576E+03  0.99538341179E+02  0.55009150718E+03  0.91418098995E+03  0.69935998363E+03 0.  0.
    5000001    2    3    3    0    0  0.77694299413E+02  0.37611607119E+02  0.21348327541E+03  0.29888418368E+03  0.19054030865E+03 0.  0.
        -11    1    4    4    0    0 -0.33552679884E+02 -0.18686822160E+02  0.15179614288E+03  0.15657920885E+03  0.51100000000E-03 0. -1.
     200002    1    4    4    0    0  0.11124697930E+03  0.56298429279E+02  0.61687132530E+02  0.14230497483E+03  0.30000000000E+02 0. -1.
     200000    1    3    3    0    0  0.10700531635E+03  0.61926734060E+02  0.33660823177E+03  0.61529680628E+03  0.50000000000E+03 0. -1.
    -200001    1    1    2    0    0 -0.18469961576E+03 -0.99538341179E+02  0.69801326493E+03  0.10105663498E+04  0.70000000000E+03 0.  1.
<mgrwt>
<rscale>  0 0.14652259E+04</rscale>
<asrwt>0</asrwt>
<pdfrwt beam="1">  1        4 0.22663230E+00 0.14652259E+04</pdfrwt>
<pdfrwt beam="2">  1       -4 0.48331611E-01 0.14652259E+04</pdfrwt>
<totfact> 0.71477924E-01</totfact>
</mgrwt>
</event>
<event>
 8    1  0.1287848E-011  0.1504128E+04  0.7818608E-02  0.8881712E-01
          4   -1    0    0  501    0  0.00000000000E+00  0.00000000000E+00  0.11302535587E+04  0.11302542722E+04  0.12700000000E+01 0.  1.
         -4   -1    0    0    0  501 -0.00000000000E+00 -0.00000000000E+00 -0.50041731007E+03  0.50041892163E+03  0.12700000000E+01 0. -1.
     200001    2    1    2    0    0  0.14142987557E+03  0.17186781973E+03  0.49054122546E+03  0.88304757851E+03  0.69971520983E+03 0.  0.
    5000001    2    3    3    0    0 -0.11497670444E+02  0.11156366652E+03  0.49324124714E+02  0.19624632981E+03  0.15330069984E+03 0.  0.
        -11    1    4    4    0    0 -0.67142926931E+02  0.87573598577E+02 -0.35557552347E+01  0.11040811202E+03  0.51100000000E-03 0. -1.
     200002    1    4    4    0    0  0.55645256488E+02  0.23990067942E+02  0.52879879948E+02  0.85838217787E+02  0.30000000000E+02 0. -1.
     200000    1    3    3    0    0  0.15292754601E+03  0.60304153210E+02  0.44121710075E+03  0.68680124870E+03  0.50000000000E+03 0.  1.
    -200001    1    1    2    0    0 -0.14142987557E+03 -0.17186781973E+03  0.13929502312E+03  0.74762561528E+03  0.70000000000E+03 0. -1.
<mgrwt>
<rscale>  0 0.15041281E+04</rscale>
<asrwt>0</asrwt>
<pdfrwt beam="1">  1        4 0.16146496E+00 0.15041281E+04</pdfrwt>
<pdfrwt beam="2">  1       -4 0.71488355E-01 0.15041281E+04</pdfrwt>
<totfact> 0.84699650E-01</totfact>
</mgrwt>
</event>
<event>
 8    1  0.1287848E-011  0.2489256E+04  0.7818608E-02  0.8406823E-01
          4   -1    0    0  501    0  0.00000000000E+00  0.00000000000E+00  0.13692383689E+04  0.13692389578E+04  0.12700000000E+01 0.  1.
         -4   -1    0    0    0  501 -0.00000000000E+00 -0.00000000000E+00 -0.11313567461E+04  0.11313574589E+04  0.12700000000E+01 0. -1.
     200001    2    1    2    0    0  0.67602602463E+02  0.13120370612E+03 -0.90423289643E+03  0.11529280231E+04  0.69987239631E+03 0.  0.
    5000001    2    3    3    0    0  0.61330847746E+02  0.50468357258E+02 -0.16669052342E+03  0.25820667908E+03  0.18048941951E+03 0.  0.
        -11    1    4    4    0    0  0.63876517573E+02 -0.52623234020E+02 -0.39398518601E+02  0.91660555989E+02  0.51100000000E-03 0. -1.
     200002    1    4    4    0    0 -0.25456698263E+01  0.10309159128E+03 -0.12729200481E+03  0.16654612309E+03  0.30000000000E+02 0. -1.
     200000    1    3    3    0    0  0.62717547171E+01  0.80735348863E+02 -0.73754237301E+03  0.89472134402E+03  0.50000000000E+03 0. -1.
    -200001    1    1    2    0    0 -0.67602602463E+02 -0.13120370612E+03  0.11421145192E+04  0.13476683937E+04  0.70000000000E+03 0.  1.
<mgrwt>
<rscale>  0 0.24892559E+04</rscale>
<asrwt>0</asrwt>
<pdfrwt beam="1">  1        4 0.19560557E+00 0.24892559E+04</pdfrwt>
<pdfrwt beam="2">  1       -4 0.16162248E+00 0.24892559E+04</pdfrwt>
<totfact> 0.61627718E-02</totfact>
</mgrwt>
</event>
<event>
 8    1  0.1287848E-011  0.1663942E+04  0.7818608E-02  0.8782201E-01
         -4   -1    0    0    0  501 -0.00000000000E+00  0.00000000000E+00  0.31775178447E+03  0.31775432244E+03  0.12700000000E+01 0.  1.
          4   -1    0    0  501    0  0.00000000000E+00 -0.00000000000E+00 -0.21783432043E+04  0.21783435745E+04  0.12700000000E+01 0. -1.
     200001    2    1    2    0    0  0.12650202830E+03 -0.90569359821E+02 -0.29773261371E+03  0.77658249430E+03  0.70016433006E+03 0.  0.
    5000001    2    3    3    0    0  0.80532959905E+02 -0.66824819787E+02 -0.61508917343E+02  0.22117400215E+03  0.18488774471E+03 0.  0.
        -11    1    4    4    0    0  0.40890887360E+02  0.21115071064E+01  0.60152119474E+02  0.72765380565E+02  0.51100000000E-03 0. -1.
     200002    1    4    4    0    0  0.39642072545E+02 -0.68936326894E+02 -0.12166103682E+03  0.14840862158E+03  0.30000000000E+02 0. -1.
     200000    1    3    3    0    0  0.45969068391E+02 -0.23744540034E+02 -0.23622369637E+03  0.55540849215E+03  0.50000000000E+03 0.  1.
    -200001    1    1    2    0    0 -0.12650202830E+03  0.90569359821E+02 -0.15628588062E+04  0.17195154027E+04  0.70000000000E+03 0. -1.
<mgrwt>
<rscale>  0 0.16639424E+04</rscale>
<asrwt>0</asrwt>
<pdfrwt beam="1">  1        4 0.31119209E+00 0.16639424E+04</pdfrwt>
<pdfrwt beam="2">  1       -4 0.45393321E-01 0.16639424E+04</pdfrwt>
<totfact> 0.23911502E-01</totfact>
</mgrwt>
</event>
<event>
 8    1  0.1287848E-011  0.3219338E+04  0.7818608E-02  0.8183729E-01
          4   -1    0    0  501    0  0.00000000000E+00  0.00000000000E+00  0.10023923739E+04  0.10023931784E+04  0.12700000000E+01 0.  1.
         -4   -1    0    0    0  501 -0.00000000000E+00 -0.00000000000E+00 -0.25848487162E+04  0.25848490282E+04  0.12700000000E+01 0. -1.
     200001    2    1    2    0    0 -0.31895402601E+03 -0.77980286345E+03 -0.21054544686E+04  0.23734254096E+04  0.70027528799E+03 0.  0.
    5000001    2    3    3    0    0 -0.12795929486E+03 -0.35096543417E+03 -0.71904617675E+03  0.82665183863E+03  0.16363233450E+03 0.  0.
        -11    1    4    4    0    0 -0.50296660279E+02 -0.55465356193E+02 -0.48617685725E+02  0.89273955543E+02  0.51100000000E-03 0. -1.
     200002    1    4    4    0    0 -0.77662634585E+02 -0.29550007798E+03 -0.67042849102E+03  0.73737788309E+03  0.30000000000E+02 0. -1.
     200000    1    3    3    0    0 -0.19099473114E+03 -0.42883742928E+03 -0.13864082919E+04  0.15467735710E+04  0.50000000000E+03 0. -1.
    -200001    1    1    2    0    0  0.31895402601E+03  0.77980286345E+03  0.52299812635E+03  0.12138167970E+04  0.70000000000E+03 0.  1.
<mgrwt>
<rscale>  0 0.32193382E+04</rscale>
<asrwt>0</asrwt>
<pdfrwt beam="1">  1        4 0.14319899E+00 0.32193382E+04</pdfrwt>
<pdfrwt beam="2">  1       -4 0.36926418E+00 0.32193382E+04</pdfrwt>
<totfact> 0.62722015E-03</totfact>
</mgrwt>
</event>
<event>
 8    1  0.1287848E-011  0.1644542E+04  0.7818608E-02  0.8793642E-01
          4   -1    0    0  501    0  0.00000000000E+00  0.00000000000E+00  0.12292859685E+04  0.12292866245E+04  0.12700000000E+01 0.  1.
         -4   -1    0    0    0  501 -0.00000000000E+00 -0.00000000000E+00 -0.55001647334E+03  0.55001793956E+03  0.12700000000E+01 0. -1.
     200001    2    1    2    0    0 -0.28427262838E+03 -0.14133750604E+03  0.22907960037E+02  0.76856340896E+03  0.69955537387E+03 0.  0.
    5000001    2    3    3    0    0 -0.69778880503E+02  0.26992096276E+02  0.49570378528E+02  0.19842894460E+03  0.17697219613E+03 0.  0.
        -11    1    4    4    0    0 -0.88644088645E+02  0.40423309115E+02 -0.36772578961E+02  0.10413472492E+03  0.51100000000E-03 0. -1.
     200002    1    4    4    0    0  0.18865208141E+02 -0.13431212838E+02  0.86342957489E+02  0.94294219677E+02  0.30000000000E+02 0. -1.
     200000    1    3    3    0    0 -0.21449374787E+03 -0.16832960232E+03 -0.26662418491E+02  0.57013446436E+03  0.50000000000E+03 0. -1.
    -200001    1    1    2    0    0  0.28427262838E+03  0.14133750604E+03  0.65636153509E+03  0.10107411551E+04  0.70000000000E+03 0.  1.
<mgrwt>
<rscale>  0 0.16445418E+04</rscale>
<asrwt>0</asrwt>
<pdfrwt beam="1">  1        4 0.17561243E+00 0.16445418E+04</pdfrwt>
<pdfrwt beam="2">  1       -4 0.78573934E-01 0.16445418E+04</pdfrwt>
<totfact> 0.53656151E-01</totfact>
</mgrwt>
</event>
<event>
 8    1  0.1287848E-011  0.1421887E+04  0.7818608E-02  0.8938126E-01
          4   -1    0    0  501    0  0.00000000000E+00  0.00000000000E+00  0.11201588480E+04  0.11201595679E+04  0.12700000000E+01 0.  1.
         -4   -1    0    0    0  501 -0.00000000000E+00 -0.00000000000E+00 -0.45122084767E+03  0.45122263493E+03  0.12700000000E+01 0. -1.
     200001    2    1    2    0    0  0.24287802486E+02 -0.49187843348E+02  0.45978078341E+03  0.83874581099E+03  0.69934742823E+03 0.  0.
    5000001    2    3    3    0    0  0.59466682722E+02  0.84507781680E+02  0.17832169360E+03  0.24854983252E+03  0.13892638812E+03 0.  0.
        -11    1    4    4    0    0 -0.11548137530E+02  0.20250515107E+02  0.13871035814E+03  0.14065563017E+03  0.51100000000E-03 0. -1.
     200002    1    4    4    0    0  0.71014820252E+02  0.64257266573E+02  0.39611335457E+02  0.10789420234E+03  0.30000000000E+02 0. -1.
     200000    1    3    3    0    0 -0.35178880235E+02 -0.13369562503E+03  0.28145908981E+03  0.59019597847E+03  0.50000000000E+03 0.  1.
    -200001    1    1    2    0    0 -0.24287802486E+02  0.49187843348E+02  0.20915721688E+03  0.73263639185E+03  0.70000000000E+03 0. -1.
<mgrwt>
<rscale>  0 0.14218875E+04</rscale>
<asrwt>0</asrwt>
<pdfrwt beam="1">  1        4 0.16002287E+00 0.14218875E+04</pdfrwt>
<pdfrwt beam="2">  1       -4 0.64460300E-01 0.14218875E+04</pdfrwt>
<totfact> 0.10959955E+00</totfact>
</mgrwt>
</event>
<event>
 8    1  0.1287848E-011  0.1480098E+04  0.7818608E-02  0.8897797E-01
          4   -1    0    0  501    0  0.00000000000E+00  0.00000000000E+00  0.19254059617E+04  0.19254063806E+04  0.12700000000E+01 0.  1.
         -4   -1    0    0    0  501 -0.00000000000E+00 -0.00000000000E+00 -0.28444329620E+03  0.28444613137E+03  0.12700000000E+01 0. -1.
     200001    2    1    2    0    0  0.15079110764E+03 -0.15001577131E+03  0.71293962121E+03  0.10281294223E+04  0.70959461367E+03 0.  0.
    5000001    2    3    3    0    0 -0.10761485228E+03 -0.82242822469E+01  0.14349860313E+03  0.21502331634E+03  0.11829869914E+03 0.  0.
        -11    1    4    4    0    0 -0.10997040147E+03  0.13305476133E+02  0.13901470916E+03  0.17775155205E+03  0.51100000000E-03 0. -1.
     200002    1    4    4    0    0  0.23555491875E+01 -0.21529758380E+02  0.44838939745E+01  0.37271764287E+02  0.30000000000E+02 0. -1.
     200000    1    3    3    0    0  0.25840595993E+03 -0.14179148906E+03  0.56944101808E+03  0.81310610597E+03  0.50000000000E+03 0. -1.
    -200001    1    1    2    0    0 -0.15079110764E+03  0.15001577131E+03  0.92802304431E+03  0.11817230896E+04  0.70000000000E+03 0.  1.
<mgrwt>
<rscale>  0 0.14800979E+04</rscale>
<asrwt>0</asrwt>
<pdfrwt beam="1">  1        4 0.27505824E+00 0.14800979E+04</pdfrwt>
<pdfrwt beam="2">  1       -4 0.40634988E-01 0.14800979E+04</pdfrwt>
<totfact> 0.50961536E-01</totfact>
</mgrwt>
</event>
<event>
 8    1  0.1287848E-011  0.1485896E+04  0.7818608E-02  0.8893886E-01
          4   -1    0    0  501    0  0.00000000000E+00  0.00000000000E+00  0.81070879550E+03  0.81070979025E+03  0.12700000000E+01 0.  1.
         -4   -1    0    0    0  501 -0.00000000000E+00 -0.00000000000E+00 -0.68084885224E+03  0.68085003672E+03  0.12700000000E+01 0. -1.
     200001    2    1    2    0    0  0.12302523812E+03  0.20721917809E+03 -0.27796413982E+00  0.73988777619E+03  0.69954188374E+03 0.  0.
    5000001    2    3    3    0    0  0.14018947848E+03  0.43943662909E+02 -0.19184301912E+02  0.21328455306E+03  0.15342140576E+03 0.  0.
        -11    1    4    4    0    0  0.38727913774E+02 -0.18782073132E+02 -0.68390220875E+02  0.80807424709E+02  0.51100000000E-03 0. -1.
     200002    1    4    4    0    0  0.10146156470E+03  0.62725736041E+02  0.49205918963E+02  0.13247712835E+03  0.30000000000E+02 0. -1.
     200000    1    3    3    0    0 -0.17164240354E+02  0.16327551518E+03  0.18906337772E+02  0.52660322313E+03  0.50000000000E+03 0. -1.
    -200001    1    1    2    0    0 -0.12302523812E+03 -0.20721917809E+03  0.13013790740E+03  0.75167205078E+03  0.70000000000E+03 0.  1.
<mgrwt>
<rscale>  0 0.14858961E+04</rscale>
<asrwt>0</asrwt>
<pdfrwt beam="1">  1        4 0.11581570E+00 0.14858961E+04</pdfrwt>
<pdfrwt beam="2">  1       -4 0.97264278E-01 0.14858961E+04</pdfrwt>
<totfact> 0.99193171E-01</totfact>
</mgrwt>
</event>
<event>
 8    1  0.1287848E-011  0.1533701E+04  0.7818608E-02  0.8862347E-01
          4   -1    0    0  501    0  0.00000000000E+00  0.00000000000E+00  0.15070568976E+04  0.15070574327E+04  0.12700000000E+01 0.  1.
         -4   -1    0    0    0  501 -0.00000000000E+00 -0.00000000000E+00 -0.39020226621E+03  0.39020433295E+03  0.12700000000E+01 0. -1.
     200001    2    1    2    0    0 -0.13865845128E+03 -0.27259232716E+03  0.63962389265E+03  0.99654986891E+03  0.70032861874E+03 0.  0.
    5000001    2    3    3    0    0 -0.37969404918E+02 -0.13164171667E+03  0.16558023186E+03  0.28611144723E+03  0.18886961052E+03 0.  0.
        -11    1    4    4    0    0 -0.90861534910E+02 -0.33123168084E+02  0.13553780716E+03  0.16650363347E+03  0.51100000000E-03 0. -1.
     200002    1    4    4    0    0  0.52892129992E+02 -0.98518548585E+02  0.30042424700E+02  0.11960781376E+03  0.30000000000E+02 0. -1.
     200000    1    3    3    0    0 -0.10068904636E+03 -0.14095061049E+03  0.47404366079E+03  0.71043842168E+03  0.50000000000E+03 0. -1.
    -200001    1    1    2    0    0  0.13865845128E+03  0.27259232716E+03  0.47723073872E+03  0.90071189673E+03  0.70000000000E+03 0. -1.
<mgrwt>
<rscale>  0 0.15337007E+04</rscale>
<asrwt>0</asrwt>
<pdfrwt beam="1">  1        4 0.21529403E+00 0.15337007E+04</pdfrwt>
<pdfrwt beam="2">  1       -4 0.55743365E-01 0.15337007E+04</pdfrwt>
<totfact> 0.62250901E-01</totfact>
</mgrwt>
</event>
<event>
 8    1  0.1287848E-011  0.1478010E+04  0.7818608E-02  0.8899209E-01
         -4   -1    0    0    0  501 -0.00000000000E+00  0.00000000000E+00  0.66228407945E+03  0.66228529713E+03  0.12700000000E+01 0. -1.
          4   -1    0    0  501    0  0.00000000000E+00 -0.00000000000E+00 -0.82461081219E+03  0.82461179016E+03  0.12700000000E+01 0.  1.
     200001    2    1    2    0    0 -0.26653918751E+02 -0.23196599469E+03 -0.12245460187E+03  0.74790558471E+03  0.69989212029E+03 0.  0.
    5000001    2    3    3    0    0  0.24519917793E+02 -0.22976229572E+02 -0.13812643220E+02  0.19283931961E+03  0.18938606227E+03 0.  0.
        -11    1    4    4    0    0  0.19386926920E+01  0.76773111678E+02 -0.34627463490E+02  0.84243281240E+02  0.51100000000E-03 0. -1.
     200002    1    4    4    0    0  0.22581225101E+02 -0.99749341250E+02  0.20814820270E+02  0.10859603837E+03  0.30000000000E+02 0. -1.
     200000    1    3    3    0    0 -0.51173836544E+02 -0.20898976511E+03 -0.10864195865E+03  0.55506626510E+03  0.50000000000E+03 0. -1.
    -200001    1    1    2    0    0  0.26653918751E+02  0.23196599469E+03 -0.39872130868E+02  0.73899150259E+03  0.70000000000E+03 0.  1.
<mgrwt>
<rscale>  0 0.14780098E+04</rscale>
<asrwt>0</asrwt>
<pdfrwt beam="1">  1        4 0.11780170E+00 0.14780098E+04</pdfrwt>
<pdfrwt beam="2">  1       -4 0.94612169E-01 0.14780098E+04</pdfrwt>
<totfact> 0.10158963E+00</totfact>
</mgrwt>
</event>
<event>
 8    1  0.1287848E-011  0.1589524E+04  0.7818608E-02  0.8827010E-01
         -4   -1    0    0    0  501 -0.00000000000E+00  0.00000000000E+00  0.12650001416E+04  0.12650007791E+04  0.12700000000E+01 0. -1.
          4   -1    0    0  501    0  0.00000000000E+00 -0.00000000000E+00 -0.49932378355E+03  0.49932539863E+03  0.12700000000E+01 0.  1.
     200001    2    1    2    0    0  0.18082767541E+03 -0.14491081324E+03  0.71275110592E+03  0.10250705560E+04  0.69932661456E+03 0.  0.
    5000001    2    3    3    0    0  0.13814979499E+03 -0.10137341888E+03  0.21445654278E+03  0.31654082634E+03  0.15762154067E+03 0.  0.
        -11    1    4    4    0    0  0.70761781203E+02 -0.53668335304E+02  0.44748022393E+01  0.88924370950E+02  0.51100000000E-03 0. -1.
     200002    1    4    4    0    0  0.67388013785E+02 -0.47705083572E+02  0.20998174054E+03  0.22761645539E+03  0.30000000000E+02 0. -1.
     200000    1    3    3    0    0  0.42677880425E+02 -0.43537394361E+02  0.49829456314E+03  0.70852972968E+03  0.50000000000E+03 0. -1.
    -200001    1    1    2    0    0 -0.18082767541E+03  0.14491081324E+03  0.52925252159E+02  0.73925562176E+03  0.70000000000E+03 0.  1.
<mgrwt>
<rscale>  0 0.15895240E+04</rscale>
<asrwt>0</asrwt>
<pdfrwt beam="1">  1        4 0.71332131E-01 0.15895240E+04</pdfrwt>
<pdfrwt beam="2">  1       -4 0.18071446E+00 0.15895240E+04</pdfrwt>
<totfact> 0.61629216E-01</totfact>
</mgrwt>
</event>
<event>
 8    1  0.1287848E-011  0.1859236E+04  0.7818608E-02  0.8675418E-01
         -4   -1    0    0    0  501 -0.00000000000E+00  0.00000000000E+00  0.87719338248E+03  0.87719430183E+03  0.12700000000E+01 0. -1.
          4   -1    0    0  501    0  0.00000000000E+00 -0.00000000000E+00 -0.98517372806E+03  0.98517454665E+03  0.12700000000E+01 0.  1.
     200001    2    1    2    0    0  0.15706639889E+03 -0.13009406373E+03 -0.63155732998E+03  0.96474577743E+03  0.70019671161E+03 0.  0.
    5000001    2    3    3    0    0  0.28413983219E+02  0.26612869538E+02  0.56297924298E+01  0.12981108780E+03  0.12370781983E+03 0.  0.
        -11    1    4    4    0    0  0.29245128913E+02 -0.28868283974E+02  0.40533382807E+02  0.57720104875E+02  0.51100000000E-03 0. -1.
     200002    1    4    4    0    0 -0.83114569407E+00  0.55481153512E+02 -0.34903590377E+02  0.72090982927E+02  0.30000000000E+02 0. -1.
     200000    1    3    3    0    0  0.12865241567E+03 -0.15670693326E+03 -0.63718712241E+03  0.83493468963E+03  0.50000000000E+03 0.  1.
    -200001    1    1    2    0    0 -0.15706639889E+03  0.13009406373E+03  0.52357698440E+03  0.89762307104E+03  0.70000000000E+03 0. -1.
<mgrwt>
<rscale>  0 0.18592359E+04</rscale>
<asrwt>0</asrwt>
<pdfrwt beam="1">  1        4 0.14073923E+00 0.18592359E+04</pdfrwt>
<pdfrwt beam="2">  1       -4 0.12531347E+00 0.18592359E+04</pdfrwt>
<totfact> 0.31713014E-01</totfact>
</mgrwt>
</event>
<event>
 8    1  0.1287848E-011  0.1722141E+04  0.7818608E-02  0.8748836E-01
         -4   -1    0    0    0  501 -0.00000000000E+00  0.00000000000E+00  0.40094430215E+03  0.40094631352E+03  0.12700000000E+01 0. -1.
          4   -1    0    0  501    0  0.00000000000E+00 -0.00000000000E+00 -0.18492341097E+04  0.18492345458E+04  0.12700000000E+01 0.  1.
     200001    2    1    2    0    0  0.49984845610E+03 -0.11312364044E+02 -0.76852102892E+03  0.11537949596E+04  0.70045827025E+03 0.  0.
    5000001    2    3    3    0    0  0.19322007639E+03 -0.67256788340E+02 -0.23182942134E+03  0.35680774299E+03  0.17807136593E+03 0.  0.
        -11    1    4    4    0    0  0.18065418367E+03  0.15670451068E+02 -0.16827258723E+03  0.24738059893E+03  0.51100000000E-03 0. -1.
     200002    1    4    4    0    0  0.12565892718E+02 -0.82927239408E+02 -0.63556834109E+02  0.10942714406E+03  0.30000000000E+02 0. -1.
     200000    1    3    3    0    0  0.30662837971E+03  0.55944424296E+02 -0.53669160759E+03  0.79698721665E+03  0.50000000000E+03 0. -1.
    -200001    1    1    2    0    0 -0.49984845610E+03  0.11312364044E+02 -0.67976877867E+03  0.10963858997E+04  0.70000000000E+03 0. -1.
<mgrwt>
<rscale>  0 0.17221413E+04</rscale>
<asrwt>0</asrwt>
<pdfrwt beam="1">  1        4 0.26417647E+00 0.17221413E+04</pdfrwt>
<pdfrwt beam="2">  1       -4 0.57277933E-01 0.17221413E+04</pdfrwt>
<totfact> 0.28613181E-01</totfact>
</mgrwt>
</event>
<event>
 8    1  0.1287848E-011  0.1905041E+04  0.7818608E-02  0.8652351E-01
          4   -1    0    0  501    0  0.00000000000E+00  0.00000000000E+00  0.14696756133E+04  0.14696761621E+04  0.12700000000E+01 0.  1.
         -4   -1    0    0    0  501 -0.00000000000E+00 -0.00000000000E+00 -0.61734290409E+03  0.61734421041E+03  0.12700000000E+01 0. -1.
     200001    2    1    2    0    0 -0.15214637341E+03 -0.42655254495E+03 -0.77236765328E+02  0.83834307205E+03  0.70125458715E+03 0.  0.
    5000001    2    3    3    0    0 -0.74655879365E+02 -0.14518626155E+03  0.43472344612E+01  0.25368273380E+03  0.19412233286E+03 0.  0.
        -11    1    4    4    0    0 -0.36631333550E+02 -0.83425944016E+02 -0.91953084961E+02  0.12944926638E+03  0.51100000000E-03 0. -1.
     200002    1    4    4    0    0 -0.38024545814E+02 -0.61760317529E+02  0.96300319422E+02  0.12423346742E+03  0.30000000000E+02 0. -1.
     200000    1    3    3    0    0 -0.77490494041E+02 -0.28136628340E+03 -0.81583999789E+02  0.58466033825E+03  0.50000000000E+03 0. -1.
    -200001    1    1    2    0    0  0.15214637341E+03  0.42655254495E+03  0.92956947456E+03  0.12486773004E+04  0.70000000000E+03 0.  1.
<mgrwt>
<rscale>  0 0.19050415E+04</rscale>
<asrwt>0</asrwt>
<pdfrwt beam="1">  1        4 0.20995379E+00 0.19050415E+04</pdfrwt>
<pdfrwt beam="2">  1       -4 0.88191976E-01 0.19050415E+04</pdfrwt>
<totfact> 0.23704432E-01</totfact>
</mgrwt>
</event>
<event>
 8    1  0.1287848E-011  0.1591555E+04  0.7818608E-02  0.8825753E-01
          4   -1    0    0  501    0  0.00000000000E+00  0.00000000000E+00  0.10852537477E+04  0.10852544908E+04  0.12700000000E+01 0.  1.
         -4   -1    0    0    0  501 -0.00000000000E+00 -0.00000000000E+00 -0.58351333772E+03  0.58351471978E+03  0.12700000000E+01 0. -1.
     200001    2    1    2    0    0  0.78088831643E+02 -0.95670736615E+02 -0.12255119806E+03  0.72272969379E+03  0.70147605708E+03 0.  0.
    5000001    2    3    3    0    0  0.74164178352E+02 -0.18147602787E+02  0.41950610611E+02  0.19067134714E+03  0.16960556610E+03 0.  0.
        -11    1    4    4    0    0  0.10910509673E+03 -0.46423946171E+02  0.61036962705E+02  0.13335897318E+03  0.51100000000E-03 0. -1.
     200002    1    4    4    0    0 -0.34940918381E+02  0.28276343384E+02 -0.19086352094E+02  0.57312373958E+02  0.30000000000E+02 0. -1.
     200000    1    3    3    0    0  0.39246532906E+01 -0.77523133828E+02 -0.16450180867E+03  0.53205834665E+03  0.50000000000E+03 0. -1.
    -200001    1    1    2    0    0 -0.78088831643E+02  0.95670736615E+02  0.62429160806E+03  0.94603951681E+03  0.70000000000E+03 0.  1.
<mgrwt>
<rscale>  0 0.15915550E+04</rscale>
<asrwt>0</asrwt>
<pdfrwt beam="1">  1        4 0.15503640E+00 0.15915550E+04</pdfrwt>
<pdfrwt beam="2">  1       -4 0.83359200E-01 0.15915550E+04</pdfrwt>
<totfact> 0.66518038E-01</totfact>
</mgrwt>
</event>
<event>
 8    1  0.1287848E-011  0.1632203E+04  0.7818608E-02  0.8801005E-01
          4   -1    0    0  501    0  0.00000000000E+00  0.00000000000E+00  0.66396762652E+03  0.66396884111E+03  0.12700000000E+01 0. -1.
         -4   -1    0    0    0  501 -0.00000000000E+00 -0.00000000000E+00 -0.10030915400E+04  0.10030923439E+04  0.12700000000E+01 0.  1.
     200001    2    1    2    0    0  0.17464946363E+03  0.12546689178E+03  0.19777852004E+03  0.75903662636E+03  0.70055398157E+03 0.  0.
    5000001    2    3    3    0    0 -0.49093978984E+02 -0.44822523384E+01 -0.18092176140E+02  0.15608715448E+03  0.14698831110E+03 0.  0.
        -11    1    4    4    0    0 -0.24199461711E+02 -0.25102124143E+02 -0.75813140991E+02  0.83446767048E+02  0.51100000000E-03 0. -1.
     200002    1    4    4    0    0 -0.24894517273E+02  0.20619871804E+02  0.57720964851E+02  0.72640387436E+02  0.30000000000E+02 0. -1.
     200000    1    3    3    0    0  0.22374344261E+03  0.12994914412E+03  0.21587069618E+03  0.60294947188E+03  0.50000000000E+03 0. -1.
    -200001    1    1    2    0    0 -0.17464946363E+03 -0.12546689178E+03 -0.53690243351E+03  0.90802455869E+03  0.70000000000E+03 0.  1.
<mgrwt>
<rscale>  0 0.16322034E+04</rscale>
<asrwt>0</asrwt>
<pdfrwt beam="1">  1        4 0.94852663E-01 0.16322034E+04</pdfrwt>
<pdfrwt beam="2">  1       -4 0.14329893E+00 0.16322034E+04</pdfrwt>
<totfact> 0.60607902E-01</totfact>
</mgrwt>
</event>
<event>
 8    1  0.1287848E-011  0.1653871E+04  0.7818608E-02  0.8788119E-01
         -4   -1    0    0    0  501 -0.00000000000E+00  0.00000000000E+00  0.87368199754E+03  0.87368292059E+03  0.12700000000E+01 0. -1.
          4   -1    0    0  501    0  0.00000000000E+00 -0.00000000000E+00 -0.78268876584E+03  0.78268979619E+03  0.12700000000E+01 0.  1.
     200001    2    1    2    0    0  0.31136018336E+03  0.27068260047E+03 -0.10439380428E+03  0.82067520703E+03  0.70170898175E+03 0.  0.
    5000001    2    3    3    0    0  0.10184919167E+03  0.16801563535E+02  0.30851276772E+02  0.20696381842E+03  0.17671069712E+03 0.  0.
        -11    1    4    4    0    0  0.69261105722E+02  0.93302601623E+02  0.15203944975E+02  0.11719059765E+03  0.51100000000E-03 0. -1.
     200002    1    4    4    0    0  0.32588085948E+02 -0.76501038087E+02  0.15647331797E+02  0.89773220765E+02  0.30000000000E+02 0. -1.
     200000    1    3    3    0    0  0.20951099169E+03  0.25388103694E+03 -0.13524508106E+03  0.61371138861E+03  0.50000000000E+03 0.  1.
    -200001    1    1    2    0    0 -0.31136018336E+03 -0.27068260047E+03  0.19538703599E+03  0.83569750976E+03  0.70000000000E+03 0. -1.
<mgrwt>
<rscale>  0 0.16538715E+04</rscale>
<asrwt>0</asrwt>
<pdfrwt beam="1">  1        4 0.11181282E+00 0.16538715E+04</pdfrwt>
<pdfrwt beam="2">  1       -4 0.12481185E+00 0.16538715E+04</pdfrwt>
<totfact> 0.58137117E-01</totfact>
</mgrwt>
</event>
<event>
 8    1  0.1287848E-011  0.2424051E+04  0.7818608E-02  0.8430554E-01
          4   -1    0    0  501    0  0.00000000000E+00  0.00000000000E+00  0.14786401779E+04  0.14786407233E+04  0.12700000000E+01 0.  1.
         -4   -1    0    0    0  501 -0.00000000000E+00 -0.00000000000E+00 -0.99348293132E+03  0.99348374306E+03  0.12700000000E+01 0. -1.
     200001    2    1    2    0    0  0.93707780436E+02  0.31301820943E+03  0.11917913344E+04  0.14251797296E+04  0.70993600373E+03 0.  0.
    5000001    2    3    3    0    0  0.89388174980E+02  0.82783946503E+02  0.48309022900E+03  0.52780370385E+03  0.17423304170E+03 0.  0.
        -11    1    4    4    0    0 -0.46853216229E+02  0.38973108423E+02  0.92810622646E+02  0.11103125113E+03  0.51100000000E-03 0. -1.
     200002    1    4    4    0    0  0.13624139121E+03  0.43810838081E+02  0.39027960636E+03  0.41677245272E+03  0.30000000000E+02 0. -1.
     200000    1    3    3    0    0  0.43196054564E+01  0.23023426292E+03  0.70870110541E+03  0.89737602577E+03  0.50000000000E+03 0.  1.
    -200001    1    1    2    0    0 -0.93707780436E+02 -0.31301820943E+03 -0.70663408787E+03  0.10469447367E+04  0.70000000000E+03 0. -1.
<mgrwt>
<rscale>  0 0.24240507E+04</rscale>
<asrwt>0</asrwt>
<pdfrwt beam="1">  1        4 0.21123441E+00 0.24240507E+04</pdfrwt>
<pdfrwt beam="2">  1       -4 0.14192623E+00 0.24240507E+04</pdfrwt>
<totfact> 0.69302275E-02</totfact>
</mgrwt>
</event>
<event>
 8    1  0.1287848E-011  0.1512454E+04  0.7818608E-02  0.8876213E-01
          4   -1    0    0  501    0  0.00000000000E+00  0.00000000000E+00  0.10958195786E+04  0.10958203145E+04  0.12700000000E+01 0.  1.
         -4   -1    0    0    0  501 -0.00000000000E+00 -0.00000000000E+00 -0.52187212848E+03  0.52187367377E+03  0.12700000000E+01 0. -1.
     200001    2    1    2    0    0 -0.26652544364E+03 -0.71109250562E+02  0.20433026395E+03  0.77941646745E+03  0.69974769406E+03 0.  0.
    5000001    2    3    3    0    0 -0.19200699744E+01 -0.64870574126E+02 -0.29248970515E+02  0.16735913057E+03  0.15146517175E+03 0.  0.
        -11    1    4    4    0    0 -0.63359888858E+02 -0.57431093406E+02  0.13214645084E+02  0.86529953490E+02  0.51100000000E-03 0. -1.
     200002    1    4    4    0    0  0.61439818884E+02 -0.74394807196E+01 -0.42463615600E+02  0.80829177081E+02  0.30000000000E+02 0. -1.
     200000    1    3    3    0    0 -0.26460537367E+03 -0.62386764361E+01  0.23357923446E+03  0.61205733688E+03  0.50000000000E+03 0.  1.
    -200001    1    1    2    0    0  0.26652544364E+03  0.71109250562E+02  0.36961718615E+03  0.83827752082E+03  0.70000000000E+03 0.  1.
<mgrwt>
<rscale>  0 0.15124544E+04</rscale>
<asrwt>0</asrwt>
<pdfrwt beam="1">  1        4 0.15654581E+00 0.15124544E+04</pdfrwt>
<pdfrwt beam="2">  1       -4 0.74553325E-01 0.15124544E+04</pdfrwt>
<totfact> 0.83888083E-01</totfact>
</mgrwt>
</event>
<event>
 8    1  0.1287848E-011  0.1746477E+04  0.7818608E-02  0.8735292E-01
          4   -1    0    0  501    0  0.00000000000E+00  0.00000000000E+00  0.66313377475E+03  0.66313499086E+03  0.12700000000E+01 0.  1.
         -4   -1    0    0    0  501 -0.00000000000E+00 -0.00000000000E+00 -0.11499091399E+04  0.11499098413E+04  0.12700000000E+01 0. -1.
     200001    2    1    2    0    0 -0.26912359070E+03  0.14891325469E+02 -0.70754784121E+03  0.10311306777E+04  0.69996947672E+03 0.  0.
    5000001    2    3    3    0    0 -0.11196445308E+03  0.33204838187E+02 -0.29781892744E+03  0.36561421509E+03  0.17702836129E+03 0.  0.
        -11    1    4    4    0    0 -0.79006579357E+02 -0.63509272677E+02 -0.18167272869E+03  0.20803953386E+03  0.51100000000E-03 0. -1.
     200002    1    4    4    0    0 -0.32957873720E+02  0.96714110864E+02 -0.11614619875E+03  0.15757468123E+03  0.30000000000E+02 0. -1.
     200000    1    3    3    0    0 -0.15715913762E+03 -0.18313512718E+02 -0.40972891377E+03  0.66551646265E+03  0.50000000000E+03 0. -1.
    -200001    1    1    2    0    0  0.26912359070E+03 -0.14891325469E+02  0.22077247602E+03  0.78191415438E+03  0.70000000000E+03 0.  1.
<mgrwt>
<rscale>  0 0.17464768E+04</rscale>
<asrwt>0</asrwt>
<pdfrwt beam="1">  1        4 0.94733533E-01 0.17464768E+04</pdfrwt>
<pdfrwt beam="2">  1       -4 0.16427287E+00 0.17464768E+04</pdfrwt>
<totfact> 0.41719268E-01</totfact>
</mgrwt>
</event>
<event>
 8    1  0.1287848E-011  0.1483525E+04  0.7818608E-02  0.8895483E-01
         -4   -1    0    0    0  501 -0.00000000000E+00  0.00000000000E+00  0.13612208695E+04  0.13612214620E+04  0.12700000000E+01 0. -1.
          4   -1    0    0  501    0  0.00000000000E+00 -0.00000000000E+00 -0.40420286522E+03  0.40420486037E+03  0.12700000000E+01 0.  1.
     200001    2    1    2    0    0 -0.84806633638E+02 -0.22565464106E+03  0.43413676399E+03  0.85905058701E+03  0.70098573384E+03 0.  0.
    5000001    2    3    3    0    0  0.19610232273E+02 -0.12106963391E+03  0.14188567074E+03  0.26134530251E+03  0.18200935723E+03 0.  0.
        -11    1    4    4    0    0  0.79812934256E+02 -0.12721346407E+03  0.11271838969E+03  0.18777328161E+03  0.51100000000E-03 0. -1.
     200002    1    4    4    0    0 -0.60202701983E+02  0.61438301580E+01  0.29167281051E+02  0.73572020898E+02  0.30000000000E+02 0. -1.
     200000    1    3    3    0    0 -0.10441686591E+03 -0.10458500715E+03  0.29225109325E+03  0.59770528450E+03  0.50000000000E+03 0. -1.
    -200001    1    1    2    0    0  0.84806633638E+02  0.22565464106E+03  0.52288124034E+03  0.90637573535E+03  0.70000000000E+03 0.  1.
<mgrwt>
<rscale>  0 0.14835251E+04</rscale>
<asrwt>0</asrwt>
<pdfrwt beam="1">  1        4 0.57743452E-01 0.14835251E+04</pdfrwt>
<pdfrwt beam="2">  1       -4 0.19446031E+00 0.14835251E+04</pdfrwt>
<totfact> 0.79327260E-01</totfact>
</mgrwt>
</event>
<event>
 8    1  0.1287848E-011  0.2222521E+04  0.7818608E-02  0.8509112E-01
         -4   -1    0    0    0  501 -0.00000000000E+00  0.00000000000E+00  0.81742326296E+03  0.81742424953E+03  0.12700000000E+01 0. -1.
          4   -1    0    0  501    0  0.00000000000E+00 -0.00000000000E+00 -0.15107204699E+04  0.15107210037E+04  0.12700000000E+01 0.  1.
     200001    2    1    2    0    0 -0.25177937406E+03  0.82580545004E+03 -0.33161027590E+03  0.11593146707E+04  0.69906912117E+03 0.  0.
    5000001    2    3    3    0    0 -0.13331189336E+03  0.25086849682E+03 -0.19481137548E+03  0.37617931633E+03  0.15116991238E+03 0.  0.
        -11    1    4    4    0    0 -0.51735689151E+02  0.21247237145E+03 -0.17262062718E+03  0.27860181459E+03  0.51100000000E-03 0. -1.
     200002    1    4    4    0    0 -0.81576204206E+02  0.38396125369E+02 -0.22190748303E+02  0.97577501743E+02  0.30000000000E+02 0. -1.
     200000    1    3    3    0    0 -0.11846748070E+03  0.57493695322E+03 -0.13679890042E+03  0.78313535441E+03  0.50000000000E+03 0. -1.
    -200001    1    1    2    0    0  0.25177937406E+03 -0.82580545004E+03 -0.36168693103E+03  0.11688305825E+04  0.70000000000E+03 0. -1.
<mgrwt>
<rscale>  0 0.22225209E+04</rscale>
<asrwt>0</asrwt>
<pdfrwt beam="1">  1        4 0.21581732E+00 0.22225209E+04</pdfrwt>
<pdfrwt beam="2">  1       -4 0.11677486E+00 0.22225209E+04</pdfrwt>
<totfact> 0.10813992E-01</totfact>
</mgrwt>
</event>
<event>
 8    1  0.1287848E-011  0.2699915E+04  0.7818608E-02  0.8335033E-01
         -4   -1    0    0    0  501 -0.00000000000E+00  0.00000000000E+00  0.13424223021E+04  0.13424229028E+04  0.12700000000E+01 0. -1.
          4   -1    0    0  501    0  0.00000000000E+00 -0.00000000000E+00 -0.13575334630E+04  0.13575340571E+04  0.12700000000E+01 0.  1.
     200001    2    1    2    0    0 -0.44475189512E+03 -0.58264199333E+03  0.88491107019E+03  0.13444806757E+04  0.69805783753E+03 0.  0.
    5000001    2    3    3    0    0 -0.16552544629E+03 -0.15068149251E+03  0.18699451459E+03  0.34365861229E+03  0.18174352192E+03 0.  0.
        -11    1    4    4    0    0  0.31758815893E+02  0.33035000253E+01  0.42382534612E+02  0.53064251052E+02  0.51100000000E-03 0. -1.
     200002    1    4    4    0    0 -0.19728426218E+03 -0.15398499253E+03  0.14461197998E+03  0.29059436123E+03  0.30000000000E+02 0. -1.
     200000    1    3    3    0    0 -0.27922644884E+03 -0.43196050082E+03  0.69791655560E+03  0.10008220634E+04  0.50000000000E+03 0. -1.
    -200001    1    1    2    0    0  0.44475189512E+03  0.58264199333E+03 -0.90002223111E+03  0.13554762842E+04  0.70000000000E+03 0.  1.
<mgrwt>
<rscale>  0 0.26999147E+04</rscale>
<asrwt>0</asrwt>
<pdfrwt beam="1">  1        4 0.19393344E+00 0.26999147E+04</pdfrwt>
<pdfrwt beam="2">  1       -4 0.19177470E+00 0.26999147E+04</pdfrwt>
<totfact> 0.38100408E-02</totfact>
</mgrwt>
</event>
<event>
 8    1  0.1287848E-011  0.1650096E+04  0.7818608E-02  0.8790350E-01
          4   -1    0    0  501    0  0.00000000000E+00  0.00000000000E+00  0.16543427221E+03  0.16543914688E+03  0.12700000000E+01 0.  1.
         -4   -1    0    0    0  501 -0.00000000000E+00 -0.00000000000E+00 -0.41145856341E+04  0.41145858301E+04  0.12700000000E+01 0. -1.
     200001    2    1    2    0    0 -0.17953055674E+03  0.38676698633E+03 -0.22171661004E+04  0.23638848807E+04  0.70021874436E+03 0.  0.
    5000001    2    3    3    0    0 -0.75819063356E+02  0.10024437516E+03 -0.82156794557E+03  0.85043006132E+03  0.18016640886E+03 0.  0.
        -11    1    4    4    0    0 -0.71949950465E+02  0.12309398345E+03 -0.78470590225E+03  0.79755393370E+03  0.51100000000E-03 0. -1.
     200002    1    4    4    0    0 -0.38691128904E+01 -0.22849608298E+02 -0.36862043327E+02  0.52876127621E+02  0.30000000000E+02 0. -1.
     200000    1    3    3    0    0 -0.10371149338E+03  0.28652261118E+03 -0.13955981549E+04  0.15134548194E+04  0.50000000000E+03 0.  1.
    -200001    1    1    2    0    0  0.17953055674E+03 -0.38676698633E+03 -0.17319852614E+04  0.19161400962E+04  0.70000000000E+03 0. -1.
<mgrwt>
<rscale>  0 0.16500962E+04</rscale>
<asrwt>0</asrwt>
<pdfrwt beam="1">  1        4 0.23633832E-01 0.16500962E+04</pdfrwt>
<pdfrwt beam="2">  1       -4 0.58779825E+00 0.16500962E+04</pdfrwt>
<totfact> 0.72270591E-03</totfact>
</mgrwt>
</event>
<event>
 8    1  0.1287848E-011  0.2463409E+04  0.7818608E-02  0.8416138E-01
          4   -1    0    0  501    0  0.00000000000E+00  0.00000000000E+00  0.29745196689E+04  0.29745199400E+04  0.12700000000E+01 0.  1.
         -4   -1    0    0    0  501 -0.00000000000E+00 -0.00000000000E+00 -0.51002954660E+03  0.51003112778E+03  0.12700000000E+01 0. -1.
     200001    2    1    2    0    0  0.51385772164E+03  0.55350776477E+03  0.21883103792E+04  0.24183916734E+04  0.69963945458E+03 0.  0.
    5000001    2    3    3    0    0  0.18640174150E+03  0.14715104421E+03  0.76155887382E+03  0.81902521713E+03  0.18555686178E+03 0.  0.
        -11    1    4    4    0    0 -0.72522910806E+01 -0.86435524652E+01 -0.52059300415E+01  0.12426118984E+02  0.51100000000E-03 0. -1.
     200002    1    4    4    0    0  0.19365403258E+03  0.15579459668E+03  0.76676480386E+03  0.80659909814E+03  0.30000000000E+02 0. -1.
     200000    1    3    3    0    0  0.32745598015E+03  0.40635672055E+03  0.14267515054E+04  0.15993664563E+04  0.50000000000E+03 0.  1.
    -200001    1    1    2    0    0 -0.51385772164E+03 -0.55350776477E+03  0.27617974305E+03  0.10661593944E+04  0.70000000000E+03 0. -1.
<mgrwt>
<rscale>  0 0.24634091E+04</rscale>
<asrwt>0</asrwt>
<pdfrwt beam="1">  1        4 0.42493151E+00 0.24634091E+04</pdfrwt>
<pdfrwt beam="2">  1       -4 0.72861497E-01 0.24634091E+04</pdfrwt>
<totfact> 0.13988001E-02</totfact>
</mgrwt>
</event>
<event>
 8    1  0.1287848E-011  0.1510132E+04  0.7818608E-02  0.8877743E-01
          4   -1    0    0  501    0  0.00000000000E+00  0.00000000000E+00  0.10375128327E+04  0.10375136099E+04  0.12700000000E+01 0. -1.
         -4   -1    0    0    0  501 -0.00000000000E+00 -0.00000000000E+00 -0.54950901144E+03  0.54951047902E+03  0.12700000000E+01 0.  1.
     200001    2    1    2    0    0  0.19775716960E+03  0.69132981107E+02  0.43565814170E+02  0.73179756382E+03  0.69981599514E+03 0.  0.
    5000001    2    3    3    0    0  0.45654045510E+02  0.66035144932E+01  0.50349466897E+01  0.20403822255E+03  0.19869158839E+03 0.  0.
        -11    1    4    4    0    0 -0.45646681196E+02  0.22642629584E+02  0.70258111588E+02  0.86790036426E+02  0.51100000000E-03 0. -1.
     200002    1    4    4    0    0  0.91300726707E+02 -0.16039115091E+02 -0.65223164898E+02  0.11724818612E+03  0.30000000000E+02 0. -1.
     200000    1    3    3    0    0  0.15210312409E+03  0.62529466614E+02  0.38530867480E+02  0.52775934127E+03  0.50000000000E+03 0.  1.
    -200001    1    1    2    0    0 -0.19775716960E+03 -0.69132981107E+02  0.44443800704E+03  0.85522652514E+03  0.70000000000E+03 0. -1.
<mgrwt>
<rscale>  0 0.15101317E+04</rscale>
<asrwt>0</asrwt>
<pdfrwt beam="1">  1        4 0.14821628E+00 0.15101317E+04</pdfrwt>
<pdfrwt beam="2">  1       -4 0.78501449E-01 0.15101317E+04</pdfrwt>
<totfact> 0.86498654E-01</totfact>
</mgrwt>
</event>
<event>
 8    1  0.1287848E-011  0.1973082E+04  0.7818608E-02  0.8619310E-01
          4   -1    0    0  501    0  0.00000000000E+00  0.00000000000E+00  0.58372250727E+03  0.58372388883E+03  0.12700000000E+01 0.  1.
         -4   -1    0    0    0  501 -0.00000000000E+00 -0.00000000000E+00 -0.16673355818E+04  0.16673360655E+04  0.12700000000E+01 0. -1.
     200001    2    1    2    0    0  0.67589680472E+02  0.68674650172E+03 -0.63621276022E+03  0.11710802490E+04  0.70033788338E+03 0.  0.
    5000001    2    3    3    0    0  0.40083965158E+02  0.10125527219E+03 -0.66973623681E+02  0.21317120389E+03  0.17057884244E+03 0.  0.
        -11    1    4    4    0    0  0.59694271151E+02 -0.28495743763E+02 -0.34914965397E+02  0.74796177909E+02  0.51100000000E-03 0. -1.
     200002    1    4    4    0    0 -0.19610305992E+02  0.12975101596E+03 -0.32058658284E+02  0.13837502598E+03  0.30000000000E+02 0. -1.
     200000    1    3    3    0    0  0.27505715313E+02  0.58549122953E+03 -0.56923913654E+03  0.95790904516E+03  0.50000000000E+03 0.  1.
    -200001    1    1    2    0    0 -0.67589680472E+02 -0.68674650172E+03 -0.44740031430E+03  0.10799797053E+04  0.70000000000E+03 0.  1.
<mgrwt>
<rscale>  0 0.19730823E+04</rscale>
<asrwt>0</asrwt>
<pdfrwt beam="1">  1        4 0.83389063E-01 0.19730823E+04</pdfrwt>
<pdfrwt beam="2">  1       -4 0.23819093E+00 0.19730823E+04</pdfrwt>
<totfact> 0.17731403E-01</totfact>
</mgrwt>
</event>
<event>
 8    1  0.1287848E-011  0.2025023E+04  0.7818608E-02  0.8595010E-01
          4   -1    0    0  501    0  0.00000000000E+00  0.00000000000E+00  0.10152057689E+04  0.10152065633E+04  0.12700000000E+01 0. -1.
         -4   -1    0    0    0  501 -0.00000000000E+00 -0.00000000000E+00 -0.10098224866E+04  0.10098232852E+04  0.12700000000E+01 0.  1.
     200001    2    1    2    0    0 -0.94786748341E+02  0.12366265970E+03  0.71683338048E+03  0.10148624251E+04  0.70129784368E+03 0.  0.
    5000001    2    3    3    0    0 -0.73231026559E+02  0.57200662161E+02  0.22757149926E+03  0.31182683951E+03  0.19186581656E+03 0.  0.
        -11    1    4    4    0    0  0.11502878035E+02 -0.56351185746E+02  0.24762796070E+02  0.62617636554E+02  0.51100000000E-03 0. -1.
     200002    1    4    4    0    0 -0.84733904593E+02  0.11355184791E+03  0.20280870319E+03  0.24920920296E+03  0.30000000000E+02 0. -1.
     200000    1    3    3    0    0 -0.21555721782E+02  0.66461997542E+02  0.48926188122E+03  0.70303558564E+03  0.50000000000E+03 0. -1.
    -200001    1    1    2    0    0  0.94786748341E+02 -0.12366265970E+03 -0.71145009818E+03  0.10101674234E+04  0.70000000000E+03 0.  1.
<mgrwt>
<rscale>  0 0.20250227E+04</rscale>
<asrwt>0</asrwt>
<pdfrwt beam="1">  1        4 0.14502951E+00 0.20250227E+04</pdfrwt>
<pdfrwt beam="2">  1       -4 0.14426047E+00 0.20250227E+04</pdfrwt>
<totfact> 0.20127129E-01</totfact>
</mgrwt>
</event>
<event>
 8    1  0.1287848E-011  0.1719104E+04  0.7818608E-02  0.8750543E-01
          4   -1    0    0  501    0  0.00000000000E+00  0.00000000000E+00  0.43212895330E+03  0.43213081952E+03  0.12700000000E+01 0.  1.
         -4   -1    0    0    0  501 -0.00000000000E+00 -0.00000000000E+00 -0.17097369914E+04  0.17097374631E+04  0.12700000000E+01 0. -1.
     200001    2    1    2    0    0 -0.41655350093E+03  0.26779283831E+03 -0.71060622525E+03  0.11138989839E+04  0.70041410288E+03 0.  0.
    5000001    2    3    3    0    0 -0.12456344123E+03  0.10771295274E+02 -0.44251940900E+02  0.19447182481E+03  0.14222863523E+03 0.  0.
        -11    1    4    4    0    0 -0.13858034611E+03  0.35594014353E+02 -0.15147065140E+02  0.14387800307E+03  0.51100000000E-03 0. -1.
     200002    1    4    4    0    0  0.14016904883E+02 -0.24822719079E+02 -0.29104875760E+02  0.50593821737E+02  0.30000000000E+02 0. -1.
     200000    1    3    3    0    0 -0.29199005971E+03  0.25702154304E+03 -0.66635428435E+03  0.91942715906E+03  0.50000000000E+03 0.  1.
    -200001    1    1    2    0    0  0.41655350093E+03 -0.26779283831E+03 -0.56700181289E+03  0.10279692988E+04  0.70000000000E+03 0. -1.
<mgrwt>
<rscale>  0 0.17191037E+04</rscale>
<asrwt>0</asrwt>
<pdfrwt beam="1">  1        4 0.61732875E-01 0.17191037E+04</pdfrwt>
<pdfrwt beam="2">  1       -4 0.24424831E+00 0.17191037E+04</pdfrwt>
<totfact> 0.32381320E-01</totfact>
</mgrwt>
</event>
<event>
 8    1  0.1287848E-011  0.1676068E+04  0.7818608E-02  0.8775133E-01
         -4   -1    0    0    0  501 -0.00000000000E+00  0.00000000000E+00  0.52756701364E+03  0.52756854226E+03  0.12700000000E+01 0. -1.
          4   -1    0    0  501    0  0.00000000000E+00 -0.00000000000E+00 -0.13312031609E+04  0.13312037667E+04  0.12700000000E+01 0.  1.
     200001    2    1    2    0    0 -0.34235643342E+03  0.13969588415E+03 -0.70711393642E+03  0.10612515225E+04  0.69965835053E+03 0.  0.
    5000001    2    3    3    0    0 -0.72036572519E+02  0.33814423367E+01 -0.22616061776E+03  0.30430334137E+03  0.19039747008E+03 0.  0.
        -11    1    4    4    0    0 -0.45305639292E+02 -0.39875239230E+02 -0.23674965945E+03  0.24432158502E+03  0.51100000000E-03 0. -1.
     200002    1    4    4    0    0 -0.26730933226E+02  0.43256681566E+02  0.10589041692E+02  0.59981756353E+02  0.30000000000E+02 0. -1.
     200000    1    3    3    0    0 -0.27031986090E+03  0.13631444182E+03 -0.48095331867E+03  0.75694818117E+03  0.50000000000E+03 0.  1.
    -200001    1    1    2    0    0  0.34235643342E+03 -0.13969588415E+03 -0.96522210815E+02  0.79752078640E+03  0.70000000000E+03 0. -1.
<mgrwt>
<rscale>  0 0.16760679E+04</rscale>
<asrwt>0</asrwt>
<pdfrwt beam="1">  1        4 0.19017203E+00 0.16760679E+04</pdfrwt>
<pdfrwt beam="2">  1       -4 0.75366869E-01 0.16760679E+04</pdfrwt>
<totfact> 0.46662373E-01</totfact>
</mgrwt>
</event>
<event>
 8    1  0.1287848E-011  0.1791534E+04  0.7818608E-02  0.8710814E-01
          4   -1    0    0  501    0  0.00000000000E+00  0.00000000000E+00  0.26028543883E+03  0.26028853714E+03  0.12700000000E+01 0. -1.
         -4   -1    0    0    0  501 -0.00000000000E+00 -0.00000000000E+00 -0.30827427101E+04  0.30827429718E+04  0.12700000000E+01 0.  1.
     200001    2    1    2    0    0 -0.42669931797E+03 -0.89788594580E+02 -0.75469207638E+03  0.11168717660E+04  0.69836101822E+03 0.  0.
    5000001    2    3    3    0    0 -0.14152570899E+03 -0.84718148317E+02 -0.30042042485E+03  0.38358298924E+03  0.17226951850E+03 0.  0.
        -11    1    4    4    0    0 -0.15844682981E+03 -0.61043418709E+02 -0.14705974134E+03  0.22462917079E+03  0.51100000000E-03 0. -1.
     200002    1    4    4    0    0  0.16921120827E+02 -0.23674729608E+02 -0.15336068351E+03  0.15895381845E+03  0.30000000000E+02 0. -1.
     200000    1    3    3    0    0 -0.28517360898E+03 -0.50704462634E+01 -0.45427165153E+03  0.73328877672E+03  0.50000000000E+03 0. -1.
    -200001    1    1    2    0    0  0.42669931797E+03  0.89788594580E+02 -0.20677651949E+04  0.22261597429E+04  0.70000000000E+03 0.  1.
<mgrwt>
<rscale>  0 0.17915342E+04</rscale>
<asrwt>0</asrwt>
<pdfrwt beam="1">  1        4 0.37183876E-01 0.17915342E+04</pdfrwt>
<pdfrwt beam="2">  1       -4 0.44039204E+00 0.17915342E+04</pdfrwt>
<totfact> 0.47403015E-02</totfact>
</mgrwt>
</event>
<event>
 8    1  0.1287848E-011  0.2102990E+04  0.7818608E-02  0.8559927E-01
         -4   -1    0    0    0  501 -0.00000000000E+00  0.00000000000E+00  0.11908842305E+04  0.11908849077E+04  0.12700000000E+01 0. -1.
          4   -1    0    0  501    0  0.00000000000E+00 -0.00000000000E+00 -0.92841940149E+03  0.92842027012E+03  0.12700000000E+01 0.  1.
     200001    2    1    2    0    0  0.58663976073E+03  0.49857582895E+03 -0.18108448801E+02  0.10416014011E+04  0.70134263865E+03 0.  0.
    5000001    2    3    3    0    0  0.30527542616E+03  0.26291724679E+03 -0.33047196968E+02  0.42117894639E+03  0.11824137677E+03 0.  0.
        -11    1    4    4    0    0  0.16960858800E+03  0.19391044534E+03 -0.57945509342E+02  0.26405684234E+03  0.51100000000E-03 0. -1.
     200002    1    4    4    0    0  0.13566683816E+03  0.69006801455E+02  0.24898312374E+02  0.15712210405E+03  0.30000000000E+02 0. -1.
     200000    1    3    3    0    0  0.28136433457E+03  0.23565858216E+03  0.14938748167E+02  0.62042245471E+03  0.50000000000E+03 0. -1.
    -200001    1    1    2    0    0 -0.58663976073E+03 -0.49857582895E+03  0.28057327779E+03  0.10777037767E+04  0.70000000000E+03 0.  1.
<mgrwt>
<rscale>  0 0.21029899E+04</rscale>
<asrwt>0</asrwt>
<pdfrwt beam="1">  1        4 0.13263145E+00 0.21029899E+04</pdfrwt>
<pdfrwt beam="2">  1       -4 0.17012643E+00 0.21029899E+04</pdfrwt>
<totfact> 0.16121645E-01</totfact>
</mgrwt>
</event>
<event>
 8    1  0.1287848E-011  0.1561521E+04  0.7818608E-02  0.8844542E-01
         -4   -1    0    0    0  501 -0.00000000000E+00  0.00000000000E+00  0.78081911003E+03  0.78082014285E+03  0.12700000000E+01 0. -1.
          4   -1    0    0  501    0  0.00000000000E+00 -0.00000000000E+00 -0.78069956028E+03  0.78070059326E+03  0.12700000000E+01 0.  1.
     200001    2    1    2    0    0  0.60052588637E+01 -0.34103090139E+03  0.24526272912E+02  0.78246115754E+03  0.70377964319E+03 0.  0.
    5000001    2    3    3    0    0  0.46628528427E+02 -0.14759879791E+03  0.48635756978E+02  0.24427206818E+03  0.18260279743E+03 0.  0.
        -11    1    4    4    0    0 -0.51768050610E+02 -0.49412260648E+02  0.70426841346E+02  0.10040638699E+03  0.51100000000E-03 0. -1.
     200002    1    4    4    0    0  0.98396579037E+02 -0.98186537267E+02 -0.21791084368E+02  0.14386568119E+03  0.30000000000E+02 0. -1.
     200000    1    3    3    0    0 -0.40623269564E+02 -0.19343210347E+03 -0.24109484066E+02  0.53818908936E+03  0.50000000000E+03 0.  1.
    -200001    1    1    2    0    0 -0.60052588637E+01  0.34103090139E+03 -0.24406723164E+02  0.77905957858E+03  0.70000000000E+03 0. -1.
<mgrwt>
<rscale>  0 0.15615207E+04</rscale>
<asrwt>0</asrwt>
<pdfrwt beam="1">  1        4 0.11152866E+00 0.15615207E+04</pdfrwt>
<pdfrwt beam="2">  1       -4 0.11154573E+00 0.15615207E+04</pdfrwt>
<totfact> 0.77807412E-01</totfact>
</mgrwt>
</event>
<event>
 8    1  0.1287848E-011  0.1519134E+04  0.7818608E-02  0.8871828E-01
         -4   -1    0    0    0  501 -0.00000000000E+00  0.00000000000E+00  0.58941436979E+03  0.58941573801E+03  0.12700000000E+01 0. -1.
          4   -1    0    0  501    0  0.00000000000E+00 -0.00000000000E+00 -0.97883671417E+03  0.97883753806E+03  0.12700000000E+01 0.  1.
     200001    2    1    2    0    0 -0.25645961776E+03 -0.14075706635E+03 -0.21827756868E+03  0.79051641728E+03  0.70120398012E+03 0.  0.
    5000001    2    3    3    0    0 -0.61796478526E+02 -0.89746273481E+02 -0.65546167803E+02  0.23031759581E+03  0.19203306086E+03 0.  0.
        -11    1    4    4    0    0 -0.56733074475E+02  0.25497506663E+01 -0.10973671159E+03  0.12356087099E+03  0.51100000000E-03 0. -1.
     200002    1    4    4    0    0 -0.50634040512E+01 -0.92296024148E+02  0.44190543790E+02  0.10675672482E+03  0.30000000000E+02 0. -1.
     200000    1    3    3    0    0 -0.19466313923E+03 -0.51010792864E+02 -0.15273140088E+03  0.56019882147E+03  0.50000000000E+03 0. -1.
    -200001    1    1    2    0    0  0.25645961776E+03  0.14075706635E+03 -0.17114477570E+03  0.77773685879E+03  0.70000000000E+03 0.  1.
<mgrwt>
<rscale>  0 0.15191342E+04</rscale>
<asrwt>0</asrwt>
<pdfrwt beam="1">  1        4 0.13983397E+00 0.15191342E+04</pdfrwt>
<pdfrwt beam="2">  1       -4 0.84202210E-01 0.15191342E+04</pdfrwt>
<totfact> 0.85902034E-01</totfact>
</mgrwt>
</event>
<event>
 8    1  0.1287848E-011  0.1642913E+04  0.7818608E-02  0.8794610E-01
          4   -1    0    0  501    0  0.00000000000E+00  0.00000000000E+00  0.14053008600E+04  0.14053014338E+04  0.12700000000E+01 0.  1.
         -4   -1    0    0    0  501 -0.00000000000E+00 -0.00000000000E+00 -0.48017402926E+03  0.48017570876E+03  0.12700000000E+01 0. -1.
     200001    2    1    2    0    0 -0.18906874117E+03  0.23476942930E+03  0.81548280123E+03  0.11154865666E+04  0.69888082492E+03 0.  0.
    5000001    2    3    3    0    0  0.49719167804E+01  0.30418812997E+02  0.30995288684E+03  0.35065230638E+03  0.16104727186E+03 0.  0.
        -11    1    4    4    0    0  0.60319154236E+02 -0.14500919881E+02  0.50729934957E+02  0.80138650764E+02  0.51100000000E-03 0. -1.
     200002    1    4    4    0    0 -0.55347237456E+02  0.44919732878E+02  0.25922295188E+03  0.27051365562E+03  0.30000000000E+02 0. -1.
     200000    1    3    3    0    0 -0.19404065795E+03  0.20435061631E+03  0.50552991439E+03  0.76483426026E+03  0.50000000000E+03 0.  1.
    -200001    1    1    2    0    0  0.18906874117E+03 -0.23476942930E+03  0.10964402946E+03  0.76999057593E+03  0.70000000000E+03 0. -1.
<mgrwt>
<rscale>  0 0.16429134E+04</rscale>
<asrwt>0</asrwt>
<pdfrwt beam="1">  1        4 0.20075743E+00 0.16429134E+04</pdfrwt>
<pdfrwt beam="2">  1       -4 0.68596450E-01 0.16429134E+04</pdfrwt>
<totfact> 0.49004433E-01</totfact>
</mgrwt>
</event>
<event>
 8    1  0.1287848E-011  0.2337405E+04  0.7818608E-02  0.8463317E-01
         -4   -1    0    0    0  501 -0.00000000000E+00  0.00000000000E+00  0.70685245343E+03  0.70685359433E+03  0.12700000000E+01 0. -1.
          4   -1    0    0  501    0  0.00000000000E+00 -0.00000000000E+00 -0.19323180466E+04  0.19323184639E+04  0.12700000000E+01 0.  1.
     200001    2    1    2    0    0  0.85047944848E+02 -0.33544961482E+03 -0.15945926707E+04  0.17754508090E+04  0.69981439888E+03 0.  0.
    5000001    2    3    3    0    0 -0.41447381448E+02 -0.93010960973E+02 -0.39593690791E+03  0.44821563541E+03  0.18374519448E+03 0.  0.
        -11    1    4    4    0    0 -0.61007364014E+02 -0.13772271365E+03 -0.25632789061E+03  0.29731032916E+03  0.51100000000E-03 0. -1.
     200002    1    4    4    0    0  0.19559982566E+02  0.44711752674E+02 -0.13960901730E+03  0.15090530626E+03  0.30000000000E+02 0. -1.
     200000    1    3    3    0    0  0.12649532630E+03 -0.24243865385E+03 -0.11986557627E+04  0.13272351736E+04  0.50000000000E+03 0.  1.
    -200001    1    1    2    0    0 -0.85047944848E+02  0.33544961482E+03  0.36912707752E+03  0.86372124923E+03  0.70000000000E+03 0. -1.
<mgrwt>
<rscale>  0 0.23374052E+04</rscale>
<asrwt>0</asrwt>
<pdfrwt beam="1">  1        4 0.27604554E+00 0.23374052E+04</pdfrwt>
<pdfrwt beam="2">  1       -4 0.10097903E+00 0.23374052E+04</pdfrwt>
<totfact> 0.63964493E-02</totfact>
</mgrwt>
</event>
<event>
 8    1  0.1287848E-011  0.1631774E+04  0.7818608E-02  0.8801263E-01
         -4   -1    0    0    0  501 -0.00000000000E+00  0.00000000000E+00  0.10345725142E+04  0.10345732937E+04  0.12700000000E+01 0. -1.
          4   -1    0    0  501    0  0.00000000000E+00 -0.00000000000E+00 -0.64342468445E+03  0.64342593782E+03  0.12700000000E+01 0.  1.
     200001    2    1    2    0    0 -0.13234053248E+03 -0.17347418574E+03  0.56500368938E+03  0.92445217284E+03  0.69840915028E+03 0.  0.
    5000001    2    3    3    0    0  0.10318918727E+02 -0.81147578644E+02  0.14245804192E+03  0.24812329901E+03  0.18595555436E+03 0.  0.
        -11    1    4    4    0    0 -0.34380687189E+01 -0.43865782969E+02 -0.39712032359E+02  0.59271179728E+02  0.51100000000E-03 0. -1.
     200002    1    4    4    0    0  0.13756987446E+02 -0.37281795675E+02  0.18217007428E+03  0.18885211928E+03  0.30000000000E+02 0. -1.
     200000    1    3    3    0    0 -0.14265945120E+03 -0.92326607098E+02  0.42254564746E+03  0.67632887383E+03  0.50000000000E+03 0. -1.
    -200001    1    1    2    0    0  0.13234053248E+03  0.17347418574E+03 -0.17385585966E+03  0.75354705864E+03  0.70000000000E+03 0.  1.
<mgrwt>
<rscale>  0 0.16317735E+04</rscale>
<asrwt>0</asrwt>
<pdfrwt beam="1">  1        4 0.91917957E-01 0.16317735E+04</pdfrwt>
<pdfrwt beam="2">  1       -4 0.14779622E+00 0.16317735E+04</pdfrwt>
<totfact> 0.60128010E-01</totfact>
</mgrwt>
</event>
<event>
 8    1  0.1287848E-011  0.1602983E+04  0.7818608E-02  0.8818717E-01
         -4   -1    0    0    0  501 -0.00000000000E+00  0.00000000000E+00  0.35395118952E+03  0.35395346794E+03  0.12700000000E+01 0. -1.
          4   -1    0    0  501    0  0.00000000000E+00 -0.00000000000E+00 -0.18148993065E+04  0.18148997508E+04  0.12700000000E+01 0.  1.
     200001    2    1    2    0    0 -0.10505792764E+03  0.14909737350E+03 -0.11939269352E+04  0.13977711826E+04  0.70358763311E+03 0.  0.
    5000001    2    3    3    0    0 -0.87564039289E+02  0.49063785864E+02 -0.44103417368E+03  0.48828766704E+03  0.18395376422E+03 0.  0.
        -11    1    4    4    0    0  0.21983256459E+02  0.84654169406E+02 -0.14664136328E+03  0.17074332019E+03  0.51100000000E-03 0. -1.
     200002    1    4    4    0    0 -0.10954729575E+03 -0.35590383541E+02 -0.29439281039E+03  0.31754434685E+03  0.30000000000E+02 0. -1.
     200000    1    3    3    0    0 -0.17493888346E+02  0.10003358763E+03 -0.75289276151E+03  0.90948351559E+03  0.50000000000E+03 0.  1.
    -200001    1    1    2    0    0  0.10505792764E+03 -0.14909737350E+03 -0.26702118176E+03  0.77108203614E+03  0.70000000000E+03 0. -1.
<mgrwt>
<rscale>  0 0.16029831E+04</rscale>
<asrwt>0</asrwt>
<pdfrwt beam="1">  1        4 0.25927152E+00 0.16029831E+04</pdfrwt>
<pdfrwt beam="2">  1       -4 0.50564651E-01 0.16029831E+04</pdfrwt>
<totfact> 0.40303696E-01</totfact>
</mgrwt>
</event>
<event>
 8    1  0.1287848E-011  0.1674179E+04  0.7818608E-02  0.8776230E-01
         -4   -1    0    0    0  501 -0.00000000000E+00  0.00000000000E+00  0.13946264702E+04  0.13946270484E+04  0.12700000000E+01 0. -1.
          4   -1    0    0  501    0  0.00000000000E+00 -0.00000000000E+00 -0.50244017339E+03  0.50244177845E+03  0.12700000000E+01 0.  1.
     200001    2    1    2    0    0  0.19488420794E+03  0.36880072289E+03  0.22739745498E+03  0.84543294318E+03  0.69932355256E+03 0.  0.
    5000001    2    3    3    0    0 -0.45530288063E+01  0.47125242806E+02  0.46382236194E+02  0.19273329148E+03  0.18097870380E+03 0.  0.
        -11    1    4    4    0    0  0.30675066225E+02  0.10260330249E+03  0.54280121221E+02  0.12006135485E+03  0.51100000000E-03 0. -1.
     200002    1    4    4    0    0 -0.35228095032E+02 -0.55478059679E+02 -0.78978850276E+01  0.72671936628E+02  0.30000000000E+02 0. -1.
     200000    1    3    3    0    0  0.19943723675E+03  0.32167548008E+03  0.18101521879E+03  0.65269965170E+03  0.50000000000E+03 0.  1.
    -200001    1    1    2    0    0 -0.19488420794E+03 -0.36880072289E+03  0.66478884181E+03  0.10516358837E+04  0.70000000000E+03 0. -1.
<mgrwt>
<rscale>  0 0.16741785E+04</rscale>
<asrwt>0</asrwt>
<pdfrwt beam="1">  1        4 0.71777322E-01 0.16741785E+04</pdfrwt>
<pdfrwt beam="2">  1       -4 0.19923251E+00 0.16741785E+04</pdfrwt>
<totfact> 0.45260887E-01</totfact>
</mgrwt>
</event>
<event>
 8    1  0.1287848E-011  0.1596901E+04  0.7818608E-02  0.8822454E-01
          4   -1    0    0  501    0  0.00000000000E+00  0.00000000000E+00  0.59406027717E+03  0.59406163469E+03  0.12700000000E+01 0.  1.
         -4   -1    0    0    0  501 -0.00000000000E+00 -0.00000000000E+00 -0.10731601428E+04  0.10731608943E+04  0.12700000000E+01 0. -1.
     200001    2    1    2    0    0  0.35733951979E+02 -0.25297158972E+03  0.58899576740E+02  0.74813877842E+03  0.70069317900E+03 0.  0.
    5000001    2    3    3    0    0  0.33320699026E+02 -0.51702248783E+02 -0.93864048643E+00  0.20583279133E+03  0.19642521586E+03 0.  0.
        -11    1    4    4    0    0  0.53339629243E+02 -0.99276703968E+02  0.53759180882E+02  0.12486404418E+03  0.51100000000E-03 0. -1.
     200002    1    4    4    0    0 -0.20018930217E+02  0.47574455185E+02 -0.54697821368E+02  0.80968747153E+02  0.30000000000E+02 0. -1.
     200000    1    3    3    0    0  0.24132529525E+01 -0.20126934094E+03  0.59838217227E+02  0.54230598709E+03  0.50000000000E+03 0.  1.
    -200001    1    1    2    0    0 -0.35733951979E+02  0.25297158972E+03 -0.53799944238E+03  0.91908375055E+03  0.70000000000E+03 0. -1.
<mgrwt>
<rscale>  0 0.15969015E+04</rscale>
<asrwt>0</asrwt>
<pdfrwt beam="1">  1        4 0.84865905E-01 0.15969015E+04</pdfrwt>
<pdfrwt beam="2">  1       -4 0.15330874E+00 0.15969015E+04</pdfrwt>
<totfact> 0.65769466E-01</totfact>
</mgrwt>
</event>
<event>
 8    1  0.1287848E-011  0.1983535E+04  0.7818608E-02  0.8614357E-01
          4   -1    0    0  501    0  0.00000000000E+00  0.00000000000E+00  0.18897063470E+04  0.18897067738E+04  0.12700000000E+01 0.  1.
         -4   -1    0    0    0  501 -0.00000000000E+00 -0.00000000000E+00 -0.52050438436E+03  0.52050593372E+03  0.12700000000E+01 0. -1.
     200001    2    1    2    0    0  0.17551834514E+03  0.66706491715E+03  0.52184997910E+03  0.11126042623E+04  0.69984180393E+03 0.  0.
    5000001    2    3    3    0    0 -0.10704364054E+03  0.14722906222E+03  0.52905947752E+02  0.20707729062E+03  0.83350028428E+02 0.  0.
        -11    1    4    4    0    0 -0.54502820655E+02  0.86121068207E+02  0.64037944576E+02  0.12036716410E+03  0.51100000000E-03 0. -1.
     200002    1    4    4    0    0 -0.52540819889E+02  0.61107994016E+02 -0.11131996824E+02  0.86710126517E+02  0.30000000000E+02 0. -1.
     200000    1    3    3    0    0  0.28256198568E+03  0.51983585492E+03  0.46894403135E+03  0.90552697163E+03  0.50000000000E+03 0.  1.
    -200001    1    1    2    0    0 -0.17551834514E+03 -0.66706491715E+03  0.84735198359E+03  0.12976084453E+04  0.70000000000E+03 0.  1.
<mgrwt>
<rscale>  0 0.19835350E+04</rscale>
<asrwt>0</asrwt>
<pdfrwt beam="1">  1        4 0.26995820E+00 0.19835350E+04</pdfrwt>
<pdfrwt beam="2">  1       -4 0.74357909E-01 0.19835350E+04</pdfrwt>
<totfact> 0.14579186E-01</totfact>
</mgrwt>
</event>
<event>
 8    1  0.1287848E-011  0.1575032E+04  0.7818608E-02  0.8836036E-01
          4   -1    0    0  501    0  0.00000000000E+00  0.00000000000E+00  0.46133398536E+03  0.46133573344E+03  0.12700000000E+01 0.  1.
         -4   -1    0    0    0  501 -0.00000000000E+00 -0.00000000000E+00 -0.13443167187E+04  0.13443173186E+04  0.12700000000E+01 0. -1.
     200001    2    1    2    0    0 -0.11284068617E+03  0.15793096718E+03 -0.92521038749E+02  0.73210524153E+03  0.69981621245E+03 0.  0.
    5000001    2    3    3    0    0 -0.35813322375E+01 -0.10488566087E+02 -0.71751561997E+02  0.19290758132E+03  0.17872384374E+03 0.  0.
        -11    1    4    4    0    0 -0.10927990352E+02  0.65329724448E+02 -0.87291793036E+02  0.10957760264E+03  0.51100000000E-03 0. -1.
     200002    1    4    4    0    0  0.73466581148E+01 -0.75818290536E+02  0.15540231039E+02  0.83329978675E+02  0.30000000000E+02 0. -1.
     200000    1    3    3    0    0 -0.10925935393E+03  0.16841953327E+03 -0.20769476752E+02  0.53919766021E+03  0.50000000000E+03 0.  1.
    -200001    1    1    2    0    0  0.11284068617E+03 -0.15793096718E+03 -0.79046169461E+03  0.10735478105E+04  0.70000000000E+03 0. -1.
<mgrwt>
<rscale>  0 0.15750316E+04</rscale>
<asrwt>0</asrwt>
<pdfrwt beam="1">  1        4 0.65905024E-01 0.15750316E+04</pdfrwt>
<pdfrwt beam="2">  1       -4 0.19204541E+00 0.15750316E+04</pdfrwt>
<totfact> 0.61470381E-01</totfact>
</mgrwt>
</event>
<event>
 8    1  0.1287848E-011  0.2744575E+04  0.7818608E-02  0.8320685E-01
          4   -1    0    0  501    0  0.00000000000E+00  0.00000000000E+00  0.10035022069E+04  0.10035030105E+04  0.12700000000E+01 0.  1.
         -4   -1    0    0    0  501 -0.00000000000E+00 -0.00000000000E+00 -0.18765984118E+04  0.18765988415E+04  0.12700000000E+01 0. -1.
     200001    2    1    2    0    0 -0.50752719748E+03 -0.66564854246E+02 -0.15524434620E+04  0.17784996408E+04  0.70068932752E+03 0.  0.
    5000001    2    3    3    0    0 -0.11677473347E+03  0.32237747257E+02 -0.37768314313E+03  0.43965265592E+03  0.18966889710E+03 0.  0.
        -11    1    4    4    0    0 -0.31212690362E+02  0.68568633637E+02 -0.31432237120E+03  0.32322506492E+03  0.51100000000E-03 0. -1.
     200002    1    4    4    0    0 -0.85562043104E+02 -0.36330886381E+02 -0.63360771933E+02  0.11642759100E+03  0.30000000000E+02 0. -1.
     200000    1    3    3    0    0 -0.39075246401E+03 -0.98802601502E+02 -0.11747603189E+04  0.13388469849E+04  0.50000000000E+03 0.  1.
    -200001    1    1    2    0    0  0.50752719748E+03  0.66564854246E+02  0.67934725710E+03  0.11016022112E+04  0.70000000000E+03 0. -1.
<mgrwt>
<rscale>  0 0.27445746E+04</rscale>
<asrwt>0</asrwt>
<pdfrwt beam="1">  1        4 0.14335755E+00 0.27445746E+04</pdfrwt>
<pdfrwt beam="2">  1       -4 0.26808557E+00 0.27445746E+04</pdfrwt>
<totfact> 0.28810804E-02</totfact>
</mgrwt>
</event>
<event>
 8    1  0.1287848E-011  0.1920529E+04  0.7818608E-02  0.8644705E-01
          4   -1    0    0  501    0  0.00000000000E+00  0.00000000000E+00  0.16454128875E+04  0.16454133777E+04  0.12700000000E+01 0.  1.
         -4   -1    0    0    0  501 -0.00000000000E+00 -0.00000000000E+00 -0.56041022427E+03  0.56041166330E+03  0.12700000000E+01 0. -1.
     200001    2    1    2    0    0  0.64624765117E+03 -0.82963593691E+02  0.65115290068E+03  0.11557085707E+04  0.69795645703E+03 0.  0.
    5000001    2    3    3    0    0  0.27561695658E+03 -0.28766583731E+02  0.27817891038E+03  0.42810014233E+03  0.17056964146E+03 0.  0.
        -11    1    4    4    0    0  0.26363842555E+03 -0.70237577616E+02  0.23324005541E+03  0.35894214044E+03  0.51100000000E-03 0. -1.
     200002    1    4    4    0    0  0.11978531031E+02  0.41470993885E+02  0.44938854974E+02  0.69158001893E+02  0.30000000000E+02 0. -1.
     200000    1    3    3    0    0  0.37063069459E+03 -0.54197009960E+02  0.37297399030E+03  0.72760842842E+03  0.50000000000E+03 0. -1.
    -200001    1    1    2    0    0 -0.64624765117E+03  0.82963593691E+02  0.43384976260E+03  0.10501164702E+04  0.70000000000E+03 0.  1.
<mgrwt>
<rscale>  0 0.19205294E+04</rscale>
<asrwt>0</asrwt>
<pdfrwt beam="1">  1        4 0.23505912E+00 0.19205294E+04</pdfrwt>
<pdfrwt beam="2">  1       -4 0.80058742E-01 0.19205294E+04</pdfrwt>
<totfact> 0.20446442E-01</totfact>
</mgrwt>
</event>
<event>
 8    1  0.1287848E-011  0.1418824E+04  0.7818608E-02  0.8940305E-01
         -4   -1    0    0    0  501 -0.00000000000E+00  0.00000000000E+00  0.67899441619E+03  0.67899560390E+03  0.12700000000E+01 0. -1.
          4   -1    0    0  501    0  0.00000000000E+00 -0.00000000000E+00 -0.74118948605E+03  0.74119057410E+03  0.12700000000E+01 0.  1.
     200001    2    1    2    0    0 -0.99707213058E+02 -0.40579414463E+02 -0.82792231756E+02  0.71165780151E+03  0.69858002805E+03 0.  0.
    5000001    2    3    3    0    0  0.35701621033E+02 -0.19091233629E+02 -0.87977191285E+02  0.19317522892E+03  0.16714545144E+03 0.  0.
        -11    1    4    4    0    0  0.28239898740E+02  0.53149414810E+02  0.16537825662E+02  0.62416759395E+02  0.51100000000E-03 0. -1.
     200002    1    4    4    0    0  0.74617222933E+01 -0.72240648438E+02 -0.10451501695E+03  0.13075846953E+03  0.30000000000E+02 0. -1.
     200000    1    3    3    0    0 -0.13540883409E+03 -0.21488180835E+02  0.51849595290E+01  0.51848257258E+03  0.50000000000E+03 0. -1.
    -200001    1    1    2    0    0  0.99707213058E+02  0.40579414463E+02  0.20597161889E+02  0.70852837649E+03  0.70000000000E+03 0. -1.
<mgrwt>
<rscale>  0 0.14188237E+04</rscale>
<asrwt>0</asrwt>
<pdfrwt beam="1">  1        4 0.10588437E+00 0.14188237E+04</pdfrwt>
<pdfrwt beam="2">  1       -4 0.96999365E-01 0.14188237E+04</pdfrwt>
<totfact> 0.12477389E+00</totfact>
</mgrwt>
</event>
<event>
 8    1  0.1287848E-011  0.2716986E+04  0.7818608E-02  0.8329515E-01
         -4   -1    0    0    0  501 -0.00000000000E+00  0.00000000000E+00  0.11301773891E+04  0.11301781027E+04  0.12700000000E+01 0. -1.
          4   -1    0    0  501    0  0.00000000000E+00 -0.00000000000E+00 -0.16329307808E+04  0.16329312747E+04  0.12700000000E+01 0.  1.
     200001    2    1    2    0    0  0.80806856210E+03 -0.82121968005E+03 -0.42301300603E+03  0.14126520130E+04  0.69947776416E+03 0.  0.
    5000001    2    3    3    0    0  0.68193441540E+02 -0.22079478039E+03 -0.82148008404E+02  0.28388534056E+03  0.14297521038E+03 0.  0.
        -11    1    4    4    0    0  0.62496816357E+02 -0.21855387569E+03 -0.10011580551E+03  0.24838442614E+03  0.51100000000E-03 0. -1.
     200002    1    4    4    0    0  0.56966251833E+01 -0.22409047026E+01  0.17967797104E+02  0.35500914427E+02  0.30000000000E+02 0. -1.
     200000    1    3    3    0    0  0.73987512056E+03 -0.60042489965E+03 -0.34086499763E+03  0.11287666724E+04  0.50000000000E+03 0. -1.
    -200001    1    1    2    0    0 -0.80806856210E+03  0.82121968005E+03 -0.79740385646E+02  0.13504573644E+04  0.70000000000E+03 0.  1.
<mgrwt>
<rscale>  0 0.27169859E+04</rscale>
<asrwt>0</asrwt>
<pdfrwt beam="1">  1        4 0.23327591E+00 0.27169859E+04</pdfrwt>
<pdfrwt beam="2">  1       -4 0.16145400E+00 0.27169859E+04</pdfrwt>
<totfact> 0.34591902E-02</totfact>
</mgrwt>
</event>
<event>
 8    1  0.1287848E-011  0.1623332E+04  0.7818608E-02  0.8806341E-01
         -4   -1    0    0    0  501 -0.00000000000E+00  0.00000000000E+00  0.24958910503E+03  0.24959233612E+03  0.12700000000E+01 0. -1.
          4   -1    0    0  501    0  0.00000000000E+00 -0.00000000000E+00 -0.26395237659E+04  0.26395240714E+04  0.12700000000E+01 0.  1.
     200001    2    1    2    0    0  0.17139570815E+03 -0.16893078293E+03 -0.17874299050E+04  0.19346919322E+04  0.70015220434E+03 0.  0.
    5000001    2    3    3    0    0 -0.18329766865E+02 -0.43702816781E+01 -0.61311344179E+03  0.63388638560E+03  0.15983984993E+03 0.  0.
        -11    1    4    4    0    0 -0.78685067644E+02 -0.16324311192E+02 -0.20712925427E+03  0.22217189512E+03  0.51100000000E-03 0. -1.
     200002    1    4    4    0    0  0.60355300779E+02  0.11954029514E+02 -0.40598418752E+03  0.41171449048E+03  0.30000000000E+02 0. -1.
     200000    1    3    3    0    0  0.18972547501E+03 -0.16456050125E+03 -0.11743164632E+04  0.13008055466E+04  0.50000000000E+03 0.  1.
    -200001    1    1    2    0    0 -0.17139570815E+03  0.16893078293E+03 -0.60250475588E+03  0.95442447530E+03  0.70000000000E+03 0. -1.
<mgrwt>
<rscale>  0 0.16233317E+04</rscale>
<asrwt>0</asrwt>
<pdfrwt beam="1">  1        4 0.37707506E+00 0.16233317E+04</pdfrwt>
<pdfrwt beam="2">  1       -4 0.35655841E-01 0.16233317E+04</pdfrwt>
<totfact> 0.14635566E-01</totfact>
</mgrwt>
</event>
<event>
 8    1  0.1287848E-011  0.1844095E+04  0.7818608E-02  0.8683195E-01
         -4   -1    0    0    0  501 -0.00000000000E+00  0.00000000000E+00  0.13884125566E+04  0.13884131374E+04  0.12700000000E+01 0. -1.
          4   -1    0    0  501    0  0.00000000000E+00 -0.00000000000E+00 -0.61233220686E+03  0.61233352387E+03  0.12700000000E+01 0.  1.
     200001    2    1    2    0    0  0.51201665402E+03 -0.59738355440E+02  0.72169852626E+03  0.11297201934E+04  0.69977798438E+03 0.  0.
    5000001    2    3    3    0    0  0.19181569519E+03 -0.21816699978E+02  0.19185053824E+03  0.33303606752E+03  0.19193010167E+03 0.  0.
        -11    1    4    4    0    0  0.12463544682E+03 -0.47446272772E+02  0.82815652091E+01  0.13361784209E+03  0.51100000000E-03 0. -1.
     200002    1    4    4    0    0  0.67180248373E+02  0.25629572794E+02  0.18356897303E+03  0.19941822542E+03  0.30000000000E+02 0. -1.
     200000    1    3    3    0    0  0.32020095883E+03 -0.37921655462E+02  0.52984798803E+03  0.79668412586E+03  0.50000000000E+03 0. -1.
    -200001    1    1    2    0    0 -0.51201665402E+03  0.59738355440E+02  0.54381823475E+02  0.87102646793E+03  0.70000000000E+03 0. -1.
<mgrwt>
<rscale>  0 0.18440950E+04</rscale>
<asrwt>0</asrwt>
<pdfrwt beam="1">  1        4 0.87476166E-01 0.18440950E+04</pdfrwt>
<pdfrwt beam="2">  1       -4 0.19834478E+00 0.18440950E+04</pdfrwt>
<totfact> 0.28923819E-01</totfact>
</mgrwt>
</event>
<event>
 8    1  0.1287848E-011  0.1720465E+04  0.7818608E-02  0.8749777E-01
          4   -1    0    0  501    0  0.00000000000E+00  0.00000000000E+00  0.17267876987E+03  0.17268344004E+03  0.12700000000E+01 0.  1.
         -4   -1    0    0    0  501 -0.00000000000E+00 -0.00000000000E+00 -0.42853533418E+04  0.42853535300E+04  0.12700000000E+01 0. -1.
     200001    2    1    2    0    0 -0.38540807213E+02  0.15438403426E+03 -0.82566534540E+03  0.10935534318E+04  0.69915378975E+03 0.  0.
    5000001    2    3    3    0    0 -0.27930256130E+02  0.49296243051E+02 -0.77498564910E+02  0.18751283717E+03  0.16107395120E+03 0.  0.
        -11    1    4    4    0    0 -0.24614187009E+01  0.59288069674E+02  0.34321316917E+02  0.68549883901E+02  0.51100000000E-03 0. -1.
     200002    1    4    4    0    0 -0.25468837429E+02 -0.99918266228E+01 -0.11181988183E+03  0.11896295327E+03  0.30000000000E+02 0. -1.
     200000    1    3    3    0    0 -0.10610551083E+02  0.10508779121E+03 -0.74816678049E+03  0.90604059461E+03  0.50000000000E+03 0.  1.
    -200001    1    1    2    0    0  0.38540807213E+02 -0.15438403426E+03 -0.32870092266E+04  0.33644835383E+04  0.70000000000E+03 0. -1.
<mgrwt>
<rscale>  0 0.17204655E+04</rscale>
<asrwt>0</asrwt>
<pdfrwt beam="1">  1        4 0.24668745E-01 0.17204655E+04</pdfrwt>
<pdfrwt beam="2">  1       -4 0.61219362E+00 0.17204655E+04</pdfrwt>
<totfact> 0.39847047E-03</totfact>
</mgrwt>
</event>
<event>
 8    1  0.1287848E-011  0.1538007E+04  0.7818608E-02  0.8859565E-01
          4   -1    0    0  501    0  0.00000000000E+00  0.00000000000E+00  0.70165760971E+03  0.70165875906E+03  0.12700000000E+01 0.  1.
         -4   -1    0    0    0  501 -0.00000000000E+00 -0.00000000000E+00 -0.84281071062E+03  0.84281166748E+03  0.12700000000E+01 0. -1.
     200001    2    1    2    0    0  0.18738182377E+02 -0.22463741765E+03 -0.30116300457E+03  0.79186411633E+03  0.69680451672E+03 0.  0.
    5000001    2    3    3    0    0  0.14767321270E+03 -0.36924111994E+02 -0.11575009005E+03  0.21200337785E+03  0.91523664017E+02 0.  0.
        -11    1    4    4    0    0  0.30114206227E+02 -0.70621155554E+01  0.12121367678E+02  0.33221475697E+02  0.51100000000E-03 0. -1.
     200002    1    4    4    0    0  0.11755900648E+03 -0.29861996438E+02 -0.12787145773E+03  0.17878190215E+03  0.30000000000E+02 0. -1.
     200000    1    3    3    0    0 -0.12893503033E+03 -0.18771330566E+03 -0.18541291452E+03  0.57986073848E+03  0.50000000000E+03 0.  1.
    -200001    1    1    2    0    0 -0.18738182377E+02  0.22463741765E+03  0.16000990365E+03  0.75260631020E+03  0.70000000000E+03 0.  1.
<mgrwt>
<rscale>  0 0.15380067E+04</rscale>
<asrwt>0</asrwt>
<pdfrwt beam="1">  1        4 0.10023695E+00 0.15380067E+04</pdfrwt>
<pdfrwt beam="2">  1       -4 0.12040168E+00 0.15380067E+04</pdfrwt>
<totfact> 0.83582647E-01</totfact>
</mgrwt>
</event>
<event>
 8    1  0.1287848E-011  0.2027234E+04  0.7818608E-02  0.8593993E-01
          4   -1    0    0  501    0  0.00000000000E+00  0.00000000000E+00  0.60678408016E+03  0.60678540921E+03  0.12700000000E+01 0.  1.
         -4   -1    0    0    0  501 -0.00000000000E+00 -0.00000000000E+00 -0.16932176669E+04  0.16932181432E+04  0.12700000000E+01 0. -1.
     200001    2    1    2    0    0 -0.27185648472E+03 -0.25348300880E+03 -0.12597237211E+04  0.14887150373E+04  0.70086305701E+03 0.  0.
    5000001    2    3    3    0    0 -0.76568041095E+02 -0.63258081883E+02 -0.44622396051E+03  0.49568686068E+03  0.19163869933E+03 0.  0.
        -11    1    4    4    0    0 -0.78095117771E+02  0.36778240848E+01 -0.40304251913E+03  0.41055528986E+03  0.51100000000E-03 0. -1.
     200002    1    4    4    0    0  0.15270766758E+01 -0.66935905967E+02 -0.43181441385E+02  0.85131570824E+02  0.30000000000E+02 0. -1.
     200000    1    3    3    0    0 -0.19528844362E+03 -0.19022492692E+03 -0.81349976064E+03  0.99302817663E+03  0.50000000000E+03 0. -1.
    -200001    1    1    2    0    0  0.27185648472E+03  0.25348300880E+03  0.17329013439E+03  0.81128851509E+03  0.70000000000E+03 0.  1.
<mgrwt>
<rscale>  0 0.20272342E+04</rscale>
<asrwt>0</asrwt>
<pdfrwt beam="1">  1        4 0.86683569E-01 0.20272342E+04</pdfrwt>
<pdfrwt beam="2">  1       -4 0.24188837E+00 0.20272342E+04</pdfrwt>
<totfact> 0.15310814E-01</totfact>
</mgrwt>
</event>
<event>
 8    1  0.1287848E-011  0.1449492E+04  0.7818608E-02  0.8918753E-01
         -4   -1    0    0    0  501 -0.00000000000E+00  0.00000000000E+00  0.80084746381E+03  0.80084847081E+03  0.12700000000E+01 0.  1.
          4   -1    0    0  501    0  0.00000000000E+00 -0.00000000000E+00 -0.65587404621E+03  0.65587527579E+03  0.12700000000E+01 0. -1.
     200001    2    1    2    0    0 -0.15449212592E+03  0.31774562969E+02 -0.29349133242E+02  0.71830259878E+03  0.70015699094E+03 0.  0.
    5000001    2    3    3    0    0  0.33178064168E+01  0.72789352516E+02  0.31955278367E+01  0.19138197604E+03  0.17693940114E+03 0.  0.
        -11    1    4    4    0    0 -0.25609152769E+02  0.12247728154E+03 -0.87832731433E+01  0.12543388333E+03  0.51100000000E-03 0. -1.
     200002    1    4    4    0    0  0.28926959185E+02 -0.49687929027E+02  0.11978800980E+02  0.65948092707E+02  0.30000000000E+02 0. -1.
     200000    1    3    3    0    0 -0.15780993233E+03 -0.41014789547E+02 -0.32544661079E+02  0.52692062274E+03  0.50000000000E+03 0. -1.
    -200001    1    1    2    0    0  0.15449212592E+03 -0.31774562969E+02  0.17432255084E+03  0.73842114782E+03  0.70000000000E+03 0. -1.
<mgrwt>
<rscale>  0 0.14494919E+04</rscale>
<asrwt>0</asrwt>
<pdfrwt beam="1">  1        4 0.93696452E-01 0.14494919E+04</pdfrwt>
<pdfrwt beam="2">  1       -4 0.11440694E+00 0.14494919E+04</pdfrwt>
<totfact> 0.11189334E+00</totfact>
</mgrwt>
</event>
<event>
 8    1  0.1287848E-011  0.1878098E+04  0.7818608E-02  0.8665836E-01
          4   -1    0    0  501    0  0.00000000000E+00  0.00000000000E+00  0.16502120999E+04  0.16502125886E+04  0.12700000000E+01 0.  1.
         -4   -1    0    0    0  501 -0.00000000000E+00 -0.00000000000E+00 -0.53436197925E+03  0.53436348843E+03  0.12700000000E+01 0. -1.
     200001    2    1    2    0    0 -0.10740289121E+03 -0.29168083860E+03  0.11896171932E+04  0.14151251860E+04  0.70055487523E+03 0.  0.
    5000001    2    3    3    0    0  0.51778697004E+01 -0.11214465745E+03  0.38699150055E+03  0.44604537997E+03  0.19128728385E+03 0.  0.
        -11    1    4    4    0    0  0.63759540467E+02 -0.13375269545E+03  0.21988885001E+03  0.26515310463E+03  0.51100000000E-03 0. -1.
     200002    1    4    4    0    0 -0.58581670767E+02  0.21608038000E+02  0.16710265055E+03  0.18089227534E+03  0.30000000000E+02 0. -1.
     200000    1    3    3    0    0 -0.11258076091E+03 -0.17953618115E+03  0.80262569263E+03  0.96907980607E+03  0.50000000000E+03 0.  1.
    -200001    1    1    2    0    0  0.10740289121E+03  0.29168083860E+03 -0.73767072528E+02  0.76945089098E+03  0.70000000000E+03 0. -1.
<mgrwt>
<rscale>  0 0.18780977E+04</rscale>
<asrwt>0</asrwt>
<pdfrwt beam="1">  1        4 0.23574473E+00 0.18780977E+04</pdfrwt>
<pdfrwt beam="2">  1       -4 0.76337568E-01 0.18780977E+04</pdfrwt>
<totfact> 0.22622035E-01</totfact>
</mgrwt>
</event>
<event>
 8    1  0.1287848E-011  0.1442500E+04  0.7818608E-02  0.8923617E-01
         -4   -1    0    0    0  501 -0.00000000000E+00  0.00000000000E+00  0.21446868258E+03  0.21447244277E+03  0.12700000000E+01 0. -1.
          4   -1    0    0  501    0  0.00000000000E+00 -0.00000000000E+00 -0.24255115568E+04  0.24255118893E+04  0.12700000000E+01 0.  1.
     200001    2    1    2    0    0 -0.10833628928E+03 -0.53078920327E+02 -0.90629298627E+03  0.11544115828E+04  0.70480139195E+03 0.  0.
    5000001    2    3    3    0    0 -0.79951809439E+02 -0.91649498402E+02 -0.23958719603E+03  0.31967211507E+03  0.17319444062E+03 0.  0.
        -11    1    4    4    0    0 -0.87874433146E+02 -0.11759523507E+03 -0.23745487757E+03  0.27916907815E+03  0.51100000000E-03 0. -1.
     200002    1    4    4    0    0  0.79226237069E+01  0.25945736668E+02 -0.21323184587E+01  0.40503036919E+02  0.30000000000E+02 0. -1.
     200000    1    3    3    0    0 -0.28384479845E+02  0.38570578074E+02 -0.66670579024E+03  0.83473946770E+03  0.50000000000E+03 0. -1.
    -200001    1    1    2    0    0  0.10833628928E+03  0.53078920327E+02 -0.13047498880E+04  0.14855727493E+04  0.70000000000E+03 0.  1.
<mgrwt>
<rscale>  0 0.14425001E+04</rscale>
<asrwt>0</asrwt>
<pdfrwt beam="1">  1        4 0.34650193E+00 0.14425001E+04</pdfrwt>
<pdfrwt beam="2">  1       -4 0.30638677E-01 0.14425001E+04</pdfrwt>
<totfact> 0.31867619E-01</totfact>
</mgrwt>
</event>
<event>
 8    1  0.1287848E-011  0.2095539E+04  0.7818608E-02  0.8563211E-01
         -4   -1    0    0    0  501 -0.00000000000E+00  0.00000000000E+00  0.48768010523E+03  0.48768175888E+03  0.12700000000E+01 0. -1.
          4   -1    0    0  501    0  0.00000000000E+00 -0.00000000000E+00 -0.22511023473E+04  0.22511027056E+04  0.12700000000E+01 0.  1.
     200001    2    1    2    0    0 -0.66464476153E+03  0.24621032280E+03 -0.13055518999E+04  0.16424189085E+04  0.70050119587E+03 0.  0.
    5000001    2    3    3    0    0 -0.17914916750E+03  0.74945409443E+02 -0.28950471889E+03  0.39847778589E+03  0.19302933707E+03 0.  0.
        -11    1    4    4    0    0 -0.97391593610E+02 -0.58623045650E+02 -0.10673925927E+03  0.15593284919E+03  0.51100000000E-03 0. -1.
     200002    1    4    4    0    0 -0.81757573891E+02  0.13356845509E+03 -0.18276545962E+03  0.24254493669E+03  0.30000000000E+02 0. -1.
     200000    1    3    3    0    0 -0.48549559403E+03  0.17126491336E+03 -0.10160471810E+04  0.12439411226E+04  0.50000000000E+03 0.  1.
    -200001    1    1    2    0    0  0.66464476153E+03 -0.24621032280E+03 -0.45787034215E+03  0.10963655560E+04  0.70000000000E+03 0. -1.
<mgrwt>
<rscale>  0 0.20955387E+04</rscale>
<asrwt>0</asrwt>
<pdfrwt beam="1">  1        4 0.32158619E+00 0.20955387E+04</pdfrwt>
<pdfrwt beam="2">  1       -4 0.69668731E-01 0.20955387E+04</pdfrwt>
<totfact> 0.79532640E-02</totfact>
</mgrwt>
</event>
<event>
 8    1  0.1287848E-011  0.1469583E+04  0.7818608E-02  0.8904936E-01
         -4   -1    0    0    0  501 -0.00000000000E+00  0.00000000000E+00  0.51198638123E+03  0.51198795636E+03  0.12700000000E+01 0. -1.
          4   -1    0    0  501    0  0.00000000000E+00 -0.00000000000E+00 -0.10545531308E+04  0.10545538956E+04  0.12700000000E+01 0.  1.
     200001    2    1    2    0    0 -0.13250792582E+01  0.22337386307E+03 -0.28427828839E+03  0.78768976857E+03  0.69981668151E+03 0.  0.
    5000001    2    3    3    0    0  0.60462769858E+02  0.94908737475E+02 -0.12956132625E+03  0.24523390385E+03  0.17518594507E+03 0.  0.
        -11    1    4    4    0    0 -0.13811375501E+02 -0.44411068172E+02 -0.19388728598E+02  0.50388687880E+02  0.51100000000E-03 0. -1.
     200002    1    4    4    0    0  0.74274145359E+02  0.13931980565E+03 -0.11017259765E+03  0.19484521597E+03  0.30000000000E+02 0. -1.
     200000    1    3    3    0    0 -0.61787849116E+02  0.12846512560E+03 -0.15471696213E+03  0.54245586472E+03  0.50000000000E+03 0. -1.
    -200001    1    1    2    0    0  0.13250792582E+01 -0.22337386307E+03 -0.25828846121E+03  0.77885208335E+03  0.70000000000E+03 0. -1.
<mgrwt>
<rscale>  0 0.14695832E+04</rscale>
<asrwt>0</asrwt>
<pdfrwt beam="1">  1        4 0.15065061E+00 0.14695832E+04</pdfrwt>
<pdfrwt beam="2">  1       -4 0.73141079E-01 0.14695832E+04</pdfrwt>
<totfact> 0.97350960E-01</totfact>
</mgrwt>
</event>
<event>
 8    1  0.1287848E-011  0.2095390E+04  0.7818608E-02  0.8563277E-01
         -4   -1    0    0    0  501 -0.00000000000E+00  0.00000000000E+00  0.67364844887E+03  0.67364964600E+03  0.12700000000E+01 0. -1.
          4   -1    0    0  501    0  0.00000000000E+00 -0.00000000000E+00 -0.16294302851E+04  0.16294307801E+04  0.12700000000E+01 0.  1.
     200001    2    1    2    0    0  0.43725903522E+03  0.13986797164E+03  0.21446043335E+03  0.86425261045E+03  0.70012911940E+03 0.  0.
    5000001    2    3    3    0    0  0.76293032322E+02 -0.66577026912E+02  0.58603801258E+02  0.19551702561E+03  0.15665048512E+03 0.  0.
        -11    1    4    4    0    0  0.71494258670E+02 -0.25890068559E+02 -0.39028658173E+02  0.85469063595E+02  0.51100000000E-03 0. -1.
     200002    1    4    4    0    0  0.47987736521E+01 -0.40686958352E+02  0.97632459431E+02  0.11004796201E+03  0.30000000000E+02 0. -1.
     200000    1    3    3    0    0  0.36096600289E+03  0.20644499855E+03  0.15585663210E+03  0.66873558485E+03  0.50000000000E+03 0. -1.
    -200001    1    1    2    0    0 -0.43725903522E+03 -0.13986797164E+03 -0.11702422696E+04  0.14388278156E+04  0.70000000000E+03 0.  1.
<mgrwt>
<rscale>  0 0.20953903E+04</rscale>
<asrwt>0</asrwt>
<pdfrwt beam="1">  1        4 0.23277587E+00 0.20953903E+04</pdfrwt>
<pdfrwt beam="2">  1       -4 0.96235614E-01 0.20953903E+04</pdfrwt>
<totfact> 0.13606715E-01</totfact>
</mgrwt>
</event>
<event>
 8    1  0.1287848E-011  0.1508285E+04  0.7818608E-02  0.8878962E-01
         -4   -1    0    0    0  501 -0.00000000000E+00  0.00000000000E+00  0.19266516693E+04  0.19266520879E+04  0.12700000000E+01 0. -1.
          4   -1    0    0  501    0  0.00000000000E+00 -0.00000000000E+00 -0.29518934431E+03  0.29519207627E+03  0.12700000000E+01 0.  1.
     200001    2    1    2    0    0  0.92823497330E+02 -0.26439761906E+03  0.78450120205E+03  0.10878840915E+04  0.69966231702E+03 0.  0.
    5000001    2    3    3    0    0 -0.21734858856E+02 -0.58820115409E+02  0.15202174475E+03  0.24799362786E+03  0.18562871145E+03 0.  0.
        -11    1    4    4    0    0 -0.61048868206E+02  0.48102005523E+02  0.52672201341E+02  0.93888913290E+02  0.51100000000E-03 0. -1.
     200002    1    4    4    0    0  0.39314009350E+02 -0.10692212093E+03  0.99349543412E+02  0.15410471457E+03  0.30000000000E+02 0. -1.
     200000    1    3    3    0    0  0.11455835619E+03 -0.20557750365E+03  0.63247945730E+03  0.83989046363E+03  0.50000000000E+03 0. -1.
    -200001    1    1    2    0    0 -0.92823497330E+02  0.26439761906E+03  0.84696112292E+03  0.11339600726E+04  0.70000000000E+03 0.  1.
<mgrwt>
<rscale>  0 0.15082845E+04</rscale>
<asrwt>0</asrwt>
<pdfrwt beam="1">  1        4 0.42170130E-01 0.15082845E+04</pdfrwt>
<pdfrwt beam="2">  1       -4 0.27523618E+00 0.15082845E+04</pdfrwt>
<totfact> 0.47049644E-01</totfact>
</mgrwt>
</event>
<event>
 8    1  0.1287848E-011  0.2412257E+04  0.7818608E-02  0.8434929E-01
         -4   -1    0    0    0  501 -0.00000000000E+00  0.00000000000E+00  0.54619814909E+03  0.54619962557E+03  0.12700000000E+01 0. -1.
          4   -1    0    0  501    0  0.00000000000E+00 -0.00000000000E+00 -0.26633985948E+04  0.26633988976E+04  0.12700000000E+01 0.  1.
     200001    2    1    2    0    0 -0.76647629993E+03  0.58725815454E+03 -0.12979307149E+04  0.17626842374E+04  0.70005251353E+03 0.  0.
    5000001    2    3    3    0    0 -0.19693416359E+03  0.71687648428E+02 -0.27390135569E+03  0.38833809456E+03  0.17850025017E+03 0.  0.
        -11    1    4    4    0    0 -0.64167446383E+02 -0.63420299030E+00 -0.21325677042E+03  0.22270229796E+03  0.51100000000E-03 0. -1.
     200002    1    4    4    0    0 -0.13276671721E+03  0.72321851418E+02 -0.60644585269E+02  0.16563579660E+03  0.30000000000E+02 0. -1.
     200000    1    3    3    0    0 -0.56954213633E+03  0.51557050612E+03 -0.10240293592E+04  0.13743461429E+04  0.50000000000E+03 0. -1.
    -200001    1    1    2    0    0  0.76647629993E+03 -0.58725815454E+03 -0.81926973075E+03  0.14469142857E+04  0.70000000000E+03 0.  1.
<mgrwt>
<rscale>  0 0.24122572E+04</rscale>
<asrwt>0</asrwt>
<pdfrwt beam="1">  1        4 0.38048563E+00 0.24122572E+04</pdfrwt>
<pdfrwt beam="2">  1       -4 0.78028435E-01 0.24122572E+04</pdfrwt>
<totfact> 0.24694178E-02</totfact>
</mgrwt>
</event>
<event>
 8    1  0.1287848E-011  0.1813862E+04  0.7818608E-02  0.8698962E-01
         -4   -1    0    0    0  501 -0.00000000000E+00  0.00000000000E+00  0.92986494510E+03  0.92986581238E+03  0.12700000000E+01 0. -1.
          4   -1    0    0  501    0  0.00000000000E+00 -0.00000000000E+00 -0.88456098086E+03  0.88456189255E+03  0.12700000000E+01 0.  1.
     200001    2    1    2    0    0  0.23401707324E+02 -0.55818094017E+03  0.16559488040E+03  0.91077760318E+03  0.69998612570E+03 0.  0.
    5000001    2    3    3    0    0  0.45036110347E+01 -0.90052339015E+02 -0.24918841714E+02  0.19958353433E+03  0.17630352301E+03 0.  0.
        -11    1    4    4    0    0  0.71286860029E+02  0.25484631005E+00  0.21415514193E+02  0.74434572665E+02  0.51100000000E-03 0. -1.
     200002    1    4    4    0    0 -0.66783248994E+02 -0.90307185325E+02 -0.46334355907E+02  0.12514896166E+03  0.30000000000E+02 0. -1.
     200000    1    3    3    0    0  0.18898096289E+02 -0.46812860116E+03  0.19051372212E+03  0.71119406886E+03  0.50000000000E+03 0. -1.
    -200001    1    1    2    0    0 -0.23401707324E+02  0.55818094017E+03 -0.12029091615E+03  0.90365010175E+03  0.70000000000E+03 0.  1.
<mgrwt>
<rscale>  0 0.18138620E+04</rscale>
<asrwt>0</asrwt>
<pdfrwt beam="1">  1        4 0.12636598E+00 0.18138620E+04</pdfrwt>
<pdfrwt beam="2">  1       -4 0.13283798E+00 0.18138620E+04</pdfrwt>
<totfact> 0.36181492E-01</totfact>
</mgrwt>
</event>
<event>
 8    1  0.1287848E-011  0.1705929E+04  0.7818608E-02  0.8757990E-01
          4   -1    0    0  501    0  0.00000000000E+00  0.00000000000E+00  0.13639846167E+04  0.13639852080E+04  0.12700000000E+01 0.  1.
         -4   -1    0    0    0  501 -0.00000000000E+00 -0.00000000000E+00 -0.53339797471E+03  0.53339948662E+03  0.12700000000E+01 0. -1.
     200001    2    1    2    0    0  0.15914546092E+03  0.12114142937E+03 -0.78802980602E+02  0.73248469486E+03  0.70022953010E+03 0.  0.
    5000001    2    3    3    0    0  0.10006857649E+02 -0.25554835556E+02 -0.11012892681E+03  0.18958191164E+03  0.15185431795E+03 0.  0.
        -11    1    4    4    0    0  0.43791169525E+01  0.35624770410E+02 -0.11554988090E+03  0.12099618138E+03  0.51100000000E-03 0. -1.
     200002    1    4    4    0    0  0.56277406967E+01 -0.61179605967E+02  0.54209540959E+01  0.68585730257E+02  0.30000000000E+02 0. -1.
     200000    1    3    3    0    0  0.14913860327E+03  0.14669626493E+03  0.31325946204E+02  0.54290278323E+03  0.50000000000E+03 0.  1.
    -200001    1    1    2    0    0 -0.15914546092E+03 -0.12114142937E+03  0.90938962263E+03  0.11648999997E+04  0.70000000000E+03 0. -1.
<mgrwt>
<rscale>  0 0.17059292E+04</rscale>
<asrwt>0</asrwt>
<pdfrwt beam="1">  1        4 0.19485509E+00 0.17059292E+04</pdfrwt>
<pdfrwt beam="2">  1       -4 0.76199862E-01 0.17059292E+04</pdfrwt>
<totfact> 0.42244794E-01</totfact>
</mgrwt>
</event>
<event>
 8    1  0.1287848E-011  0.1911824E+04  0.7818608E-02  0.8648993E-01
         -4   -1    0    0    0  501 -0.00000000000E+00  0.00000000000E+00  0.10610858678E+04  0.10610866278E+04  0.12700000000E+01 0. -1.
          4   -1    0    0  501    0  0.00000000000E+00 -0.00000000000E+00 -0.86116112456E+03  0.86116206102E+03  0.12700000000E+01 0.  1.
     200001    2    1    2    0    0 -0.41726643505E+03  0.10298944706E+03  0.59164170877E+03  0.10122155657E+04  0.69987308556E+03 0.  0.
    5000001    2    3    3    0    0 -0.13739741045E+03 -0.34021383407E+02  0.29824552337E+03  0.35405148268E+03  0.12793184610E+03 0.  0.
        -11    1    4    4    0    0 -0.50761054562E+02 -0.72694170259E+02  0.11155182664E+03  0.14249539318E+03  0.51100000000E-03 0. -1.
     200002    1    4    4    0    0 -0.86636355889E+02  0.38672786852E+02  0.18669369673E+03  0.21155608950E+03  0.30000000000E+02 0. -1.
     200000    1    3    3    0    0 -0.27986902460E+03  0.13701083046E+03  0.29339618540E+03  0.65816408304E+03  0.50000000000E+03 0. -1.
    -200001    1    1    2    0    0  0.41726643505E+03 -0.10298944706E+03 -0.39171696556E+03  0.91003312310E+03  0.70000000000E+03 0.  1.
<mgrwt>
<rscale>  0 0.19118238E+04</rscale>
<asrwt>0</asrwt>
<pdfrwt beam="1">  1        4 0.12302314E+00 0.19118238E+04</pdfrwt>
<pdfrwt beam="2">  1       -4 0.15158382E+00 0.19118238E+04</pdfrwt>
<totfact> 0.27185047E-01</totfact>
</mgrwt>
</event>
<event>
 8    1  0.1287848E-011  0.1411386E+04  0.7818608E-02  0.8945618E-01
          4   -1    0    0  501    0  0.00000000000E+00  0.00000000000E+00  0.35842634644E+03  0.35842859641E+03  0.12700000000E+01 0.  1.
         -4   -1    0    0    0  501 -0.00000000000E+00 -0.00000000000E+00 -0.13894078237E+04  0.13894084041E+04  0.12700000000E+01 0. -1.
     200001    2    1    2    0    0 -0.33024513637E+02 -0.62465660367E+02 -0.43089538372E+03  0.82312304645E+03  0.69775937160E+03 0.  0.
    5000001    2    3    3    0    0 -0.32996257982E+02  0.62184635851E+01  0.28295980224E+02  0.14079305414E+03  0.13377069660E+03 0.  0.
        -11    1    4    4    0    0  0.18873164072E+02  0.55891434397E+02  0.21005898900E+02  0.62620256706E+02  0.51100000000E-03 0. -1.
     200002    1    4    4    0    0 -0.51869422054E+02 -0.49672970812E+02  0.72900813237E+01  0.78172797438E+02  0.30000000000E+02 0. -1.
     200000    1    3    3    0    0 -0.28255654985E-01 -0.68684123953E+02 -0.45919136395E+03  0.68232999231E+03  0.50000000000E+03 0. -1.
    -200001    1    1    2    0    0  0.33024513637E+02  0.62465660367E+02 -0.60008609354E+03  0.92471395409E+03  0.70000000000E+03 0. -1.
<mgrwt>
<rscale>  0 0.14113863E+04</rscale>
<asrwt>0</asrwt>
<pdfrwt beam="1">  1        4 0.51203967E-01 0.14113863E+04</pdfrwt>
<pdfrwt beam="2">  1       -4 0.19848703E+00 0.14113863E+04</pdfrwt>
<totfact> 0.96638103E-01</totfact>
</mgrwt>
</event>
<event>
 8    1  0.1287848E-011  0.1439215E+04  0.7818608E-02  0.8925912E-01
         -4   -1    0    0    0  501 -0.00000000000E+00  0.00000000000E+00  0.10557766135E+04  0.10557773773E+04  0.12700000000E+01 0. -1.
          4   -1    0    0  501    0  0.00000000000E+00 -0.00000000000E+00 -0.49047567383E+03  0.49047731805E+03  0.12700000000E+01 0.  1.
     200001    2    1    2    0    0  0.32738064757E+02  0.15037896450E+03  0.33791143275E+03  0.79432943199E+03  0.70220331549E+03 0.  0.
    5000001    2    3    3    0    0  0.21269757802E+02 -0.13603990118E+02  0.11966362752E+03  0.22454523077E+03  0.18831809729E+03 0.  0.
        -11    1    4    4    0    0 -0.41760352765E+02 -0.11822644639E+02 -0.34409544128E+02  0.55386990500E+02  0.51100000000E-03 0. -1.
     200002    1    4    4    0    0  0.63030110567E+02 -0.17813454783E+01  0.15407317165E+03  0.16915824027E+03  0.30000000000E+02 0. -1.
     200000    1    3    3    0    0  0.11468306955E+02  0.16398295462E+03  0.21824780523E+03  0.56978420122E+03  0.50000000000E+03 0. -1.
    -200001    1    1    2    0    0 -0.32738064757E+02 -0.15037896450E+03  0.22738950687E+03  0.75192526336E+03  0.70000000000E+03 0. -1.
<mgrwt>
<rscale>  0 0.14392145E+04</rscale>
<asrwt>0</asrwt>
<pdfrwt beam="1">  1        4 0.70068126E-01 0.14392145E+04</pdfrwt>
<pdfrwt beam="2">  1       -4 0.15082540E+00 0.14392145E+04</pdfrwt>
<totfact> 0.10697368E+00</totfact>
</mgrwt>
</event>
<event>
 8    1  0.1287848E-011  0.1517299E+04  0.7818608E-02  0.8873030E-01
          4   -1    0    0  501    0  0.00000000000E+00  0.00000000000E+00  0.37118593377E+03  0.37118810640E+03  0.12700000000E+01 0.  1.
         -4   -1    0    0    0  501 -0.00000000000E+00 -0.00000000000E+00 -0.15505603513E+04  0.15505608714E+04  0.12700000000E+01 0. -1.
     200001    2    1    2    0    0  0.15319799993E+03  0.22472134675E+02 -0.91005961291E+03  0.11559127760E+04  0.69566602810E+03 0.  0.
    5000001    2    3    3    0    0  0.73994090892E+02 -0.98730847907E+02 -0.19703619758E+03  0.27309580006E+03  0.14330089685E+03 0.  0.
        -11    1    4    4    0    0  0.49371291085E+02 -0.97136542533E+02 -0.47976121619E+02  0.11905771930E+03  0.51100000000E-03 0. -1.
     200002    1    4    4    0    0  0.24622799807E+02 -0.15943053742E+01 -0.14906007596E+03  0.15403808076E+03  0.30000000000E+02 0. -1.
     200000    1    3    3    0    0  0.79203909035E+02  0.12120298258E+03 -0.71302341533E+03  0.88281697594E+03  0.50000000000E+03 0. -1.
    -200001    1    1    2    0    0 -0.15319799993E+03 -0.22472134675E+02 -0.26931480463E+03  0.76583620182E+03  0.70000000000E+03 0.  1.
<mgrwt>
<rscale>  0 0.15172986E+04</rscale>
<asrwt>0</asrwt>
<pdfrwt beam="1">  1        4 0.53026755E-01 0.15172986E+04</pdfrwt>
<pdfrwt beam="2">  1       -4 0.22150881E+00 0.15172986E+04</pdfrwt>
<totfact> 0.63217032E-01</totfact>
</mgrwt>
</event>
<event>
 8    1  0.1287848E-011  0.1795103E+04  0.7818608E-02  0.8708908E-01
          4   -1    0    0  501    0  0.00000000000E+00  0.00000000000E+00  0.43046688174E+03  0.43046875516E+03  0.12700000000E+01 0.  1.
         -4   -1    0    0    0  501 -0.00000000000E+00 -0.00000000000E+00 -0.18714464251E+04  0.18714468560E+04  0.12700000000E+01 0. -1.
     200001    2    1    2    0    0 -0.22835791172E+03 -0.13421686914E+03 -0.84415721860E+02  0.75258449563E+03  0.69935391981E+03 0.  0.
    5000001    2    3    3    0    0 -0.17496271179E+03 -0.58398903712E+02 -0.25545143900E+02  0.24066149731E+03  0.15245661494E+03 0.  0.
        -11    1    4    4    0    0 -0.13800866997E+03 -0.27669770713E+02 -0.80149626117E+02  0.16197521960E+03  0.51100000000E-03 0. -1.
     200002    1    4    4    0    0 -0.36954041819E+02 -0.30729132999E+02  0.54604482217E+02  0.78686277710E+02  0.30000000000E+02 0. -1.
     200000    1    3    3    0    0 -0.53395199933E+02 -0.75817965424E+02 -0.58870577960E+02  0.51192299832E+03  0.50000000000E+03 0.  1.
    -200001    1    1    2    0    0  0.22835791172E+03  0.13421686914E+03 -0.13565638215E+04  0.15493311155E+04  0.70000000000E+03 0. -1.
<mgrwt>
<rscale>  0 0.17951026E+04</rscale>
<asrwt>0</asrwt>
<pdfrwt beam="1">  1        4 0.61495435E-01 0.17951026E+04</pdfrwt>
<pdfrwt beam="2">  1       -4 0.26734965E+00 0.17951026E+04</pdfrwt>
<totfact> 0.23339469E-01</totfact>
</mgrwt>
</event>
<event>
 8    1  0.1287848E-011  0.1544688E+04  0.7818608E-02  0.8855268E-01
         -4   -1    0    0    0  501 -0.00000000000E+00  0.00000000000E+00  0.96604617123E+03  0.96604700603E+03  0.12700000000E+01 0. -1.
          4   -1    0    0  501    0  0.00000000000E+00 -0.00000000000E+00 -0.61747970403E+03  0.61748101007E+03  0.12700000000E+01 0.  1.
     200001    2    1    2    0    0 -0.19442947588E+03  0.41366193689E+02 -0.90246459993E+02  0.73378054293E+03  0.70055369428E+03 0.  0.
    5000001    2    3    3    0    0 -0.63494032262E+02  0.10359852594E+03 -0.22476685098E+02  0.20879511841E+03  0.16830345625E+03 0.  0.
        -11    1    4    4    0    0 -0.20854322564E+02  0.14093493452E+03 -0.60469342396E+01  0.14259776980E+03  0.51100000000E-03 0. -1.
     200002    1    4    4    0    0 -0.42639709698E+02 -0.37336408581E+02 -0.16429750859E+02  0.66197348604E+02  0.30000000000E+02 0. -1.
     200000    1    3    3    0    0 -0.13093544362E+03 -0.62232332255E+02 -0.67769774894E+02  0.52498542452E+03  0.50000000000E+03 0.  1.
    -200001    1    1    2    0    0  0.19442947588E+03 -0.41366193689E+02  0.43881292719E+03  0.84974747316E+03  0.70000000000E+03 0. -1.
<mgrwt>
<rscale>  0 0.15446884E+04</rscale>
<asrwt>0</asrwt>
<pdfrwt beam="1">  1        4 0.88211538E-01 0.15446884E+04</pdfrwt>
<pdfrwt beam="2">  1       -4 0.13800675E+00 0.15446884E+04</pdfrwt>
<totfact> 0.79721135E-01</totfact>
</mgrwt>
</event>
<event>
 8    1  0.1287848E-011  0.1939972E+04  0.7818608E-02  0.8635212E-01
          4   -1    0    0  501    0  0.00000000000E+00  0.00000000000E+00  0.13861143200E+04  0.13861149018E+04  0.12700000000E+01 0.  1.
         -4   -1    0    0    0  501 -0.00000000000E+00 -0.00000000000E+00 -0.67878281090E+03  0.67878399898E+03  0.12700000000E+01 0. -1.
     200001    2    1    2    0    0  0.45952135683E+03  0.48329836656E+03  0.43890805650E+03  0.10615104723E+04  0.69959060338E+03 0.  0.
    5000001    2    3    3    0    0  0.15557958580E+03  0.21322712895E+03  0.22744450113E+03  0.38325100222E+03  0.15962303584E+03 0.  0.
        -11    1    4    4    0    0  0.17790666461E+03  0.19860987567E+03  0.18323774643E+03  0.32353166111E+03  0.51100000000E-03 0. -1.
     200002    1    4    4    0    0 -0.22327078809E+02  0.14617253288E+02  0.44206754694E+02  0.59719341108E+02  0.30000000000E+02 0. -1.
     200000    1    3    3    0    0  0.30394177103E+03  0.27007123760E+03  0.21146355537E+03  0.67825947012E+03  0.50000000000E+03 0.  1.
    -200001    1    1    2    0    0 -0.45952135683E+03 -0.48329836656E+03  0.26842345265E+03  0.10033884285E+04  0.70000000000E+03 0. -1.
<mgrwt>
<rscale>  0 0.19399715E+04</rscale>
<asrwt>0</asrwt>
<pdfrwt beam="1">  1        4 0.19801646E+00 0.19399715E+04</pdfrwt>
<pdfrwt beam="2">  1       -4 0.96969100E-01 0.19399715E+04</pdfrwt>
<totfact> 0.22674023E-01</totfact>
</mgrwt>
</event>
<event>
 8    1  0.1287848E-011  0.1792968E+04  0.7818608E-02  0.8710048E-01
         -4   -1    0    0    0  501 -0.00000000000E+00  0.00000000000E+00  0.95170719025E+03  0.95170803762E+03  0.12700000000E+01 0. -1.
          4   -1    0    0  501    0  0.00000000000E+00 -0.00000000000E+00 -0.84446373695E+03  0.84446469194E+03  0.12700000000E+01 0.  1.
     200001    2    1    2    0    0  0.27803181812E+03  0.18982447495E+03 -0.38844879014E+03  0.87473590406E+03  0.70776791119E+03 0.  0.
    5000001    2    3    3    0    0  0.16263665946E+03  0.69138377787E+02 -0.14189933077E+01  0.22076859575E+03  0.13231009427E+03 0.  0.
        -11    1    4    4    0    0  0.15872550101E+03  0.60733249978E+02  0.34126482835E+02  0.17334050062E+03  0.51100000000E-03 0. -1.
     200002    1    4    4    0    0  0.39111584486E+01  0.84051278083E+01 -0.35545476143E+02  0.47428095135E+02  0.30000000000E+02 0. -1.
     200000    1    3    3    0    0  0.11539515866E+03  0.12068609716E+03 -0.38702979683E+03  0.65396730830E+03  0.50000000000E+03 0.  1.
    -200001    1    1    2    0    0 -0.27803181812E+03 -0.18982447495E+03  0.49569224344E+03  0.92143682550E+03  0.70000000000E+03 0.  1.
<mgrwt>
<rscale>  0 0.17929683E+04</rscale>
<asrwt>0</asrwt>
<pdfrwt beam="1">  1        4 0.12063781E+00 0.17929683E+04</pdfrwt>
<pdfrwt beam="2">  1       -4 0.13595830E+00 0.17929683E+04</pdfrwt>
<totfact> 0.38371272E-01</totfact>
</mgrwt>
</event>
<event>
 8    1  0.1287848E-011  0.1834626E+04  0.7818608E-02  0.8688100E-01
          4   -1    0    0  501    0  0.00000000000E+00  0.00000000000E+00  0.15535989446E+04  0.15535994637E+04  0.12700000000E+01 0.  1.
         -4   -1    0    0    0  501 -0.00000000000E+00 -0.00000000000E+00 -0.54162032896E+03  0.54162181792E+03  0.12700000000E+01 0. -1.
     200001    2    1    2    0    0  0.36399854948E+02  0.52234233445E+03  0.83255641276E+03  0.12028319099E+04  0.69245069092E+03 0.  0.
    5000001    2    3    3    0    0  0.14510180206E+02  0.83257238084E+02  0.14911094271E+03  0.24869743816E+03  0.18020552014E+03 0.  0.
        -11    1    4    4    0    0  0.48670731919E+02 -0.39277454131E+02  0.21773748849E+02  0.66224275668E+02  0.51100000000E-03 0. -1.
     200002    1    4    4    0    0 -0.34160551713E+02  0.12253469222E+03  0.12733719387E+03  0.18247316250E+03  0.30000000000E+02 0. -1.
     200000    1    3    3    0    0  0.21889674741E+02  0.43908509637E+03  0.68344547005E+03  0.95413447178E+03  0.50000000000E+03 0.  1.
    -200001    1    1    2    0    0 -0.36399854948E+02 -0.52234233445E+03  0.17942220291E+03  0.89238937169E+03  0.70000000000E+03 0.  1.
<mgrwt>
<rscale>  0 0.18346257E+04</rscale>
<asrwt>0</asrwt>
<pdfrwt beam="1">  1        4 0.22194285E+00 0.18346257E+04</pdfrwt>
<pdfrwt beam="2">  1       -4 0.77374477E-01 0.18346257E+04</pdfrwt>
<totfact> 0.26919064E-01</totfact>
</mgrwt>
</event>
<event>
 8    1  0.1287848E-011  0.1537271E+04  0.7818608E-02  0.8860039E-01
          4   -1    0    0  501    0  0.00000000000E+00  0.00000000000E+00  0.96879052773E+03  0.96879136016E+03  0.12700000000E+01 0.  1.
         -4   -1    0    0    0  501 -0.00000000000E+00 -0.00000000000E+00 -0.60983159459E+03  0.60983291700E+03  0.12700000000E+01 0. -1.
     200001    2    1    2    0    0  0.28725273094E+03  0.21472838532E+02  0.30969478417E+03  0.82007159566E+03  0.70258903240E+03 0.  0.
    5000001    2    3    3    0    0 -0.60016865867E+01 -0.75278236920E+02  0.59002071682E+02  0.18116177410E+03  0.15373844911E+03 0.  0.
        -11    1    4    4    0    0  0.24542873795E+02 -0.10588126302E+03  0.98199214577E+01  0.10913123004E+03  0.51100000000E-03 0. -1.
     200002    1    4    4    0    0 -0.30544560382E+02  0.30603026102E+02  0.49182150225E+02  0.72030544051E+02  0.30000000000E+02 0. -1.
     200000    1    3    3    0    0  0.29325441753E+03  0.96751075452E+02  0.25069271249E+03  0.63890982157E+03  0.50000000000E+03 0.  1.
    -200001    1    1    2    0    0 -0.28725273094E+03 -0.21472838532E+02  0.49264148971E+02  0.75855268149E+03  0.70000000000E+03 0. -1.
<mgrwt>
<rscale>  0 0.15372713E+04</rscale>
<asrwt>0</asrwt>
<pdfrwt beam="1">  1        4 0.13839880E+00 0.15372713E+04</pdfrwt>
<pdfrwt beam="2">  1       -4 0.87118953E-01 0.15372713E+04</pdfrwt>
<totfact> 0.81491009E-01</totfact>
</mgrwt>
</event>
<event>
 8    1  0.1287848E-011  0.1533447E+04  0.7818608E-02  0.8862511E-01
          4   -1    0    0  501    0  0.00000000000E+00  0.00000000000E+00  0.85876004478E+03  0.85876098387E+03  0.12700000000E+01 0.  1.
         -4   -1    0    0    0  501 -0.00000000000E+00 -0.00000000000E+00 -0.68454866420E+03  0.68454984227E+03  0.12700000000E+01 0. -1.
     200001    2    1    2    0    0  0.16656463170E+03 -0.26390366858E+03  0.48666608043E+02  0.76668323666E+03  0.69860276540E+03 0.  0.
    5000001    2    3    3    0    0  0.14881775796E+02  0.11926453104E+02  0.37493360886E+02  0.17573925772E+03  0.17063067443E+03 0.  0.
        -11    1    4    4    0    0 -0.73256498493E+02  0.58380295156E+01  0.37351629403E+02  0.82436286788E+02  0.51100000000E-03 0. -1.
     200002    1    4    4    0    0  0.88138274289E+02  0.60884235884E+01  0.14173148359E+00  0.93302970929E+02  0.30000000000E+02 0. -1.
     200000    1    3    3    0    0  0.15168285591E+03 -0.27583012168E+03  0.11173247157E+02  0.59094397895E+03  0.50000000000E+03 0.  1.
    -200001    1    1    2    0    0 -0.16656463170E+03  0.26390366858E+03  0.12554477254E+03  0.77662758948E+03  0.70000000000E+03 0. -1.
<mgrwt>
<rscale>  0 0.15334467E+04</rscale>
<asrwt>0</asrwt>
<pdfrwt beam="1">  1        4 0.12268016E+00 0.15334467E+04</pdfrwt>
<pdfrwt beam="2">  1       -4 0.97792817E-01 0.15334467E+04</pdfrwt>
<totfact> 0.84589974E-01</totfact>
</mgrwt>
</event>
<event>
 8    1  0.1287848E-011  0.1548294E+04  0.7818608E-02  0.8852958E-01
          4   -1    0    0  501    0  0.00000000000E+00  0.00000000000E+00  0.87098287000E+03  0.87098379591E+03  0.12700000000E+01 0.  1.
         -4   -1    0    0    0  501 -0.00000000000E+00 -0.00000000000E+00 -0.68807522134E+03  0.68807639337E+03  0.12700000000E+01 0. -1.
     200001    2    1    2    0    0  0.10374030244E+02 -0.11258677466E+01  0.42479063054E+03  0.81837384203E+03  0.69941388136E+03 0.  0.
    5000001    2    3    3    0    0  0.46834892261E+02 -0.16558919233E+02  0.13540147992E+03  0.23931110447E+03  0.19096737684E+03 0.  0.
        -11    1    4    4    0    0 -0.49352785690E+01  0.81241046925E+02  0.42949373498E+02  0.92027785827E+02  0.51100000000E-03 0. -1.
     200002    1    4    4    0    0  0.51770170830E+02 -0.97799966158E+02  0.92452106420E+02  0.14728331864E+03  0.30000000000E+02 0. -1.
     200000    1    3    3    0    0 -0.36460862017E+02  0.15433051486E+02  0.28938915062E+03  0.57906273756E+03  0.50000000000E+03 0.  1.
    -200001    1    1    2    0    0 -0.10374030244E+02  0.11258677466E+01 -0.24188298187E+03  0.74068634725E+03  0.70000000000E+03 0. -1.
<mgrwt>
<rscale>  0 0.15482937E+04</rscale>
<asrwt>0</asrwt>
<pdfrwt beam="1">  1        4 0.12442627E+00 0.15482937E+04</pdfrwt>
<pdfrwt beam="2">  1       -4 0.98296610E-01 0.15482937E+04</pdfrwt>
<totfact> 0.80562129E-01</totfact>
</mgrwt>
</event>
<event>
 8    1  0.1287848E-011  0.1795097E+04  0.7818608E-02  0.8708911E-01
         -4   -1    0    0    0  501 -0.00000000000E+00  0.00000000000E+00  0.14858319300E+04  0.14858324727E+04  0.12700000000E+01 0. -1.
          4   -1    0    0  501    0  0.00000000000E+00 -0.00000000000E+00 -0.54218167984E+03  0.54218316725E+03  0.12700000000E+01 0.  1.
     200001    2    1    2    0    0 -0.20797087865E+03 -0.34037966236E+03  0.91853702827E+03  0.12219505838E+04  0.70024478291E+03 0.  0.
    5000001    2    3    3    0    0 -0.94125554953E+02 -0.19709838734E+03  0.26205024124E+03  0.37669016058E+03  0.15974277372E+03 0.  0.
        -11    1    4    4    0    0  0.23137471610E+02 -0.16180659329E+02  0.10379975932E+03  0.10757112236E+03  0.51100000000E-03 0. -1.
     200002    1    4    4    0    0 -0.11726302656E+03 -0.18091772801E+03  0.15825048192E+03  0.26911903822E+03  0.30000000000E+02 0. -1.
     200000    1    3    3    0    0 -0.11384532370E+03 -0.14328127502E+03  0.65648678703E+03  0.84526042321E+03  0.50000000000E+03 0. -1.
    -200001    1    1    2    0    0  0.20797087865E+03  0.34037966236E+03  0.25113221871E+02  0.80606505620E+03  0.70000000000E+03 0.  1.
<mgrwt>
<rscale>  0 0.17950966E+04</rscale>
<asrwt>0</asrwt>
<pdfrwt beam="1">  1        4 0.77454670E-01 0.17950966E+04</pdfrwt>
<pdfrwt beam="2">  1       -4 0.21226185E+00 0.17950966E+04</pdfrwt>
<totfact> 0.31081915E-01</totfact>
</mgrwt>
</event>
<event>
 8    1  0.1287848E-011  0.1859371E+04  0.7818608E-02  0.8675349E-01
         -4   -1    0    0    0  501 -0.00000000000E+00  0.00000000000E+00  0.33265118711E+03  0.33265361141E+03  0.12700000000E+01 0. -1.
          4   -1    0    0  501    0  0.00000000000E+00 -0.00000000000E+00 -0.25982493273E+04  0.25982496377E+04  0.12700000000E+01 0.  1.
     200001    2    1    2    0    0  0.52068772131E+03 -0.22273781976E+03 -0.74817915540E+03  0.11664519988E+04  0.69289997644E+03 0.  0.
    5000001    2    3    3    0    0  0.15352938202E+03 -0.61893264110E+02 -0.32054518388E+03  0.39603196346E+03  0.16337090893E+03 0.  0.
        -11    1    4    4    0    0  0.12298464243E+03 -0.56049567965E+02 -0.92137428681E+02  0.16357286483E+03  0.51100000000E-03 0. -1.
     200002    1    4    4    0    0  0.30544739592E+02 -0.58436961455E+01 -0.22840775520E+03  0.23245909863E+03  0.30000000000E+02 0. -1.
     200000    1    3    3    0    0  0.36715833928E+03 -0.16084455565E+03 -0.42763397152E+03  0.77042003529E+03  0.50000000000E+03 0. -1.
    -200001    1    1    2    0    0 -0.52068772131E+03  0.22273781976E+03 -0.15174189848E+04  0.17644512504E+04  0.70000000000E+03 0. -1.
<mgrwt>
<rscale>  0 0.18593706E+04</rscale>
<asrwt>0</asrwt>
<pdfrwt beam="1">  1        4 0.37117866E+00 0.18593706E+04</pdfrwt>
<pdfrwt beam="2">  1       -4 0.47521795E-01 0.18593706E+04</pdfrwt>
<totfact> 0.87649017E-02</totfact>
</mgrwt>
</event>
<event>
 8    1  0.1287848E-011  0.2491617E+04  0.7818608E-02  0.8405978E-01
         -4   -1    0    0    0  501 -0.00000000000E+00  0.00000000000E+00  0.97272036445E+03  0.97272119352E+03  0.12700000000E+01 0. -1.
          4   -1    0    0  501    0  0.00000000000E+00 -0.00000000000E+00 -0.15955633887E+04  0.15955638941E+04  0.12700000000E+01 0.  1.
     200001    2    1    2    0    0 -0.41493641242E+03 -0.93597056751E+03 -0.42523962016E+03  0.13123948715E+04  0.70238054828E+03 0.  0.
    5000001    2    3    3    0    0 -0.78998167035E+02 -0.86090302911E+01  0.41663528051E+02  0.11203972605E+03  0.67098620295E+02 0.  0.
        -11    1    4    4    0    0 -0.36866353433E+02  0.21840954251E+02  0.25572848811E+02  0.49901161255E+02  0.51100000000E-03 0. -1.
     200002    1    4    4    0    0 -0.42131813602E+02 -0.30449984542E+02  0.16090679240E+02  0.62138564791E+02  0.30000000000E+02 0. -1.
     200000    1    3    3    0    0 -0.33593824539E+03 -0.92736153722E+03 -0.46690314821E+03  0.12003551455E+04  0.50000000000E+03 0.  1.
    -200001    1    1    2    0    0  0.41493641242E+03  0.93597056751E+03 -0.19760340405E+03  0.12558902161E+04  0.70000000000E+03 0. -1.
<mgrwt>
<rscale>  0 0.24916169E+04</rscale>
<asrwt>0</asrwt>
<pdfrwt beam="1">  1        4 0.22793772E+00 0.24916169E+04</pdfrwt>
<pdfrwt beam="2">  1       -4 0.13896015E+00 0.24916169E+04</pdfrwt>
<totfact> 0.56922631E-02</totfact>
</mgrwt>
</event>
<event>
 8    1  0.1287848E-011  0.1592334E+04  0.7818608E-02  0.8825272E-01
         -4   -1    0    0    0  501 -0.00000000000E+00  0.00000000000E+00  0.72929703015E+03  0.72929813594E+03  0.12700000000E+01 0. -1.
          4   -1    0    0  501    0  0.00000000000E+00 -0.00000000000E+00 -0.86916579037E+03  0.86916671821E+03  0.12700000000E+01 0.  1.
     200001    2    1    2    0    0  0.15703574595E+02 -0.36886425112E+03 -0.15025252925E+03  0.80700085582E+03  0.70168876344E+03 0.  0.
    5000001    2    3    3    0    0 -0.57559821181E+02 -0.32038892122E+02 -0.12748941645E+03  0.19926982409E+03  0.13825804809E+03 0.  0.
        -11    1    4    4    0    0  0.28573146898E+02  0.10124541132E+02  0.72689868729E+01  0.31173213296E+02  0.51100000000E-03 0. -1.
     200002    1    4    4    0    0 -0.86132968078E+02 -0.42163433254E+02 -0.13475840332E+03  0.16809661079E+03  0.30000000000E+02 0. -1.
     200000    1    3    3    0    0  0.73263395776E+02 -0.33682535899E+03 -0.22763112801E+02  0.60773103173E+03  0.50000000000E+03 0. -1.
    -200001    1    1    2    0    0 -0.15703574595E+02  0.36886425112E+03  0.10383769038E+02  0.79146399834E+03  0.70000000000E+03 0. -1.
<mgrwt>
<rscale>  0 0.15923337E+04</rscale>
<asrwt>0</asrwt>
<pdfrwt beam="1">  1        4 0.12416669E+00 0.15923337E+04</pdfrwt>
<pdfrwt beam="2">  1       -4 0.10418544E+00 0.15923337E+04</pdfrwt>
<totfact> 0.70234074E-01</totfact>
</mgrwt>
</event>
<event>
 8    1  0.1287848E-011  0.1584268E+04  0.7818608E-02  0.8830272E-01
         -4   -1    0    0    0  501 -0.00000000000E+00  0.00000000000E+00  0.47231189126E+03  0.47231359871E+03  0.12700000000E+01 0. -1.
          4   -1    0    0  501    0  0.00000000000E+00 -0.00000000000E+00 -0.13285161350E+04  0.13285167421E+04  0.12700000000E+01 0.  1.
     200001    2    1    2    0    0 -0.31414734234E+03  0.12373753593E+03 -0.60267908060E+03  0.98334973620E+03  0.69982504886E+03 0.  0.
    5000001    2    3    3    0    0 -0.34973633189E+02 -0.87629610704E+02 -0.45177042944E+02  0.15665598847E+03  0.11661059053E+03 0.  0.
        -11    1    4    4    0    0 -0.30350853966E+02 -0.10120846923E+03 -0.58568244516E+02  0.12080797923E+03  0.51100000000E-03 0. -1.
     200002    1    4    4    0    0 -0.46227792227E+01  0.13578858527E+02  0.13391201572E+02  0.35848009236E+02  0.30000000000E+02 0. -1.
     200000    1    3    3    0    0 -0.27917370915E+03  0.21136714663E+03 -0.55750203766E+03  0.82669374774E+03  0.50000000000E+03 0. -1.
    -200001    1    1    2    0    0  0.31414734234E+03 -0.12373753593E+03 -0.25352516319E+03  0.81748060458E+03  0.70000000000E+03 0.  1.
<mgrwt>
<rscale>  0 0.15842677E+04</rscale>
<asrwt>0</asrwt>
<pdfrwt beam="1">  1        4 0.18978818E+00 0.15842677E+04</pdfrwt>
<pdfrwt beam="2">  1       -4 0.67473293E-01 0.15842677E+04</pdfrwt>
<totfact> 0.60421317E-01</totfact>
</mgrwt>
</event>
<event>
 8    1  0.1287848E-011  0.1509280E+04  0.7818608E-02  0.8878305E-01
         -4   -1    0    0    0  501 -0.00000000000E+00  0.00000000000E+00  0.51352963276E+03  0.51353120316E+03  0.12700000000E+01 0. -1.
          4   -1    0    0  501    0  0.00000000000E+00 -0.00000000000E+00 -0.11089513532E+04  0.11089520804E+04  0.12700000000E+01 0.  1.
     200001    2    1    2    0    0 -0.59859261441E+02  0.26784603852E+03 -0.22796627231E+03  0.78561523070E+03  0.69992716612E+03 0.  0.
    5000001    2    3    3    0    0  0.46897030555E+02  0.44672606568E+02  0.18625220586E+02  0.17568847200E+03  0.16224847334E+03 0.  0.
        -11    1    4    4    0    0  0.93291895706E+01  0.98709896074E+02 -0.58741322268E+01  0.99323626548E+02  0.51100000000E-03 0. -1.
     200002    1    4    4    0    0  0.37567840984E+02 -0.54037289506E+02  0.24499352812E+02  0.76364845456E+02  0.30000000000E+02 0. -1.
     200000    1    3    3    0    0 -0.10675629200E+03  0.22317343195E+03 -0.24659149289E+03  0.60992675870E+03  0.50000000000E+03 0. -1.
    -200001    1    1    2    0    0  0.59859261441E+02 -0.26784603852E+03 -0.36745544811E+03  0.83686805285E+03  0.70000000000E+03 0.  1.
<mgrwt>
<rscale>  0 0.15092796E+04</rscale>
<asrwt>0</asrwt>
<pdfrwt beam="1">  1        4 0.15842179E+00 0.15092796E+04</pdfrwt>
<pdfrwt beam="2">  1       -4 0.73361541E-01 0.15092796E+04</pdfrwt>
<totfact> 0.84207254E-01</totfact>
</mgrwt>
</event>
<event>
 8    1  0.1287848E-011  0.2184777E+04  0.7818608E-02  0.8524791E-01
          4   -1    0    0  501    0  0.00000000000E+00  0.00000000000E+00  0.80140977256E+03  0.80141077885E+03  0.12700000000E+01 0.  1.
         -4   -1    0    0    0  501 -0.00000000000E+00 -0.00000000000E+00 -0.14890145767E+04  0.14890151183E+04  0.12700000000E+01 0. -1.
     200001    2    1    2    0    0  0.34183454913E+03 -0.58436639158E+03 -0.86319330811E+03  0.13008975948E+04  0.69921164628E+03 0.  0.
    5000001    2    3    3    0    0  0.17290521123E+03 -0.15391520199E+03 -0.26355082235E+03  0.39348563840E+03  0.17828575430E+03 0.  0.
        -11    1    4    4    0    0  0.16259167054E+03 -0.39264160642E+02 -0.19210932483E+03  0.25472282648E+03  0.51100000000E-03 0. -1.
     200002    1    4    4    0    0  0.10313540688E+02 -0.11465104135E+03 -0.71441497521E+02  0.13876281192E+03  0.30000000000E+02 0. -1.
     200000    1    3    3    0    0  0.16892933790E+03 -0.43045118959E+03 -0.59964248576E+03  0.90741195637E+03  0.50000000000E+03 0. -1.
    -200001    1    1    2    0    0 -0.34183454913E+03  0.58436639158E+03  0.17558850394E+03  0.98952830243E+03  0.70000000000E+03 0. -1.
<mgrwt>
<rscale>  0 0.21847770E+04</rscale>
<asrwt>0</asrwt>
<pdfrwt beam="1">  1        4 0.11448722E+00 0.21847770E+04</pdfrwt>
<pdfrwt beam="2">  1       -4 0.21271648E+00 0.21847770E+04</pdfrwt>
<totfact> 0.11925234E-01</totfact>
</mgrwt>
</event>
<event>
 8    1  0.1287848E-011  0.1513803E+04  0.7818608E-02  0.8875326E-01
          4   -1    0    0  501    0  0.00000000000E+00  0.00000000000E+00  0.11734815261E+04  0.11734822133E+04  0.12700000000E+01 0.  1.
         -4   -1    0    0    0  501 -0.00000000000E+00 -0.00000000000E+00 -0.48820360644E+03  0.48820525831E+03  0.12700000000E+01 0. -1.
     200001    2    1    2    0    0  0.18267108052E+03 -0.18729434019E+03  0.47433995768E+03  0.88519360989E+03  0.70008673606E+03 0.  0.
    5000001    2    3    3    0    0 -0.41442690144E+02 -0.11856813910E+02  0.19946362036E+03  0.24757122270E+03  0.14017023171E+03 0.  0.
        -11    1    4    4    0    0  0.12171825874E+02 -0.30828798193E+02 -0.47414477762E+01  0.33482076853E+02  0.51100000000E-03 0. -1.
     200002    1    4    4    0    0 -0.53614516017E+02  0.18971984283E+02  0.20420506814E+03  0.21408914585E+03  0.30000000000E+02 0. -1.
     200000    1    3    3    0    0  0.22411377066E+03 -0.17543752628E+03  0.27487633732E+03  0.63762238719E+03  0.50000000000E+03 0. -1.
    -200001    1    1    2    0    0 -0.18267108052E+03  0.18729434019E+03  0.21093796198E+03  0.77649386175E+03  0.70000000000E+03 0. -1.
<mgrwt>
<rscale>  0 0.15138030E+04</rscale>
<asrwt>0</asrwt>
<pdfrwt beam="1">  1        4 0.16764039E+00 0.15138030E+04</pdfrwt>
<pdfrwt beam="2">  1       -4 0.69743539E-01 0.15138030E+04</pdfrwt>
<totfact> 0.80588321E-01</totfact>
</mgrwt>
</event>
<event>
 8    1  0.1287848E-011  0.1485881E+04  0.7818608E-02  0.8893897E-01
         -4   -1    0    0    0  501 -0.00000000000E+00  0.00000000000E+00  0.20532556251E+04  0.20532560178E+04  0.12700000000E+01 0. -1.
          4   -1    0    0  501    0  0.00000000000E+00 -0.00000000000E+00 -0.26882016688E+03  0.26882316682E+03  0.12700000000E+01 0.  1.
     200001    2    1    2    0    0  0.62756348956E+02  0.18655277565E+03  0.64725045567E+03  0.97229030213E+03  0.69833729802E+03 0.  0.
    5000001    2    3    3    0    0  0.33663584771E+02  0.24062746720E+02  0.13695366828E+03  0.23904258843E+03  0.19150143369E+03 0.  0.
        -11    1    4    4    0    0  0.91934386443E+02  0.40320927379E+02  0.13902932970E+03  0.17148429407E+03  0.51100000000E-03 0. -1.
     200002    1    4    4    0    0 -0.58270801673E+02 -0.16258180659E+02 -0.20756614201E+01  0.67558294355E+02  0.30000000000E+02 0. -1.
     200000    1    3    3    0    0  0.29092764185E+02  0.16249002893E+03  0.51029678739E+03  0.73324771370E+03  0.50000000000E+03 0. -1.
    -200001    1    1    2    0    0 -0.62756348956E+02 -0.18655277565E+03  0.11371850025E+04  0.13497888825E+04  0.70000000000E+03 0. -1.
<mgrwt>
<rscale>  0 0.14858808E+04</rscale>
<asrwt>0</asrwt>
<pdfrwt beam="1">  1        4 0.38403122E-01 0.14858808E+04</pdfrwt>
<pdfrwt beam="2">  1       -4 0.29332249E+00 0.14858808E+04</pdfrwt>
<totfact> 0.44019797E-01</totfact>
</mgrwt>
</event>
<event>
 8    1  0.1287848E-011  0.1905944E+04  0.7818608E-02  0.8651903E-01
         -4   -1    0    0    0  501 -0.00000000000E+00  0.00000000000E+00  0.75586050187E+03  0.75586156880E+03  0.12700000000E+01 0. -1.
          4   -1    0    0  501    0  0.00000000000E+00 -0.00000000000E+00 -0.12014840409E+04  0.12014847122E+04  0.12700000000E+01 0.  1.
     200001    2    1    2    0    0 -0.37871474276E+03 -0.11864250317E+03 -0.74714801684E+03  0.10980338170E+04  0.69996228781E+03 0.  0.
    5000001    2    3    3    0    0 -0.45455259536E+02  0.46797727897E+02 -0.15568543648E+03  0.23881304380E+03  0.16893047919E+03 0.  0.
        -11    1    4    4    0    0  0.55707401713E+02  0.34494163088E+02 -0.98121551789E+02  0.11798729092E+03  0.51100000000E-03 0. -1.
     200002    1    4    4    0    0 -0.10116266125E+03  0.12303564809E+02 -0.57563884696E+02  0.12082575288E+03  0.30000000000E+02 0. -1.
     200000    1    3    3    0    0 -0.33325948322E+03 -0.16544023106E+03 -0.59146258035E+03  0.85922077324E+03  0.50000000000E+03 0.  1.
    -200001    1    1    2    0    0  0.37871474276E+03  0.11864250317E+03  0.30152447777E+03  0.85931246391E+03  0.70000000000E+03 0. -1.
<mgrwt>
<rscale>  0 0.19059444E+04</rscale>
<asrwt>0</asrwt>
<pdfrwt beam="1">  1        4 0.17164070E+00 0.19059444E+04</pdfrwt>
<pdfrwt beam="2">  1       -4 0.10798020E+00 0.19059444E+04</pdfrwt>
<totfact> 0.26658408E-01</totfact>
</mgrwt>
</event>
<event>
 8    1  0.1287848E-011  0.1436260E+04  0.7818608E-02  0.8927982E-01
         -4   -1    0    0    0  501 -0.00000000000E+00  0.00000000000E+00  0.22110854378E+04  0.22110858025E+04  0.12700000000E+01 0. -1.
          4   -1    0    0  501    0  0.00000000000E+00 -0.00000000000E+00 -0.23323643944E+03  0.23323989707E+03  0.12700000000E+01 0.  1.
     200001    2    1    2    0    0  0.39124427146E+02 -0.11215840023E+03  0.80804453850E+03  0.10759132246E+04  0.70038779475E+03 0.  0.
    5000001    2    3    3    0    0  0.18398014227E+02 -0.11478393467E+03  0.35901823295E+03  0.40355833263E+03  0.14300838317E+03 0.  0.
        -11    1    4    4    0    0 -0.15344528439E+02  0.14679361463E+02  0.16281841895E+03  0.16419736830E+03  0.51100000000E-03 0. -1.
     200002    1    4    4    0    0  0.33742542666E+02 -0.12946329614E+03  0.19619981400E+03  0.23936096433E+03  0.30000000000E+02 0. -1.
     200000    1    3    3    0    0  0.20726412918E+02  0.26255344434E+01  0.44902630555E+03  0.67235489193E+03  0.50000000000E+03 0.  1.
    -200001    1    1    2    0    0 -0.39124427146E+02  0.11215840023E+03  0.11698044599E+04  0.13684124750E+04  0.70000000000E+03 0.  1.
<mgrwt>
<rscale>  0 0.14362595E+04</rscale>
<asrwt>0</asrwt>
<pdfrwt beam="1">  1        4 0.33319767E-01 0.14362595E+04</pdfrwt>
<pdfrwt beam="2">  1       -4 0.31586960E+00 0.14362595E+04</pdfrwt>
<totfact> 0.42394171E-01</totfact>
</mgrwt>
</event>
<event>
 8    1  0.1287848E-011  0.1602793E+04  0.7818608E-02  0.8818834E-01
         -4   -1    0    0    0  501 -0.00000000000E+00  0.00000000000E+00  0.21141657837E+04  0.21141661652E+04  0.12700000000E+01 0. -1.
          4   -1    0    0  501    0  0.00000000000E+00 -0.00000000000E+00 -0.30377611297E+03  0.30377876771E+03  0.12700000000E+01 0.  1.
     200001    2    1    2    0    0 -0.10355543342E+03 -0.11157774762E+03  0.14477284584E+04  0.16150150004E+04  0.69941578534E+03 0.  0.
    5000001    2    3    3    0    0  0.78086547977E+01 -0.91844431922E+00  0.39100335713E+03  0.43547467419E+03  0.19155351196E+03 0.  0.
        -11    1    4    4    0    0 -0.65251845075E+02  0.41725306563E+02  0.29085339872E+03  0.30098920917E+03  0.51100000000E-03 0. -1.
     200002    1    4    4    0    0  0.73060499873E+02 -0.42643750882E+02  0.10014995841E+03  0.13448546502E+03  0.30000000000E+02 0. -1.
     200000    1    3    3    0    0 -0.11136408822E+03 -0.11065930330E+03  0.10567251012E+04  0.11795403262E+04  0.50000000000E+03 0. -1.
    -200001    1    1    2    0    0  0.10355543342E+03  0.11157774762E+03  0.36266121241E+03  0.80292993253E+03  0.70000000000E+03 0.  1.
<mgrwt>
<rscale>  0 0.16027935E+04</rscale>
<asrwt>0</asrwt>
<pdfrwt beam="1">  1        4 0.43396804E-01 0.16027935E+04</pdfrwt>
<pdfrwt beam="2">  1       -4 0.30202390E+00 0.16027935E+04</pdfrwt>
<totfact> 0.30068816E-01</totfact>
</mgrwt>
</event>
<event>
 8    1  0.1287848E-011  0.2519845E+04  0.7818608E-02  0.8395949E-01
         -4   -1    0    0    0  501 -0.00000000000E+00  0.00000000000E+00  0.93287625575E+03  0.93287712023E+03  0.12700000000E+01 0.  1.
          4   -1    0    0  501    0  0.00000000000E+00 -0.00000000000E+00 -0.17016227473E+04  0.17016232212E+04  0.12700000000E+01 0. -1.
     200001    2    1    2    0    0  0.58693145268E+03  0.65028883663E+03 -0.98487946267E+03  0.14925381869E+04  0.70022752177E+03 0.  0.
    5000001    2    3    3    0    0  0.12472577007E+03  0.24954290240E+03 -0.25340727280E+03  0.41583815377E+03  0.17572121774E+03 0.  0.
        -11    1    4    4    0    0  0.19364855754E+02 -0.13238839907E+02  0.12231513625E+02  0.26455140262E+02  0.51100000000E-03 0. -1.
     200002    1    4    4    0    0  0.10536091432E+03  0.26278174231E+03 -0.26563878643E+03  0.38938301351E+03  0.30000000000E+02 0. -1.
     200000    1    3    3    0    0  0.46220568261E+03  0.40074593423E+03 -0.73147218987E+03  0.10767000331E+04  0.50000000000E+03 0. -1.
    -200001    1    1    2    0    0 -0.58693145268E+03 -0.65028883663E+03  0.21613297112E+03  0.11419621545E+04  0.70000000000E+03 0.  1.
<mgrwt>
<rscale>  0 0.25198454E+04</rscale>
<asrwt>0</asrwt>
<pdfrwt beam="1">  1        4 0.24308906E+00 0.25198454E+04</pdfrwt>
<pdfrwt beam="2">  1       -4 0.13326813E+00 0.25198454E+04</pdfrwt>
<totfact> 0.50793433E-02</totfact>
</mgrwt>
</event>
<event>
 8    1  0.1287848E-011  0.3279274E+04  0.7818608E-02  0.8168189E-01
         -4   -1    0    0    0  501 -0.00000000000E+00  0.00000000000E+00  0.10779704772E+04  0.10779712253E+04  0.12700000000E+01 0. -1.
          4   -1    0    0  501    0  0.00000000000E+00 -0.00000000000E+00 -0.24939529521E+04  0.24939532755E+04  0.12700000000E+01 0.  1.
     200001    2    1    2    0    0 -0.81928441828E+03 -0.81874047405E+03 -0.17164277403E+04  0.21856235669E+04  0.69947356376E+03 0.  0.
    5000001    2    3    3    0    0 -0.30118122385E+02 -0.13179592999E+02 -0.14740207712E+03  0.18973947518E+03  0.11486032010E+03 0.  0.
        -11    1    4    4    0    0 -0.68487439381E+02 -0.63140414587E+01 -0.70812138009E+02  0.98715527462E+02  0.51100000000E-03 0. -1.
     200002    1    4    4    0    0  0.38369316996E+02 -0.68655515399E+01 -0.76589939116E+02  0.91023947719E+02  0.30000000000E+02 0. -1.
     200000    1    3    3    0    0 -0.78916629590E+03 -0.80556088106E+03 -0.15690256632E+04  0.19958840917E+04  0.50000000000E+03 0.  1.
    -200001    1    1    2    0    0  0.81928441828E+03  0.81874047405E+03  0.30044526535E+03  0.13863009339E+04  0.70000000000E+03 0. -1.
<mgrwt>
<rscale>  0 0.32792740E+04</rscale>
<asrwt>0</asrwt>
<pdfrwt beam="1">  1        4 0.35627907E+00 0.32792740E+04</pdfrwt>
<pdfrwt beam="2">  1       -4 0.15399586E+00 0.32792740E+04</pdfrwt>
<totfact> 0.62725503E-03</totfact>
</mgrwt>
</event>
<event>
 8    1  0.1287848E-011  0.1987011E+04  0.7818608E-02  0.8612718E-01
         -4   -1    0    0    0  501 -0.00000000000E+00  0.00000000000E+00  0.14606183415E+04  0.14606188936E+04  0.12700000000E+01 0. -1.
          4   -1    0    0  501    0  0.00000000000E+00 -0.00000000000E+00 -0.67577633302E+03  0.67577752639E+03  0.12700000000E+01 0.  1.
     200001    2    1    2    0    0 -0.68698981441E+03 -0.13780879655E+03  0.47766621701E+03  0.10994281291E+04  0.69973632650E+03 0.  0.
    5000001    2    3    3    0    0 -0.19832921875E+03  0.23624305905E+02  0.58333521280E+02  0.26835067539E+03  0.16946002018E+03 0.  0.
        -11    1    4    4    0    0 -0.13315939769E+03 -0.57407179269E+02  0.67078736820E+02  0.15977035507E+03  0.51100000000E-03 0. -1.
     200002    1    4    4    0    0 -0.65169821058E+02  0.81031485174E+02 -0.87452155407E+01  0.10858032032E+03  0.30000000000E+02 0. -1.
     200000    1    3    3    0    0 -0.48866059566E+03 -0.16143310246E+03  0.41933269573E+03  0.83107745368E+03  0.50000000000E+03 0. -1.
    -200001    1    1    2    0    0  0.68698981441E+03  0.13780879655E+03  0.30717579144E+03  0.10369682909E+04  0.70000000000E+03 0.  1.
<mgrwt>
<rscale>  0 0.19870110E+04</rscale>
<asrwt>0</asrwt>
<pdfrwt beam="1">  1        4 0.96539601E-01 0.19870110E+04</pdfrwt>
<pdfrwt beam="2">  1       -4 0.20865989E+00 0.19870110E+04</pdfrwt>
<totfact> 0.19431415E-01</totfact>
</mgrwt>
</event>
<event>
 8    1  0.1287848E-011  0.2076843E+04  0.7818608E-02  0.8571513E-01
         -4   -1    0    0    0  501 -0.00000000000E+00  0.00000000000E+00  0.86681646285E+03  0.86681739321E+03  0.12700000000E+01 0. -1.
          4   -1    0    0  501    0  0.00000000000E+00 -0.00000000000E+00 -0.12439973380E+04  0.12439979863E+04  0.12700000000E+01 0.  1.
     200001    2    1    2    0    0 -0.16017578073E+03  0.54002073219E+03 -0.71727147722E+03  0.11501175657E+04  0.70072346249E+03 0.  0.
    5000001    2    3    3    0    0 -0.13212029372E+03  0.20298296827E+03 -0.28638530844E+03  0.40846774593E+03  0.16177607102E+03 0.  0.
        -11    1    4    4    0    0  0.72805814681E+01  0.11594601107E+03 -0.71990537655E+02  0.13667158396E+03  0.51100000000E-03 0. -1.
     200002    1    4    4    0    0 -0.13940087519E+03  0.87036957198E+02 -0.21439477078E+03  0.27179616197E+03  0.30000000000E+02 0. -1.
     200000    1    3    3    0    0 -0.28055487008E+02  0.33703776392E+03 -0.43088616878E+03  0.74164981973E+03  0.50000000000E+03 0.  1.
    -200001    1    1    2    0    0  0.16017578073E+03 -0.54002073219E+03  0.34009060204E+03  0.96069781384E+03  0.70000000000E+03 0. -1.
<mgrwt>
<rscale>  0 0.20768428E+04</rscale>
<asrwt>0</asrwt>
<pdfrwt beam="1">  1        4 0.17771402E+00 0.20768428E+04</pdfrwt>
<pdfrwt beam="2">  1       -4 0.12383104E+00 0.20768428E+04</pdfrwt>
<totfact> 0.16991919E-01</totfact>
</mgrwt>
</event>
<event>
 8    1  0.1287848E-011  0.1529946E+04  0.7818608E-02  0.8864780E-01
         -4   -1    0    0    0  501 -0.00000000000E+00  0.00000000000E+00  0.47119077873E+03  0.47119249024E+03  0.12700000000E+01 0. -1.
          4   -1    0    0  501    0  0.00000000000E+00 -0.00000000000E+00 -0.12419201423E+04  0.12419207917E+04  0.12700000000E+01 0.  1.
     200001    2    1    2    0    0 -0.36493928383E+02  0.22316512426E+02 -0.72766184041E+03  0.10104863218E+04  0.69982927846E+03 0.  0.
    5000001    2    3    3    0    0 -0.69961865995E+02 -0.26820331718E+02 -0.37611633731E+03  0.39638635187E+03  0.10022299073E+03 0.  0.
        -11    1    4    4    0    0  0.21391965622E+02 -0.64425052863E+01 -0.36147372825E+02  0.42494171717E+02  0.51100000000E-03 0. -1.
     200002    1    4    4    0    0 -0.91353831617E+02 -0.20377826431E+02 -0.33996896449E+03  0.35389218016E+03  0.30000000000E+02 0.  1.
     200000    1    3    3    0    0  0.33467937612E+02  0.49136844143E+02 -0.35154550310E+03  0.61409996991E+03  0.50000000000E+03 0.  1.
    -200001    1    1    2    0    0  0.36493928383E+02 -0.22316512426E+02 -0.43067523165E+02  0.70262696012E+03  0.70000000000E+03 0. -1.
<mgrwt>
<rscale>  0 0.15299455E+04</rscale>
<asrwt>0</asrwt>
<pdfrwt beam="1">  1        4 0.17741733E+00 0.15299455E+04</pdfrwt>
<pdfrwt beam="2">  1       -4 0.67313138E-01 0.15299455E+04</pdfrwt>
<totfact> 0.74173585E-01</totfact>
</mgrwt>
</event>
<event>
 8    1  0.1613934E-011  0.1514490E+04  0.7818608E-02  0.8874874E-01
         -4   -1    0    0    0  501 -0.00000000000E+00  0.00000000000E+00  0.46116169769E+03  0.46116344642E+03  0.12700000000E+01 0. -1.
          4   -1    0    0  501    0  0.00000000000E+00 -0.00000000000E+00 -0.12434206778E+04  0.12434213264E+04  0.12700000000E+01 0.  1.
     200001    2    1    2    0    0 -0.22779347439E+03 -0.15307195787E+03 -0.46172966602E+03  0.88723543964E+03  0.70616680013E+03 0.  0.
    5000001    2    3    3    0    0 -0.79271344392E+02  0.72040773487E+00 -0.14494239264E+03  0.25789841435E+03  0.19803744573E+03 0.  0.
        -11    1    4    4    0    0 -0.12341890459E+03  0.30605336515E+02 -0.34676497283E+02  0.13180050113E+03  0.51100000000E-03 0. -1.
     200002    1    4    4    0    0  0.44147560201E+02 -0.29884928780E+02 -0.11026589536E+03  0.12609791322E+03  0.30000000000E+02 0. -1.
     200000    1    3    3    0    0 -0.14852213000E+03 -0.15379236561E+03 -0.31678727338E+03  0.62933702529E+03  0.50000000000E+03 0.  1.
    -200001    1    1    2    0    0  0.22779347439E+03  0.15307195787E+03 -0.32052931414E+03  0.81734933320E+03  0.70000000000E+03 0.  1.
<mgrwt>
<rscale>  0 0.15144901E+04</rscale>
<asrwt>0</asrwt>
<pdfrwt beam="1">  1        4 0.17763170E+00 0.15144901E+04</pdfrwt>
<pdfrwt beam="2">  1       -4 0.65880414E-01 0.15144901E+04</pdfrwt>
<totfact> 0.77570267E-01</totfact>
</mgrwt>
</event>
<event>
 8    1  0.1287848E-011  0.1531910E+04  0.7818608E-02  0.8863506E-01
          4   -1    0    0  501    0  0.00000000000E+00  0.00000000000E+00  0.50526433217E+03  0.50526592827E+03  0.12700000000E+01 0.  1.
         -4   -1    0    0    0  501 -0.00000000000E+00 -0.00000000000E+00 -0.11611457376E+04  0.11611464321E+04  0.12700000000E+01 0. -1.
     200001    2    1    2    0    0 -0.29891236634E+03  0.93670031988E+02 -0.33096140892E+03  0.83352840581E+03  0.69793371566E+03 0.  0.
    5000001    2    3    3    0    0 -0.16022557854E+03 -0.69868939099E+02 -0.10145631097E+03  0.24306112462E+03  0.13502378529E+03 0.  0.
        -11    1    4    4    0    0 -0.15744367821E+03 -0.75712118786E+02 -0.47594284903E+02  0.18106919312E+03  0.51100000000E-03 0. -1.
     200002    1    4    4    0    0 -0.27819003233E+01  0.58431796869E+01 -0.53862026071E+02  0.61991931497E+02  0.30000000000E+02 0. -1.
     200000    1    3    3    0    0 -0.13868678780E+03  0.16353897109E+03 -0.22950509794E+03  0.59046728119E+03  0.50000000000E+03 0.  1.
    -200001    1    1    2    0    0  0.29891236634E+03 -0.93670031988E+02 -0.32491999647E+03  0.83288395455E+03  0.70000000000E+03 0. -1.
<mgrwt>
<rscale>  0 0.15319105E+04</rscale>
<asrwt>0</asrwt>
<pdfrwt beam="1">  1        4 0.72180783E-01 0.15319105E+04</pdfrwt>
<pdfrwt beam="2">  1       -4 0.16587812E+00 0.15319105E+04</pdfrwt>
<totfact> 0.76807681E-01</totfact>
</mgrwt>
</event>
<event>
 8    1  0.1287848E-011  0.1578588E+04  0.7818608E-02  0.8833811E-01
          4   -1    0    0  501    0  0.00000000000E+00  0.00000000000E+00  0.44818883152E+03  0.44819063087E+03  0.12700000000E+01 0.  1.
         -4   -1    0    0    0  501 -0.00000000000E+00 -0.00000000000E+00 -0.13900013640E+04  0.13900019442E+04  0.12700000000E+01 0. -1.
     200001    2    1    2    0    0  0.22217906074E+03  0.10000949486E+03 -0.15530391892E+03  0.75747002357E+03  0.70019718315E+03 0.  0.
    5000001    2    3    3    0    0  0.43319076576E+02  0.38846488670E+02 -0.87127680854E+02  0.21860101658E+03  0.19185822787E+03 0.  0.
        -11    1    4    4    0    0  0.23123361931E+02  0.11383308204E+03 -0.61839589268E+02  0.13159329479E+03  0.51100000000E-03 0. -1.
     200002    1    4    4    0    0  0.20195714645E+02 -0.74986593368E+02 -0.25288091585E+02  0.87007721789E+02  0.30000000000E+02 0. -1.
     200000    1    3    3    0    0  0.17885998416E+03  0.61163006188E+02 -0.68176238068E+02  0.53886900699E+03  0.50000000000E+03 0.  1.
    -200001    1    1    2    0    0 -0.22217906074E+03 -0.10000949486E+03 -0.78650861357E+03  0.10807225515E+04  0.70000000000E+03 0. -1.
<mgrwt>
<rscale>  0 0.15785883E+04</rscale>
<asrwt>0</asrwt>
<pdfrwt beam="1">  1        4 0.64027146E-01 0.15785883E+04</pdfrwt>
<pdfrwt beam="2">  1       -4 0.19857179E+00 0.15785883E+04</pdfrwt>
<totfact> 0.59201701E-01</totfact>
</mgrwt>
</event>
<event>
 8    1  0.1287848E-011  0.1634616E+04  0.7818608E-02  0.8799560E-01
          4   -1    0    0  501    0  0.00000000000E+00  0.00000000000E+00  0.71311911353E+03  0.71312024441E+03  0.12700000000E+01 0.  1.
         -4   -1    0    0    0  501 -0.00000000000E+00 -0.00000000000E+00 -0.93671743277E+03  0.93671829370E+03  0.12700000000E+01 0. -1.
     200001    2    1    2    0    0 -0.12789347163E+02  0.37721021838E+03  0.74660256311E+02  0.80048037211E+03  0.70195694741E+03 0.  0.
    5000001    2    3    3    0    0 -0.51632593255E+02  0.13350480081E+03  0.53008034393E+02  0.24247504326E+03  0.18840073876E+03 0.  0.
        -11    1    4    4    0    0  0.27440152682E+02  0.39393261244E+02 -0.57201976736E+02  0.74678357999E+02  0.51100000000E-03 0. -1.
     200002    1    4    4    0    0 -0.79072745937E+02  0.94111539570E+02  0.11021001113E+03  0.16779668526E+03  0.30000000000E+02 0. -1.
     200000    1    3    3    0    0  0.38843246092E+02  0.24370541757E+03  0.21652221919E+02  0.55800532886E+03  0.50000000000E+03 0.  1.
    -200001    1    1    2    0    0  0.12789347163E+02 -0.37721021838E+03 -0.29825857555E+03  0.84935816599E+03  0.70000000000E+03 0.  1.
<mgrwt>
<rscale>  0 0.16346165E+04</rscale>
<asrwt>0</asrwt>
<pdfrwt beam="1">  1        4 0.10187430E+00 0.16346165E+04</pdfrwt>
<pdfrwt beam="2">  1       -4 0.13381692E+00 0.16346165E+04</pdfrwt>
<totfact> 0.61106716E-01</totfact>
</mgrwt>
</event>
<event>
 8    1  0.1287848E-011  0.2437508E+04  0.7818608E-02  0.8425593E-01
         -4   -1    0    0    0  501 -0.00000000000E+00  0.00000000000E+00  0.53174214346E+03  0.53174366007E+03  0.12700000000E+01 0. -1.
          4   -1    0    0  501    0  0.00000000000E+00 -0.00000000000E+00 -0.27933813396E+04  0.27933816283E+04  0.12700000000E+01 0.  1.
     200001    2    1    2    0    0 -0.12600000200E+03 -0.33576567038E+03  0.13911131121E+03  0.79882016341E+03  0.70010507115E+03 0.  0.
    5000001    2    3    3    0    0 -0.22886991001E+01 -0.91568900177E+02 -0.84833145099E+01  0.20999020274E+03  0.18876921623E+03 0.  0.
        -11    1    4    4    0    0  0.11147917194E+02 -0.14225030612E+02  0.83478553851E+02  0.85412507907E+02  0.51100000000E-03 0. -1.
     200002    1    4    4    0    0 -0.13436616294E+02 -0.77343869565E+02 -0.91961868361E+02  0.12457769483E+03  0.30000000000E+02 0. -1.
     200000    1    3    3    0    0 -0.12371130290E+03 -0.24419677020E+03  0.14759462572E+03  0.58882996067E+03  0.50000000000E+03 0. -1.
    -200001    1    1    2    0    0  0.12600000200E+03  0.33576567038E+03 -0.24007505074E+04  0.25263051250E+04  0.70000000000E+03 0.  1.
<mgrwt>
<rscale>  0 0.24375082E+04</rscale>
<asrwt>0</asrwt>
<pdfrwt beam="1">  1        4 0.39905460E+00 0.24375082E+04</pdfrwt>
<pdfrwt beam="2">  1       -4 0.75963294E-01 0.24375082E+04</pdfrwt>
<totfact> 0.19502031E-02</totfact>
</mgrwt>
</event>
<event>
 8    1  0.1287848E-011  0.1664929E+04  0.7818608E-02  0.8781623E-01
         -4   -1    0    0    0  501 -0.00000000000E+00  0.00000000000E+00  0.19771710961E+04  0.19771715040E+04  0.12700000000E+01 0. -1.
          4   -1    0    0  501    0  0.00000000000E+00 -0.00000000000E+00 -0.35049774274E+03  0.35050004360E+03  0.12700000000E+01 0.  1.
     200001    2    1    2    0    0 -0.23272506376E+03 -0.35823209291E+03  0.10145452035E+04  0.13043475229E+04  0.69966370696E+03 0.  0.
    5000001    2    3    3    0    0 -0.10512438100E+03 -0.22586659149E+03  0.32652071070E+03  0.43418646717E+03  0.14083771202E+03 0.  0.
        -11    1    4    4    0    0 -0.11384029361E+03 -0.91366400659E+02  0.14127493084E+03  0.20314043838E+03  0.51100000000E-03 0. -1.
     200002    1    4    4    0    0  0.87159126151E+01 -0.13450019083E+03  0.18524577986E+03  0.23104602879E+03  0.30000000000E+02 0. -1.
     200000    1    3    3    0    0 -0.12760068276E+03 -0.13236550143E+03  0.68802449277E+03  0.87016105570E+03  0.50000000000E+03 0.  1.
    -200001    1    1    2    0    0  0.23272506376E+03  0.35823209291E+03  0.61212814992E+03  0.10233240247E+04  0.70000000000E+03 0.  1.
<mgrwt>
<rscale>  0 0.16649290E+04</rscale>
<asrwt>0</asrwt>
<pdfrwt beam="1">  1        4 0.50071299E-01 0.16649290E+04</pdfrwt>
<pdfrwt beam="2">  1       -4 0.28245321E+00 0.16649290E+04</pdfrwt>
<totfact> 0.29441912E-01</totfact>
</mgrwt>
</event>
<event>
 8    1  0.1287848E-011  0.1703079E+04  0.7818608E-02  0.8759610E-01
          4   -1    0    0  501    0  0.00000000000E+00  0.00000000000E+00  0.88397776446E+03  0.88397867675E+03  0.12700000000E+01 0.  1.
         -4   -1    0    0    0  501 -0.00000000000E+00 -0.00000000000E+00 -0.82028950981E+03  0.82029049294E+03  0.12700000000E+01 0. -1.
     200001    2    1    2    0    0 -0.79452931629E+02  0.47227290896E+03  0.11290680938E+03  0.85469460851E+03  0.69885653558E+03 0.  0.
    5000001    2    3    3    0    0 -0.43849386652E+00  0.70940392631E+02 -0.83066115348E+01  0.19742467656E+03  0.18405100253E+03 0.  0.
        -11    1    4    4    0    0 -0.83205955085E+02  0.28660148856E+01 -0.19708107119E+02  0.85556148168E+02  0.51100000000E-03 0. -1.
     200002    1    4    4    0    0  0.82767461218E+02  0.68074377746E+02  0.11401495584E+02  0.11186852839E+03  0.30000000000E+02 0. -1.
     200000    1    3    3    0    0 -0.79014437763E+02  0.40133251633E+03  0.12121342091E+03  0.65726993195E+03  0.50000000000E+03 0.  1.
    -200001    1    1    2    0    0  0.79452931629E+02 -0.47227290896E+03 -0.49218554735E+02  0.84957456118E+03  0.70000000000E+03 0.  1.
<mgrwt>
<rscale>  0 0.17030787E+04</rscale>
<asrwt>0</asrwt>
<pdfrwt beam="1">  1        4 0.12628267E+00 0.17030787E+04</pdfrwt>
<pdfrwt beam="2">  1       -4 0.11718435E+00 0.17030787E+04</pdfrwt>
<totfact> 0.50125814E-01</totfact>
</mgrwt>
</event>
<event>
 8    1  0.1287848E-011  0.2141485E+04  0.7818608E-02  0.8543186E-01
          4   -1    0    0  501    0  0.00000000000E+00  0.00000000000E+00  0.11299694025E+04  0.11299701162E+04  0.12700000000E+01 0.  1.
         -4   -1    0    0    0  501 -0.00000000000E+00 -0.00000000000E+00 -0.10146182476E+04  0.10146190424E+04  0.12700000000E+01 0. -1.
     200001    2    1    2    0    0  0.32520197167E+03 -0.26770452325E+03  0.75112288307E+03  0.11093946241E+04  0.69939174451E+03 0.  0.
    5000001    2    3    3    0    0  0.11487098367E+03 -0.15123739128E+03  0.22483226429E+03  0.34468191150E+03  0.17941009348E+03 0.  0.
        -11    1    4    4    0    0  0.45279583371E+02  0.21588340087E+02 -0.12660690644E+01  0.50178681022E+02  0.51100000000E-03 0. -1.
     200002    1    4    4    0    0  0.69591400303E+02 -0.17282573137E+03  0.22609833335E+03  0.29450323048E+03  0.30000000000E+02 0. -1.
     200000    1    3    3    0    0  0.21033098800E+03 -0.11646713197E+03  0.52629061878E+03  0.76471271256E+03  0.50000000000E+03 0.  1.
    -200001    1    1    2    0    0 -0.32520197167E+03  0.26770452325E+03 -0.63577172808E+03  0.10351945346E+04  0.70000000000E+03 0. -1.
<mgrwt>
<rscale>  0 0.21414847E+04</rscale>
<asrwt>0</asrwt>
<pdfrwt beam="1">  1        4 0.16142431E+00 0.21414847E+04</pdfrwt>
<pdfrwt beam="2">  1       -4 0.14494557E+00 0.21414847E+04</pdfrwt>
<totfact> 0.14760580E-01</totfact>
</mgrwt>
</event>
<event>
 8    1  0.1287848E-011  0.1711570E+04  0.7818608E-02  0.8754793E-01
          4   -1    0    0  501    0  0.00000000000E+00  0.00000000000E+00  0.64768498745E+03  0.64768623257E+03  0.12700000000E+01 0.  1.
         -4   -1    0    0    0  501 -0.00000000000E+00 -0.00000000000E+00 -0.11307441857E+04  0.11307448989E+04  0.12700000000E+01 0. -1.
     200001    2    1    2    0    0  0.22529475023E+03  0.39748705283E+03 -0.43305541358E+03  0.94102199600E+03  0.69945101620E+03 0.  0.
    5000001    2    3    3    0    0  0.97664485414E+02  0.38327946530E+02 -0.82281361160E+02  0.22107256445E+03  0.17633908574E+03 0.  0.
        -11    1    4    4    0    0  0.13351276289E+03  0.94105507916E+01 -0.15742670558E+02  0.13476664274E+03  0.51100000000E-03 0. -1.
     200002    1    4    4    0    0 -0.35848277474E+02  0.28917395738E+02 -0.66538690602E+02  0.86305921704E+02  0.30000000000E+02 0. -1.
     200000    1    3    3    0    0  0.12763026482E+03  0.35915910630E+03 -0.35077405242E+03  0.71994943155E+03  0.50000000000E+03 0. -1.
    -200001    1    1    2    0    0 -0.22529475023E+03 -0.39748705283E+03 -0.50003784637E+02  0.83740913544E+03  0.70000000000E+03 0. -1.
<mgrwt>
<rscale>  0 0.17115698E+04</rscale>
<asrwt>0</asrwt>
<pdfrwt beam="1">  1        4 0.92526567E-01 0.17115698E+04</pdfrwt>
<pdfrwt beam="2">  1       -4 0.16153502E+00 0.17115698E+04</pdfrwt>
<totfact> 0.46304060E-01</totfact>
</mgrwt>
</event>
<event>
 8    1  0.1287848E-011  0.1798793E+04  0.7818608E-02  0.8706942E-01
         -4   -1    0    0    0  501 -0.00000000000E+00  0.00000000000E+00  0.55440685988E+03  0.55440831450E+03  0.12700000000E+01 0. -1.
          4   -1    0    0  501    0  0.00000000000E+00 -0.00000000000E+00 -0.14590587953E+04  0.14590593480E+04  0.12700000000E+01 0.  1.
     200001    2    1    2    0    0 -0.34609847632E+03  0.88853273511E+02 -0.94152630494E+03  0.12266774880E+04  0.70041902972E+03 0.  0.
    5000001    2    3    3    0    0 -0.17821826516E+03 -0.51275355047E+02 -0.30661180181E+03  0.38945814750E+03  0.15256454234E+03 0.  0.
        -11    1    4    4    0    0  0.38297461860E+01  0.35429496384E+02 -0.56356997176E+02  0.66678537033E+02  0.51100000000E-03 0. -1.
     200002    1    4    4    0    0 -0.18204801134E+03 -0.86704851431E+02 -0.25025480463E+03  0.32277961047E+03  0.30000000000E+02 0. -1.
     200000    1    3    3    0    0 -0.16788021116E+03  0.14012862856E+03 -0.63491450314E+03  0.83721934052E+03  0.50000000000E+03 0. -1.
    -200001    1    1    2    0    0  0.34609847632E+03 -0.88853273511E+02  0.36874369550E+02  0.78679017448E+03  0.70000000000E+03 0. -1.
<mgrwt>
<rscale>  0 0.17987932E+04</rscale>
<asrwt>0</asrwt>
<pdfrwt beam="1">  1        4 0.20843711E+00 0.17987932E+04</pdfrwt>
<pdfrwt beam="2">  1       -4 0.79201124E-01 0.17987932E+04</pdfrwt>
<totfact> 0.31281154E-01</totfact>
</mgrwt>
</event>
<event>
 8    1  0.1287848E-011  0.2249749E+04  0.7818608E-02  0.8498002E-01
         -4   -1    0    0    0  501 -0.00000000000E+00  0.00000000000E+00  0.14229461388E+04  0.14229467056E+04  0.12700000000E+01 0. -1.
          4   -1    0    0  501    0  0.00000000000E+00 -0.00000000000E+00 -0.88923993997E+03  0.88924084687E+03  0.12700000000E+01 0.  1.
     200001    2    1    2    0    0  0.78918954704E+03 -0.37915339991E+03  0.16995749073E+03  0.11336755396E+04  0.69982657747E+03 0.  0.
    5000001    2    3    3    0    0  0.26577869109E+03 -0.14763593597E+03  0.98058999169E+01  0.35701100949E+03  0.18688505290E+03 0.  0.
        -11    1    4    4    0    0  0.69539647007E+02 -0.11810139840E+03 -0.52642831017E+02  0.14681611106E+03  0.51100000000E-03 0. -1.
     200002    1    4    4    0    0  0.19623904408E+03 -0.29534537578E+02  0.62448730934E+02  0.21019489843E+03  0.30000000000E+02 0. -1.
     200000    1    3    3    0    0  0.52341085595E+03 -0.23151746393E+03  0.16015159082E+03  0.77666453008E+03  0.50000000000E+03 0. -1.
    -200001    1    1    2    0    0 -0.78918954704E+03  0.37915339991E+03  0.36374870811E+03  0.11785120129E+04  0.70000000000E+03 0.  1.
<mgrwt>
<rscale>  0 0.22497486E+04</rscale>
<asrwt>0</asrwt>
<pdfrwt beam="1">  1        4 0.12703438E+00 0.22497486E+04</pdfrwt>
<pdfrwt beam="2">  1       -4 0.20327812E+00 0.22497486E+04</pdfrwt>
<totfact> 0.10541411E-01</totfact>
</mgrwt>
</event>
<event>
 8    1  0.1287848E-011  0.1410959E+04  0.7818608E-02  0.8945924E-01
         -4   -1    0    0    0  501 -0.00000000000E+00  0.00000000000E+00  0.32341709516E+03  0.32341958868E+03  0.12700000000E+01 0. -1.
          4   -1    0    0  501    0  0.00000000000E+00 -0.00000000000E+00 -0.15388757865E+04  0.15388763106E+04  0.12700000000E+01 0.  1.
     200001    2    1    2    0    0  0.34209824815E+02 -0.93833686920E+02 -0.58727750891E+03  0.91646997927E+03  0.69645335632E+03 0.  0.
    5000001    2    3    3    0    0 -0.27959762919E+02 -0.65508136954E+02 -0.12387924856E+03  0.23133835534E+03  0.18192938761E+03 0.  0.
        -11    1    4    4    0    0 -0.50725057560E+02  0.34724812845E+02 -0.10635102376E+03  0.12283885520E+03  0.51100000000E-03 0. -1.
     200002    1    4    4    0    0  0.22765294641E+02 -0.10023294980E+03 -0.17528224799E+02  0.10849950014E+03  0.30000000000E+02 0. -1.
     200000    1    3    3    0    0  0.62169587734E+02 -0.28325549966E+02 -0.46339826035E+03  0.68513162393E+03  0.50000000000E+03 0.  1.
    -200001    1    1    2    0    0 -0.34209824815E+02  0.93833686920E+02 -0.62818118245E+03  0.94582591998E+03  0.70000000000E+03 0.  1.
<mgrwt>
<rscale>  0 0.14109593E+04</rscale>
<asrwt>0</asrwt>
<pdfrwt beam="1">  1        4 0.21983961E+00 0.14109593E+04</pdfrwt>
<pdfrwt beam="2">  1       -4 0.46202658E-01 0.14109593E+04</pdfrwt>
<totfact> 0.86965885E-01</totfact>
</mgrwt>
</event>
<event>
 8    1  0.1287848E-011  0.1587699E+04  0.7818608E-02  0.8828141E-01
          4   -1    0    0  501    0  0.00000000000E+00  0.00000000000E+00  0.11976706621E+04  0.11976713355E+04  0.12700000000E+01 0.  1.
         -4   -1    0    0    0  501 -0.00000000000E+00 -0.00000000000E+00 -0.52618412037E+03  0.52618565301E+03  0.12700000000E+01 0. -1.
     200001    2    1    2    0    0 -0.25210943702E+03 -0.25358665565E+03  0.45895887357E+03  0.90958837806E+03  0.69917266087E+03 0.  0.
    5000001    2    3    3    0    0 -0.98453386399E+02 -0.44311961572E+02  0.13005814870E+03  0.25722209575E+03  0.19388518578E+03 0.  0.
        -11    1    4    4    0    0 -0.72205743504E+02  0.69241063425E+02  0.74146662103E+02  0.12452197300E+03  0.51100000000E-03 0. -1.
     200002    1    4    4    0    0 -0.26247642895E+02 -0.11355302500E+03  0.55911486598E+02  0.13270012275E+03  0.30000000000E+02 0. -1.
     200000    1    3    3    0    0 -0.15365605062E+03 -0.20927469408E+03  0.32890072487E+03  0.65236628231E+03  0.50000000000E+03 0.  1.
    -200001    1    1    2    0    0  0.25210943702E+03  0.25358665565E+03  0.21252766816E+03  0.81426861041E+03  0.70000000000E+03 0. -1.
<mgrwt>
<rscale>  0 0.15876992E+04</rscale>
<asrwt>0</asrwt>
<pdfrwt beam="1">  1        4 0.17109596E+00 0.15876992E+04</pdfrwt>
<pdfrwt beam="2">  1       -4 0.75169318E-01 0.15876992E+04</pdfrwt>
<totfact> 0.64086229E-01</totfact>
</mgrwt>
</event>
<event>
 8    1  0.1287848E-011  0.1568243E+04  0.7818608E-02  0.8840299E-01
          4   -1    0    0  501    0  0.00000000000E+00  0.00000000000E+00  0.66769573167E+03  0.66769693948E+03  0.12700000000E+01 0.  1.
         -4   -1    0    0    0  501 -0.00000000000E+00 -0.00000000000E+00 -0.92084563901E+03  0.92084651478E+03  0.12700000000E+01 0. -1.
     200001    2    1    2    0    0  0.30056648798E+02  0.30654533849E+03 -0.30192673396E+03  0.82221935474E+03  0.70000819134E+03 0.  0.
    5000001    2    3    3    0    0  0.31016253380E+02  0.12199624315E+03  0.33468222764E+02  0.19249793504E+03  0.14174004989E+03 0.  0.
        -11    1    4    4    0    0 -0.35454688584E+02  0.68426427710E+02  0.60590163332E+02  0.98032539724E+02  0.51100000000E-03 0. -1.
     200002    1    4    4    0    0  0.66470941964E+02  0.53569815439E+02 -0.27121940568E+02  0.94465395314E+02  0.30000000000E+02 0. -1.
     200000    1    3    3    0    0 -0.95960458225E+00  0.18454909534E+03 -0.33539495673E+03  0.62972141970E+03  0.50000000000E+03 0. -1.
    -200001    1    1    2    0    0 -0.30056648798E+02 -0.30654533849E+03  0.48776826625E+02  0.76632409952E+03  0.70000000000E+03 0. -1.
<mgrwt>
<rscale>  0 0.15682428E+04</rscale>
<asrwt>0</asrwt>
<pdfrwt beam="1">  1        4 0.95385254E-01 0.15682428E+04</pdfrwt>
<pdfrwt beam="2">  1       -4 0.13154953E+00 0.15682428E+04</pdfrwt>
<totfact> 0.74999170E-01</totfact>
</mgrwt>
</event>
<event>
 8    1  0.1287848E-011  0.1747802E+04  0.7818608E-02  0.8734561E-01
         -4   -1    0    0    0  501 -0.00000000000E+00  0.00000000000E+00  0.84504026386E+03  0.84504121820E+03  0.12700000000E+01 0. -1.
          4   -1    0    0  501    0  0.00000000000E+00 -0.00000000000E+00 -0.90374557021E+03  0.90374646255E+03  0.12700000000E+01 0.  1.
     200001    2    1    2    0    0  0.24963640652E+03  0.35618850562E+03 -0.32014859484E+03  0.88418304272E+03  0.70006852755E+03 0.  0.
    5000001    2    3    3    0    0  0.13553073373E+03  0.10842101522E+03 -0.94819707874E+02  0.27166207070E+03  0.18624126108E+03 0.  0.
        -11    1    4    4    0    0  0.44307709659E+02 -0.14156430363E+02 -0.10578773858E+03  0.11556220528E+03  0.51100000000E-03 0. -1.
     200002    1    4    4    0    0  0.91223024070E+02  0.12257744559E+03  0.10968030704E+02  0.15609986542E+03  0.30000000000E+02 0. -1.
     200000    1    3    3    0    0  0.11410567279E+03  0.24776749040E+03 -0.22532888697E+03  0.61252097202E+03  0.50000000000E+03 0.  1.
    -200001    1    1    2    0    0 -0.24963640652E+03 -0.35618850562E+03  0.26144328849E+03  0.86460463803E+03  0.70000000000E+03 0. -1.
<mgrwt>
<rscale>  0 0.17478021E+04</rscale>
<asrwt>0</asrwt>
<pdfrwt beam="1">  1        4 0.12910664E+00 0.17478021E+04</pdfrwt>
<pdfrwt beam="2">  1       -4 0.12072017E+00 0.17478021E+04</pdfrwt>
<totfact> 0.43869298E-01</totfact>
</mgrwt>
</event>
<event>
 8    1  0.1287848E-011  0.1495822E+04  0.7818608E-02  0.8887236E-01
         -4   -1    0    0    0  501 -0.00000000000E+00  0.00000000000E+00  0.84469511486E+03  0.84469606958E+03  0.12700000000E+01 0. -1.
          4   -1    0    0  501    0  0.00000000000E+00 -0.00000000000E+00 -0.66221416545E+03  0.66221538325E+03  0.12700000000E+01 0.  1.
     200001    2    1    2    0    0 -0.67495490773E+02  0.21773910738E+03 -0.43929625630E+02  0.73669868441E+03  0.69916319943E+03 0.  0.
    5000001    2    3    3    0    0 -0.47082706790E+02  0.72820729782E+02 -0.10099587148E+02  0.21462350839E+03  0.19606531750E+03 0.  0.
        -11    1    4    4    0    0  0.95255510015E+01  0.12208979542E+03 -0.39419791475E+02  0.12864903508E+03  0.51100000000E-03 0. -1.
     200002    1    4    4    0    0 -0.56608257791E+02 -0.49269065634E+02  0.29320204327E+02  0.85974473306E+02  0.30000000000E+02 0. -1.
     200000    1    3    3    0    0 -0.20412783983E+02  0.14491837760E+03 -0.33830038482E+02  0.52207517602E+03  0.50000000000E+03 0.  1.
    -200001    1    1    2    0    0  0.67495490773E+02 -0.21773910738E+03  0.22641057505E+03  0.77021276843E+03  0.70000000000E+03 0.  1.
<mgrwt>
<rscale>  0 0.14958218E+04</rscale>
<asrwt>0</asrwt>
<pdfrwt beam="1">  1        4 0.94602179E-01 0.14958218E+04</pdfrwt>
<pdfrwt beam="2">  1       -4 0.12067089E+00 0.14958218E+04</pdfrwt>
<totfact> 0.95588891E-01</totfact>
</mgrwt>
</event>
<event>
 8    1  0.1287848E-011  0.2165995E+04  0.7818608E-02  0.8532716E-01
         -4   -1    0    0    0  501 -0.00000000000E+00  0.00000000000E+00  0.17016785192E+04  0.17016789931E+04  0.12700000000E+01 0. -1.
          4   -1    0    0  501    0  0.00000000000E+00 -0.00000000000E+00 -0.68924992042E+03  0.68925109046E+03  0.12700000000E+01 0.  1.
     200001    2    1    2    0    0 -0.36939789186E+01 -0.66597927630E+03  0.10465937168E+04  0.14241264338E+04  0.69945382221E+03 0.  0.
    5000001    2    3    3    0    0  0.20048732855E+02 -0.14419504251E+03  0.13618996438E+03  0.26151837626E+03  0.16926308738E+03 0.  0.
        -11    1    4    4    0    0  0.88991671577E+02 -0.54364046334E+02  0.80888318600E+02  0.13197684354E+03  0.51100000000E-03 0. -1.
     200002    1    4    4    0    0 -0.68942938722E+02 -0.89830996180E+02  0.55301645777E+02  0.12954153272E+03  0.30000000000E+02 0. -1.
     200000    1    3    3    0    0 -0.23742711774E+02 -0.52178423378E+03  0.91040375239E+03  0.11626080575E+04  0.50000000000E+03 0. -1.
    -200001    1    1    2    0    0  0.36939789186E+01  0.66597927630E+03 -0.34165118020E+02  0.96680364978E+03  0.70000000000E+03 0.  1.
<mgrwt>
<rscale>  0 0.21659952E+04</rscale>
<asrwt>0</asrwt>
<pdfrwt beam="1">  1        4 0.98464394E-01 0.21659952E+04</pdfrwt>
<pdfrwt beam="2">  1       -4 0.24309704E+00 0.21659952E+04</pdfrwt>
<totfact> 0.11039346E-01</totfact>
</mgrwt>
</event>
<event>
 8    1  0.1287848E-011  0.2138244E+04  0.7818608E-02  0.8544581E-01
          4   -1    0    0  501    0  0.00000000000E+00  0.00000000000E+00  0.16344673780E+04  0.16344678714E+04  0.12700000000E+01 0.  1.
         -4   -1    0    0    0  501 -0.00000000000E+00 -0.00000000000E+00 -0.69932247139E+03  0.69932362458E+03  0.12700000000E+01 0. -1.
     200001    2    1    2    0    0 -0.25319259257E+03 -0.24987118920E+03  0.12594448985E+04  0.14842548077E+04  0.70019196063E+03 0.  0.
    5000001    2    3    3    0    0 -0.13362574858E+03 -0.15371091898E+03  0.53563378564E+03  0.59125673668E+03  0.14559563545E+03 0.  0.
        -11    1    4    4    0    0 -0.10767216344E+03 -0.20940588966E+02  0.19920591227E+03  0.22740887962E+03  0.51100000000E-03 0. -1.
     200002    1    4    4    0    0 -0.25953585142E+02 -0.13277033001E+03  0.33642787336E+03  0.36384785706E+03  0.30000000000E+02 0. -1.
     200000    1    3    3    0    0 -0.11956684399E+03 -0.96160270223E+02  0.72381111281E+03  0.89299807099E+03  0.50000000000E+03 0.  1.
    -200001    1    1    2    0    0  0.25319259257E+03  0.24987118920E+03 -0.32429999182E+03  0.84953668833E+03  0.70000000000E+03 0. -1.
<mgrwt>
<rscale>  0 0.21382438E+04</rscale>
<asrwt>0</asrwt>
<pdfrwt beam="1">  1        4 0.23349545E+00 0.21382438E+04</pdfrwt>
<pdfrwt beam="2">  1       -4 0.99903331E-01 0.21382438E+04</pdfrwt>
<totfact> 0.12279060E-01</totfact>
</mgrwt>
</event>
<event>
 8    1  0.1706558E-011  0.1504597E+04  0.7818608E-02  0.8881402E-01
          4   -1    0    0  501    0  0.00000000000E+00  0.00000000000E+00  0.41339360330E+03  0.41339555410E+03  0.12700000000E+01 0.  1.
         -4   -1    0    0    0  501 -0.00000000000E+00 -0.00000000000E+00 -0.13690352535E+04  0.13690358426E+04  0.12700000000E+01 0. -1.
     200001    2    1    2    0    0 -0.20415108625E+03  0.17415782120E+03 -0.40253724165E+03  0.85080212520E+03  0.69987099713E+03 0.  0.
    5000001    2    3    3    0    0 -0.90529589485E+02 -0.39242842437E+02 -0.12855996550E+03  0.23151767067E+03  0.16533952900E+03 0.  0.
        -11    1    4    4    0    0 -0.43099785712E+02 -0.33273739430E+02 -0.15852713241E+03  0.16761737670E+03  0.51100000000E-03 0. -1.
     200002    1    4    4    0    0 -0.47429803773E+02 -0.59691030071E+01  0.29967166909E+02  0.63900293968E+02  0.30000000000E+02 0. -1.
     200000    1    3    3    0    0 -0.11362149677E+03  0.21340066364E+03 -0.27397727615E+03  0.61928445453E+03  0.50000000000E+03 0.  1.
    -200001    1    1    2    0    0  0.20415108625E+03 -0.17415782120E+03 -0.55310440857E+03  0.93162927148E+03  0.70000000000E+03 0. -1.
<mgrwt>
<rscale>  0 0.15045965E+04</rscale>
<asrwt>0</asrwt>
<pdfrwt beam="1">  1        4 0.59056411E-01 0.15045965E+04</pdfrwt>
<pdfrwt beam="2">  1       -4 0.19557664E+00 0.15045965E+04</pdfrwt>
<totfact> 0.74201927E-01</totfact>
</mgrwt>
</event>
<event>
 8    1  0.1287848E-011  0.1747251E+04  0.7818608E-02  0.8734865E-01
         -4   -1    0    0    0  501 -0.00000000000E+00  0.00000000000E+00  0.51149137258E+03  0.51149294924E+03  0.12700000000E+01 0. -1.
          4   -1    0    0  501    0  0.00000000000E+00 -0.00000000000E+00 -0.14921453384E+04  0.14921458789E+04  0.12700000000E+01 0.  1.
     200001    2    1    2    0    0  0.31124782790E+02 -0.23007019782E+03  0.46545784607E+02  0.73910714589E+03  0.70015128009E+03 0.  0.
    5000001    2    3    3    0    0 -0.15787866384E+01 -0.16302234915E+03 -0.42231585499E+02  0.22583688676E+03  0.15046598858E+03 0.  0.
        -11    1    4    4    0    0  0.28935742189E+02 -0.16095087760E+03 -0.66573029605E+02  0.17656282294E+03  0.51100000000E-03 0. -1.
     200002    1    4    4    0    0 -0.30514528828E+02 -0.20714715532E+01  0.24341444106E+02  0.49274063818E+02  0.30000000000E+02 0. -1.
     200000    1    3    3    0    0  0.32703569429E+02 -0.67047848672E+02  0.88777370106E+02  0.51327025913E+03  0.50000000000E+03 0. -1.
    -200001    1    1    2    0    0 -0.31124782790E+02  0.23007019782E+03 -0.10271997504E+04  0.12645316822E+04  0.70000000000E+03 0.  1.
<mgrwt>
<rscale>  0 0.17472511E+04</rscale>
<asrwt>0</asrwt>
<pdfrwt beam="1">  1        4 0.21316377E+00 0.17472511E+04</pdfrwt>
<pdfrwt beam="2">  1       -4 0.73070348E-01 0.17472511E+04</pdfrwt>
<totfact> 0.35080227E-01</totfact>
</mgrwt>
</event>
<event>
 8    1  0.1287848E-011  0.1596652E+04  0.7818608E-02  0.8822607E-01
         -4   -1    0    0    0  501 -0.00000000000E+00  0.00000000000E+00  0.63486221428E+03  0.63486348455E+03  0.12700000000E+01 0. -1.
          4   -1    0    0  501    0  0.00000000000E+00 -0.00000000000E+00 -0.10038759715E+04  0.10038767749E+04  0.12700000000E+01 0.  1.
     200001    2    1    2    0    0 -0.30184538995E+03  0.19696511613E+03 -0.48297167793E+02  0.78858437538E+03  0.69973338084E+03 0.  0.
    5000001    2    3    3    0    0 -0.95024436793E+02  0.44663919223E+02 -0.31948866995E+02  0.22623410359E+03  0.19782980123E+03 0.  0.
        -11    1    4    4    0    0 -0.76526346726E+02  0.60642811834E+02 -0.10511306341E+03  0.14346633218E+03  0.51100000000E-03 0. -1.
     200002    1    4    4    0    0 -0.18498090067E+02 -0.15978892611E+02  0.73164196418E+02  0.82767771401E+02  0.30000000000E+02 0. -1.
     200000    1    3    3    0    0 -0.20682095316E+03  0.15230119691E+03 -0.16348300798E+02  0.56235027179E+03  0.50000000000E+03 0. -1.
    -200001    1    1    2    0    0  0.30184538995E+03 -0.19696511613E+03 -0.32071658946E+03  0.85015588404E+03  0.70000000000E+03 0. -1.
<mgrwt>
<rscale>  0 0.15966523E+04</rscale>
<asrwt>0</asrwt>
<pdfrwt beam="1">  1        4 0.14341100E+00 0.15966523E+04</pdfrwt>
<pdfrwt beam="2">  1       -4 0.90694751E-01 0.15966523E+04</pdfrwt>
<totfact> 0.67347191E-01</totfact>
</mgrwt>
</event>
<event>
 8    1  0.1287848E-011  0.1508490E+04  0.7818608E-02  0.8878827E-01
          4   -1    0    0  501    0  0.00000000000E+00  0.00000000000E+00  0.49938649145E+03  0.49938810633E+03  0.12700000000E+01 0.  1.
         -4   -1    0    0    0  501 -0.00000000000E+00 -0.00000000000E+00 -0.11391644420E+04  0.11391651499E+04  0.12700000000E+01 0. -1.
     200001    2    1    2    0    0 -0.13099596287E+03 -0.21321368723E+03 -0.45954647698E+03  0.87363273567E+03  0.69959357745E+03 0.  0.
    5000001    2    3    3    0    0 -0.82282809291E+02 -0.55991322702E+02 -0.14920986398E+03  0.26256755370E+03  0.19176195615E+03 0.  0.
        -11    1    4    4    0    0  0.28657109561E+02  0.25736248729E+02 -0.10947762090E+03  0.11605573620E+03  0.51100000000E-03 0. -1.
     200002    1    4    4    0    0 -0.11093991885E+03 -0.81727571430E+02 -0.39732243081E+02  0.14651181750E+03  0.30000000000E+02 0. -1.
     200000    1    3    3    0    0 -0.48713153580E+02 -0.15722236453E+03 -0.31033661300E+03  0.61106518196E+03  0.50000000000E+03 0. -1.
    -200001    1    1    2    0    0  0.13099596287E+03  0.21321368723E+03 -0.18023147353E+03  0.76492052055E+03  0.70000000000E+03 0.  1.
<mgrwt>
<rscale>  0 0.15084896E+04</rscale>
<asrwt>0</asrwt>
<pdfrwt beam="1">  1        4 0.71341093E-01 0.15084896E+04</pdfrwt>
<pdfrwt beam="2">  1       -4 0.16273794E+00 0.15084896E+04</pdfrwt>
<totfact> 0.83244552E-01</totfact>
</mgrwt>
</event>
<event>
 8    1  0.1287848E-011  0.1747558E+04  0.7818608E-02  0.8734696E-01
         -4   -1    0    0    0  501 -0.00000000000E+00  0.00000000000E+00  0.28307090997E+03  0.28307375888E+03  0.12700000000E+01 0. -1.
          4   -1    0    0  501    0  0.00000000000E+00 -0.00000000000E+00 -0.26971500446E+04  0.26971503436E+04  0.12700000000E+01 0.  1.
     200001    2    1    2    0    0 -0.14202677359E+02 -0.51817777594E+03 -0.12922076028E+04  0.15599052448E+04  0.70341592287E+03 0.  0.
    5000001    2    3    3    0    0  0.32234673343E+02 -0.11639201606E+03 -0.38252545709E+03  0.44585415505E+03  0.19461250393E+03 0.  0.
        -11    1    4    4    0    0  0.49117271994E+02 -0.12390571912E+03 -0.11506440230E+03  0.17608222600E+03  0.51100000000E-03 0. -1.
     200002    1    4    4    0    0 -0.16882598651E+02  0.75137030544E+01 -0.26746105479E+03  0.26977192905E+03  0.30000000000E+02 0. -1.
     200000    1    3    3    0    0 -0.46437350703E+02 -0.40178575987E+03 -0.90968214572E+03  0.11140510898E+04  0.50000000000E+03 0. -1.
    -200001    1    1    2    0    0  0.14202677359E+02  0.51817777594E+03 -0.11218715318E+04  0.14203188577E+04  0.70000000000E+03 0.  1.
<mgrwt>
<rscale>  0 0.17475576E+04</rscale>
<asrwt>0</asrwt>
<pdfrwt beam="1">  1        4 0.38530736E+00 0.17475576E+04</pdfrwt>
<pdfrwt beam="2">  1       -4 0.40438928E-01 0.17475576E+04</pdfrwt>
<totfact> 0.98905575E-02</totfact>
</mgrwt>
</event>
<event>
 8    1  0.1287848E-011  0.1730318E+04  0.7818608E-02  0.8744259E-01
          4   -1    0    0  501    0  0.00000000000E+00  0.00000000000E+00  0.12759593276E+04  0.12759599596E+04  0.12700000000E+01 0.  1.
         -4   -1    0    0    0  501 -0.00000000000E+00 -0.00000000000E+00 -0.58661616709E+03  0.58661754184E+03  0.12700000000E+01 0. -1.
     200001    2    1    2    0    0  0.18175168253E+03  0.71015970831E+02  0.85014641689E+03  0.11183096535E+04  0.69985041890E+03 0.  0.
    5000001    2    3    3    0    0 -0.50549797850E+02  0.52678664390E+02  0.32797865957E+03  0.35873121692E+03  0.12564935779E+03 0.  0.
        -11    1    4    4    0    0 -0.66327041960E+02 -0.70453067638E+01  0.22713326688E+03  0.23672438355E+03  0.51100000000E-03 0. -1.
     200002    1    4    4    0    0  0.15777244111E+02  0.59723971154E+02  0.10084539269E+03  0.12200683337E+03  0.30000000000E+02 0. -1.
     200000    1    3    3    0    0  0.23230148038E+03  0.18337306441E+02  0.52216775732E+03  0.75957843662E+03  0.50000000000E+03 0.  1.
    -200001    1    1    2    0    0 -0.18175168253E+03 -0.71015970831E+02 -0.16080325638E+03  0.74426784794E+03  0.70000000000E+03 0. -1.
<mgrwt>
<rscale>  0 0.17303182E+04</rscale>
<asrwt>0</asrwt>
<pdfrwt beam="1">  1        4 0.18228005E+00 0.17303182E+04</pdfrwt>
<pdfrwt beam="2">  1       -4 0.83802453E-01 0.17303182E+04</pdfrwt>
<totfact> 0.41363077E-01</totfact>
</mgrwt>
</event>
<event>
 8    1  0.1287848E-011  0.1405667E+04  0.7818608E-02  0.8949727E-01
         -4   -1    0    0    0  501 -0.00000000000E+00  0.00000000000E+00  0.30835954808E+03  0.30836216336E+03  0.12700000000E+01 0. -1.
          4   -1    0    0  501    0  0.00000000000E+00 -0.00000000000E+00 -0.16019349046E+04  0.16019354081E+04  0.12700000000E+01 0.  1.
     200001    2    1    2    0    0 -0.24049452135E+02 -0.17610076036E+02 -0.72372130317E+03  0.10071795652E+04  0.69982116362E+03 0.  0.
    5000001    2    3    3    0    0 -0.12662765502E+02 -0.17425970026E+02 -0.28692946307E+03  0.34316390119E+03  0.18699982952E+03 0.  0.
        -11    1    4    4    0    0 -0.78274100404E+02  0.30251275176E+02 -0.68786496503E+02  0.10850602078E+03  0.51100000000E-03 0. -1.
     200002    1    4    4    0    0  0.65611334902E+02 -0.47677245202E+02 -0.21814296656E+03  0.23465788041E+03  0.30000000000E+02 0. -1.
     200000    1    3    3    0    0 -0.11386686633E+02 -0.18410601054E+00 -0.43679184011E+03  0.66401566405E+03  0.50000000000E+03 0. -1.
    -200001    1    1    2    0    0  0.24049452135E+02  0.17610076036E+02 -0.56985405339E+03  0.90311800618E+03  0.70000000000E+03 0. -1.
<mgrwt>
<rscale>  0 0.14056670E+04</rscale>
<asrwt>0</asrwt>
<pdfrwt beam="1">  1        4 0.22884806E+00 0.14056670E+04</pdfrwt>
<pdfrwt beam="2">  1       -4 0.44051588E-01 0.14056670E+04</pdfrwt>
<totfact> 0.84136936E-01</totfact>
</mgrwt>
</event>
<event>
 8    1  0.1287848E-011  0.1449740E+04  0.7818608E-02  0.8918581E-01
          4   -1    0    0  501    0  0.00000000000E+00  0.00000000000E+00  0.12213372858E+04  0.12213379461E+04  0.12700000000E+01 0.  1.
         -4   -1    0    0    0  501 -0.00000000000E+00 -0.00000000000E+00 -0.43021236326E+03  0.43021423780E+03  0.12700000000E+01 0. -1.
     200001    2    1    2    0    0  0.23230403990E+02  0.18712135212E+03  0.39821780175E+03  0.82697346864E+03  0.69982401224E+03 0.  0.
    5000001    2    3    3    0    0  0.43609956311E+02  0.54334839689E+01  0.18063163388E+03  0.25184778843E+03  0.16990635757E+03 0.  0.
        -11    1    4    4    0    0  0.23297298464E+02 -0.71856025037E+02  0.35476140483E+02  0.83454232928E+02  0.51100000000E-03 0. -1.
     200002    1    4    4    0    0  0.20312657847E+02  0.77289509006E+02  0.14515549340E+03  0.16839355550E+03  0.30000000000E+02 0. -1.
     200000    1    3    3    0    0 -0.20379552322E+02  0.18168786815E+03  0.21758616787E+03  0.57512568021E+03  0.50000000000E+03 0. -1.
    -200001    1    1    2    0    0 -0.23230403990E+02 -0.18712135212E+03  0.39290712077E+03  0.82457871525E+03  0.70000000000E+03 0. -1.
<mgrwt>
<rscale>  0 0.14497400E+04</rscale>
<asrwt>0</asrwt>
<pdfrwt beam="1">  1        4 0.17447693E+00 0.14497400E+04</pdfrwt>
<pdfrwt beam="2">  1       -4 0.61459092E-01 0.14497400E+04</pdfrwt>
<totfact> 0.95366474E-01</totfact>
</mgrwt>
</event>
<event>
 8    1  0.1287848E-011  0.1455402E+04  0.7818608E-02  0.8914664E-01
          4   -1    0    0  501    0  0.00000000000E+00  0.00000000000E+00  0.28158669272E+03  0.28158955666E+03  0.12700000000E+01 0. -1.
         -4   -1    0    0    0  501 -0.00000000000E+00 -0.00000000000E+00 -0.18805750060E+04  0.18805754348E+04  0.12700000000E+01 0.  1.
     200001    2    1    2    0    0  0.19426675231E+02 -0.19289622839E+03 -0.68165660891E+03  0.99208644435E+03  0.69425746662E+03 0.  0.
    5000001    2    3    3    0    0 -0.67417492794E+02 -0.83994403154E+02 -0.13548684550E+03  0.23862580999E+03  0.16427237685E+03 0.  0.
        -11    1    4    4    0    0 -0.48876176553E+02  0.36226660440E+02 -0.10653635249E+02  0.61763674643E+02  0.51100000000E-03 0. -1.
     200002    1    4    4    0    0 -0.18541316240E+02 -0.12022106359E+03 -0.12483321025E+03  0.17686213535E+03  0.30000000000E+02 0. -1.
     200000    1    3    3    0    0  0.86844168025E+02 -0.10890182524E+03 -0.54616976341E+03  0.75346063436E+03  0.50000000000E+03 0. -1.
    -200001    1    1    2    0    0 -0.19426675231E+02  0.19289622839E+03 -0.91733170435E+03  0.11700785471E+04  0.70000000000E+03 0. -1.
<mgrwt>
<rscale>  0 0.14554016E+04</rscale>
<asrwt>0</asrwt>
<pdfrwt beam="1">  1        4 0.40226907E-01 0.14554016E+04</pdfrwt>
<pdfrwt beam="2">  1       -4 0.26865380E+00 0.14554016E+04</pdfrwt>
<totfact> 0.57067787E-01</totfact>
</mgrwt>
</event>
<event>
 8    1  0.1287848E-011  0.1699728E+04  0.7818608E-02  0.8761520E-01
          4   -1    0    0  501    0  0.00000000000E+00  0.00000000000E+00  0.35503120617E+03  0.35503347765E+03  0.12700000000E+01 0.  1.
         -4   -1    0    0    0  501 -0.00000000000E+00 -0.00000000000E+00 -0.20343718941E+04  0.20343722905E+04  0.12700000000E+01 0. -1.
     200001    2    1    2    0    0 -0.19863986767E+03  0.27327751290E+03 -0.13224429766E+04  0.15341196333E+04  0.70037791721E+03 0.  0.
    5000001    2    3    3    0    0  0.13799603315E+02  0.65742301578E+01 -0.31378430895E+03  0.35783162536E+03  0.17131616974E+03 0.  0.
        -11    1    4    4    0    0 -0.43688126855E+02 -0.42357973533E+02 -0.24164411271E+03  0.24918813687E+03  0.51100000000E-03 0. -1.
     200002    1    4    4    0    0  0.57487730171E+02  0.48932203691E+02 -0.72140196244E+02  0.10864348849E+03  0.30000000000E+02 0. -1.
     200000    1    3    3    0    0 -0.21243947098E+03  0.26670328275E+03 -0.10086586677E+04  0.11762880080E+04  0.50000000000E+03 0. -1.
    -200001    1    1    2    0    0  0.19863986767E+03 -0.27327751290E+03 -0.35689771132E+03  0.85528613483E+03  0.70000000000E+03 0.  1.
<mgrwt>
<rscale>  0 0.16997279E+04</rscale>
<asrwt>0</asrwt>
<pdfrwt beam="1">  1        4 0.50718936E-01 0.16997279E+04</pdfrwt>
<pdfrwt beam="2">  1       -4 0.29062474E+00 0.16997279E+04</pdfrwt>
<totfact> 0.25437995E-01</totfact>
</mgrwt>
</event>
<event>
 8    1  0.1287848E-011  0.1716280E+04  0.7818608E-02  0.8752134E-01
          4   -1    0    0  501    0  0.00000000000E+00  0.00000000000E+00  0.54339507258E+03  0.54339655667E+03  0.12700000000E+01 0.  1.
         -4   -1    0    0    0  501 -0.00000000000E+00 -0.00000000000E+00 -0.13551872321E+04  0.13551878272E+04  0.12700000000E+01 0. -1.
     200001    2    1    2    0    0  0.55808838804E+02  0.10810451095E+03  0.12706540590E+03  0.72119118704E+03  0.69940681946E+03 0.  0.
    5000001    2    3    3    0    0 -0.64933475162E+02  0.74102753992E+02  0.49758048153E+02  0.19993189127E+03  0.16670130007E+03 0.  0.
        -11    1    4    4    0    0 -0.27080248501E+01 -0.49521418197E+02 -0.68683674545E+00  0.49600161328E+02  0.51100000000E-03 0. -1.
     200002    1    4    4    0    0 -0.62225450312E+02  0.12362417219E+03  0.50444884899E+02  0.15033172995E+03  0.30000000000E+02 0. -1.
     200000    1    3    3    0    0  0.12074231397E+03  0.34001756962E+02  0.77307357743E+02  0.52125929576E+03  0.50000000000E+03 0.  1.
    -200001    1    1    2    0    0 -0.55808838804E+02 -0.10810451095E+03 -0.93885756542E+03  0.11773931968E+04  0.70000000000E+03 0. -1.
<mgrwt>
<rscale>  0 0.17162797E+04</rscale>
<asrwt>0</asrwt>
<pdfrwt beam="1">  1        4 0.77628016E-01 0.17162797E+04</pdfrwt>
<pdfrwt beam="2">  1       -4 0.19359832E+00 0.17162797E+04</pdfrwt>
<totfact> 0.41275441E-01</totfact>
</mgrwt>
</event>
<event>
 8    1  0.1287848E-011  0.1704002E+04  0.7818608E-02  0.8759085E-01
         -4   -1    0    0    0  501 -0.00000000000E+00  0.00000000000E+00  0.78926788573E+03  0.78926890750E+03  0.12700000000E+01 0. -1.
          4   -1    0    0  501    0  0.00000000000E+00 -0.00000000000E+00 -0.91971828513E+03  0.91971916198E+03  0.12700000000E+01 0.  1.
     200001    2    1    2    0    0 -0.15472361095E+03 -0.19040587127E+03 -0.48510036678E+03  0.88681388418E+03  0.70065876697E+03 0.  0.
    5000001    2    3    3    0    0 -0.47752237423E+02 -0.10010173556E+03 -0.18501375442E+03  0.28710588307E+03  0.18947048617E+03 0.  0.
        -11    1    4    4    0    0 -0.79894653039E+02  0.11615926285E+02 -0.20241018279E+02  0.83233311534E+02  0.51100000000E-03 0. -1.
     200002    1    4    4    0    0  0.32142415617E+02 -0.11171766184E+03 -0.16477273614E+03  0.20387257154E+03  0.30000000000E+02 0. -1.
     200000    1    3    3    0    0 -0.10697137352E+03 -0.90304135711E+02 -0.30008661236E+03  0.59970800111E+03  0.50000000000E+03 0.  1.
    -200001    1    1    2    0    0  0.15472361095E+03  0.19040587127E+03  0.35464996739E+03  0.82217418529E+03  0.70000000000E+03 0. -1.
<mgrwt>
<rscale>  0 0.17040020E+04</rscale>
<asrwt>0</asrwt>
<pdfrwt beam="1">  1        4 0.13138846E+00 0.17040020E+04</pdfrwt>
<pdfrwt beam="2">  1       -4 0.11275269E+00 0.17040020E+04</pdfrwt>
<totfact> 0.49818514E-01</totfact>
</mgrwt>
</event>
<event>
 8    1  0.1287848E-011  0.1580270E+04  0.7818608E-02  0.8832761E-01
         -4   -1    0    0    0  501 -0.00000000000E+00  0.00000000000E+00  0.49938359413E+03  0.49938520902E+03  0.12700000000E+01 0. -1.
          4   -1    0    0  501    0  0.00000000000E+00 -0.00000000000E+00 -0.12501642185E+04  0.12501648636E+04  0.12700000000E+01 0.  1.
     200001    2    1    2    0    0  0.83746505237E+02 -0.21455089350E+03 -0.69023672890E+03  0.10101509068E+04  0.70066579023E+03 0.  0.
    5000001    2    3    3    0    0  0.68770447721E+02 -0.10533889616E+03 -0.29472827194E+03  0.36317449134E+03  0.17089558028E+03 0.  0.
        -11    1    4    4    0    0 -0.44773411426E+02 -0.70015335154E+02 -0.77061749909E+02  0.11333719084E+03  0.51100000000E-03 0. -1.
     200002    1    4    4    0    0  0.11354385915E+03 -0.35323561005E+02 -0.21766652203E+03  0.24983730051E+03  0.30000000000E+02 0. -1.
     200000    1    3    3    0    0  0.14976057516E+02 -0.10921199734E+03 -0.39550845696E+03  0.64697641548E+03  0.50000000000E+03 0.  1.
    -200001    1    1    2    0    0 -0.83746505237E+02  0.21455089350E+03 -0.60543895452E+02  0.73939916575E+03  0.70000000000E+03 0. -1.
<mgrwt>
<rscale>  0 0.15802702E+04</rscale>
<asrwt>0</asrwt>
<pdfrwt beam="1">  1        4 0.17859505E+00 0.15802702E+04</pdfrwt>
<pdfrwt beam="2">  1       -4 0.71340675E-01 0.15802702E+04</pdfrwt>
<totfact> 0.63784424E-01</totfact>
</mgrwt>
</event>
<event>
 8    1  0.1287848E-011  0.1569330E+04  0.7818608E-02  0.8839614E-01
         -4   -1    0    0    0  501 -0.00000000000E+00  0.00000000000E+00  0.19596651924E+04  0.19596656039E+04  0.12700000000E+01 0. -1.
          4   -1    0    0  501    0  0.00000000000E+00 -0.00000000000E+00 -0.31418430318E+03  0.31418686997E+03  0.12700000000E+01 0.  1.
     200001    2    1    2    0    0  0.28505851218E+03  0.21012981950E+03  0.79625907073E+03  0.11177423609E+04  0.69993326908E+03 0.  0.
    5000001    2    3    3    0    0  0.17734566481E+03  0.15346750996E+03  0.34668879557E+03  0.43442244523E+03  0.11630124033E+03 0.  0.
        -11    1    4    4    0    0  0.16134372847E+03  0.15572820896E+03  0.32181178093E+03  0.39223194174E+03  0.51100000000E-03 0. -1.
     200002    1    4    4    0    0  0.16001936339E+02 -0.22606989938E+01  0.24877014644E+02  0.42190503483E+02  0.30000000000E+02 0. -1.
     200000    1    3    3    0    0  0.10771284737E+03  0.56662309537E+02  0.44957027516E+03  0.68331991565E+03  0.50000000000E+03 0.  1.
    -200001    1    1    2    0    0 -0.28505851218E+03 -0.21012981950E+03  0.84922181847E+03  0.11561101130E+04  0.70000000000E+03 0. -1.
<mgrwt>
<rscale>  0 0.15693303E+04</rscale>
<asrwt>0</asrwt>
<pdfrwt beam="1">  1        4 0.44883684E-01 0.15693303E+04</pdfrwt>
<pdfrwt beam="2">  1       -4 0.27995239E+00 0.15693303E+04</pdfrwt>
<totfact> 0.38553750E-01</totfact>
</mgrwt>
</event>
<event>
 8    1  0.1287848E-011  0.1601694E+04  0.7818608E-02  0.8819508E-01
         -4   -1    0    0    0  501 -0.00000000000E+00  0.00000000000E+00  0.44114344256E+03  0.44114527065E+03  0.12700000000E+01 0. -1.
          4   -1    0    0  501    0  0.00000000000E+00 -0.00000000000E+00 -0.14538445374E+04  0.14538450921E+04  0.12700000000E+01 0.  1.
     200001    2    1    2    0    0 -0.15519628478E+03  0.11156067705E+03 -0.10521375213E+03  0.73306740978E+03  0.69984728489E+03 0.  0.
    5000001    2    3    3    0    0 -0.45519587398E+02 -0.29507158816E+02 -0.14023750563E+03  0.20094357497E+03  0.13330062670E+03 0.  0.
        -11    1    4    4    0    0 -0.76709728252E+02  0.12506920898E+02 -0.50042626967E+02  0.92439547775E+02  0.51100000000E-03 0. -1.
     200002    1    4    4    0    0  0.31190140853E+02 -0.42014079713E+02 -0.90194878659E+02  0.10850402719E+03  0.30000000000E+02 0. -1.
     200000    1    3    3    0    0 -0.10967669738E+03  0.14106783587E+03  0.35023753499E+02  0.53212383481E+03  0.50000000000E+03 0. -1.
    -200001    1    1    2    0    0  0.15519628478E+03 -0.11156067705E+03 -0.90748734273E+03  0.11619229530E+04  0.70000000000E+03 0. -1.
<mgrwt>
<rscale>  0 0.16016944E+04</rscale>
<asrwt>0</asrwt>
<pdfrwt beam="1">  1        4 0.20769224E+00 0.16016944E+04</pdfrwt>
<pdfrwt beam="2">  1       -4 0.63020663E-01 0.16016944E+04</pdfrwt>
<totfact> 0.53294678E-01</totfact>
</mgrwt>
</event>
<event>
 8    1  0.1287848E-011  0.1979882E+04  0.7818608E-02  0.8616085E-01
         -4   -1    0    0    0  501 -0.00000000000E+00  0.00000000000E+00  0.72159657183E+03  0.72159768942E+03  0.12700000000E+01 0. -1.
          4   -1    0    0  501    0  0.00000000000E+00 -0.00000000000E+00 -0.13580737211E+04  0.13580743149E+04  0.12700000000E+01 0.  1.
     200001    2    1    2    0    0 -0.38967263391E+02  0.65071588696E+03 -0.49336409411E+02  0.95731561639E+03  0.69933503768E+03 0.  0.
    5000001    2    3    3    0    0 -0.79621376106E+02  0.20540665714E+03 -0.38728274898E+02  0.28644632989E+03  0.17894178467E+03 0.  0.
        -11    1    4    4    0    0  0.21131629478E+02  0.16083576829E+03 -0.54611618013E+02  0.17116401184E+03  0.51100000000E-03 0. -1.
     200002    1    4    4    0    0 -0.10075300558E+03  0.44570888847E+02  0.15883343115E+02  0.11528231805E+03  0.30000000000E+02 0. -1.
     200000    1    3    3    0    0  0.40654112715E+02  0.44530922983E+03 -0.10608134513E+02  0.67086928650E+03  0.50000000000E+03 0. -1.
    -200001    1    1    2    0    0  0.38967263391E+02 -0.65071588696E+03 -0.58714073985E+03  0.11223563879E+04  0.70000000000E+03 0.  1.
<mgrwt>
<rscale>  0 0.19798819E+04</rscale>
<asrwt>0</asrwt>
<pdfrwt beam="1">  1        4 0.19401065E+00 0.19798819E+04</pdfrwt>
<pdfrwt beam="2">  1       -4 0.10308535E+00 0.19798819E+04</pdfrwt>
<totfact> 0.20773187E-01</totfact>
</mgrwt>
</event>
<event>
 8    1  0.1287848E-011  0.1674078E+04  0.7818608E-02  0.8776288E-01
          4   -1    0    0  501    0  0.00000000000E+00  0.00000000000E+00  0.50992571459E+03  0.50992729609E+03  0.12700000000E+01 0.  1.
         -4   -1    0    0    0  501 -0.00000000000E+00 -0.00000000000E+00 -0.13739884259E+04  0.13739890129E+04  0.12700000000E+01 0. -1.
     200001    2    1    2    0    0  0.12898425995E+03 -0.26699219145E+03 -0.36766610975E+02  0.76037698731E+03  0.69921356504E+03 0.  0.
    5000001    2    3    3    0    0  0.78662695605E+01 -0.96499174952E+02 -0.12056629255E+03  0.21196124820E+03  0.14497369028E+03 0.  0.
        -11    1    4    4    0    0 -0.22141655106E+02 -0.34013574134E+02  0.25211171028E+02  0.47778439291E+02  0.51100000000E-03 0. -1.
     200002    1    4    4    0    0  0.30007924666E+02 -0.62485600817E+02 -0.14577746358E+03  0.16418280891E+03  0.30000000000E+02 0. -1.
     200000    1    3    3    0    0  0.12111799039E+03 -0.17049301650E+03  0.83799681578E+02  0.54841573911E+03  0.50000000000E+03 0.  1.
    -200001    1    1    2    0    0 -0.12898425995E+03  0.26699219145E+03 -0.82729610035E+03  0.11235393216E+04  0.70000000000E+03 0. -1.
<mgrwt>
<rscale>  0 0.16740777E+04</rscale>
<asrwt>0</asrwt>
<pdfrwt beam="1">  1        4 0.72846686E-01 0.16740777E+04</pdfrwt>
<pdfrwt beam="2">  1       -4 0.19628421E+00 0.16740777E+04</pdfrwt>
<totfact> 0.45816811E-01</totfact>
</mgrwt>
</event>
<event>
 8    1  0.1287848E-011  0.1801947E+04  0.7818608E-02  0.8705265E-01
          4   -1    0    0  501    0  0.00000000000E+00  0.00000000000E+00  0.94558630450E+03  0.94558715736E+03  0.12700000000E+01 0.  1.
         -4   -1    0    0    0  501 -0.00000000000E+00 -0.00000000000E+00 -0.85846412846E+03  0.85846506787E+03  0.12700000000E+01 0. -1.
     200001    2    1    2    0    0  0.41911853071E+03  0.11053981371E+03  0.40971449970E+03  0.91977557141E+03  0.70017264822E+03 0.  0.
    5000001    2    3    3    0    0 -0.19165136141E+02  0.82540410099E+02  0.15370506385E+03  0.20674165183E+03  0.10925494134E+03 0.  0.
        -11    1    4    4    0    0  0.30796260923E+02  0.43700696866E+02  0.22475574539E+02  0.57994069046E+02  0.51100000000E-03 0. -1.
     200002    1    4    4    0    0 -0.49961397064E+02  0.38839713232E+02  0.13122948931E+03  0.14874758279E+03  0.30000000000E+02 0. -1.
     200000    1    3    3    0    0  0.43828366685E+03  0.27999403609E+02  0.25600943585E+03  0.71303391958E+03  0.50000000000E+03 0. -1.
    -200001    1    1    2    0    0 -0.41911853071E+03 -0.11053981371E+03 -0.32259232366E+03  0.88427665381E+03  0.70000000000E+03 0. -1.
<mgrwt>
<rscale>  0 0.18019473E+04</rscale>
<asrwt>0</asrwt>
<pdfrwt beam="1">  1        4 0.13508389E+00 0.18019473E+04</pdfrwt>
<pdfrwt beam="2">  1       -4 0.12263786E+00 0.18019473E+04</pdfrwt>
<totfact> 0.37411487E-01</totfact>
</mgrwt>
</event>
<event>
 8    1  0.1287848E-011  0.2287516E+04  0.7818608E-02  0.8482860E-01
          4   -1    0    0  501    0  0.00000000000E+00  0.00000000000E+00  0.13474010688E+04  0.13474016673E+04  0.12700000000E+01 0.  1.
         -4   -1    0    0    0  501 -0.00000000000E+00 -0.00000000000E+00 -0.97089201869E+03  0.97089284932E+03  0.12700000000E+01 0. -1.
     200001    2    1    2    0    0  0.54904863857E+03  0.29573527985E+03 -0.47563866631E+03  0.10513811439E+04  0.70018312298E+03 0.  0.
    5000001    2    3    3    0    0  0.26044516998E+03  0.13163088460E+03 -0.22299759408E+03  0.40019013817E+03  0.15895233054E+03 0.  0.
        -11    1    4    4    0    0  0.23963425177E+03  0.53128372823E+02 -0.15767503846E+03  0.29173381081E+03  0.51100000000E-03 0. -1.
     200002    1    4    4    0    0  0.20810918208E+02  0.78502511774E+02 -0.65322555624E+02  0.10845632736E+03  0.30000000000E+02 0. -1.
     200000    1    3    3    0    0  0.28860346859E+03  0.16410439525E+03 -0.25264107223E+03  0.65119100578E+03  0.50000000000E+03 0. -1.
    -200001    1    1    2    0    0 -0.54904863857E+03 -0.29573527985E+03  0.85214771638E+03  0.12669133726E+04  0.70000000000E+03 0.  1.
<mgrwt>
<rscale>  0 0.22875162E+04</rscale>
<asrwt>0</asrwt>
<pdfrwt beam="1">  1        4 0.19248597E+00 0.22875162E+04</pdfrwt>
<pdfrwt beam="2">  1       -4 0.13869896E+00 0.22875162E+04</pdfrwt>
<totfact> 0.98996173E-02</totfact>
</mgrwt>
</event>
<event>
 8    1  0.1287848E-011  0.1861242E+04  0.7818608E-02  0.8674393E-01
          4   -1    0    0  501    0  0.00000000000E+00  0.00000000000E+00  0.51732011830E+03  0.51732167719E+03  0.12700000000E+01 0.  1.
         -4   -1    0    0    0  501 -0.00000000000E+00 -0.00000000000E+00 -0.16741143286E+04  0.16741148103E+04  0.12700000000E+01 0. -1.
     200001    2    1    2    0    0 -0.55287887603E+01 -0.52458929323E+03 -0.95166270286E+03  0.12929358312E+04  0.70056881845E+03 0.  0.
    5000001    2    3    3    0    0 -0.17061146058E+02 -0.37429460100E+01 -0.11944498781E+03  0.19111904152E+03  0.14816980316E+03 0.  0.
        -11    1    4    4    0    0 -0.29628778344E+02 -0.43802036815E+02 -0.12829333371E+03  0.13876477367E+03  0.51100000000E-03 0. -1.
     200002    1    4    4    0    0  0.12567632286E+02  0.40059090805E+02  0.88483459003E+01  0.52354267854E+02  0.30000000000E+02 0. -1.
     200000    1    3    3    0    0  0.11532357297E+02 -0.52084634722E+03 -0.83221771505E+03  0.11018167896E+04  0.50000000000E+03 0. -1.
    -200001    1    1    2    0    0  0.55287887603E+01  0.52458929323E+03 -0.20513150741E+03  0.89850065632E+03  0.70000000000E+03 0.  1.
<mgrwt>
<rscale>  0 0.18612418E+04</rscale>
<asrwt>0</asrwt>
<pdfrwt beam="1">  1        4 0.73903021E-01 0.18612418E+04</pdfrwt>
<pdfrwt beam="2">  1       -4 0.23915933E+00 0.18612418E+04</pdfrwt>
<totfact> 0.23189855E-01</totfact>
</mgrwt>
</event>
<event>
 8    1  0.1287848E-011  0.2214945E+04  0.7818608E-02  0.8512233E-01
         -4   -1    0    0    0  501 -0.00000000000E+00  0.00000000000E+00  0.94056602986E+03  0.94056688727E+03  0.12700000000E+01 0. -1.
          4   -1    0    0  501    0  0.00000000000E+00 -0.00000000000E+00 -0.13039957961E+04  0.13039964145E+04  0.12700000000E+01 0.  1.
     200001    2    1    2    0    0  0.76276394632E+03 -0.39461452913E+03 -0.19504903150E+03  0.11239020969E+04  0.69827096046E+03 0.  0.
    5000001    2    3    3    0    0  0.22489128275E+03 -0.13758082426E+03 -0.98035287594E+02  0.33981983448E+03  0.19068830598E+03 0.  0.
        -11    1    4    4    0    0  0.69571458462E+02 -0.63835055754E+02  0.53636158215E+02  0.10859069778E+03  0.51100000000E-03 0. -1.
     200002    1    4    4    0    0  0.15531982429E+03 -0.73745768504E+02 -0.15167144581E+03  0.23122913671E+03  0.30000000000E+02 0. -1.
     200000    1    3    3    0    0  0.53787266357E+03 -0.25703370487E+03 -0.97013743906E+02  0.78408226237E+03  0.50000000000E+03 0. -1.
    -200001    1    1    2    0    0 -0.76276394632E+03  0.39461452913E+03 -0.16838073470E+03  0.11206612049E+04  0.70000000000E+03 0.  1.
<mgrwt>
<rscale>  0 0.22149454E+04</rscale>
<asrwt>0</asrwt>
<pdfrwt beam="1">  1        4 0.18628522E+00 0.22149454E+04</pdfrwt>
<pdfrwt beam="2">  1       -4 0.13436668E+00 0.22149454E+04</pdfrwt>
<totfact> 0.11909522E-01</totfact>
</mgrwt>
</event>
<event>
 8    1  0.1287848E-011  0.1970811E+04  0.7818608E-02  0.8620390E-01
          4   -1    0    0  501    0  0.00000000000E+00  0.00000000000E+00  0.72860530314E+03  0.72860640998E+03  0.12700000000E+01 0.  1.
         -4   -1    0    0    0  501 -0.00000000000E+00 -0.00000000000E+00 -0.13327134258E+04  0.13327140309E+04  0.12700000000E+01 0. -1.
     200001    2    1    2    0    0 -0.89558182410E+02  0.36173027497E+03 -0.91506681763E+03  0.12095195429E+04  0.69765377097E+03 0.  0.
    5000001    2    3    3    0    0 -0.10885335202E+03  0.76868764845E+02 -0.13484344569E+03  0.23984594134E+03  0.14691991517E+03 0.  0.
        -11    1    4    4    0    0 -0.86192874255E+02  0.10224247104E+03 -0.14070037752E+03  0.19411164492E+03  0.51100000000E-03 0. -1.
     200002    1    4    4    0    0 -0.22660477769E+02 -0.25373706198E+02  0.58569318270E+01  0.45734296424E+02  0.30000000000E+02 0. -1.
     200000    1    3    3    0    0  0.19295169614E+02  0.28486151012E+03 -0.78022337193E+03  0.96967360159E+03  0.50000000000E+03 0. -1.
    -200001    1    1    2    0    0  0.89558182410E+02 -0.36173027497E+03  0.31095869494E+03  0.85180089799E+03  0.70000000000E+03 0.  1.
<mgrwt>
<rscale>  0 0.19708108E+04</rscale>
<asrwt>0</asrwt>
<pdfrwt beam="1">  1        4 0.10408659E+00 0.19708108E+04</pdfrwt>
<pdfrwt beam="2">  1       -4 0.19038775E+00 0.19708108E+04</pdfrwt>
<totfact> 0.21483373E-01</totfact>
</mgrwt>
</event>
<event>
 8    1  0.1287848E-011  0.1600281E+04  0.7818608E-02  0.8820376E-01
         -4   -1    0    0    0  501 -0.00000000000E+00  0.00000000000E+00  0.14780119129E+04  0.14780124585E+04  0.12700000000E+01 0. -1.
          4   -1    0    0  501    0  0.00000000000E+00 -0.00000000000E+00 -0.43316438961E+03  0.43316625137E+03  0.12700000000E+01 0.  1.
     200001    2    1    2    0    0 -0.33225674355E+03 -0.11403806848E+03  0.71795178010E+03  0.10624973494E+04  0.70003330939E+03 0.  0.
    5000001    2    3    3    0    0 -0.81212245066E+02 -0.11655423947E+03  0.12458397383E+03  0.24695150468E+03  0.15900804898E+03 0.  0.
        -11    1    4    4    0    0 -0.87737938572E+02 -0.12940694064E+03  0.48161705050E+02  0.16359600235E+03  0.51100000000E-03 0. -1.
     200002    1    4    4    0    0  0.65256935058E+01  0.12852701174E+02  0.76422268780E+02  0.83355502330E+02  0.30000000000E+02 0. -1.
     200000    1    3    3    0    0 -0.25104449848E+03  0.25161709878E+01  0.59336780627E+03  0.81554584473E+03  0.50000000000E+03 0. -1.
    -200001    1    1    2    0    0  0.33225674355E+03  0.11403806848E+03  0.32689574314E+03  0.84868136045E+03  0.70000000000E+03 0.  1.
<mgrwt>
<rscale>  0 0.16002805E+04</rscale>
<asrwt>0</asrwt>
<pdfrwt beam="1">  1        4 0.61880797E-01 0.16002805E+04</pdfrwt>
<pdfrwt beam="2">  1       -4 0.21114474E+00 0.16002805E+04</pdfrwt>
<totfact> 0.52665095E-01</totfact>
</mgrwt>
</event>
<event>
 8    1  0.1287848E-011  0.1557683E+04  0.7818608E-02  0.8846975E-01
         -4   -1    0    0    0  501 -0.00000000000E+00  0.00000000000E+00  0.48337850178E+03  0.48338017014E+03  0.12700000000E+01 0.  1.
          4   -1    0    0  501    0  0.00000000000E+00 -0.00000000000E+00 -0.12549011119E+04  0.12549017546E+04  0.12700000000E+01 0. -1.
     200001    2    1    2    0    0 -0.25285879415E+03 -0.22800877470E+03 -0.32221289856E+03  0.83950231433E+03  0.69643191530E+03 0.  0.
    5000001    2    3    3    0    0 -0.12604204753E+03 -0.24957116303E+02 -0.12299543459E+03  0.25043520342E+03  0.17629650815E+03 0.  0.
        -11    1    4    4    0    0 -0.17251084764E+02  0.63220469856E+02 -0.74525858204E+02  0.99239766604E+02  0.51100000000E-03 0. -1.
     200002    1    4    4    0    0 -0.10879096277E+03 -0.88177586159E+02 -0.48469576381E+02  0.15119543682E+03  0.30000000000E+02 0. -1.
     200000    1    3    3    0    0 -0.12681674662E+03 -0.20305165839E+03 -0.19921746397E+03  0.58906711091E+03  0.50000000000E+03 0.  1.
    -200001    1    1    2    0    0  0.25285879415E+03  0.22800877470E+03 -0.44930971161E+03  0.89877961039E+03  0.70000000000E+03 0.  1.
<mgrwt>
<rscale>  0 0.15576832E+04</rscale>
<asrwt>0</asrwt>
<pdfrwt beam="1">  1        4 0.17927175E+00 0.15576832E+04</pdfrwt>
<pdfrwt beam="2">  1       -4 0.69054237E-01 0.15576832E+04</pdfrwt>
<totfact> 0.67922643E-01</totfact>
</mgrwt>
</event>
<event>
 8    1  0.1287848E-011  0.1490129E+04  0.7818608E-02  0.8891044E-01
         -4   -1    0    0    0  501 -0.00000000000E+00  0.00000000000E+00  0.45423082830E+03  0.45423260371E+03  0.12700000000E+01 0. -1.
          4   -1    0    0  501    0  0.00000000000E+00 -0.00000000000E+00 -0.12221077420E+04  0.12221084019E+04  0.12700000000E+01 0.  1.
     200001    2    1    2    0    0  0.95581625952E+02  0.23982792554E+03 -0.44674888076E+03  0.86407473483E+03  0.69309977913E+03 0.  0.
    5000001    2    3    3    0    0  0.43759633794E+02  0.30601091427E+02 -0.13739804076E+03  0.23784847446E+03  0.18666103731E+03 0.  0.
        -11    1    4    4    0    0  0.51522806672E+02 -0.62580417336E+02 -0.10859374894E+03  0.13551203102E+03  0.51100000000E-03 0. -1.
     200002    1    4    4    0    0 -0.77631728785E+01  0.93181508763E+02 -0.28804291825E+02  0.10233644344E+03  0.30000000000E+02 0. -1.
     200000    1    3    3    0    0  0.51821992158E+02  0.20922683411E+03 -0.30935083999E+03  0.62622626038E+03  0.50000000000E+03 0. -1.
    -200001    1    1    2    0    0 -0.95581625952E+02 -0.23982792554E+03 -0.32112803295E+03  0.81226627077E+03  0.70000000000E+03 0.  1.
<mgrwt>
<rscale>  0 0.14901289E+04</rscale>
<asrwt>0</asrwt>
<pdfrwt beam="1">  1        4 0.17458699E+00 0.14901289E+04</pdfrwt>
<pdfrwt beam="2">  1       -4 0.64890293E-01 0.14901289E+04</pdfrwt>
<totfact> 0.84374838E-01</totfact>
</mgrwt>
</event>
<event>
 8    1  0.1287848E-011  0.1488206E+04  0.7818608E-02  0.8892334E-01
         -4   -1    0    0    0  501 -0.00000000000E+00  0.00000000000E+00  0.22717792589E+03  0.22718147573E+03  0.12700000000E+01 0. -1.
          4   -1    0    0  501    0  0.00000000000E+00 -0.00000000000E+00 -0.24372270058E+04  0.24372273366E+04  0.12700000000E+01 0.  1.
     200001    2    1    2    0    0 -0.18662122168E+02  0.24664676488E+03 -0.10102741526E+04  0.12535074064E+04  0.69960278224E+03 0.  0.
    5000001    2    3    3    0    0 -0.94702818258E+02  0.96214806481E+02 -0.44964034617E+03  0.48362285235E+03  0.11614090425E+03 0.  0.
        -11    1    4    4    0    0 -0.57901504528E+02  0.66048288802E+02 -0.11722211297E+03  0.14647861431E+03  0.51100000000E-03 0. -1.
     200002    1    4    4    0    0 -0.36801313730E+02  0.30166517679E+02 -0.33241823320E+03  0.33714423804E+03  0.30000000000E+02 0. -1.
     200000    1    3    3    0    0  0.76040696091E+02  0.15043195840E+03 -0.56063380644E+03  0.76988455400E+03  0.50000000000E+03 0. -1.
    -200001    1    1    2    0    0  0.18662122168E+02 -0.24664676488E+03 -0.11997749272E+04  0.14109014060E+04  0.70000000000E+03 0.  1.
<mgrwt>
<rscale>  0 0.14882061E+04</rscale>
<asrwt>0</asrwt>
<pdfrwt beam="1">  1        4 0.34817555E+00 0.14882061E+04</pdfrwt>
<pdfrwt beam="2">  1       -4 0.32454268E-01 0.14882061E+04</pdfrwt>
<totfact> 0.27670487E-01</totfact>
</mgrwt>
</event>
<event>
 8    1  0.1287848E-011  0.2121191E+04  0.7818608E-02  0.8551966E-01
          4   -1    0    0  501    0  0.00000000000E+00  0.00000000000E+00  0.84496332938E+03  0.84496428380E+03  0.12700000000E+01 0.  1.
         -4   -1    0    0    0  501 -0.00000000000E+00 -0.00000000000E+00 -0.13312545066E+04  0.13312551124E+04  0.12700000000E+01 0. -1.
     200001    2    1    2    0    0 -0.77612614838E+03  0.10738562351E+03 -0.96208061057E+02  0.10554748634E+04  0.70061953001E+03 0.  0.
    5000001    2    3    3    0    0 -0.35401597443E+03  0.30936142604E+01 -0.92039185019E+02  0.39285038322E+03  0.14325966430E+03 0.  0.
        -11    1    4    4    0    0 -0.15293296714E+03  0.42782099175E+01 -0.11046621341E+03  0.18870500741E+03  0.51100000000E-03 0. -1.
     200002    1    4    4    0    0 -0.20108300730E+03 -0.11845956571E+01  0.18427028386E+02  0.20414537581E+03  0.30000000000E+02 0. -1.
     200000    1    3    3    0    0 -0.42211017394E+03  0.10429200925E+03 -0.41688760373E+01  0.66262448013E+03  0.50000000000E+03 0.  1.
    -200001    1    1    2    0    0  0.77612614838E+03 -0.10738562351E+03 -0.39008311613E+03  0.11207445328E+04  0.70000000000E+03 0.  1.
<mgrwt>
<rscale>  0 0.21211911E+04</rscale>
<asrwt>0</asrwt>
<pdfrwt beam="1">  1        4 0.12070916E+00 0.21211911E+04</pdfrwt>
<pdfrwt beam="2">  1       -4 0.19017933E+00 0.21211911E+04</pdfrwt>
<totfact> 0.14816670E-01</totfact>
</mgrwt>
</event>
<event>
 8    1  0.1287848E-011  0.1425217E+04  0.7818608E-02  0.8935765E-01
          4   -1    0    0  501    0  0.00000000000E+00  0.00000000000E+00  0.17877565708E+04  0.17877570219E+04  0.12700000000E+01 0.  1.
         -4   -1    0    0    0  501 -0.00000000000E+00 -0.00000000000E+00 -0.28404747556E+03  0.28405031468E+03  0.12700000000E+01 0. -1.
     200001    2    1    2    0    0 -0.91168227220E+02  0.26034112188E+02  0.61771554327E+03  0.93868157357E+03  0.70040073067E+03 0.  0.
    5000001    2    3    3    0    0 -0.12547412410E+02 -0.62049273757E+01  0.55141409361E+02  0.18124494630E+03  0.17208491175E+03 0.  0.
        -11    1    4    4    0    0  0.35067647897E+02 -0.63376247446E+02  0.68763528413E+02  0.99873477507E+02  0.51100000000E-03 0. -1.
     200002    1    4    4    0    0 -0.47615060306E+02  0.57171320071E+02 -0.13622119052E+02  0.81371468796E+02  0.30000000000E+02 0. -1.
     200000    1    3    3    0    0 -0.78620814810E+02  0.32239039564E+02  0.56257413391E+03  0.75743662727E+03  0.50000000000E+03 0. -1.
    -200001    1    1    2    0    0  0.91168227220E+02 -0.26034112188E+02  0.88599355198E+03  0.11331257630E+04  0.70000000000E+03 0.  1.
<mgrwt>
<rscale>  0 0.14252174E+04</rscale>
<asrwt>0</asrwt>
<pdfrwt beam="1">  1        4 0.25539403E+00 0.14252174E+04</pdfrwt>
<pdfrwt beam="2">  1       -4 0.40578446E-01 0.14252174E+04</pdfrwt>
<totfact> 0.67845252E-01</totfact>
</mgrwt>
</event>
<event>
 8    1  0.1287848E-011  0.1700764E+04  0.7818608E-02  0.8760929E-01
          4   -1    0    0  501    0  0.00000000000E+00  0.00000000000E+00  0.92670979477E+03  0.92671066500E+03  0.12700000000E+01 0.  1.
         -4   -1    0    0    0  501 -0.00000000000E+00 -0.00000000000E+00 -0.78033903637E+03  0.78034006983E+03  0.12700000000E+01 0. -1.
     200001    2    1    2    0    0 -0.27913257614E+03 -0.22148373519E+03  0.40022224271E+03  0.88157474117E+03  0.70001867167E+03 0.  0.
    5000001    2    3    3    0    0 -0.73708077855E+02  0.11532661170E+02  0.78871369592E+02  0.21093158037E+03  0.18084677393E+03 0.  0.
        -11    1    4    4    0    0 -0.70864530966E+02  0.84982596965E+02  0.20852155254E+02  0.11259944900E+03  0.51100000000E-03 0. -1.
     200002    1    4    4    0    0 -0.28435468889E+01 -0.73449935795E+02  0.58019214338E+02  0.98332131369E+02  0.30000000000E+02 0. -1.
     200000    1    3    3    0    0 -0.20542449829E+03 -0.23301639636E+03  0.32135087312E+03  0.67064316080E+03  0.50000000000E+03 0.  1.
    -200001    1    1    2    0    0  0.27913257614E+03  0.22148373519E+03 -0.25385148431E+03  0.82547599366E+03  0.70000000000E+03 0. -1.
<mgrwt>
<rscale>  0 0.17007639E+04</rscale>
<asrwt>0</asrwt>
<pdfrwt beam="1">  1        4 0.13238725E+00 0.17007639E+04</pdfrwt>
<pdfrwt beam="2">  1       -4 0.11147714E+00 0.17007639E+04</pdfrwt>
<totfact> 0.50253709E-01</totfact>
</mgrwt>
</event>
<event>
 8    1  0.1287848E-011  0.2161581E+04  0.7818608E-02  0.8534591E-01
          4   -1    0    0  501    0  0.00000000000E+00  0.00000000000E+00  0.10226291579E+04  0.10226299465E+04  0.12700000000E+01 0.  1.
         -4   -1    0    0    0  501 -0.00000000000E+00 -0.00000000000E+00 -0.11422583587E+04  0.11422590647E+04  0.12700000000E+01 0. -1.
     200001    2    1    2    0    0  0.48962210438E+03  0.25738952620E+02 -0.72226092220E+03  0.11191561149E+04  0.70032654602E+03 0.  0.
    5000001    2    3    3    0    0  0.66446506916E+02  0.55257997542E+02 -0.20855015650E+03  0.28618089855E+03  0.17589131401E+03 0.  0.
        -11    1    4    4    0    0  0.72882910968E+02  0.99776023688E+02 -0.19431212752E+03  0.23027022499E+03  0.51100000000E-03 0. -1.
     200002    1    4    4    0    0 -0.64364040520E+01 -0.44518026146E+02 -0.14238028982E+02  0.55910673563E+02  0.30000000000E+02 0. -1.
     200000    1    3    3    0    0  0.42317559746E+03 -0.29519044922E+02 -0.51371076569E+03  0.83297521637E+03  0.50000000000E+03 0. -1.
    -200001    1    1    2    0    0 -0.48962210438E+03 -0.25738952620E+02  0.60263172139E+03  0.10457328963E+04  0.70000000000E+03 0.  1.
<mgrwt>
<rscale>  0 0.21615812E+04</rscale>
<asrwt>0</asrwt>
<pdfrwt beam="1">  1        4 0.14608999E+00 0.21615812E+04</pdfrwt>
<pdfrwt beam="2">  1       -4 0.16317987E+00 0.21615812E+04</pdfrwt>
<totfact> 0.14009321E-01</totfact>
</mgrwt>
</event>
<event>
 8    1  0.1287848E-011  0.1744897E+04  0.7818608E-02  0.8736164E-01
          4   -1    0    0  501    0  0.00000000000E+00  0.00000000000E+00  0.87993173964E+03  0.87993265613E+03  0.12700000000E+01 0.  1.
         -4   -1    0    0    0  501 -0.00000000000E+00 -0.00000000000E+00 -0.86502689657E+03  0.86502782885E+03  0.12700000000E+01 0. -1.
     200001    2    1    2    0    0  0.36885893260E+03  0.11817664497E+03 -0.34188597809E+03  0.86899112386E+03  0.69873952211E+03 0.  0.
    5000001    2    3    3    0    0  0.14046391656E+03  0.31738819282E+01  0.22626838505E+02  0.19946927035E+03  0.13977063574E+03 0.  0.
        -11    1    4    4    0    0  0.73541278682E+02  0.58502534033E+02  0.46067569630E+02  0.10465699752E+03  0.51100000000E-03 0. -1.
     200002    1    4    4    0    0  0.66922637874E+02 -0.55328652105E+02 -0.23440731125E+02  0.94812272831E+02  0.30000000000E+02 0. -1.
     200000    1    3    3    0    0  0.22839501605E+03  0.11500276304E+03 -0.36451281659E+03  0.66952185351E+03  0.50000000000E+03 0. -1.
    -200001    1    1    2    0    0 -0.36885893260E+03 -0.11817664497E+03  0.35679082116E+03  0.87596936113E+03  0.70000000000E+03 0.  1.
<mgrwt>
<rscale>  0 0.17448968E+04</rscale>
<asrwt>0</asrwt>
<pdfrwt beam="1">  1        4 0.12570467E+00 0.17448968E+04</pdfrwt>
<pdfrwt beam="2">  1       -4 0.12357540E+00 0.17448968E+04</pdfrwt>
<totfact> 0.44274982E-01</totfact>
</mgrwt>
</event>
<event>
 8    1  0.1287848E-011  0.1646693E+04  0.7818608E-02  0.8792365E-01
          4   -1    0    0  501    0  0.00000000000E+00  0.00000000000E+00  0.76677479095E+03  0.76677584269E+03  0.12700000000E+01 0.  1.
         -4   -1    0    0    0  501 -0.00000000000E+00 -0.00000000000E+00 -0.88409035101E+03  0.88409126319E+03  0.12700000000E+01 0. -1.
     200001    2    1    2    0    0 -0.31438026234E+03  0.21901168509E+03 -0.25958665261E+03  0.84028575196E+03  0.70135144341E+03 0.  0.
    5000001    2    3    3    0    0 -0.12393030525E+03  0.38735811183E+02 -0.23563502247E+02  0.22834008086E+03  0.18634583511E+03 0.  0.
        -11    1    4    4    0    0 -0.80190050716E+02  0.11097895391E+03 -0.62593721607E+01  0.13706185533E+03  0.51100000000E-03 0. -1.
     200002    1    4    4    0    0 -0.43740254537E+02 -0.72243142731E+02 -0.17304130087E+02  0.91278225535E+02  0.30000000000E+02 0. -1.
     200000    1    3    3    0    0 -0.19044995709E+03  0.18027587391E+03 -0.23602315036E+03  0.61194567110E+03  0.50000000000E+03 0. -1.
    -200001    1    1    2    0    0  0.31438026234E+03 -0.21901168509E+03  0.14227109254E+03  0.81058135392E+03  0.70000000000E+03 0. -1.
<mgrwt>
<rscale>  0 0.16466934E+04</rscale>
<asrwt>0</asrwt>
<pdfrwt beam="1">  1        4 0.10953940E+00 0.16466934E+04</pdfrwt>
<pdfrwt beam="2">  1       -4 0.12629876E+00 0.16466934E+04</pdfrwt>
<totfact> 0.59352558E-01</totfact>
</mgrwt>
</event>
<event>
 8    1  0.1287848E-011  0.1456117E+04  0.7818608E-02  0.8914171E-01
         -4   -1    0    0    0  501 -0.00000000000E+00  0.00000000000E+00  0.15455080337E+04  0.15455085555E+04  0.12700000000E+01 0. -1.
          4   -1    0    0  501    0  0.00000000000E+00 -0.00000000000E+00 -0.34297224593E+03  0.34297459728E+03  0.12700000000E+01 0.  1.
     200001    2    1    2    0    0  0.67445316700E+02  0.13761863080E+03  0.77057585076E+03  0.10517770243E+04  0.69925675450E+03 0.  0.
    5000001    2    3    3    0    0 -0.14897456947E+02 -0.63735544111E+02  0.97174101328E+02  0.18529346859E+03  0.14355037348E+03 0.  0.
        -11    1    4    4    0    0  0.27915143217E+01  0.10383340709E+02  0.10265541441E+03  0.10321695803E+03  0.51100000000E-03 0. -1.
     200002    1    4    4    0    0 -0.17688971269E+02 -0.74118884819E+02 -0.54813130872E+01  0.82076510553E+02  0.30000000000E+02 0. -1.
     200000    1    3    3    0    0  0.82342773647E+02  0.20135417491E+03  0.67340174943E+03  0.86648355568E+03  0.50000000000E+03 0. -1.
    -200001    1    1    2    0    0 -0.67445316700E+02 -0.13761863080E+03  0.43195993697E+03  0.83670612848E+03  0.70000000000E+03 0.  1.
<mgrwt>
<rscale>  0 0.14561169E+04</rscale>
<asrwt>0</asrwt>
<pdfrwt beam="1">  1        4 0.48996240E-01 0.14561169E+04</pdfrwt>
<pdfrwt beam="2">  1       -4 0.22078707E+00 0.14561169E+04</pdfrwt>
<totfact> 0.75713898E-01</totfact>
</mgrwt>
</event>
<event>
 8    1  0.1287848E-011  0.1896894E+04  0.7818608E-02  0.8656404E-01
          4   -1    0    0  501    0  0.00000000000E+00  0.00000000000E+00  0.21718260817E+04  0.21718264530E+04  0.12700000000E+01 0.  1.
         -4   -1    0    0    0  501 -0.00000000000E+00 -0.00000000000E+00 -0.41419013414E+03  0.41419208119E+03  0.12700000000E+01 0. -1.
     200001    2    1    2    0    0 -0.41241850926E+03  0.49064114829E+03  0.89963015937E+03  0.13065687713E+04  0.69783219141E+03 0.  0.
    5000001    2    3    3    0    0 -0.11785620053E+03  0.44342913136E+02  0.16511126587E+03  0.26952148536E+03  0.17182468682E+03 0.  0.
        -11    1    4    4    0    0 -0.96387065176E+02 -0.34581735560E+02  0.26451873598E+02  0.10576419236E+03  0.51100000000E-03 0. -1.
     200002    1    4    4    0    0 -0.21469135356E+02  0.78924648695E+02  0.13865939227E+03  0.16375729300E+03  0.30000000000E+02 0. -1.
     200000    1    3    3    0    0 -0.29456230872E+03  0.44629823516E+03  0.73451889350E+03  0.10370472860E+04  0.50000000000E+03 0.  1.
    -200001    1    1    2    0    0  0.41241850926E+03 -0.49064114829E+03  0.85800578817E+03  0.12794497629E+04  0.70000000000E+03 0. -1.
<mgrwt>
<rscale>  0 0.18968942E+04</rscale>
<asrwt>0</asrwt>
<pdfrwt beam="1">  1        4 0.31026103E+00 0.18968942E+04</pdfrwt>
<pdfrwt beam="2">  1       -4 0.59170186E-01 0.18968942E+04</pdfrwt>
<totfact> 0.13615070E-01</totfact>
</mgrwt>
</event>
<event>
 8    1  0.1287848E-011  0.1633782E+04  0.7818608E-02  0.8800059E-01
         -4   -1    0    0    0  501 -0.00000000000E+00  0.00000000000E+00  0.77471599313E+03  0.77471703409E+03  0.12700000000E+01 0. -1.
          4   -1    0    0  501    0  0.00000000000E+00 -0.00000000000E+00 -0.86136030341E+03  0.86136123966E+03  0.12700000000E+01 0.  1.
     200001    2    1    2    0    0 -0.27191270146E+03  0.15917866081E+03  0.23762391348E+03  0.80275706064E+03  0.69905608565E+03 0.  0.
    5000001    2    3    3    0    0 -0.80126798813E+02  0.11759796147E+03  0.15009416003E+02  0.22132090637E+03  0.16884334928E+03 0.  0.
        -11    1    4    4    0    0 -0.65641585301E+02  0.11322097739E+03 -0.56317397544E+02  0.14247616190E+03  0.51100000000E-03 0. -1.
     200002    1    4    4    0    0 -0.14485213512E+02  0.43769840759E+01  0.71326813547E+02  0.78844744472E+02  0.30000000000E+02 0. -1.
     200000    1    3    3    0    0 -0.19178590264E+03  0.41580699344E+02  0.22261449747E+03  0.58143615427E+03  0.50000000000E+03 0. -1.
    -200001    1    1    2    0    0  0.27191270146E+03 -0.15917866081E+03 -0.32426822376E+03  0.83332121311E+03  0.70000000000E+03 0.  1.
<mgrwt>
<rscale>  0 0.16337824E+04</rscale>
<asrwt>0</asrwt>
<pdfrwt beam="1">  1        4 0.12305161E+00 0.16337824E+04</pdfrwt>
<pdfrwt beam="2">  1       -4 0.11067385E+00 0.16337824E+04</pdfrwt>
<totfact> 0.61869082E-01</totfact>
</mgrwt>
</event>
<event>
 8    1  0.1287848E-011  0.1532388E+04  0.7818608E-02  0.8863196E-01
          4   -1    0    0  501    0  0.00000000000E+00  0.00000000000E+00  0.11580731036E+04  0.11580738000E+04  0.12700000000E+01 0. -1.
         -4   -1    0    0    0  501 -0.00000000000E+00 -0.00000000000E+00 -0.50692106807E+03  0.50692265895E+03  0.12700000000E+01 0.  1.
     200001    2    1    2    0    0 -0.20781760551E+03 -0.22354705443E+03  0.26579377519E+03  0.80962377317E+03  0.70120102713E+03 0.  0.
    5000001    2    3    3    0    0 -0.74789501293E+02 -0.16479258801E+03  0.50696410265E+02  0.24622742934E+03  0.15908411103E+03 0.  0.
        -11    1    4    4    0    0 -0.78876948875E+02 -0.90053834314E+02  0.96253351188E+02  0.15360981008E+03  0.51100000000E-03 0. -1.
     200002    1    4    4    0    0  0.40874475820E+01 -0.74738753694E+02 -0.45556940923E+02  0.92617619262E+02  0.30000000000E+02 0. -1.
     200000    1    3    3    0    0 -0.13302810422E+03 -0.58754466420E+02  0.21509736492E+03  0.56339634382E+03  0.50000000000E+03 0.  1.
    -200001    1    1    2    0    0  0.20781760551E+03  0.22354705443E+03  0.38535826033E+03  0.85537268574E+03  0.70000000000E+03 0. -1.
<mgrwt>
<rscale>  0 0.15323884E+04</rscale>
<asrwt>0</asrwt>
<pdfrwt beam="1">  1        4 0.16543918E+00 0.15323884E+04</pdfrwt>
<pdfrwt beam="2">  1       -4 0.72417460E-01 0.15323884E+04</pdfrwt>
<totfact> 0.76810015E-01</totfact>
</mgrwt>
</event>
<event>
 8    1  0.1287848E-011  0.2559633E+04  0.7818608E-02  0.8382044E-01
         -4   -1    0    0    0  501 -0.00000000000E+00  0.00000000000E+00  0.16019204120E+04  0.16019209154E+04  0.12700000000E+01 0. -1.
          4   -1    0    0  501    0  0.00000000000E+00 -0.00000000000E+00 -0.10224778953E+04  0.10224786840E+04  0.12700000000E+01 0.  1.
     200001    2    1    2    0    0  0.34360177529E+03 -0.15714258162E+03 -0.73918365109E+03  0.10844220213E+04  0.69772679413E+03 0.  0.
    5000001    2    3    3    0    0  0.68422965500E+02 -0.48805299515E+02 -0.16251799796E+03  0.26588453310E+03  0.19292181269E+03 0.  0.
        -11    1    4    4    0    0  0.36579442041E+02 -0.55332024722E+02  0.26746576436E+02  0.71519702818E+02  0.51100000000E-03 0. -1.
     200002    1    4    4    0    0  0.31843523459E+02  0.65267252063E+01 -0.18926457440E+03  0.19436483028E+03  0.30000000000E+02 0. -1.
     200000    1    3    3    0    0  0.27517880979E+03 -0.10833728211E+03 -0.57666565313E+03  0.81853748818E+03  0.50000000000E+03 0.  1.
    -200001    1    1    2    0    0 -0.34360177529E+03  0.15714258162E+03  0.13186261678E+04  0.15399775782E+04  0.70000000000E+03 0. -1.
<mgrwt>
<rscale>  0 0.25596327E+04</rscale>
<asrwt>0</asrwt>
<pdfrwt beam="1">  1        4 0.14606836E+00 0.25596327E+04</pdfrwt>
<pdfrwt beam="2">  1       -4 0.22884587E+00 0.25596327E+04</pdfrwt>
<totfact> 0.48986797E-02</totfact>
</mgrwt>
</event>
<event>
 8    1  0.1287848E-011  0.1645451E+04  0.7818608E-02  0.8793102E-01
         -4   -1    0    0    0  501 -0.00000000000E+00  0.00000000000E+00  0.18401376823E+04  0.18401381205E+04  0.12700000000E+01 0. -1.
          4   -1    0    0  501    0  0.00000000000E+00 -0.00000000000E+00 -0.36783899663E+03  0.36784118902E+03  0.12700000000E+01 0.  1.
     200001    2    1    2    0    0 -0.40438998394E+03 -0.15239441624E+03  0.74095016385E+03  0.11072404770E+04  0.70015641919E+03 0.  0.
    5000001    2    3    3    0    0 -0.20269018357E+03 -0.42568285536E+02  0.83663927584E+02  0.25005334172E+03  0.11239062008E+03 0.  0.
        -11    1    4    4    0    0 -0.17261680238E+03 -0.20765756432E+02  0.26984210389E+02  0.17594295870E+03  0.51100000000E-03 0. -1.
     200002    1    4    4    0    0 -0.30073381187E+02 -0.21802529104E+02  0.56679717195E+02  0.74110383029E+02  0.30000000000E+02 0. -1.
     200000    1    3    3    0    0 -0.20169980037E+03 -0.10982613070E+03  0.65728623626E+03  0.85718713525E+03  0.50000000000E+03 0. -1.
    -200001    1    1    2    0    0  0.40438998394E+03  0.15239441624E+03  0.73134852181E+03  0.11007388326E+04  0.70000000000E+03 0. -1.
<mgrwt>
<rscale>  0 0.16454511E+04</rscale>
<asrwt>0</asrwt>
<pdfrwt beam="1">  1        4 0.52548616E-01 0.16454511E+04</pdfrwt>
<pdfrwt beam="2">  1       -4 0.26287700E+00 0.16454511E+04</pdfrwt>
<totfact> 0.35201882E-01</totfact>
</mgrwt>
</event>
<event>
 8    1  0.1287848E-011  0.1495876E+04  0.7818608E-02  0.8887200E-01
          4   -1    0    0  501    0  0.00000000000E+00  0.00000000000E+00  0.19842592661E+04  0.19842596725E+04  0.12700000000E+01 0.  1.
         -4   -1    0    0    0  501 -0.00000000000E+00 -0.00000000000E+00 -0.28192262041E+03  0.28192548093E+03  0.12700000000E+01 0. -1.
     200001    2    1    2    0    0 -0.10092817955E+03 -0.12773504485E+03  0.54950911267E+03  0.90768816781E+03  0.70387129930E+03 0.  0.
    5000001    2    3    3    0    0 -0.76048914219E+02 -0.87384243261E+02  0.12560146169E+03  0.25046304535E+03  0.18312991723E+03 0.  0.
        -11    1    4    4    0    0 -0.10080208564E+03  0.10503093968E+02  0.24075331142E+02  0.10416811903E+03  0.51100000000E-03 0. -1.
     200002    1    4    4    0    0  0.24753171418E+02 -0.97887337229E+02  0.10152613055E+03  0.14629492633E+03  0.30000000000E+02 0. -1.
     200000    1    3    3    0    0 -0.24879265328E+02 -0.40350801591E+02  0.42390765098E+03  0.65722512246E+03  0.50000000000E+03 0. -1.
    -200001    1    1    2    0    0  0.10092817955E+03  0.12773504485E+03  0.11528275330E+04  0.13584969856E+04  0.70000000000E+03 0.  1.
<mgrwt>
<rscale>  0 0.14958760E+04</rscale>
<asrwt>0</asrwt>
<pdfrwt beam="1">  1        4 0.28346584E+00 0.14958760E+04</pdfrwt>
<pdfrwt beam="2">  1       -4 0.40274893E-01 0.14958760E+04</pdfrwt>
<totfact> 0.45991810E-01</totfact>
</mgrwt>
</event>
<event>
 8    1  0.1287848E-011  0.1895280E+04  0.7818608E-02  0.8657209E-01
         -4   -1    0    0    0  501 -0.00000000000E+00  0.00000000000E+00  0.77655232855E+03  0.77655336705E+03  0.12700000000E+01 0. -1.
          4   -1    0    0  501    0  0.00000000000E+00 -0.00000000000E+00 -0.11564190001E+04  0.11564196975E+04  0.12700000000E+01 0.  1.
     200001    2    1    2    0    0 -0.38567600071E+03  0.23701233366E+03 -0.64735006468E+03  0.10574913746E+04  0.70306833043E+03 0.  0.
    5000001    2    3    3    0    0 -0.98069454502E+02  0.67643206667E+02 -0.21312532597E+03  0.31590216869E+03  0.20044588870E+03 0.  0.
        -11    1    4    4    0    0 -0.29335049815E+01 -0.64261825527E+02 -0.36600266723E+02  0.74011939550E+02  0.51100000000E-03 0. -1.
     200002    1    4    4    0    0 -0.95135949521E+02  0.13190503219E+03 -0.17652505925E+03  0.24189022914E+03  0.30000000000E+02 0. -1.
     200000    1    3    3    0    0 -0.28760654621E+03  0.16936912700E+03 -0.43422473871E+03  0.74158920590E+03  0.50000000000E+03 0.  1.
    -200001    1    1    2    0    0  0.38567600071E+03 -0.23701233366E+03  0.26748339311E+03  0.87548168994E+03  0.70000000000E+03 0.  1.
<mgrwt>
<rscale>  0 0.18952800E+04</rscale>
<asrwt>0</asrwt>
<pdfrwt beam="1">  1        4 0.16520284E+00 0.18952800E+04</pdfrwt>
<pdfrwt beam="2">  1       -4 0.11093617E+00 0.18952800E+04</pdfrwt>
<totfact> 0.27799306E-01</totfact>
</mgrwt>
</event>
<event>
 8    1  0.1287848E-011  0.2304085E+04  0.7818608E-02  0.8476312E-01
         -4   -1    0    0    0  501 -0.00000000000E+00  0.00000000000E+00  0.43177083538E+03  0.43177270315E+03  0.12700000000E+01 0. -1.
          4   -1    0    0  501    0  0.00000000000E+00 -0.00000000000E+00 -0.30738483271E+04  0.30738485894E+04  0.12700000000E+01 0.  1.
     200001    2    1    2    0    0 -0.73843230249E+03  0.48634424011E+03 -0.96499726627E+03  0.14846286979E+04  0.70077789739E+03 0.  0.
    5000001    2    3    3    0    0 -0.15097138757E+03  0.20153174766E+03 -0.31248619154E+03  0.43486720829E+03  0.16749466787E+03 0.  0.
        -11    1    4    4    0    0  0.23532446272E+02  0.80949901398E+02 -0.58546733040E+02  0.10263714003E+03  0.51100000000E-03 0. -1.
     200002    1    4    4    0    0 -0.17450383384E+03  0.12058184626E+03 -0.25393945850E+03  0.33223006826E+03  0.30000000000E+02 0. -1.
     200000    1    3    3    0    0 -0.58746091493E+03  0.28481249245E+03 -0.65251107473E+03  0.10497614896E+04  0.50000000000E+03 0. -1.
    -200001    1    1    2    0    0  0.73843230249E+03 -0.48634424011E+03 -0.16770802254E+04  0.20209925947E+04  0.70000000000E+03 0.  1.
<mgrwt>
<rscale>  0 0.23040849E+04</rscale>
<asrwt>0</asrwt>
<pdfrwt beam="1">  1        4 0.43912133E+00 0.23040849E+04</pdfrwt>
<pdfrwt beam="2">  1       -4 0.61681702E-01 0.23040849E+04</pdfrwt>
<totfact> 0.16121179E-02</totfact>
</mgrwt>
</event>
<event>
 8    1  0.1287848E-011  0.1692247E+04  0.7818608E-02  0.8765799E-01
         -4   -1    0    0    0  501 -0.00000000000E+00  0.00000000000E+00  0.44313028329E+03  0.44313210318E+03  0.12700000000E+01 0. -1.
          4   -1    0    0  501    0  0.00000000000E+00 -0.00000000000E+00 -0.16156024552E+04  0.16156029544E+04  0.12700000000E+01 0.  1.
     200001    2    1    2    0    0  0.58347750984E+02  0.24199697382E+02 -0.11589946725E+04  0.13557615670E+04  0.70059309908E+03 0.  0.
    5000001    2    3    3    0    0 -0.19174270291E+02 -0.28336969641E+02 -0.31407217074E+03  0.36952437495E+03  0.19166715617E+03 0.  0.
        -11    1    4    4    0    0  0.44723659974E+02 -0.68756534999E+01 -0.28760137221E+03  0.29113919294E+03  0.51100000000E-03 0. -1.
     200002    1    4    4    0    0 -0.63897930264E+02 -0.21461316141E+02 -0.26470798536E+02  0.78385182004E+02  0.30000000000E+02 0. -1.
     200000    1    3    3    0    0  0.77522021274E+02  0.52536667023E+02 -0.84492250172E+03  0.98623719210E+03  0.50000000000E+03 0.  1.
    -200001    1    1    2    0    0 -0.58347750984E+02 -0.24199697382E+02 -0.13477499484E+02  0.70297349053E+03  0.70000000000E+03 0. -1.
<mgrwt>
<rscale>  0 0.16922467E+04</rscale>
<asrwt>0</asrwt>
<pdfrwt beam="1">  1        4 0.23080051E+00 0.16922467E+04</pdfrwt>
<pdfrwt beam="2">  1       -4 0.63304493E-01 0.16922467E+04</pdfrwt>
<totfact> 0.37302712E-01</totfact>
</mgrwt>
</event>
<event>
 8    1  0.1287848E-011  0.1657512E+04  0.7818608E-02  0.8785975E-01
         -4   -1    0    0    0  501 -0.00000000000E+00  0.00000000000E+00  0.28763564616E+03  0.28763844986E+03  0.12700000000E+01 0. -1.
          4   -1    0    0  501    0  0.00000000000E+00 -0.00000000000E+00 -0.23878558827E+04  0.23878562204E+04  0.12700000000E+01 0.  1.
     200001    2    1    2    0    0  0.17391006537E+03 -0.20071578196E+03 -0.16250683111E+04  0.17887585832E+04  0.69876943060E+03 0.  0.
    5000001    2    3    3    0    0  0.62746473119E+02 -0.26592677687E+02 -0.35380822215E+03  0.40717311225E+03  0.18964544519E+03 0.  0.
        -11    1    4    4    0    0 -0.45233866249E+02  0.47461102114E+02 -0.14129916487E+03  0.15576942210E+03  0.51100000000E-03 0. -1.
     200002    1    4    4    0    0  0.10798033937E+03 -0.74053779801E+02 -0.21250905728E+03  0.25140369015E+03  0.30000000000E+02 0. -1.
     200000    1    3    3    0    0  0.11116359226E+03 -0.17412310428E+03 -0.12712600889E+04  0.13815854709E+04  0.50000000000E+03 0.  1.
    -200001    1    1    2    0    0 -0.17391006537E+03  0.20071578196E+03 -0.47515192545E+03  0.88673608713E+03  0.70000000000E+03 0. -1.
<mgrwt>
<rscale>  0 0.16575122E+04</rscale>
<asrwt>0</asrwt>
<pdfrwt beam="1">  1        4 0.34112248E+00 0.16575122E+04</pdfrwt>
<pdfrwt beam="2">  1       -4 0.41091032E-01 0.16575122E+04</pdfrwt>
<totfact> 0.18930230E-01</totfact>
</mgrwt>
</event>
<event>
 8    1  0.1287848E-011  0.1978891E+04  0.7818608E-02  0.8616554E-01
          4   -1    0    0  501    0  0.00000000000E+00  0.00000000000E+00  0.34786288382E+03  0.34786520211E+03  0.12700000000E+01 0.  1.
         -4   -1    0    0    0  501 -0.00000000000E+00 -0.00000000000E+00 -0.28143236666E+04  0.28143239532E+04  0.12700000000E+01 0. -1.
     200001    2    1    2    0    0  0.29885422438E+03 -0.24047422594E+03 -0.21676878730E+04  0.23098940465E+04  0.69971286305E+03 0.  0.
    5000001    2    3    3    0    0  0.14888594103E+03 -0.64197219159E+02 -0.38282604755E+03  0.44192836027E+03  0.14985521860E+03 0.  0.
        -11    1    4    4    0    0  0.13758733862E+02 -0.74254741474E+02 -0.18909402180E+03  0.20361635119E+03  0.51100000000E-03 0. -1.
     200002    1    4    4    0    0  0.13512720717E+03  0.10057522315E+02 -0.19373202575E+03  0.23831200908E+03  0.30000000000E+02 0. -1.
     200000    1    3    3    0    0  0.14996828334E+03 -0.17627700678E+03 -0.17848618254E+04  0.18679656863E+04  0.50000000000E+03 0. -1.
    -200001    1    1    2    0    0 -0.29885422438E+03  0.24047422594E+03 -0.29877290981E+03  0.85229510875E+03  0.70000000000E+03 0. -1.
<mgrwt>
<rscale>  0 0.19788915E+04</rscale>
<asrwt>0</asrwt>
<pdfrwt beam="1">  1        4 0.49694885E-01 0.19788915E+04</pdfrwt>
<pdfrwt beam="2">  1       -4 0.40204641E+00 0.19788915E+04</pdfrwt>
<totfact> 0.48590780E-02</totfact>
</mgrwt>
</event>
<event>
 8    1  0.1287848E-011  0.1685644E+04  0.7818608E-02  0.8769595E-01
         -4   -1    0    0    0  501 -0.00000000000E+00  0.00000000000E+00  0.54156329417E+03  0.54156478328E+03  0.12700000000E+01 0.  1.
          4   -1    0    0  501    0  0.00000000000E+00 -0.00000000000E+00 -0.13116595443E+04  0.13116601591E+04  0.12700000000E+01 0. -1.
     200001    2    1    2    0    0  0.40954115854E+03 -0.22816273287E+03 -0.41554402257E+03  0.93917380857E+03  0.69970594882E+03 0.  0.
    5000001    2    3    3    0    0  0.24618780954E+02 -0.16348788006E+02 -0.17265605193E+02  0.16350887979E+03  0.15988647661E+03 0.  0.
        -11    1    4    4    0    0  0.45158108582E+02 -0.16170098674E+01 -0.78622832032E+02  0.90683070133E+02  0.51100000000E-03 0. -1.
     200002    1    4    4    0    0 -0.20539327628E+02 -0.14731778138E+02  0.61357226839E+02  0.72825809655E+02  0.30000000000E+02 0. -1.
     200000    1    3    3    0    0  0.38492237758E+03 -0.21181394486E+03 -0.39827841737E+03  0.77566492879E+03  0.50000000000E+03 0. -1.
    -200001    1    1    2    0    0 -0.40954115854E+03  0.22816273287E+03 -0.35455222757E+03  0.91405113384E+03  0.70000000000E+03 0. -1.
<mgrwt>
<rscale>  0 0.16856436E+04</rscale>
<asrwt>0</asrwt>
<pdfrwt beam="1">  1        4 0.18738008E+00 0.16856436E+04</pdfrwt>
<pdfrwt beam="2">  1       -4 0.77366336E-01 0.16856436E+04</pdfrwt>
<totfact> 0.45919796E-01</totfact>
</mgrwt>
</event>
<event>
 8    1  0.1287848E-011  0.2068169E+04  0.7818608E-02  0.8575396E-01
          4   -1    0    0  501    0  0.00000000000E+00  0.00000000000E+00  0.78825026026E+03  0.78825128335E+03  0.12700000000E+01 0.  1.
         -4   -1    0    0    0  501 -0.00000000000E+00 -0.00000000000E+00 -0.13565863368E+04  0.13565869312E+04  0.12700000000E+01 0. -1.
     200001    2    1    2    0    0  0.74315502236E+03 -0.95997681339E+02 -0.14888986418E+03  0.10369437850E+04  0.70113428066E+03 0.  0.
    5000001    2    3    3    0    0  0.30166362056E+03 -0.38651198452E+02 -0.15995088690E+03  0.36737256162E+03  0.12993636018E+03 0.  0.
        -11    1    4    4    0    0  0.13193089129E+03  0.11069270768E+02 -0.86174500528E+01  0.13267459922E+03  0.51100000000E-03 0. -1.
     200002    1    4    4    0    0  0.16973272927E+03 -0.49720469221E+02 -0.15133343685E+03  0.23469796240E+03  0.30000000000E+02 0. -1.
     200000    1    3    3    0    0  0.44149140179E+03 -0.57346482886E+02  0.11061022723E+02  0.66957122338E+03  0.50000000000E+03 0.  1.
    -200001    1    1    2    0    0 -0.74315502236E+03  0.95997681339E+02 -0.41944621233E+03  0.11078944296E+04  0.70000000000E+03 0. -1.
<mgrwt>
<rscale>  0 0.20681695E+04</rscale>
<asrwt>0</asrwt>
<pdfrwt beam="1">  1        4 0.11260730E+00 0.20681695E+04</pdfrwt>
<pdfrwt beam="2">  1       -4 0.19379816E+00 0.20681695E+04</pdfrwt>
<totfact> 0.16699544E-01</totfact>
</mgrwt>
</event>
<event>
 8    1  0.1287848E-011  0.1516219E+04  0.7818608E-02  0.8873739E-01
          4   -1    0    0  501    0  0.00000000000E+00  0.00000000000E+00  0.86085760088E+03  0.86085853767E+03  0.12700000000E+01 0.  1.
         -4   -1    0    0    0  501 -0.00000000000E+00 -0.00000000000E+00 -0.66762274915E+03  0.66762395709E+03  0.12700000000E+01 0. -1.
     200001    2    1    2    0    0  0.10175810812E+03 -0.13473756862E+03  0.33726860393E+03  0.79414289571E+03  0.69885900055E+03 0.  0.
    5000001    2    3    3    0    0 -0.26413231293E+02  0.95931751340E+01  0.12003139235E+03  0.21582528234E+03  0.17715340683E+03 0.  0.
        -11    1    4    4    0    0  0.59097493216E+02  0.50572696670E+02  0.36389147537E+02  0.85873636302E+02  0.51100000000E-03 0. -1.
     200002    1    4    4    0    0 -0.85510724509E+02 -0.40979521536E+02  0.83642244808E+02  0.12995164604E+03  0.30000000000E+02 0. -1.
     200000    1    3    3    0    0  0.12817133941E+03 -0.14433074375E+03  0.21723721159E+03  0.57831761337E+03  0.50000000000E+03 0.  1.
    -200001    1    1    2    0    0 -0.10175810812E+03  0.13473756862E+03 -0.14403375221E+03  0.73433959905E+03  0.70000000000E+03 0. -1.
<mgrwt>
<rscale>  0 0.15162187E+04</rscale>
<asrwt>0</asrwt>
<pdfrwt beam="1">  1        4 0.12297981E+00 0.15162187E+04</pdfrwt>
<pdfrwt beam="2">  1       -4 0.95374831E-01 0.15162187E+04</pdfrwt>
<totfact> 0.89299773E-01</totfact>
</mgrwt>
</event>
<event>
 8    1  0.1287848E-011  0.1432380E+04  0.7818608E-02  0.8930708E-01
         -4   -1    0    0    0  501 -0.00000000000E+00  0.00000000000E+00  0.44885707147E+03  0.44885886814E+03  0.12700000000E+01 0. -1.
          4   -1    0    0  501    0  0.00000000000E+00 -0.00000000000E+00 -0.11427380823E+04  0.11427387880E+04  0.12700000000E+01 0.  1.
     200001    2    1    2    0    0 -0.43981177484E+02 -0.14260226385E+03 -0.31341526145E+03  0.78102752587E+03  0.69964642529E+03 0.  0.
    5000001    2    3    3    0    0  0.26719857659E+02 -0.45713706935E+02 -0.65778680076E+02  0.21031752484E+03  0.19262121563E+03 0.  0.
        -11    1    4    4    0    0  0.64847556213E+02 -0.10442996923E+03 -0.32170982639E+02  0.12706610935E+03  0.51100000000E-03 0. -1.
     200002    1    4    4    0    0 -0.38127698555E+02  0.58716262297E+02 -0.33607697437E+02  0.83251415497E+02  0.30000000000E+02 0. -1.
     200000    1    3    3    0    0 -0.70701035142E+02 -0.96888556918E+02 -0.24763658138E+03  0.57071000102E+03  0.50000000000E+03 0. -1.
    -200001    1    1    2    0    0  0.43981177484E+02  0.14260226385E+03 -0.38046574934E+03  0.81057013025E+03  0.70000000000E+03 0. -1.
<mgrwt>
<rscale>  0 0.14323799E+04</rscale>
<asrwt>0</asrwt>
<pdfrwt beam="1">  1        4 0.16324848E+00 0.14323799E+04</pdfrwt>
<pdfrwt beam="2">  1       -4 0.64122618E-01 0.14323799E+04</pdfrwt>
<totfact> 0.10487176E+00</totfact>
</mgrwt>
</event>
<event>
 8    1  0.1287848E-011  0.2087421E+04  0.7818608E-02  0.8566805E-01
          4   -1    0    0  501    0  0.00000000000E+00  0.00000000000E+00  0.15128018503E+04  0.15128023834E+04  0.12700000000E+01 0.  1.
         -4   -1    0    0    0  501 -0.00000000000E+00 -0.00000000000E+00 -0.72007411527E+03  0.72007523522E+03  0.12700000000E+01 0. -1.
     200001    2    1    2    0    0 -0.19056256406E+03  0.44407400027E+03  0.10431317048E+04  0.13461882950E+04  0.70041656432E+03 0.  0.
    5000001    2    3    3    0    0 -0.57098828419E+01  0.16433601705E+03  0.41402496789E+03  0.47544198327E+03  0.16610080121E+03 0.  0.
        -11    1    4    4    0    0  0.94404913490E+00  0.54822080105E+02  0.32872719890E+03  0.33326854486E+03  0.51100000000E-03 0. -1.
     200002    1    4    4    0    0 -0.66539319768E+01  0.10951393695E+03  0.85297768988E+02  0.14217343842E+03  0.30000000000E+02 0. -1.
     200000    1    3    3    0    0 -0.18485268121E+03  0.27973798322E+03  0.62910673693E+03  0.87074631177E+03  0.50000000000E+03 0.  1.
    -200001    1    1    2    0    0  0.19056256406E+03 -0.44407400027E+03 -0.25040396974E+03  0.88668932361E+03  0.70000000000E+03 0. -1.
<mgrwt>
<rscale>  0 0.20874207E+04</rscale>
<asrwt>0</asrwt>
<pdfrwt beam="1">  1        4 0.21611466E+00 0.20874207E+04</pdfrwt>
<pdfrwt beam="2">  1       -4 0.10286785E+00 0.20874207E+04</pdfrwt>
<totfact> 0.14824477E-01</totfact>
</mgrwt>
</event>
<event>
 8    1  0.1287848E-011  0.1949485E+04  0.7818608E-02  0.8630609E-01
         -4   -1    0    0    0  501 -0.00000000000E+00  0.00000000000E+00  0.15053337204E+04  0.15053342561E+04  0.12700000000E+01 0. -1.
          4   -1    0    0  501    0  0.00000000000E+00 -0.00000000000E+00 -0.63116962326E+03  0.63117090096E+03  0.12700000000E+01 0.  1.
     200001    2    1    2    0    0 -0.42970963837E+03 -0.30504378620E+03 -0.31803340025E+02  0.87615636329E+03  0.69923989853E+03 0.  0.
    5000001    2    3    3    0    0 -0.17793034757E+03  0.14246083774E+02  0.25447884140E+02  0.22915054028E+03  0.14142211926E+03 0.  0.
        -11    1    4    4    0    0 -0.18044525966E+02  0.39776403314E+02 -0.32652567181E+02  0.54534001519E+02  0.51100000000E-03 0. -1.
     200002    1    4    4    0    0 -0.15988582160E+03 -0.25530319540E+02  0.58100451320E+02  0.17461653876E+03  0.30000000000E+02 0. -1.
     200000    1    3    3    0    0 -0.25177929080E+03 -0.31928986998E+03 -0.57251224164E+02  0.64700582301E+03  0.50000000000E+03 0.  1.
    -200001    1    1    2    0    0  0.42970963837E+03  0.30504378620E+03  0.90596743716E+03  0.12603487938E+04  0.70000000000E+03 0. -1.
<mgrwt>
<rscale>  0 0.19494849E+04</rscale>
<asrwt>0</asrwt>
<pdfrwt beam="1">  1        4 0.90167219E-01 0.19494849E+04</pdfrwt>
<pdfrwt beam="2">  1       -4 0.21504780E+00 0.19494849E+04</pdfrwt>
<totfact> 0.20796984E-01</totfact>
</mgrwt>
</event>
<event>
 8    1  0.1287848E-011  0.1639861E+04  0.7818608E-02  0.8796427E-01
          4   -1    0    0  501    0  0.00000000000E+00  0.00000000000E+00  0.52181379236E+03  0.52181533784E+03  0.12700000000E+01 0. -1.
         -4   -1    0    0    0  501 -0.00000000000E+00 -0.00000000000E+00 -0.12883608635E+04  0.12883614895E+04  0.12700000000E+01 0.  1.
     200001    2    1    2    0    0  0.16264906149E+03  0.26988769246E+03 -0.62837536806E+02  0.76878295731E+03  0.69841577565E+03 0.  0.
    5000001    2    3    3    0    0  0.32595498829E+02  0.66627359693E+01 -0.41193057967E+02  0.18855042604E+03  0.18096280430E+03 0.  0.
        -11    1    4    4    0    0  0.57825115518E+02  0.19939397329E+02 -0.99650795618E+02  0.11692563713E+03  0.51100000000E-03 0. -1.
     200002    1    4    4    0    0 -0.25229616690E+02 -0.13276661360E+02  0.58457737652E+02  0.71624788911E+02  0.30000000000E+02 0. -1.
     200000    1    3    3    0    0  0.13005356266E+03  0.26322495649E+03 -0.21644478840E+02  0.58023253127E+03  0.50000000000E+03 0. -1.
    -200001    1    1    2    0    0 -0.16264906149E+03 -0.26988769246E+03 -0.70370953436E+03  0.10413938700E+04  0.70000000000E+03 0. -1.
<mgrwt>
<rscale>  0 0.16398615E+04</rscale>
<asrwt>0</asrwt>
<pdfrwt beam="1">  1        4 0.74544983E-01 0.16398615E+04</pdfrwt>
<pdfrwt beam="2">  1       -4 0.18405171E+00 0.16398615E+04</pdfrwt>
<totfact> 0.52782306E-01</totfact>
</mgrwt>
</event>
<event>
 8    1  0.1287848E-011  0.3907426E+04  0.7818608E-02  0.8023487E-01
         -4   -1    0    0    0  501 -0.00000000000E+00  0.00000000000E+00  0.12452775649E+04  0.12452782125E+04  0.12700000000E+01 0.  1.
          4   -1    0    0  501    0  0.00000000000E+00 -0.00000000000E+00 -0.30651734594E+04  0.30651737225E+04  0.12700000000E+01 0. -1.
     200001    2    1    2    0    0  0.11205944479E+03 -0.66402494921E+03  0.96012267735E+03  0.13656277107E+04  0.69972640097E+03 0.  0.
    5000001    2    3    3    0    0 -0.10388601505E+02 -0.39170699536E+02  0.23410500479E+03  0.27818207145E+03  0.14469915294E+03 0.  0.
        -11    1    4    4    0    0  0.32526864809E+02  0.37718571084E+02  0.43668095719E+02  0.66238886788E+02  0.51100000000E-03 0. -1.
     200002    1    4    4    0    0 -0.42915466313E+02 -0.76889270620E+02  0.19043690908E+03  0.21194318466E+03  0.30000000000E+02 0. -1.
     200000    1    3    3    0    0  0.12244804630E+03 -0.62485424967E+03  0.72601767255E+03  0.10874456392E+04  0.50000000000E+03 0.  1.
    -200001    1    1    2    0    0 -0.11205944479E+03  0.66402494921E+03 -0.27800185719E+04  0.29448242243E+04  0.70000000000E+03 0. -1.
<mgrwt>
<rscale>  0 0.39074256E+04</rscale>
<asrwt>0</asrwt>
<pdfrwt beam="1">  1        4 0.43788199E+00 0.39074256E+04</pdfrwt>
<pdfrwt beam="2">  1       -4 0.17789686E+00 0.39074256E+04</pdfrwt>
<totfact> 0.10703283E-03</totfact>
</mgrwt>
</event>
<event>
 8    1  0.1287848E-011  0.1479866E+04  0.7818608E-02  0.8897954E-01
          4   -1    0    0  501    0  0.00000000000E+00  0.00000000000E+00  0.13153923185E+04  0.13153929315E+04  0.12700000000E+01 0.  1.
         -4   -1    0    0    0  501 -0.00000000000E+00 -0.00000000000E+00 -0.41622437620E+03  0.41622631373E+03  0.12700000000E+01 0. -1.
     200001    2    1    2    0    0 -0.20930400365E+03 -0.36502160196E+02  0.57908794087E+03  0.93312580076E+03  0.70017165262E+03 0.  0.
    5000001    2    3    3    0    0 -0.84453425311E+02  0.48076027453E+02  0.44123255134E+02  0.18551069141E+03  0.15173552491E+03 0.  0.
        -11    1    4    4    0    0 -0.61806666901E+02  0.47272826542E+02 -0.44220231666E+02  0.89499793808E+02  0.51100000000E-03 0. -1.
     200002    1    4    4    0    0 -0.22646758410E+02  0.80320091047E+00  0.88343486800E+02  0.96010897601E+02  0.30000000000E+02 0. -1.
     200000    1    3    3    0    0 -0.12485057834E+03 -0.84578187649E+02  0.53496468574E+03  0.74761510935E+03  0.50000000000E+03 0.  1.
    -200001    1    1    2    0    0  0.20930400365E+03  0.36502160196E+02  0.32008000138E+03  0.79849344451E+03  0.70000000000E+03 0. -1.
<mgrwt>
<rscale>  0 0.14798656E+04</rscale>
<asrwt>0</asrwt>
<pdfrwt beam="1">  1        4 0.18791337E+00 0.14798656E+04</pdfrwt>
<pdfrwt beam="2">  1       -4 0.59460809E-01 0.14798656E+04</pdfrwt>
<totfact> 0.82484297E-01</totfact>
</mgrwt>
</event>
<event>
 8    1  0.1287848E-011  0.2175278E+04  0.7818608E-02  0.8528789E-01
          4   -1    0    0  501    0  0.00000000000E+00  0.00000000000E+00  0.25400510956E+04  0.25400514131E+04  0.12700000000E+01 0.  1.
         -4   -1    0    0    0  501 -0.00000000000E+00 -0.00000000000E+00 -0.46572095130E+03  0.46572268291E+03  0.12700000000E+01 0. -1.
     200001    2    1    2    0    0  0.42302779204E+03  0.26369229235E+03  0.11644404474E+03  0.86759633989E+03  0.70048415796E+03 0.  0.
    5000001    2    3    3    0    0  0.13673160135E+03  0.12273063301E+03  0.86702842546E+02  0.27369379122E+03  0.18339184649E+03 0.  0.
        -11    1    4    4    0    0  0.16981985155E+03  0.58857822335E+02  0.75536557075E+02  0.19495844861E+03  0.51100000000E-03 0. -1.
     200002    1    4    4    0    0 -0.33088250197E+02  0.63872810679E+02  0.11166285471E+02  0.78735342612E+02  0.30000000000E+02 0. -1.
     200000    1    3    3    0    0  0.28629619069E+03  0.14096165934E+03  0.29741202193E+02  0.59390254867E+03  0.50000000000E+03 0. -1.
    -200001    1    1    2    0    0 -0.42302779204E+03 -0.26369229235E+03  0.19578860996E+04  0.21381777561E+04  0.70000000000E+03 0.  1.
<mgrwt>
<rscale>  0 0.21752775E+04</rscale>
<asrwt>0</asrwt>
<pdfrwt beam="1">  1        4 0.36286458E+00 0.21752775E+04</pdfrwt>
<pdfrwt beam="2">  1       -4 0.66531712E-01 0.21752775E+04</pdfrwt>
<totfact> 0.47241657E-02</totfact>
</mgrwt>
</event>
<event>
 8    1  0.1287848E-011  0.1600836E+04  0.7818608E-02  0.8820034E-01
          4   -1    0    0  501    0  0.00000000000E+00  0.00000000000E+00  0.50623920207E+03  0.50624079509E+03  0.12700000000E+01 0.  1.
         -4   -1    0    0    0  501 -0.00000000000E+00 -0.00000000000E+00 -0.12655424377E+04  0.12655430749E+04  0.12700000000E+01 0. -1.
     200001    2    1    2    0    0  0.29217123774E+03 -0.24991083435E+03 -0.31943516936E+03  0.86002547383E+03  0.69984679104E+03 0.  0.
    5000001    2    3    3    0    0  0.94286184686E+02 -0.17409220531E+03 -0.13409658931E+03  0.28621596887E+03  0.15728860416E+03 0.  0.
        -11    1    4    4    0    0  0.55456847397E+02 -0.11675935424E+03  0.34740421227E+01  0.12930691279E+03  0.51100000000E-03 0. -1.
     200002    1    4    4    0    0  0.38829337288E+02 -0.57332851065E+02 -0.13757063144E+03  0.15690905608E+03  0.30000000000E+02 0. -1.
     200000    1    3    3    0    0  0.19788505305E+03 -0.75818629041E+02 -0.18533858004E+03  0.57380950496E+03  0.50000000000E+03 0.  1.
    -200001    1    1    2    0    0 -0.29217123774E+03  0.24991083435E+03 -0.43986806626E+03  0.91175839618E+03  0.70000000000E+03 0.  1.
<mgrwt>
<rscale>  0 0.16008362E+04</rscale>
<asrwt>0</asrwt>
<pdfrwt beam="1">  1        4 0.72320046E-01 0.16008362E+04</pdfrwt>
<pdfrwt beam="2">  1       -4 0.18079193E+00 0.16008362E+04</pdfrwt>
<totfact> 0.59650218E-01</totfact>
</mgrwt>
</event>
<event>
 8    1  0.1287848E-011  0.2166442E+04  0.7818608E-02  0.8532527E-01
         -4   -1    0    0    0  501 -0.00000000000E+00  0.00000000000E+00  0.16175276925E+04  0.16175281910E+04  0.12700000000E+01 0. -1.
          4   -1    0    0  501    0  0.00000000000E+00 -0.00000000000E+00 -0.72540683019E+03  0.72540794191E+03  0.12700000000E+01 0.  1.
     200001    2    1    2    0    0  0.24966220047E+03 -0.77714559127E+03  0.58662704984E+03  0.12250752499E+04  0.70027964985E+03 0.  0.
    5000001    2    3    3    0    0  0.19331334274E+03 -0.19017239362E+03  0.15700311414E+03  0.34060396454E+03  0.13351215315E+03 0.  0.
        -11    1    4    4    0    0  0.17986941282E+03 -0.14212747616E+03  0.16414522873E+03  0.28195191303E+03  0.51100000000E-03 0. -1.
     200002    1    4    4    0    0  0.13443929918E+02 -0.48044917460E+02 -0.71421145931E+01  0.58652051509E+02  0.30000000000E+02 0. -1.
     200000    1    3    3    0    0  0.56348857730E+02 -0.58697319766E+03  0.42962393570E+03  0.88447128538E+03  0.50000000000E+03 0. -1.
    -200001    1    1    2    0    0 -0.24966220047E+03  0.77714559127E+03  0.30549381245E+03  0.11178608830E+04  0.70000000000E+03 0. -1.
<mgrwt>
<rscale>  0 0.21664418E+04</rscale>
<asrwt>0</asrwt>
<pdfrwt beam="1">  1        4 0.10362966E+00 0.21664418E+04</pdfrwt>
<pdfrwt beam="2">  1       -4 0.23107550E+00 0.21664418E+04</pdfrwt>
<totfact> 0.11620147E-01</totfact>
</mgrwt>
</event>
<event>
 8    1  0.1287848E-011  0.1516185E+04  0.7818608E-02  0.8873761E-01
          4   -1    0    0  501    0  0.00000000000E+00  0.00000000000E+00  0.60488235744E+03  0.60488369068E+03  0.12700000000E+01 0.  1.
         -4   -1    0    0    0  501 -0.00000000000E+00 -0.00000000000E+00 -0.95010638847E+03  0.95010723727E+03  0.12700000000E+01 0. -1.
     200001    2    1    2    0    0 -0.10147832035E+03  0.77906593222E+02 -0.44119175841E+03  0.83695395713E+03  0.69962452208E+03 0.  0.
    5000001    2    3    3    0    0  0.59435160633E+02  0.82219135186E+02 -0.11179477756E+03  0.21694257225E+03  0.15579949569E+03 0.  0.
        -11    1    4    4    0    0  0.33430634800E+02 -0.19436387079E+01 -0.11898565750E+03  0.12360813795E+03  0.51100000000E-03 0. -1.
     200002    1    4    4    0    0  0.26004525833E+02  0.84162773894E+02  0.71908799422E+01  0.93334434309E+02  0.30000000000E+02 0. -1.
     200000    1    3    3    0    0 -0.16091348098E+03 -0.43125419648E+01 -0.32939698085E+03  0.62001138487E+03  0.50000000000E+03 0. -1.
    -200001    1    1    2    0    0  0.10147832035E+03 -0.77906593222E+02  0.95967727382E+02  0.71803697082E+03  0.70000000000E+03 0.  1.
<mgrwt>
<rscale>  0 0.15161851E+04</rscale>
<asrwt>0</asrwt>
<pdfrwt beam="1">  1        4 0.86411922E-01 0.15161851E+04</pdfrwt>
<pdfrwt beam="2">  1       -4 0.13572964E+00 0.15161851E+04</pdfrwt>
<totfact> 0.87460167E-01</totfact>
</mgrwt>
</event>
<event>
 8    1  0.1287848E-011  0.2041910E+04  0.7818608E-02  0.8587273E-01
          4   -1    0    0  501    0  0.00000000000E+00  0.00000000000E+00  0.24993052703E+04  0.24993055930E+04  0.12700000000E+01 0.  1.
         -4   -1    0    0    0  501 -0.00000000000E+00 -0.00000000000E+00 -0.41705427747E+03  0.41705621115E+03  0.12700000000E+01 0. -1.
     200001    2    1    2    0    0 -0.69678011150E+03  0.63043968354E+02  0.13999061875E+04  0.17142505368E+04  0.69960024537E+03 0.  0.
    5000001    2    3    3    0    0 -0.20175529902E+03  0.44922037847E+02  0.53181252903E+03  0.59667970269E+03  0.17458210505E+03 0.  0.
        -11    1    4    4    0    0 -0.12851796799E+03 -0.24687554849E+02  0.14304073706E+03  0.19387365969E+03  0.51100000000E-03 0. -1.
     200002    1    4    4    0    0 -0.73237331035E+02  0.69609592696E+02  0.38877179197E+03  0.40280604301E+03  0.30000000000E+02 0. -1.
     200000    1    3    3    0    0 -0.49502481247E+03  0.18121930507E+02  0.86809365847E+03  0.11175708341E+04  0.50000000000E+03 0.  1.
    -200001    1    1    2    0    0  0.69678011150E+03 -0.63043968354E+02  0.68234480535E+03  0.12021112674E+04  0.70000000000E+03 0.  1.
<mgrwt>
<rscale>  0 0.20419101E+04</rscale>
<asrwt>0</asrwt>
<pdfrwt beam="1">  1        4 0.35704377E+00 0.20419101E+04</pdfrwt>
<pdfrwt beam="2">  1       -4 0.59579344E-01 0.20419101E+04</pdfrwt>
<totfact> 0.66394204E-02</totfact>
</mgrwt>
</event>
<event>
 8    1  0.1287848E-011  0.1536046E+04  0.7818608E-02  0.8860830E-01
         -4   -1    0    0    0  501 -0.00000000000E+00  0.00000000000E+00  0.11685954823E+04  0.11685961724E+04  0.12700000000E+01 0. -1.
          4   -1    0    0  501    0  0.00000000000E+00 -0.00000000000E+00 -0.50475759671E+03  0.50475919440E+03  0.12700000000E+01 0.  1.
     200001    2    1    2    0    0 -0.18093120985E+03  0.25937127435E+03  0.33607510480E+03  0.83822783096E+03  0.69976414589E+03 0.  0.
    5000001    2    3    3    0    0  0.40536015909E+02  0.12186116392E+03  0.67046556500E+02  0.21346137671E+03  0.15677119235E+03 0.  0.
        -11    1    4    4    0    0 -0.88872845729E+01  0.11536908732E+03  0.94248269691E+02  0.14923721545E+03  0.51100000000E-03 0. -1.
     200002    1    4    4    0    0  0.49423300482E+02  0.64920766055E+01 -0.27201713190E+02  0.64224161261E+02  0.30000000000E+02 0. -1.
     200000    1    3    3    0    0 -0.22146722576E+03  0.13751011043E+03  0.26902854830E+03  0.62476645425E+03  0.50000000000E+03 0. -1.
    -200001    1    1    2    0    0  0.18093120985E+03 -0.25937127435E+03  0.32776278080E+03  0.83512753585E+03  0.70000000000E+03 0. -1.
<mgrwt>
<rscale>  0 0.15360460E+04</rscale>
<asrwt>0</asrwt>
<pdfrwt beam="1">  1        4 0.72108392E-01 0.15360460E+04</pdfrwt>
<pdfrwt beam="2">  1       -4 0.16694237E+00 0.15360460E+04</pdfrwt>
<totfact> 0.75601348E-01</totfact>
</mgrwt>
</event>
<event>
 8    1  0.1287848E-011  0.1488354E+04  0.7818608E-02  0.8892235E-01
         -4   -1    0    0    0  501 -0.00000000000E+00  0.00000000000E+00  0.34767272634E+03  0.34767504590E+03  0.12700000000E+01 0. -1.
          4   -1    0    0  501    0  0.00000000000E+00 -0.00000000000E+00 -0.15928676141E+04  0.15928681204E+04  0.12700000000E+01 0.  1.
     200001    2    1    2    0    0 -0.35476519942E+02  0.22035905941E+03 -0.77341107819E+03  0.10673898799E+04  0.70095631914E+03 0.  0.
    5000001    2    3    3    0    0 -0.58389416685E+02  0.10705148110E+03 -0.16996565741E+03  0.27523460220E+03  0.17887542583E+03 0.  0.
        -11    1    4    4    0    0  0.30247212869E+02 -0.16803671458E+02  0.11472386851E+02  0.36453709292E+02  0.51100000000E-03 0. -1.
     200002    1    4    4    0    0 -0.88636629555E+02  0.12385515256E+03 -0.18143804426E+03  0.23878089291E+03  0.30000000000E+02 0. -1.
     200000    1    3    3    0    0  0.22912896743E+02  0.11330757831E+03 -0.60344542078E+03  0.79215527771E+03  0.50000000000E+03 0.  1.
    -200001    1    1    2    0    0  0.35476519942E+02 -0.22035905941E+03 -0.47178380954E+03  0.87315328636E+03  0.70000000000E+03 0. -1.
<mgrwt>
<rscale>  0 0.14883539E+04</rscale>
<asrwt>0</asrwt>
<pdfrwt beam="1">  1        4 0.22755271E+00 0.14883539E+04</pdfrwt>
<pdfrwt beam="2">  1       -4 0.49667735E-01 0.14883539E+04</pdfrwt>
<totfact> 0.66529813E-01</totfact>
</mgrwt>
</event>
<event>
 8    1  0.1287848E-011  0.2141535E+04  0.7818608E-02  0.8543165E-01
          4   -1    0    0  501    0  0.00000000000E+00  0.00000000000E+00  0.60497972507E+03  0.60498105809E+03  0.12700000000E+01 0.  1.
         -4   -1    0    0    0  501 -0.00000000000E+00 -0.00000000000E+00 -0.18951717959E+04  0.18951722214E+04  0.12700000000E+01 0. -1.
     200001    2    1    2    0    0  0.49766654622E+03  0.55716041955E+03 -0.27976532683E+03  0.10617298616E+04  0.70064394415E+03 0.  0.
    5000001    2    3    3    0    0  0.16463172777E+03  0.25724362146E+03 -0.42930066566E+02  0.34972338927E+03  0.16488047736E+03 0.  0.
        -11    1    4    4    0    0  0.16867183440E+03  0.22141239231E+03  0.10609186770E+02  0.27854297699E+03  0.51100000000E-03 0. -1.
     200002    1    4    4    0    0 -0.40401066234E+01  0.35831229152E+02 -0.53539253337E+02  0.71180412277E+02  0.30000000000E+02 0. -1.
     200000    1    3    3    0    0  0.33303481845E+03  0.29991679809E+03 -0.23683526026E+03  0.71200647229E+03  0.50000000000E+03 0. -1.
    -200001    1    1    2    0    0 -0.49766654622E+03 -0.55716041955E+03 -0.10104267440E+04  0.14384234180E+04  0.70000000000E+03 0. -1.
<mgrwt>
<rscale>  0 0.21415347E+04</rscale>
<asrwt>0</asrwt>
<pdfrwt beam="1">  1        4 0.86425801E-01 0.21415347E+04</pdfrwt>
<pdfrwt beam="2">  1       -4 0.27073895E+00 0.21415347E+04</pdfrwt>
<totfact> 0.10108690E-01</totfact>
</mgrwt>
</event>
<event>
 8    1  0.1287848E-011  0.1836613E+04  0.7818608E-02  0.8687068E-01
          4   -1    0    0  501    0  0.00000000000E+00  0.00000000000E+00  0.18815920463E+04  0.18815924749E+04  0.12700000000E+01 0.  1.
         -4   -1    0    0    0  501 -0.00000000000E+00 -0.00000000000E+00 -0.44817572687E+03  0.44817752628E+03  0.12700000000E+01 0. -1.
     200001    2    1    2    0    0  0.52098389177E+03 -0.15141841084E+03  0.10242863801E+04  0.13541988567E+04  0.70024296101E+03 0.  0.
    5000001    2    3    3    0    0  0.53165426667E+02 -0.14712965482E+03  0.22723160419E+03  0.30340447839E+03  0.12627896753E+03 0.  0.
        -11    1    4    4    0    0  0.14940485514E+02  0.21046151971E+02  0.25022227272E+02  0.35948163765E+02  0.51100000000E-03 0. -1.
     200002    1    4    4    0    0  0.38224941153E+02 -0.16817580680E+03  0.20220937692E+03  0.26745631462E+03  0.30000000000E+02 0. -1.
     200000    1    3    3    0    0  0.46781846510E+03 -0.42887560154E+01  0.79705477595E+03  0.10507943784E+04  0.50000000000E+03 0.  1.
    -200001    1    1    2    0    0 -0.52098389177E+03  0.15141841084E+03  0.40912993928E+03  0.97557114443E+03  0.70000000000E+03 0. -1.
<mgrwt>
<rscale>  0 0.18366126E+04</rscale>
<asrwt>0</asrwt>
<pdfrwt beam="1">  1        4 0.26879903E+00 0.18366126E+04</pdfrwt>
<pdfrwt beam="2">  1       -4 0.64025262E-01 0.18366126E+04</pdfrwt>
<totfact> 0.20876770E-01</totfact>
</mgrwt>
</event>
<event>
 8    1  0.1287848E-011  0.1995538E+04  0.7818608E-02  0.8608710E-01
          4   -1    0    0  501    0  0.00000000000E+00  0.00000000000E+00  0.21962551544E+04  0.21962555216E+04  0.12700000000E+01 0.  1.
         -4   -1    0    0    0  501 -0.00000000000E+00 -0.00000000000E+00 -0.45328994967E+03  0.45329172877E+03  0.12700000000E+01 0. -1.
     200001    2    1    2    0    0 -0.54480077277E+03 -0.27690715288E+03  0.13545069963E+04  0.16423803163E+04  0.69945582215E+03 0.  0.
    5000001    2    3    3    0    0 -0.13306657789E+03 -0.18776214899E+03  0.44371228864E+03  0.52121178375E+03  0.14771523175E+03 0.  0.
        -11    1    4    4    0    0 -0.10576205037E+03 -0.15793487193E+03  0.21478559622E+03  0.28681333200E+03  0.51100000000E-03 0. -1.
     200002    1    4    4    0    0 -0.27304527513E+02 -0.29827277056E+02  0.22892669242E+03  0.23439845175E+03  0.30000000000E+02 0. -1.
     200000    1    3    3    0    0 -0.41173419488E+03 -0.89145003894E+02  0.91079470763E+03  0.11211685326E+04  0.50000000000E+03 0.  1.
    -200001    1    1    2    0    0  0.54480077277E+03  0.27690715288E+03  0.38845820846E+03  0.10071669341E+04  0.70000000000E+03 0.  1.
<mgrwt>
<rscale>  0 0.19955383E+04</rscale>
<asrwt>0</asrwt>
<pdfrwt beam="1">  1        4 0.31375089E+00 0.19955383E+04</pdfrwt>
<pdfrwt beam="2">  1       -4 0.64755860E-01 0.19955383E+04</pdfrwt>
<totfact> 0.10557803E-01</totfact>
</mgrwt>
</event>
<event>
 8    1  0.1287848E-011  0.1516214E+04  0.7818608E-02  0.8873742E-01
         -4   -1    0    0    0  501 -0.00000000000E+00  0.00000000000E+00  0.78017939568E+03  0.78018042936E+03  0.12700000000E+01 0. -1.
          4   -1    0    0  501    0  0.00000000000E+00 -0.00000000000E+00 -0.73665671812E+03  0.73665781286E+03  0.12700000000E+01 0.  1.
     200001    2    1    2    0    0 -0.22815514361E+03 -0.89543525742E+02 -0.13148709979E+03  0.75480068755E+03  0.70168540526E+03 0.  0.
    5000001    2    3    3    0    0  0.81131665334E+01  0.44693311143E+02 -0.33276282492E+02  0.17731682856E+03  0.16813872600E+03 0.  0.
        -11    1    4    4    0    0 -0.31381100324E+02  0.48689668980E+02  0.52484527826E+02  0.78167019800E+02  0.51100000000E-03 0. -1.
     200002    1    4    4    0    0  0.39494266858E+02 -0.39963578376E+01 -0.85760810319E+02  0.99149808760E+02  0.30000000000E+02 0. -1.
     200000    1    3    3    0    0 -0.23626831015E+03 -0.13423683688E+03 -0.98210817294E+02  0.57748385899E+03  0.50000000000E+03 0.  1.
    -200001    1    1    2    0    0  0.22815514361E+03  0.89543525742E+02  0.17500977735E+03  0.76203755467E+03  0.70000000000E+03 0. -1.
<mgrwt>
<rscale>  0 0.15162137E+04</rscale>
<asrwt>0</asrwt>
<pdfrwt beam="1">  1        4 0.10523683E+00 0.15162137E+04</pdfrwt>
<pdfrwt beam="2">  1       -4 0.11145435E+00 0.15162137E+04</pdfrwt>
<totfact> 0.90057813E-01</totfact>
</mgrwt>
</event>
<event>
 8    1  0.1287848E-011  0.1570469E+04  0.7818608E-02  0.8838898E-01
         -4   -1    0    0    0  501 -0.00000000000E+00  0.00000000000E+00  0.63834992039E+03  0.63835118372E+03  0.12700000000E+01 0. -1.
          4   -1    0    0  501    0  0.00000000000E+00 -0.00000000000E+00 -0.96591433625E+03  0.96591517116E+03  0.12700000000E+01 0.  1.
     200001    2    1    2    0    0  0.19893562358E+03 -0.29392023442E+03 -0.18446008459E+03  0.80649236674E+03  0.70031416398E+03 0.  0.
    5000001    2    3    3    0    0  0.67759050280E+02 -0.39447009645E+02 -0.15460095763E+02  0.20605509963E+03  0.18992718093E+03 0.  0.
        -11    1    4    4    0    0  0.55202348823E+02 -0.10882590369E+03  0.16301027810E+02  0.12311011387E+03  0.51100000000E-03 0. -1.
     200002    1    4    4    0    0  0.12556701457E+02  0.69378894048E+02 -0.31761123573E+02  0.82944985752E+02  0.30000000000E+02 0. -1.
     200000    1    3    3    0    0  0.13117657330E+03 -0.25447322478E+03 -0.16899998882E+03  0.60043726711E+03  0.50000000000E+03 0.  1.
    -200001    1    1    2    0    0 -0.19893562358E+03  0.29392023442E+03 -0.14310433128E+03  0.79777398815E+03  0.70000000000E+03 0.  1.
<mgrwt>
<rscale>  0 0.15704687E+04</rscale>
<asrwt>0</asrwt>
<pdfrwt beam="1">  1        4 0.13798791E+00 0.15704687E+04</pdfrwt>
<pdfrwt beam="2">  1       -4 0.91192996E-01 0.15704687E+04</pdfrwt>
<totfact> 0.73686926E-01</totfact>
</mgrwt>
</event>
<event>
 8    1  0.1287848E-011  0.1591463E+04  0.7818608E-02  0.8825810E-01
         -4   -1    0    0    0  501 -0.00000000000E+00  0.00000000000E+00  0.53129415231E+03  0.53129567021E+03  0.12700000000E+01 0. -1.
          4   -1    0    0  501    0  0.00000000000E+00 -0.00000000000E+00 -0.11917821474E+04  0.11917828241E+04  0.12700000000E+01 0.  1.
     200001    2    1    2    0    0 -0.20633625972E+03 -0.30504768205E+02  0.14719744509E+02  0.72838724342E+03  0.69772925447E+03 0.  0.
    5000001    2    3    3    0    0  0.52286446765E+02 -0.71611562750E+02  0.17161591642E+02  0.16395705688E+03  0.13684044664E+03 0.  0.
        -11    1    4    4    0    0 -0.31028388780E+02 -0.22404396820E+02  0.44827220582E+02  0.58942324458E+02  0.51100000000E-03 0. -1.
     200002    1    4    4    0    0  0.83314835545E+02 -0.49207165929E+02 -0.27665628940E+02  0.10501473242E+03  0.30000000000E+02 0. -1.
     200000    1    3    3    0    0 -0.25862270648E+03  0.41106794545E+02 -0.24418471335E+01  0.56443018655E+03  0.50000000000E+03 0. -1.
    -200001    1    1    2    0    0  0.20633625972E+03  0.30504768205E+02 -0.67520773965E+03  0.99469125091E+03  0.70000000000E+03 0.  1.
<mgrwt>
<rscale>  0 0.15914632E+04</rscale>
<asrwt>0</asrwt>
<pdfrwt beam="1">  1        4 0.17025475E+00 0.15914632E+04</pdfrwt>
<pdfrwt beam="2">  1       -4 0.75899322E-01 0.15914632E+04</pdfrwt>
<totfact> 0.63567086E-01</totfact>
</mgrwt>
</event>
<event>
 8    1  0.1287848E-011  0.1844504E+04  0.7818608E-02  0.8682984E-01
          4   -1    0    0  501    0  0.00000000000E+00  0.00000000000E+00  0.83440614614E+03  0.83440711264E+03  0.12700000000E+01 0.  1.
         -4   -1    0    0    0  501 -0.00000000000E+00 -0.00000000000E+00 -0.10193443608E+04  0.10193451520E+04  0.12700000000E+01 0. -1.
     200001    2    1    2    0    0  0.20338971523E+03 -0.47044793959E+03 -0.40667184926E+03  0.95828900749E+03  0.70017654114E+03 0.  0.
    5000001    2    3    3    0    0  0.87487364750E+02 -0.19222663900E+03 -0.13312018161E+03  0.31356351410E+03  0.18972605222E+03 0.  0.
        -11    1    4    4    0    0  0.14836707877E+02 -0.18933108170E+03 -0.13800299908E+03  0.23475777762E+03  0.51100000000E-03 0. -1.
     200002    1    4    4    0    0  0.72650656872E+02 -0.28955572956E+01  0.48828174640E+01  0.78805736481E+02  0.30000000000E+02 0. -1.
     200000    1    3    3    0    0  0.11590235048E+03 -0.27822130060E+03 -0.27355166764E+03  0.64472549339E+03  0.50000000000E+03 0. -1.
    -200001    1    1    2    0    0 -0.20338971523E+03  0.47044793959E+03  0.22173363458E+03  0.89546325711E+03  0.70000000000E+03 0. -1.
<mgrwt>
<rscale>  0 0.18445041E+04</rscale>
<asrwt>0</asrwt>
<pdfrwt beam="1">  1        4 0.11920100E+00 0.18445041E+04</pdfrwt>
<pdfrwt beam="2">  1       -4 0.14562075E+00 0.18445041E+04</pdfrwt>
<totfact> 0.32908670E-01</totfact>
</mgrwt>
</event>
<event>
 8    1  0.1287848E-011  0.1547727E+04  0.7818608E-02  0.8853321E-01
         -4   -1    0    0    0  501 -0.00000000000E+00  0.00000000000E+00  0.72013257714E+03  0.72013369700E+03  0.12700000000E+01 0. -1.
          4   -1    0    0  501    0  0.00000000000E+00 -0.00000000000E+00 -0.83160075812E+03  0.83160172787E+03  0.12700000000E+01 0.  1.
     200001    2    1    2    0    0 -0.15455360763E+03 -0.28104062249E+03 -0.13291102554E+03  0.78145596604E+03  0.70009816243E+03 0.  0.
    5000001    2    3    3    0    0 -0.68164143161E+02 -0.90898109297E+02  0.35370327604E+02  0.21406198589E+03  0.17794003777E+03 0.  0.
        -11    1    4    4    0    0 -0.84178947311E+01  0.23060637630E+02  0.72728524044E+02  0.76759964627E+02  0.51100000000E-03 0. -1.
     200002    1    4    4    0    0 -0.59746248430E+02 -0.11395874693E+03 -0.37358196440E+02  0.13730202127E+03  0.30000000000E+02 0. -1.
     200000    1    3    3    0    0 -0.86389464470E+02 -0.19014251319E+03 -0.16828135315E+03  0.56739398015E+03  0.50000000000E+03 0.  1.
    -200001    1    1    2    0    0  0.15455360763E+03  0.28104062249E+03  0.21442844566E+02  0.77027945883E+03  0.70000000000E+03 0. -1.
<mgrwt>
<rscale>  0 0.15477266E+04</rscale>
<asrwt>0</asrwt>
<pdfrwt beam="1">  1        4 0.11880026E+00 0.15477266E+04</pdfrwt>
<pdfrwt beam="2">  1       -4 0.10287623E+00 0.15477266E+04</pdfrwt>
<totfact> 0.81143505E-01</totfact>
</mgrwt>
</event>
<event>
 8    1  0.1287848E-011  0.1691745E+04  0.7818608E-02  0.8766087E-01
          4   -1    0    0  501    0  0.00000000000E+00  0.00000000000E+00  0.12847624321E+04  0.12847630598E+04  0.12700000000E+01 0.  1.
         -4   -1    0    0    0  501 -0.00000000000E+00 -0.00000000000E+00 -0.55691081053E+03  0.55691225860E+03  0.12700000000E+01 0. -1.
     200001    2    1    2    0    0  0.33880645351E+03 -0.64710594103E+02  0.71917770881E+03  0.10612571544E+04  0.70005206741E+03 0.  0.
    5000001    2    3    3    0    0  0.14269451412E+03 -0.80002019376E+02  0.10252385872E+03  0.24336003910E+03  0.14815842723E+03 0.  0.
        -11    1    4    4    0    0  0.15316613443E+03 -0.67074786888E+02  0.11907210508E+03  0.20527313020E+03  0.51100000000E-03 0. -1.
     200002    1    4    4    0    0 -0.10471620315E+02 -0.12927232488E+02 -0.16548246361E+02  0.38086908899E+02  0.30000000000E+02 0. -1.
     200000    1    3    3    0    0  0.19611193939E+03  0.15291425273E+02  0.61665385009E+03  0.81789711534E+03  0.50000000000E+03 0.  1.
    -200001    1    1    2    0    0 -0.33880645351E+03  0.64710594103E+02  0.86739127913E+01  0.78041816399E+03  0.70000000000E+03 0. -1.
<mgrwt>
<rscale>  0 0.16917447E+04</rscale>
<asrwt>0</asrwt>
<pdfrwt beam="1">  1        4 0.18353764E+00 0.16917447E+04</pdfrwt>
<pdfrwt beam="2">  1       -4 0.79558835E-01 0.16917447E+04</pdfrwt>
<totfact> 0.45776984E-01</totfact>
</mgrwt>
</event>
<event>
 8    1  0.1287848E-011  0.1981064E+04  0.7818608E-02  0.8615525E-01
         -4   -1    0    0    0  501 -0.00000000000E+00  0.00000000000E+00  0.13950523046E+04  0.13950528826E+04  0.12700000000E+01 0. -1.
          4   -1    0    0  501    0  0.00000000000E+00 -0.00000000000E+00 -0.70330862211E+03  0.70330976877E+03  0.12700000000E+01 0.  1.
     200001    2    1    2    0    0  0.12943121522E+03  0.60432603507E+03 -0.29510421782E+01  0.93450563417E+03  0.70094912477E+03 0.  0.
    5000001    2    3    3    0    0  0.13835776052E+03  0.18807665341E+03  0.58041951047E+02  0.28100477253E+03  0.14518648922E+03 0.  0.
        -11    1    4    4    0    0  0.10415324207E+03  0.10916832736E+03 -0.30546896960E+02  0.15394393280E+03  0.51100000000E-03 0. -1.
     200002    1    4    4    0    0  0.34204518446E+02  0.78908326049E+02  0.88588848008E+02  0.12706083973E+03  0.30000000000E+02 0. -1.
     200000    1    3    3    0    0 -0.89265452973E+01  0.41624938166E+03 -0.60992993226E+02  0.65350086164E+03  0.50000000000E+03 0.  1.
    -200001    1    1    2    0    0 -0.12943121522E+03 -0.60432603507E+03  0.69469472462E+03  0.11638570172E+04  0.70000000000E+03 0. -1.
<mgrwt>
<rscale>  0 0.19810645E+04</rscale>
<asrwt>0</asrwt>
<pdfrwt beam="1">  1        4 0.10047278E+00 0.19810645E+04</pdfrwt>
<pdfrwt beam="2">  1       -4 0.19929331E+00 0.19810645E+04</pdfrwt>
<totfact> 0.20370351E-01</totfact>
</mgrwt>
</event>
<event>
 8    1  0.1287848E-011  0.1610044E+04  0.7818608E-02  0.8814401E-01
         -4   -1    0    0    0  501 -0.00000000000E+00  0.00000000000E+00  0.21258858498E+04  0.21258862292E+04  0.12700000000E+01 0. -1.
          4   -1    0    0  501    0  0.00000000000E+00 -0.00000000000E+00 -0.30484078996E+03  0.30484343543E+03  0.12700000000E+01 0.  1.
     200001    2    1    2    0    0 -0.18386685868E+03  0.29975255429E+03  0.11924749708E+04  0.14263597266E+04  0.69917587066E+03 0.  0.
    5000001    2    3    3    0    0 -0.11843797926E+02 -0.38169884860E+02  0.25863075191E+03  0.30126038276E+03  0.14923383239E+03 0.  0.
        -11    1    4    4    0    0 -0.42253953626E+02 -0.82619293741E+02  0.15174829271E+03  0.17787323755E+03  0.51100000000E-03 0. -1.
     200002    1    4    4    0    0  0.30410155699E+02  0.44449408881E+02  0.10688245920E+03  0.12338714522E+03  0.30000000000E+02 0. -1.
     200000    1    3    3    0    0 -0.17202306075E+03  0.33792243915E+03  0.93384421893E+03  0.11250993439E+04  0.50000000000E+03 0. -1.
    -200001    1    1    2    0    0  0.18386685868E+03 -0.29975255429E+03  0.62857008904E+03  0.10043699380E+04  0.70000000000E+03 0. -1.
<mgrwt>
<rscale>  0 0.16100440E+04</rscale>
<asrwt>0</asrwt>
<pdfrwt beam="1">  1        4 0.43548899E-01 0.16100440E+04</pdfrwt>
<pdfrwt beam="2">  1       -4 0.30369821E+00 0.16100440E+04</pdfrwt>
<totfact> 0.29128606E-01</totfact>
</mgrwt>
</event>
<event>
 8    1  0.1287848E-011  0.1805510E+04  0.7818608E-02  0.8703375E-01
         -4   -1    0    0    0  501 -0.00000000000E+00  0.00000000000E+00  0.66760282487E+03  0.66760403285E+03  0.12700000000E+01 0. -1.
          4   -1    0    0  501    0  0.00000000000E+00 -0.00000000000E+00 -0.12207332135E+04  0.12207338741E+04  0.12700000000E+01 0.  1.
     200001    2    1    2    0    0 -0.14171289472E+03 -0.19241359216E+02  0.30005703642E+03  0.77551197417E+03  0.70066527140E+03 0.  0.
    5000001    2    3    3    0    0 -0.10332593895E+02  0.19400088024E+01  0.10831546951E+03  0.22372010917E+03  0.19546846340E+03 0.  0.
        -11    1    4    4    0    0 -0.46693188265E+02 -0.61049736105E+02  0.12167650630E+03  0.14391836677E+03  0.51100000000E-03 0. -1.
     200002    1    4    4    0    0  0.36360594370E+02  0.62989744908E+02 -0.13361036789E+02  0.79801742403E+02  0.30000000000E+02 0. -1.
     200000    1    3    3    0    0 -0.13138030083E+03 -0.21181368019E+02  0.19174156691E+03  0.55179186500E+03  0.50000000000E+03 0. -1.
    -200001    1    1    2    0    0  0.14171289472E+03  0.19241359216E+02 -0.85318742503E+03  0.11128259328E+04  0.70000000000E+03 0.  1.
<mgrwt>
<rscale>  0 0.18055101E+04</rscale>
<asrwt>0</asrwt>
<pdfrwt beam="1">  1        4 0.17439059E+00 0.18055101E+04</pdfrwt>
<pdfrwt beam="2">  1       -4 0.95371967E-01 0.18055101E+04</pdfrwt>
<totfact> 0.34582097E-01</totfact>
</mgrwt>
</event>
<event>
 8    1  0.1287848E-011  0.2617655E+04  0.7818608E-02  0.8362229E-01
         -4   -1    0    0    0  501 -0.00000000000E+00  0.00000000000E+00  0.29467536333E+04  0.29467539070E+04  0.12700000000E+01 0. -1.
          4   -1    0    0  501    0  0.00000000000E+00 -0.00000000000E+00 -0.58132659326E+03  0.58132798051E+03  0.12700000000E+01 0.  1.
     200001    2    1    2    0    0  0.66000187945E+03  0.11778629189E+03  0.26011641511E+00  0.97201250892E+03  0.70379837909E+03 0.  0.
    5000001    2    3    3    0    0  0.16015370168E+03 -0.72913228379E+02 -0.71392453811E+02  0.23624855311E+03  0.14053807082E+03 0.  0.
        -11    1    4    4    0    0  0.15556490479E+03 -0.58115651416E+02 -0.10224263527E+02  0.16638029964E+03  0.51100000000E-03 0. -1.
     200002    1    4    4    0    0  0.45887968898E+01 -0.14797576962E+02 -0.61168190284E+02  0.69868253473E+02  0.30000000000E+02 0. -1.
     200000    1    3    3    0    0  0.49984817777E+03  0.19069952026E+03  0.71652570226E+02  0.73576395581E+03  0.50000000000E+03 0.  1.
    -200001    1    1    2    0    0 -0.66000187945E+03 -0.11778629189E+03  0.23651669237E+04  0.25560693786E+04  0.70000000000E+03 0. -1.
<mgrwt>
<rscale>  0 0.26176548E+04</rscale>
<asrwt>0</asrwt>
<pdfrwt beam="1">  1        4 0.83046772E-01 0.26176548E+04</pdfrwt>
<pdfrwt beam="2">  1       -4 0.42096494E+00 0.26176548E+04</pdfrwt>
<totfact> 0.10958678E-02</totfact>
</mgrwt>
</event>
<event>
 8    1  0.1287848E-011  0.1954979E+04  0.7818608E-02  0.8627964E-01
          4   -1    0    0  501    0  0.00000000000E+00  0.00000000000E+00  0.12648471669E+04  0.12648478045E+04  0.12700000000E+01 0.  1.
         -4   -1    0    0    0  501 -0.00000000000E+00 -0.00000000000E+00 -0.75541453450E+03  0.75541560206E+03  0.12700000000E+01 0. -1.
     200001    2    1    2    0    0 -0.46256016134E+03 -0.49574220986E+03  0.18022459301E+03  0.99162344295E+03  0.70079519632E+03 0.  0.
    5000001    2    3    3    0    0 -0.21287895060E+03 -0.18016550074E+03  0.82058633928E+02  0.34234236217E+03  0.18079717439E+03 0.  0.
        -11    1    4    4    0    0 -0.25616035085E+01 -0.16857645800E+02 -0.43279488288E+02  0.46517267129E+02  0.51100000000E-03 0. -1.
     200002    1    4    4    0    0 -0.21031734710E+03 -0.16330785494E+03  0.12533812222E+03  0.29582509504E+03  0.30000000000E+02 0. -1.
     200000    1    3    3    0    0 -0.24968121074E+03 -0.31557670912E+03  0.98165959077E+02  0.64928108078E+03  0.50000000000E+03 0.  1.
    -200001    1    1    2    0    0  0.46256016134E+03  0.49574220986E+03  0.32920803938E+03  0.10286399636E+04  0.70000000000E+03 0.  1.
<mgrwt>
<rscale>  0 0.19549789E+04</rscale>
<asrwt>0</asrwt>
<pdfrwt beam="1">  1        4 0.18069258E+00 0.19549789E+04</pdfrwt>
<pdfrwt beam="2">  1       -4 0.10791648E+00 0.19549789E+04</pdfrwt>
<totfact> 0.22964219E-01</totfact>
</mgrwt>
</event>
<event>
 8    1  0.1287848E-011  0.2227665E+04  0.7818608E-02  0.8507001E-01
          4   -1    0    0  501    0  0.00000000000E+00  0.00000000000E+00  0.78633923881E+03  0.78634026439E+03  0.12700000000E+01 0.  1.
         -4   -1    0    0    0  501 -0.00000000000E+00 -0.00000000000E+00 -0.15777171850E+04  0.15777176962E+04  0.12700000000E+01 0. -1.
     200001    2    1    2    0    0 -0.45731392308E+03 -0.19628931575E+03 -0.11477139759E+04  0.14341972797E+04  0.70143349428E+03 0.  0.
    5000001    2    3    3    0    0 -0.12225312569E+03 -0.57324720929E+02 -0.56100207878E+03  0.58225376820E+03  0.77872766882E+02 0.  0.
        -11    1    4    4    0    0 -0.60272103250E+02 -0.11532741031E+02 -0.13490526382E+03  0.14820648013E+03  0.51100000000E-03 0. -1.
     200002    1    4    4    0    0 -0.61981022439E+02 -0.45791979898E+02 -0.42609681496E+03  0.43404728807E+03  0.30000000000E+02 0. -1.
     200000    1    3    3    0    0 -0.33506079739E+03 -0.13896459482E+03 -0.58671189715E+03  0.85194351152E+03  0.50000000000E+03 0. -1.
    -200001    1    1    2    0    0  0.45731392308E+03  0.19628931575E+03  0.35633602971E+03  0.92986068085E+03  0.70000000000E+03 0.  1.
<mgrwt>
<rscale>  0 0.22276649E+04</rscale>
<asrwt>0</asrwt>
<pdfrwt beam="1">  1        4 0.11233429E+00 0.22276649E+04</pdfrwt>
<pdfrwt beam="2">  1       -4 0.22538828E+00 0.22276649E+04</pdfrwt>
<totfact> 0.10326147E-01</totfact>
</mgrwt>
</event>
<event>
 8    1  0.1287848E-011  0.1548153E+04  0.7818608E-02  0.8853049E-01
         -4   -1    0    0    0  501 -0.00000000000E+00  0.00000000000E+00  0.83900785634E+03  0.83900881754E+03  0.12700000000E+01 0. -1.
          4   -1    0    0  501    0  0.00000000000E+00 -0.00000000000E+00 -0.71416805608E+03  0.71416918530E+03  0.12700000000E+01 0.  1.
     200001    2    1    2    0    0 -0.14205491739E+03 -0.10903633698E+03 -0.21242665962E+03  0.75579654626E+03  0.70287609952E+03 0.  0.
    5000001    2    3    3    0    0 -0.13795450851E+03 -0.61200550734E+02 -0.18513910309E+02  0.21736620708E+03  0.15533302701E+03 0.  0.
        -11    1    4    4    0    0 -0.41505869236E+02 -0.50387553878E+02  0.60241524172E+02  0.88829522129E+02  0.51100000000E-03 0. -1.
     200002    1    4    4    0    0 -0.96448639273E+02 -0.10812996856E+02 -0.78755434481E+02  0.12853668495E+03  0.30000000000E+02 0. -1.
     200000    1    3    3    0    0 -0.41004088858E+01 -0.47835786250E+02 -0.19391274931E+03  0.53843033917E+03  0.50000000000E+03 0.  1.
    -200001    1    1    2    0    0  0.14205491739E+03  0.10903633698E+03  0.33726645987E+03  0.79738145658E+03  0.70000000000E+03 0. -1.
<mgrwt>
<rscale>  0 0.15481527E+04</rscale>
<asrwt>0</asrwt>
<pdfrwt beam="1">  1        4 0.10202416E+00 0.15481527E+04</pdfrwt>
<pdfrwt beam="2">  1       -4 0.11985841E+00 0.15481527E+04</pdfrwt>
<totfact> 0.80967768E-01</totfact>
</mgrwt>
</event>
<event>
 8    1  0.1287848E-011  0.1525242E+04  0.7818608E-02  0.8867839E-01
         -4   -1    0    0    0  501 -0.00000000000E+00  0.00000000000E+00  0.54092696162E+03  0.54092845248E+03  0.12700000000E+01 0. -1.
          4   -1    0    0  501    0  0.00000000000E+00 -0.00000000000E+00 -0.10751703604E+04  0.10751711104E+04  0.12700000000E+01 0.  1.
     200001    2    1    2    0    0 -0.11008448641E+03  0.13158157787E+03 -0.53094086219E+03  0.89537547388E+03  0.70026190407E+03 0.  0.
    5000001    2    3    3    0    0 -0.41469448174E+02  0.76014715752E+02 -0.22083639260E+03  0.30042969341E+03  0.18436739474E+03 0.  0.
        -11    1    4    4    0    0 -0.11277128794E+02  0.28936291768E+01 -0.21532960299E+03  0.21564411572E+03  0.51100000000E-03 0. -1.
     200002    1    4    4    0    0 -0.30192319380E+02  0.73121086575E+02 -0.55067896123E+01  0.84785577685E+02  0.30000000000E+02 0. -1.
     200000    1    3    3    0    0 -0.68615038239E+02  0.55566862122E+02 -0.31010446959E+03  0.59494578047E+03  0.50000000000E+03 0. -1.
    -200001    1    1    2    0    0  0.11008448641E+03 -0.13158157787E+03 -0.33025365619E+01  0.72072408905E+03  0.70000000000E+03 0. -1.
<mgrwt>
<rscale>  0 0.15252416E+04</rscale>
<asrwt>0</asrwt>
<pdfrwt beam="1">  1        4 0.15359593E+00 0.15252416E+04</pdfrwt>
<pdfrwt beam="2">  1       -4 0.77275441E-01 0.15252416E+04</pdfrwt>
<totfact> 0.81404399E-01</totfact>
</mgrwt>
</event>
<event>
 8    1  0.1287848E-011  0.1663764E+04  0.7818608E-02  0.8782305E-01
         -4   -1    0    0    0  501 -0.00000000000E+00  0.00000000000E+00  0.97942204864E+03  0.97942287203E+03  0.12700000000E+01 0. -1.
          4   -1    0    0  501    0  0.00000000000E+00 -0.00000000000E+00 -0.70656559489E+03  0.70656673625E+03  0.12700000000E+01 0.  1.
     200001    2    1    2    0    0  0.41574948228E+02  0.28608637954E+03  0.48487821213E+03  0.89952465744E+03  0.70033123296E+03 0.  0.
    5000001    2    3    3    0    0  0.90771914451E+02  0.50647694779E+02  0.19588778536E+03  0.27393119317E+03  0.16081525021E+03 0.  0.
        -11    1    4    4    0    0  0.94768361300E+02  0.37417625984E+02  0.32068698108E+02  0.10681536611E+03  0.51100000000E-03 0. -1.
     200002    1    4    4    0    0 -0.39964468493E+01  0.13230068795E+02  0.16381908726E+03  0.16711582707E+03  0.30000000000E+02 0. -1.
     200000    1    3    3    0    0 -0.49196966223E+02  0.23543868476E+03  0.28899042677E+03  0.62559346426E+03  0.50000000000E+03 0. -1.
    -200001    1    1    2    0    0 -0.41574948228E+02 -0.28608637954E+03 -0.21202175838E+03  0.78646495084E+03  0.70000000000E+03 0.  1.
<mgrwt>
<rscale>  0 0.16637639E+04</rscale>
<asrwt>0</asrwt>
<pdfrwt beam="1">  1        4 0.10093808E+00 0.16637639E+04</pdfrwt>
<pdfrwt beam="2">  1       -4 0.13991758E+00 0.16637639E+04</pdfrwt>
<totfact> 0.55551402E-01</totfact>
</mgrwt>
</event>
<event>
 8    1  0.1287848E-011  0.1881565E+04  0.7818608E-02  0.8664088E-01
         -4   -1    0    0    0  501 -0.00000000000E+00  0.00000000000E+00  0.60459842908E+03  0.60459976294E+03  0.12700000000E+01 0. -1.
          4   -1    0    0  501    0  0.00000000000E+00 -0.00000000000E+00 -0.14638962309E+04  0.14638967818E+04  0.12700000000E+01 0.  1.
     200001    2    1    2    0    0 -0.62985054348E+03  0.11701934969E+02 -0.40157916910E+03  0.10214268292E+04  0.69656176757E+03 0.  0.
    5000001    2    3    3    0    0 -0.26854581290E+03 -0.42926766256E+02 -0.14791439851E+03  0.35219501651E+03  0.16793778455E+03 0.  0.
        -11    1    4    4    0    0 -0.18048510455E+03 -0.10317395910E+03 -0.83767604940E+02  0.22413556264E+03  0.51100000000E-03 0. -1.
     200002    1    4    4    0    0 -0.88060708351E+02  0.60247192845E+02 -0.64146793572E+02  0.12805945387E+03  0.30000000000E+02 0. -1.
     200000    1    3    3    0    0 -0.36130473058E+03  0.54628701224E+02 -0.25366477059E+03  0.66923181273E+03  0.50000000000E+03 0. -1.
    -200001    1    1    2    0    0  0.62985054348E+03 -0.11701934969E+02 -0.45771863276E+03  0.10470697155E+04  0.70000000000E+03 0.  1.
<mgrwt>
<rscale>  0 0.18815646E+04</rscale>
<asrwt>0</asrwt>
<pdfrwt beam="1">  1        4 0.20912817E+00 0.18815646E+04</pdfrwt>
<pdfrwt beam="2">  1       -4 0.86371339E-01 0.18815646E+04</pdfrwt>
<totfact> 0.25231012E-01</totfact>
</mgrwt>
</event>
<event>
 8    1  0.1287848E-011  0.1805329E+04  0.7818608E-02  0.8703471E-01
          4   -1    0    0  501    0  0.00000000000E+00  0.00000000000E+00  0.41851320850E+03  0.41851513544E+03  0.12700000000E+01 0.  1.
         -4   -1    0    0    0  501 -0.00000000000E+00 -0.00000000000E+00 -0.19468935260E+04  0.19468939402E+04  0.12700000000E+01 0. -1.
     200001    2    1    2    0    0 -0.25431768328E+03  0.44673552158E+03 -0.10853409751E+04  0.13904557592E+04  0.70082242821E+03 0.  0.
    5000001    2    3    3    0    0 -0.75084372468E+02  0.17733552843E+03 -0.16777244124E+03  0.29654856466E+03  0.15069142819E+03 0.  0.
        -11    1    4    4    0    0  0.74492111832E+00 -0.29390101524E+01  0.22108552780E+02  0.22315483289E+02  0.51100000000E-03 0. -1.
     200002    1    4    4    0    0 -0.75829293586E+02  0.18027453858E+03 -0.18988099402E+03  0.27423308137E+03  0.30000000000E+02 0. -1.
     200000    1    3    3    0    0 -0.17923331081E+03  0.26939999315E+03 -0.91756853388E+03  0.10939071946E+04  0.50000000000E+03 0. -1.
    -200001    1    1    2    0    0  0.25431768328E+03 -0.44673552158E+03 -0.44303934237E+03  0.97495331640E+03  0.70000000000E+03 0. -1.
<mgrwt>
<rscale>  0 0.18053292E+04</rscale>
<asrwt>0</asrwt>
<pdfrwt beam="1">  1        4 0.59787770E-01 0.18053292E+04</pdfrwt>
<pdfrwt beam="2">  1       -4 0.27812781E+00 0.18053292E+04</pdfrwt>
<totfact> 0.21256249E-01</totfact>
</mgrwt>
</event>
<event>
 8    1  0.1287848E-011  0.1631016E+04  0.7818608E-02  0.8801717E-01
          4   -1    0    0  501    0  0.00000000000E+00  0.00000000000E+00  0.78033328017E+03  0.78033431364E+03  0.12700000000E+01 0.  1.
         -4   -1    0    0    0  501 -0.00000000000E+00 -0.00000000000E+00 -0.85226568754E+03  0.85226663378E+03  0.12700000000E+01 0. -1.
     200001    2    1    2    0    0  0.27242005420E+03  0.15623853337E+03 -0.31257962577E+03  0.82852741287E+03  0.70009176983E+03 0.  0.
    5000001    2    3    3    0    0  0.54858521948E+01 -0.21292474003E+02 -0.27223248746E+02  0.16958933635E+03  0.16593966888E+03 0.  0.
        -11    1    4    4    0    0  0.42854068033E+02 -0.80121175948E+02 -0.73784923036E+01  0.91160935335E+02  0.51100000000E-03 0. -1.
     200002    1    4    4    0    0 -0.37368215838E+02  0.58828701945E+02 -0.19844756442E+02  0.78428401015E+02  0.30000000000E+02 0. -1.
     200000    1    3    3    0    0  0.26693420200E+03  0.17753100737E+03 -0.28535637702E+03  0.65893807652E+03  0.50000000000E+03 0. -1.
    -200001    1    1    2    0    0 -0.27242005420E+03 -0.15623853337E+03  0.24064721840E+03  0.80407353455E+03  0.70000000000E+03 0.  1.
<mgrwt>
<rscale>  0 0.16310155E+04</rscale>
<asrwt>0</asrwt>
<pdfrwt beam="1">  1        4 0.11147633E+00 0.16310155E+04</pdfrwt>
<pdfrwt beam="2">  1       -4 0.12175238E+00 0.16310155E+04</pdfrwt>
<totfact> 0.62443037E-01</totfact>
</mgrwt>
</event>
<event>
 8    1  0.1287848E-011  0.2202718E+04  0.7818608E-02  0.8517298E-01
          4   -1    0    0  501    0  0.00000000000E+00  0.00000000000E+00  0.57774467406E+03  0.57774606992E+03  0.12700000000E+01 0.  1.
         -4   -1    0    0    0  501 -0.00000000000E+00 -0.00000000000E+00 -0.20995255193E+04  0.20995259034E+04  0.12700000000E+01 0. -1.
     200001    2    1    2    0    0 -0.38770291869E+03  0.52452524972E+03 -0.97797395691E+02  0.96170525782E+03  0.69990883804E+03 0.  0.
    5000001    2    3    3    0    0 -0.12422603441E+03  0.14952690851E+03 -0.13503228472E+03  0.28241867513E+03  0.15406552552E+03 0.  0.
        -11    1    4    4    0    0  0.34926040845E+02  0.36107320804E+02 -0.30443634799E+02  0.58739951011E+02  0.51100000000E-03 0. -1.
     200002    1    4    4    0    0 -0.15915207526E+03  0.11341958771E+03 -0.10458864992E+03  0.22367872412E+03  0.30000000000E+02 0. -1.
     200000    1    3    3    0    0 -0.26347688428E+03  0.37499834121E+03  0.37234889025E+02  0.67928658269E+03  0.50000000000E+03 0.  1.
    -200001    1    1    2    0    0  0.38770291869E+03 -0.52452524972E+03 -0.14239834495E+04  0.17155667155E+04  0.70000000000E+03 0. -1.
<mgrwt>
<rscale>  0 0.22027184E+04</rscale>
<asrwt>0</asrwt>
<pdfrwt beam="1">  1        4 0.82535082E-01 0.22027184E+04</pdfrwt>
<pdfrwt beam="2">  1       -4 0.29993234E+00 0.22027184E+04</pdfrwt>
<totfact> 0.73640696E-02</totfact>
</mgrwt>
</event>
<event>
 8    1  0.1287848E-011  0.1504557E+04  0.7818608E-02  0.8881428E-01
          4   -1    0    0  501    0  0.00000000000E+00  0.00000000000E+00  0.21435627625E+03  0.21436003841E+03  0.12700000000E+01 0.  1.
         -4   -1    0    0    0  501 -0.00000000000E+00 -0.00000000000E+00 -0.26400774082E+04  0.26400777137E+04  0.12700000000E+01 0. -1.
     200001    2    1    2    0    0  0.18658340709E+03 -0.55996267285E+02 -0.15825878072E+04  0.17414136045E+04  0.69999158903E+03 0.  0.
    5000001    2    3    3    0    0 -0.13700896611E+02  0.81315932556E+02 -0.47705866987E+03  0.50401184436E+03  0.14015337777E+03 0.  0.
        -11    1    4    4    0    0 -0.12864987965E+02 -0.21707227421E+02 -0.14359401474E+02  0.29032809864E+02  0.51100000000E-03 0. -1.
     200002    1    4    4    0    0 -0.83590864580E+00  0.10302315998E+03 -0.46269926840E+03  0.47497903450E+03  0.30000000000E+02 0. -1.
     200000    1    3    3    0    0  0.20028430370E+03 -0.13731219984E+03 -0.11055291373E+04  0.12374017602E+04  0.50000000000E+03 0. -1.
    -200001    1    1    2    0    0 -0.18658340709E+03  0.55996267285E+02 -0.84313332473E+03  0.11130241475E+04  0.70000000000E+03 0.  1.
<mgrwt>
<rscale>  0 0.15045570E+04</rscale>
<asrwt>0</asrwt>
<pdfrwt beam="1">  1        4 0.30622617E-01 0.15045570E+04</pdfrwt>
<pdfrwt beam="2">  1       -4 0.37715419E+00 0.15045570E+04</pdfrwt>
<totfact> 0.19922760E-01</totfact>
</mgrwt>
</event>
<event>
 8    1  0.1287848E-011  0.1571523E+04  0.7818608E-02  0.8838236E-01
          4   -1    0    0  501    0  0.00000000000E+00  0.00000000000E+00  0.71512856889E+03  0.71512969659E+03  0.12700000000E+01 0.  1.
         -4   -1    0    0    0  501 -0.00000000000E+00 -0.00000000000E+00 -0.86336814064E+03  0.86336907471E+03  0.12700000000E+01 0. -1.
     200001    2    1    2    0    0 -0.77598958484E+02  0.27309069189E+03 -0.29091384757E+03  0.80976209770E+03  0.70034538894E+03 0.  0.
    5000001    2    3    3    0    0  0.93308916089E+02  0.28462137941E+02 -0.11987009826E+03  0.20287776344E+03  0.13143020704E+03 0.  0.
        -11    1    4    4    0    0  0.57120880164E+02  0.77140431818E+02 -0.68661417642E+02  0.11801623382E+03  0.51100000000E-03 0. -1.
     200002    1    4    4    0    0  0.36188035926E+02 -0.48678293877E+02 -0.51208680619E+02  0.84861529622E+02  0.30000000000E+02 0. -1.
     200000    1    3    3    0    0 -0.17090787457E+03  0.24462855394E+03 -0.17104374931E+03  0.60688433426E+03  0.50000000000E+03 0. -1.
    -200001    1    1    2    0    0  0.77598958484E+02 -0.27309069189E+03  0.14267427582E+03  0.76873667360E+03  0.70000000000E+03 0.  1.
<mgrwt>
<rscale>  0 0.15715226E+04</rscale>
<asrwt>0</asrwt>
<pdfrwt beam="1">  1        4 0.10216137E+00 0.15715226E+04</pdfrwt>
<pdfrwt beam="2">  1       -4 0.12333845E+00 0.15715226E+04</pdfrwt>
<totfact> 0.74993730E-01</totfact>
</mgrwt>
</event>
<event>
 8    1  0.1287848E-011  0.1828953E+04  0.7818608E-02  0.8691052E-01
          4   -1    0    0  501    0  0.00000000000E+00  0.00000000000E+00  0.10129195239E+04  0.10129203201E+04  0.12700000000E+01 0.  1.
         -4   -1    0    0    0  501 -0.00000000000E+00 -0.00000000000E+00 -0.82559960495E+03  0.82560058176E+03  0.12700000000E+01 0. -1.
     200001    2    1    2    0    0 -0.31403523167E+03  0.42250256595E+03  0.35822524397E+03  0.94614476193E+03  0.69981286081E+03 0.  0.
    5000001    2    3    3    0    0 -0.79185011107E+02  0.12102540616E+03  0.62084174742E+02  0.25062866804E+03  0.19504581403E+03 0.  0.
        -11    1    4    4    0    0 -0.11514948640E+03  0.79015904288E+01  0.49706904042E+01  0.11552725702E+03  0.51100000000E-03 0. -1.
     200002    1    4    4    0    0  0.35964475297E+02  0.11312381573E+03  0.57113484338E+02  0.13510141103E+03  0.30000000000E+02 0. -1.
     200000    1    3    3    0    0 -0.23485022056E+03  0.30147715979E+03  0.29614106923E+03  0.69551609389E+03  0.50000000000E+03 0.  1.
    -200001    1    1    2    0    0  0.31403523167E+03 -0.42250256595E+03 -0.17090532501E+03  0.89237613991E+03  0.70000000000E+03 0. -1.
<mgrwt>
<rscale>  0 0.18289533E+04</rscale>
<asrwt>0</asrwt>
<pdfrwt beam="1">  1        4 0.14470292E+00 0.18289533E+04</pdfrwt>
<pdfrwt beam="2">  1       -4 0.11794293E+00 0.18289533E+04</pdfrwt>
<totfact> 0.34397776E-01</totfact>
</mgrwt>
</event>
<event>
 8    1  0.1287848E-011  0.1411884E+04  0.7818608E-02  0.8945261E-01
         -4   -1    0    0    0  501 -0.00000000000E+00  0.00000000000E+00  0.41905063064E+03  0.41905255510E+03  0.12700000000E+01 0. -1.
          4   -1    0    0  501    0  0.00000000000E+00 -0.00000000000E+00 -0.11892409488E+04  0.11892416269E+04  0.12700000000E+01 0.  1.
     200001    2    1    2    0    0 -0.42204909399E+02  0.81465014221E+02 -0.38190322633E+03  0.80257421290E+03  0.69989819975E+03 0.  0.
    5000001    2    3    3    0    0  0.33718804680E+02  0.53575965608E+02 -0.93932373347E+02  0.21993416831E+03  0.18852163204E+03 0.  0.
        -11    1    4    4    0    0 -0.33848608447E+02 -0.89689405090E+01 -0.11552891139E+03  0.12071909358E+03  0.51100000000E-03 0. -1.
     200002    1    4    4    0    0  0.67567413126E+02  0.62544906117E+02  0.21596538044E+02  0.99215074727E+02  0.30000000000E+02 0. -1.
     200000    1    3    3    0    0 -0.75923714079E+02  0.27889048613E+02 -0.28797085298E+03  0.58264004459E+03  0.50000000000E+03 0.  1.
    -200001    1    1    2    0    0  0.42204909399E+02 -0.81465014221E+02 -0.38828709179E+03  0.80571996908E+03  0.70000000000E+03 0. -1.
<mgrwt>
<rscale>  0 0.14118842E+04</rscale>
<asrwt>0</asrwt>
<pdfrwt beam="1">  1        4 0.16989175E+00 0.14118842E+04</pdfrwt>
<pdfrwt beam="2">  1       -4 0.59864562E-01 0.14118842E+04</pdfrwt>
<totfact> 0.10906095E+00</totfact>
</mgrwt>
</event>
<event>
 8    1  0.1287848E-011  0.1784647E+04  0.7818608E-02  0.8714507E-01
         -4   -1    0    0    0  501 -0.00000000000E+00  0.00000000000E+00  0.25121852408E+04  0.25121855618E+04  0.12700000000E+01 0. -1.
          4   -1    0    0  501    0  0.00000000000E+00 -0.00000000000E+00 -0.31695002336E+03  0.31695256776E+03  0.12700000000E+01 0.  1.
     200001    2    1    2    0    0 -0.55462346617E+02  0.38084441852E+03  0.17281658314E+04  0.19037882745E+04  0.69981005285E+03 0.  0.
    5000001    2    3    3    0    0 -0.62030562490E+02  0.15431728993E+03  0.30021697737E+03  0.37395311627E+03  0.14848933637E+03 0.  0.
        -11    1    4    4    0    0 -0.34312102446E+02  0.78404990659E+00  0.35110610274E-01  0.34321077220E+02  0.51100000000E-03 0. -1.
     200002    1    4    4    0    0 -0.27718460044E+02  0.15353324002E+03  0.30018186676E+03  0.33963203905E+03  0.30000000000E+02 0. -1.
     200000    1    3    3    0    0  0.65682158729E+01  0.22652712860E+03  0.14279488541E+04  0.15298351582E+04  0.50000000000E+03 0. -1.
    -200001    1    1    2    0    0  0.55462346617E+02 -0.38084441852E+03  0.46706938602E+03  0.92534985512E+03  0.70000000000E+03 0.  1.
<mgrwt>
<rscale>  0 0.17846470E+04</rscale>
<asrwt>0</asrwt>
<pdfrwt beam="1">  1        4 0.45278782E-01 0.17846470E+04</pdfrwt>
<pdfrwt beam="2">  1       -4 0.35888379E+00 0.17846470E+04</pdfrwt>
<totfact> 0.11765785E-01</totfact>
</mgrwt>
</event>
<event>
 8    1  0.1287848E-011  0.2042308E+04  0.7818608E-02  0.8587092E-01
          4   -1    0    0  501    0  0.00000000000E+00  0.00000000000E+00  0.49616968038E+03  0.49617130573E+03  0.12700000000E+01 0.  1.
         -4   -1    0    0    0  501 -0.00000000000E+00 -0.00000000000E+00 -0.21016058040E+04  0.21016061877E+04  0.12700000000E+01 0. -1.
     200001    2    1    2    0    0 -0.60323564671E+03  0.19686236190E+03 -0.31002729042E+03  0.99442722602E+03  0.70008610332E+03 0.  0.
    5000001    2    3    3    0    0 -0.10371019315E+03  0.19709209068E+02 -0.15689285858E+03  0.24987429135E+03  0.16333259112E+03 0.  0.
        -11    1    4    4    0    0  0.36902037893E+02  0.14946685554E+02 -0.73510867881E+02  0.83600308053E+02  0.51100000000E-03 0. -1.
     200002    1    4    4    0    0 -0.14061223105E+03  0.47625235141E+01 -0.83381990694E+02  0.16627398330E+03  0.30000000000E+02 0. -1.
     200000    1    3    3    0    0 -0.49952545355E+03  0.17715315283E+03 -0.15313443185E+03  0.74455293467E+03  0.50000000000E+03 0.  1.
    -200001    1    1    2    0    0  0.60323564671E+03 -0.19686236190E+03 -0.12954088332E+04  0.16033502674E+04  0.70000000000E+03 0. -1.
<mgrwt>
<rscale>  0 0.20423082E+04</rscale>
<asrwt>0</asrwt>
<pdfrwt beam="1">  1        4 0.70881527E-01 0.20423082E+04</pdfrwt>
<pdfrwt beam="2">  1       -4 0.30022954E+00 0.20423082E+04</pdfrwt>
<totfact> 0.10474619E-01</totfact>
</mgrwt>
</event>
<event>
 8    1  0.1287848E-011  0.2003194E+04  0.7818608E-02  0.8605129E-01
         -4   -1    0    0    0  501 -0.00000000000E+00  0.00000000000E+00  0.16137042661E+04  0.16137047659E+04  0.12700000000E+01 0. -1.
          4   -1    0    0  501    0  0.00000000000E+00 -0.00000000000E+00 -0.62167155587E+03  0.62167285309E+03  0.12700000000E+01 0.  1.
     200001    2    1    2    0    0 -0.29588426235E+03 -0.62973516185E+03  0.68762162648E+03  0.12025272045E+04  0.69938137347E+03 0.  0.
    5000001    2    3    3    0    0 -0.34061250635E+02 -0.21952259285E+03  0.18196595918E+03  0.34083509294E+03  0.18359360750E+03 0.  0.
        -11    1    4    4    0    0 -0.85094849386E+02 -0.14078388443E+03  0.42178618821E+02  0.16982423677E+03  0.51100000000E-03 0. -1.
     200002    1    4    4    0    0  0.51033598751E+02 -0.78738708412E+02  0.13978734035E+03  0.17101085617E+03  0.30000000000E+02 0. -1.
     200000    1    3    3    0    0 -0.26182301171E+03 -0.41021256900E+03  0.50565566731E+03  0.86169211155E+03  0.50000000000E+03 0. -1.
    -200001    1    1    2    0    0  0.29588426235E+03  0.62973516185E+03  0.30441108378E+03  0.10328504145E+04  0.70000000000E+03 0.  1.
<mgrwt>
<rscale>  0 0.20031935E+04</rscale>
<asrwt>0</asrwt>
<pdfrwt beam="1">  1        4 0.88810351E-01 0.20031935E+04</pdfrwt>
<pdfrwt beam="2">  1       -4 0.23052931E+00 0.20031935E+04</pdfrwt>
<totfact> 0.17093079E-01</totfact>
</mgrwt>
</event>
<event>
 8    1  0.1287848E-011  0.1908727E+04  0.7818608E-02  0.8650524E-01
          4   -1    0    0  501    0  0.00000000000E+00  0.00000000000E+00  0.56779410649E+03  0.56779552681E+03  0.12700000000E+01 0.  1.
         -4   -1    0    0    0  501 -0.00000000000E+00 -0.00000000000E+00 -0.16041166306E+04  0.16041171334E+04  0.12700000000E+01 0. -1.
     200001    2    1    2    0    0 -0.53924058167E+03  0.31758868072E+03 -0.32139803505E+03  0.99176012760E+03  0.69903396107E+03 0.  0.
    5000001    2    3    3    0    0 -0.19178952916E+03  0.48634844787E+02 -0.11903010552E+03  0.29605100832E+03  0.18528211431E+03 0.  0.
        -11    1    4    4    0    0 -0.85424459430E+02  0.10041644105E+03 -0.11336558661E+03  0.17387511648E+03  0.51100000000E-03 0. -1.
     200002    1    4    4    0    0 -0.10636506973E+03 -0.51781596268E+02 -0.56645189038E+01  0.12217589184E+03  0.30000000000E+02 0. -1.
     200000    1    3    3    0    0 -0.34745105250E+03  0.26895383594E+03 -0.20236792953E+03  0.69570911928E+03  0.50000000000E+03 0.  1.
    -200001    1    1    2    0    0  0.53924058167E+03 -0.31758868072E+03 -0.71492448911E+03  0.11801525326E+04  0.70000000000E+03 0. -1.
<mgrwt>
<rscale>  0 0.19087274E+04</rscale>
<asrwt>0</asrwt>
<pdfrwt beam="1">  1        4 0.81113581E-01 0.19087274E+04</pdfrwt>
<pdfrwt beam="2">  1       -4 0.22915966E+00 0.19087274E+04</pdfrwt>
<totfact> 0.21641364E-01</totfact>
</mgrwt>
</event>
<event>
 8    1  0.1423388E-011  0.1472322E+04  0.7818608E-02  0.8903070E-01
          4   -1    0    0  501    0  0.00000000000E+00  0.00000000000E+00  0.11640116112E+04  0.11640123040E+04  0.12700000000E+01 0.  1.
         -4   -1    0    0    0  501 -0.00000000000E+00 -0.00000000000E+00 -0.46557187492E+03  0.46557360709E+03  0.12700000000E+01 0. -1.
     200001    2    1    2    0    0 -0.18421512027E+03 -0.49109430554E+02  0.46225158623E+03  0.86661029620E+03  0.70780642114E+03 0.  0.
    5000001    2    3    3    0    0 -0.73868294994E+02 -0.62423283483E+02  0.32690211496E+02  0.19812196033E+03  0.16979537659E+03 0.  0.
        -11    1    4    4    0    0 -0.41370664166E+02  0.10755775704E+01 -0.62802001972E+02  0.75211569407E+02  0.51100000000E-03 0. -1.
     200002    1    4    4    0    0 -0.32497630828E+02 -0.63498861054E+02  0.95492213468E+02  0.12291039093E+03  0.30000000000E+02 0. -1.
     200000    1    3    3    0    0 -0.11034682528E+03  0.13313852930E+02  0.42956137473E+03  0.66848833587E+03  0.50000000000E+03 0.  1.
    -200001    1    1    2    0    0  0.18421512027E+03  0.49109430554E+02  0.23618815004E+03  0.76297561489E+03  0.70000000000E+03 0. -1.
<mgrwt>
<rscale>  0 0.14723220E+04</rscale>
<asrwt>0</asrwt>
<pdfrwt beam="1">  1        4 0.16628755E+00 0.14723220E+04</pdfrwt>
<pdfrwt beam="2">  1       -4 0.66510441E-01 0.14723220E+04</pdfrwt>
<totfact> 0.91760344E-01</totfact>
</mgrwt>
</event>
<event>
 8    1  0.1287848E-011  0.1772028E+04  0.7818608E-02  0.8721318E-01
          4   -1    0    0  501    0  0.00000000000E+00  0.00000000000E+00  0.35448454970E+04  0.35448457245E+04  0.12700000000E+01 0.  1.
         -4   -1    0    0    0  501 -0.00000000000E+00 -0.00000000000E+00 -0.22145219514E+03  0.22145583675E+03  0.12700000000E+01 0. -1.
     200001    2    1    2    0    0  0.16411347135E+03  0.50446601926E+03  0.14140758073E+04  0.16646563745E+04  0.70003661350E+03 0.  0.
    5000001    2    3    3    0    0  0.10952828248E+03  0.12423718427E+03  0.22601413110E+03  0.31964929038E+03  0.15382444139E+03 0.  0.
        -11    1    4    4    0    0  0.12967803309E+03  0.44466893205E+02  0.12044667207E+03  0.18248588348E+03  0.51100000000E-03 0. -1.
     200002    1    4    4    0    0 -0.20149750615E+02  0.79770291070E+02  0.10556745903E+03  0.13716340690E+03  0.30000000000E+02 0. -1.
     200000    1    3    3    0    0  0.54585188870E+02  0.38022883499E+03  0.11880616763E+04  0.13450070841E+04  0.50000000000E+03 0.  1.
    -200001    1    1    2    0    0 -0.16411347135E+03 -0.50446601926E+03  0.19093174946E+04  0.21016451868E+04  0.70000000000E+03 0. -1.
<mgrwt>
<rscale>  0 0.17720283E+04</rscale>
<asrwt>0</asrwt>
<pdfrwt beam="1">  1        4 0.50640677E+00 0.17720283E+04</pdfrwt>
<pdfrwt beam="2">  1       -4 0.31636304E-01 0.17720283E+04</pdfrwt>
<totfact> 0.20118322E-02</totfact>
</mgrwt>
</event>
<event>
 8    1  0.1287848E-011  0.1827930E+04  0.7818608E-02  0.8691586E-01
          4   -1    0    0  501    0  0.00000000000E+00  0.00000000000E+00  0.68660179422E+03  0.68660296877E+03  0.12700000000E+01 0.  1.
         -4   -1    0    0    0  501 -0.00000000000E+00 -0.00000000000E+00 -0.12166159673E+04  0.12166166302E+04  0.12700000000E+01 0. -1.
     200001    2    1    2    0    0  0.51308845735E+03 -0.23264691010E+03 -0.43781728776E+03  0.99995628436E+03  0.70060277142E+03 0.  0.
    5000001    2    3    3    0    0  0.20554736122E+03 -0.11677024502E+02 -0.16736604181E+03  0.31690936607E+03  0.17330344413E+03 0.  0.
        -11    1    4    4    0    0  0.14031611790E+02  0.56414057635E+02 -0.12101117037E+02  0.59379028807E+02  0.51100000000E-03 0. -1.
     200002    1    4    4    0    0  0.19151574943E+03 -0.68091082137E+02 -0.15526492477E+03  0.25753033726E+03  0.30000000000E+02 0. -1.
     200000    1    3    3    0    0  0.30754109613E+03 -0.22096988560E+03 -0.27045124595E+03  0.68304691829E+03  0.50000000000E+03 0.  1.
    -200001    1    1    2    0    0 -0.51308845735E+03  0.23264691010E+03 -0.92196885350E+02  0.90326331461E+03  0.70000000000E+03 0.  1.
<mgrwt>
<rscale>  0 0.18279305E+04</rscale>
<asrwt>0</asrwt>
<pdfrwt beam="1">  1        4 0.98086102E-01 0.18279305E+04</pdfrwt>
<pdfrwt beam="2">  1       -4 0.17380241E+00 0.18279305E+04</pdfrwt>
<totfact> 0.32619471E-01</totfact>
</mgrwt>
</event>
<event>
 8    1  0.1287848E-011  0.1440411E+04  0.7818608E-02  0.8925075E-01
          4   -1    0    0  501    0  0.00000000000E+00  0.00000000000E+00  0.10497206961E+04  0.10497214644E+04  0.12700000000E+01 0.  1.
         -4   -1    0    0    0  501 -0.00000000000E+00 -0.00000000000E+00 -0.49412593841E+03  0.49412757048E+03  0.12700000000E+01 0. -1.
     200001    2    1    2    0    0  0.52406632654E+02 -0.11664335818E+03  0.37424870226E+03  0.80952041635E+03  0.70633496671E+03 0.  0.
    5000001    2    3    3    0    0  0.93319921047E+02  0.15880841928E+02  0.68313444688E+02  0.20716425709E+03  0.17114173624E+03 0.  0.
        -11    1    4    4    0    0  0.41057155084E+02 -0.39335457809E+02 -0.41413487909E+02  0.70342342907E+02  0.51100000000E-03 0. -1.
     200002    1    4    4    0    0  0.52262765963E+02  0.55216299737E+02  0.10972693260E+03  0.13682191418E+03  0.30000000000E+02 0. -1.
     200000    1    3    3    0    0 -0.40913288393E+02 -0.13252420011E+03  0.30593525757E+03  0.60235615927E+03  0.50000000000E+03 0.  1.
    -200001    1    1    2    0    0 -0.52406632654E+02  0.11664335818E+03  0.18134605548E+03  0.73432861853E+03  0.70000000000E+03 0.  1.
<mgrwt>
<rscale>  0 0.14404112E+04</rscale>
<asrwt>0</asrwt>
<pdfrwt beam="1">  1        4 0.14996027E+00 0.14404112E+04</pdfrwt>
<pdfrwt beam="2">  1       -4 0.70589591E-01 0.14404112E+04</pdfrwt>
<totfact> 0.10685062E+00</totfact>
</mgrwt>
</event>
<event>
 8    1  0.1287848E-011  0.1937750E+04  0.7818608E-02  0.8636291E-01
          4   -1    0    0  501    0  0.00000000000E+00  0.00000000000E+00  0.32242380339E+03  0.32242630460E+03  0.12700000000E+01 0.  1.
         -4   -1    0    0    0  501 -0.00000000000E+00 -0.00000000000E+00 -0.29114285008E+04  0.29114287778E+04  0.12700000000E+01 0. -1.
     200001    2    1    2    0    0  0.23019392849E+03 -0.45113701187E+03 -0.56322258256E+03  0.10315138225E+04  0.70020514158E+03 0.  0.
    5000001    2    3    3    0    0  0.54880174175E+02 -0.15045557952E+03 -0.27169650316E+03  0.35613859998E+03  0.16542973627E+03 0.  0.
        -11    1    4    4    0    0  0.52233588039E+02 -0.25785002220E+02 -0.20186927312E+03  0.21010572931E+03  0.51100000000E-03 0. -1.
     200002    1    4    4    0    0  0.26465861355E+01 -0.12467057730E+03 -0.69827230042E+02  0.14603287067E+03  0.30000000000E+02 0. -1.
     200000    1    3    3    0    0  0.17531375432E+03 -0.30068143235E+03 -0.29152607940E+03  0.67537522251E+03  0.50000000000E+03 0.  1.
    -200001    1    1    2    0    0 -0.23019392849E+03  0.45113701187E+03 -0.20257821148E+04  0.22023412599E+04  0.70000000000E+03 0. -1.
<mgrwt>
<rscale>  0 0.19377496E+04</rscale>
<asrwt>0</asrwt>
<pdfrwt beam="1">  1        4 0.46060744E-01 0.19377496E+04</pdfrwt>
<pdfrwt beam="2">  1       -4 0.41591854E+00 0.19377496E+04</pdfrwt>
<totfact> 0.45574659E-02</totfact>
</mgrwt>
</event>
<event>
 8    1  0.1287848E-011  0.2065682E+04  0.7818608E-02  0.8576513E-01
         -4   -1    0    0    0  501 -0.00000000000E+00  0.00000000000E+00  0.17502953246E+04  0.17502957853E+04  0.12700000000E+01 0. -1.
          4   -1    0    0  501    0  0.00000000000E+00 -0.00000000000E+00 -0.60947365285E+03  0.60947497604E+03  0.12700000000E+01 0.  1.
     200001    2    1    2    0    0  0.58746865520E+02  0.38685998596E+03 -0.17297590285E+03  0.82055800483E+03  0.70020206611E+03 0.  0.
    5000001    2    3    3    0    0  0.54996202724E+02  0.10650597639E+03  0.27548961634E+02  0.21325029088E+03  0.17420859896E+03 0.  0.
        -11    1    4    4    0    0 -0.52771453623E+01  0.24601785282E+02 -0.66764376315E+02  0.71348286926E+02  0.51100000000E-03 0. -1.
     200002    1    4    4    0    0  0.60273348086E+02  0.81904191104E+02  0.94313337950E+02  0.14190200395E+03  0.30000000000E+02 0. -1.
     200000    1    3    3    0    0  0.37506627967E+01  0.28035400957E+03 -0.20052486448E+03  0.60730771396E+03  0.50000000000E+03 0.  1.
    -200001    1    1    2    0    0 -0.58746865520E+02 -0.38685998596E+03  0.13137975746E+04  0.15392127566E+04  0.70000000000E+03 0. -1.
<mgrwt>
<rscale>  0 0.20656824E+04</rscale>
<asrwt>0</asrwt>
<pdfrwt beam="1">  1        4 0.87067791E-01 0.20656824E+04</pdfrwt>
<pdfrwt beam="2">  1       -4 0.25004232E+00 0.20656824E+04</pdfrwt>
<totfact> 0.13438897E-01</totfact>
</mgrwt>
</event>
<event>
 8    1  0.1287848E-011  0.1486081E+04  0.7818608E-02  0.8893762E-01
         -4   -1    0    0    0  501 -0.00000000000E+00  0.00000000000E+00  0.12790954838E+04  0.12790961143E+04  0.12700000000E+01 0. -1.
          4   -1    0    0  501    0  0.00000000000E+00 -0.00000000000E+00 -0.43163868470E+03  0.43164055304E+03  0.12700000000E+01 0.  1.
     200001    2    1    2    0    0  0.65536933823E+02 -0.16975257229E+03  0.22728567389E+03  0.75799155448E+03  0.69984383516E+03 0.  0.
    5000001    2    3    3    0    0  0.81509058530E+02 -0.66331673504E+02  0.84728266092E+02  0.22763921349E+03  0.18329515791E+03 0.  0.
        -11    1    4    4    0    0  0.12691980298E+03 -0.83935435216E+02  0.47562367168E+02  0.15942387665E+03  0.51100000000E-03 0. -1.
     200002    1    4    4    0    0 -0.45410744452E+02  0.17603761711E+02  0.37165898924E+02  0.68215336846E+02  0.30000000000E+02 0. -1.
     200000    1    3    3    0    0 -0.15972124707E+02 -0.10342089878E+03  0.14255740780E+03  0.53035234099E+03  0.50000000000E+03 0.  1.
    -200001    1    1    2    0    0 -0.65536933823E+02  0.16975257229E+03  0.62017112520E+03  0.95274511283E+03  0.70000000000E+03 0. -1.
<mgrwt>
<rscale>  0 0.14860811E+04</rscale>
<asrwt>0</asrwt>
<pdfrwt beam="1">  1        4 0.61662847E-01 0.14860811E+04</pdfrwt>
<pdfrwt beam="2">  1       -4 0.18272811E+00 0.14860811E+04</pdfrwt>
<totfact> 0.82722012E-01</totfact>
</mgrwt>
</event>
<event>
 8    1  0.1287848E-011  0.1692597E+04  0.7818608E-02  0.8765598E-01
         -4   -1    0    0    0  501 -0.00000000000E+00  0.00000000000E+00  0.10345032836E+04  0.10345040632E+04  0.12700000000E+01 0.  1.
          4   -1    0    0  501    0  0.00000000000E+00 -0.00000000000E+00 -0.69233208465E+03  0.69233324948E+03  0.12700000000E+01 0. -1.
     200001    2    1    2    0    0 -0.25800510541E+03 -0.30815690416E+03  0.41431036328E+03  0.91644767117E+03  0.71182578268E+03 0.  0.
    5000001    2    3    3    0    0  0.69627845520E+01  0.31090031445E+02  0.69556177307E+02  0.17203386503E+03  0.15408607495E+03 0.  0.
        -11    1    4    4    0    0 -0.62063499341E+02  0.42368221288E+02  0.10865615382E+02  0.75927634781E+02  0.51100000000E-03 0. -1.
     200002    1    4    4    0    0  0.69026283893E+02 -0.11278189843E+02  0.58690561925E+02  0.96106230252E+02  0.30000000000E+02 0. -1.
     200000    1    3    3    0    0 -0.26496788996E+03 -0.33924693561E+03  0.34475418597E+03  0.74441380614E+03  0.50000000000E+03 0. -1.
    -200001    1    1    2    0    0  0.25800510541E+03  0.30815690416E+03 -0.72139164297E+02  0.81038964149E+03  0.70000000000E+03 0. -1.
<mgrwt>
<rscale>  0 0.16925974E+04</rscale>
<asrwt>0</asrwt>
<pdfrwt beam="1">  1        4 0.98904722E-01 0.16925974E+04</pdfrwt>
<pdfrwt beam="2">  1       -4 0.14778632E+00 0.16925974E+04</pdfrwt>
<totfact> 0.50382573E-01</totfact>
</mgrwt>
</event>
<event>
 8    1  0.1287848E-011  0.1884521E+04  0.7818608E-02  0.8662600E-01
          4   -1    0    0  501    0  0.00000000000E+00  0.00000000000E+00  0.91908073083E+03  0.91908160828E+03  0.12700000000E+01 0.  1.
         -4   -1    0    0    0  501 -0.00000000000E+00 -0.00000000000E+00 -0.96602330093E+03  0.96602413575E+03  0.12700000000E+01 0. -1.
     200001    2    1    2    0    0  0.15421306698E+03 -0.50008867537E+03 -0.37603605529E+03  0.95120378169E+03  0.69965360441E+03 0.  0.
    5000001    2    3    3    0    0  0.43285418604E+02 -0.23190097498E+03 -0.12259229745E+03  0.31996426756E+03  0.17803530958E+03 0.  0.
        -11    1    4    4    0    0  0.65315854023E+02 -0.22774715567E+03 -0.14357505516E+03  0.27703560090E+03  0.51100000000E-03 0. -1.
     200002    1    4    4    0    0 -0.22030435419E+02 -0.41538193060E+01  0.20982757708E+02  0.42928666653E+02  0.30000000000E+02 0. -1.
     200000    1    3    3    0    0  0.11092764837E+03 -0.26818770039E+03 -0.25344375784E+03  0.63123951413E+03  0.50000000000E+03 0.  1.
    -200001    1    1    2    0    0 -0.15421306698E+03  0.50008867537E+03  0.32909348519E+03  0.93390196233E+03  0.70000000000E+03 0. -1.
<mgrwt>
<rscale>  0 0.18845212E+04</rscale>
<asrwt>0</asrwt>
<pdfrwt beam="1">  1        4 0.13129737E+00 0.18845212E+04</pdfrwt>
<pdfrwt beam="2">  1       -4 0.13800345E+00 0.18845212E+04</pdfrwt>
<totfact> 0.29594653E-01</totfact>
</mgrwt>
</event>
<event>
 8    1  0.1287848E-011  0.1905103E+04  0.7818608E-02  0.8652321E-01
         -4   -1    0    0    0  501 -0.00000000000E+00  0.00000000000E+00  0.10774671209E+04  0.10774678694E+04  0.12700000000E+01 0. -1.
          4   -1    0    0  501    0  0.00000000000E+00 -0.00000000000E+00 -0.84211598871E+03  0.84211694636E+03  0.12700000000E+01 0.  1.
     200001    2    1    2    0    0 -0.42547239242E+02  0.63773184234E+03  0.21357046541E+03  0.97143579385E+03  0.69968777863E+03 0.  0.
    5000001    2    3    3    0    0  0.74375769843E+02  0.24568781315E+03 -0.17896865605E+02  0.28518027569E+03  0.12293589863E+03 0.  0.
        -11    1    4    4    0    0  0.70264966715E+02  0.22738634611E+03 -0.42933316084E+02  0.24183669195E+03  0.51100000000E-03 0. -1.
     200002    1    4    4    0    0  0.41108031282E+01  0.18301467041E+02  0.25036450479E+02  0.43343583733E+02  0.30000000000E+02 0.  1.
     200000    1    3    3    0    0 -0.11692300909E+03  0.39204402919E+03  0.23146733102E+03  0.68625551816E+03  0.50000000000E+03 0. -1.
    -200001    1    1    2    0    0  0.42547239242E+02 -0.63773184234E+03  0.21780666803E+02  0.94814902191E+03  0.70000000000E+03 0. -1.
<mgrwt>
<rscale>  0 0.19051025E+04</rscale>
<asrwt>0</asrwt>
<pdfrwt beam="1">  1        4 0.12030240E+00 0.19051025E+04</pdfrwt>
<pdfrwt beam="2">  1       -4 0.15392400E+00 0.19051025E+04</pdfrwt>
<totfact> 0.27610548E-01</totfact>
</mgrwt>
</event>
<event>
 8    1  0.1287848E-011  0.1585769E+04  0.7818608E-02  0.8829339E-01
          4   -1    0    0  501    0  0.00000000000E+00  0.00000000000E+00  0.40294149006E+03  0.40294349146E+03  0.12700000000E+01 0.  1.
         -4   -1    0    0    0  501 -0.00000000000E+00 -0.00000000000E+00 -0.15601845592E+04  0.15601850761E+04  0.12700000000E+01 0. -1.
     200001    2    1    2    0    0 -0.94758590438E+02 -0.58896215683E+02 -0.10186279502E+04  0.12408667689E+04  0.69978531170E+03 0.  0.
    5000001    2    3    3    0    0  0.13723396626E+02  0.20536068451E+01 -0.52357869738E+02  0.14580462873E+03  0.13537021208E+03 0.  0.
        -11    1    4    4    0    0  0.25491117437E+02  0.53450571564E+02  0.85595917312E+01  0.59833329170E+02  0.51100000000E-03 0. -1.
     200002    1    4    4    0    0 -0.11767720811E+02 -0.51396964719E+02 -0.60917461470E+02  0.85971299556E+02  0.30000000000E+02 0. -1.
     200000    1    3    3    0    0 -0.10848198706E+03 -0.60949822528E+02 -0.96627008045E+03  0.10950621401E+04  0.50000000000E+03 0. -1.
    -200001    1    1    2    0    0  0.94758590438E+02  0.58896215683E+02 -0.13861511897E+03  0.72226179872E+03  0.70000000000E+03 0.  1.
<mgrwt>
<rscale>  0 0.15857687E+04</rscale>
<asrwt>0</asrwt>
<pdfrwt beam="1">  1        4 0.57563250E-01 0.15857687E+04</pdfrwt>
<pdfrwt beam="2">  1       -4 0.22288369E+00 0.15857687E+04</pdfrwt>
<totfact> 0.51793684E-01</totfact>
</mgrwt>
</event>
<event>
 8    1  0.1287848E-011  0.1538674E+04  0.7818608E-02  0.8859135E-01
          4   -1    0    0  501    0  0.00000000000E+00  0.00000000000E+00  0.27689205584E+04  0.27689208496E+04  0.12700000000E+01 0.  1.
         -4   -1    0    0    0  501 -0.00000000000E+00 -0.00000000000E+00 -0.21375604524E+03  0.21375981797E+03  0.12700000000E+01 0. -1.
     200001    2    1    2    0    0 -0.10299047635E+03 -0.22415420304E+03  0.16684407161E+04  0.18263367580E+04  0.70068494035E+03 0.  0.
    5000001    2    3    3    0    0 -0.98969556895E+01 -0.69354714045E+02  0.21699186104E+03  0.28058999214E+03  0.16351528932E+03 0.  0.
        -11    1    4    4    0    0 -0.66832041729E+02 -0.15872539264E+01  0.15400780971E+03  0.16789117496E+03  0.51100000000E-03 0. -1.
     200002    1    4    4    0    0  0.56935086039E+02 -0.67767460118E+02  0.62984051322E+02  0.11269881718E+03  0.30000000000E+02 0. -1.
     200000    1    3    3    0    0 -0.93093520657E+02 -0.15479948899E+03  0.14514488551E+04  0.15457467659E+04  0.50000000000E+03 0.  1.
    -200001    1    1    2    0    0  0.10299047635E+03  0.22415420304E+03  0.88672379702E+03  0.11563439095E+04  0.70000000000E+03 0. -1.
<mgrwt>
<rscale>  0 0.15386742E+04</rscale>
<asrwt>0</asrwt>
<pdfrwt beam="1">  1        4 0.39556033E+00 0.15386742E+04</pdfrwt>
<pdfrwt beam="2">  1       -4 0.30536872E-01 0.15386742E+04</pdfrwt>
<totfact> 0.14960200E-01</totfact>
</mgrwt>
</event>
<event>
 8    1  0.1287848E-011  0.1952772E+04  0.7818608E-02  0.8629025E-01
         -4   -1    0    0    0  501 -0.00000000000E+00  0.00000000000E+00  0.15496872125E+04  0.15496877329E+04  0.12700000000E+01 0. -1.
          4   -1    0    0  501    0  0.00000000000E+00 -0.00000000000E+00 -0.61517418924E+03  0.61517550017E+03  0.12700000000E+01 0.  1.
     200001    2    1    2    0    0  0.33169473165E+03 -0.35424144342E+03  0.99617952951E+03  0.13108660707E+04  0.70034834560E+03 0.  0.
    5000001    2    3    3    0    0  0.13567700745E+03 -0.19939062451E+03  0.34096658935E+03  0.44964268436E+03  0.16659969102E+03 0.  0.
        -11    1    4    4    0    0  0.93593561174E+02 -0.21841000135E+03  0.26694735182E+03  0.35738434777E+03  0.51100000000E-03 0. -1.
     200002    1    4    4    0    0  0.42083446272E+02  0.19019376839E+02  0.74019237534E+02  0.92258336591E+02  0.30000000000E+02 0. -1.
     200000    1    3    3    0    0  0.19601772421E+03 -0.15485081890E+03  0.65521294015E+03  0.86122338639E+03  0.50000000000E+03 0. -1.
    -200001    1    1    2    0    0 -0.33169473165E+03  0.35424144342E+03 -0.61666506260E+02  0.85399716231E+03  0.70000000000E+03 0. -1.
<mgrwt>
<rscale>  0 0.19527719E+04</rscale>
<asrwt>0</asrwt>
<pdfrwt beam="1">  1        4 0.87882159E-01 0.19527719E+04</pdfrwt>
<pdfrwt beam="2">  1       -4 0.22138402E+00 0.19527719E+04</pdfrwt>
<totfact> 0.20098106E-01</totfact>
</mgrwt>
</event>
<event>
 8    1  0.1287848E-011  0.1408030E+04  0.7818608E-02  0.8948026E-01
          4   -1    0    0  501    0  0.00000000000E+00  0.00000000000E+00  0.18835030030E+04  0.18835034311E+04  0.12700000000E+01 0.  1.
         -4   -1    0    0    0  501 -0.00000000000E+00 -0.00000000000E+00 -0.26314455933E+03  0.26314762398E+03  0.12700000000E+01 0. -1.
     200001    2    1    2    0    0  0.37373827668E+02  0.58989084660E+02  0.76783988727E+03  0.10413617699E+04  0.69998551998E+03 0.  0.
    5000001    2    3    3    0    0  0.58092758033E+02  0.34642876323E+02  0.19291681403E+03  0.27876190621E+03  0.18951624152E+03 0.  0.
        -11    1    4    4    0    0 -0.51805599409E+02  0.98100524733E+01  0.14211425802E+03  0.15158007651E+03  0.51100000000E-03 0. -1.
     200002    1    4    4    0    0  0.10989835744E+03  0.24832823850E+02  0.50802556005E+02  0.12718182970E+03  0.30000000000E+02 0. -1.
     200000    1    3    3    0    0 -0.20718930365E+02  0.24346208336E+02  0.57492307324E+03  0.76259986368E+03  0.50000000000E+03 0. -1.
    -200001    1    1    2    0    0 -0.37373827668E+02 -0.58989084660E+02  0.85251855638E+03  0.11052892852E+04  0.70000000000E+03 0.  1.
<mgrwt>
<rscale>  0 0.14080303E+04</rscale>
<asrwt>0</asrwt>
<pdfrwt beam="1">  1        4 0.26907210E+00 0.14080303E+04</pdfrwt>
<pdfrwt beam="2">  1       -4 0.37592330E-01 0.14080303E+04</pdfrwt>
<totfact> 0.65225436E-01</totfact>
</mgrwt>
</event>
<event>
 8    1  0.1287848E-011  0.2081493E+04  0.7818608E-02  0.8569440E-01
          4   -1    0    0  501    0  0.00000000000E+00  0.00000000000E+00  0.15911800612E+04  0.15911805680E+04  0.12700000000E+01 0.  1.
         -4   -1    0    0    0  501 -0.00000000000E+00 -0.00000000000E+00 -0.68072211604E+03  0.68072330073E+03  0.12700000000E+01 0. -1.
     200001    2    1    2    0    0  0.32441028301E+02  0.67810437167E+02  0.12920064292E+04  0.14711355368E+04  0.69950588188E+03 0.  0.
    5000001    2    3    3    0    0 -0.26771655278E+02  0.42240898026E+02  0.50121587458E+03  0.53331378160E+03  0.17522905501E+03 0.  0.
        -11    1    4    4    0    0  0.71123253888E+02  0.97741566699E+01  0.24985522866E+03  0.25996477968E+03  0.51100000000E-03 0. -1.
     200002    1    4    4    0    0 -0.97894909166E+02  0.32466741356E+02  0.25136064592E+03  0.27334900192E+03  0.30000000000E+02 0. -1.
     200000    1    3    3    0    0  0.59212683579E+02  0.25569539141E+02  0.79079055466E+03  0.93782175522E+03  0.50000000000E+03 0.  1.
    -200001    1    1    2    0    0 -0.32441028301E+02 -0.67810437167E+02 -0.38154848409E+03  0.80076833193E+03  0.70000000000E+03 0. -1.
<mgrwt>
<rscale>  0 0.20814931E+04</rscale>
<asrwt>0</asrwt>
<pdfrwt beam="1">  1        4 0.22731156E+00 0.20814931E+04</pdfrwt>
<pdfrwt beam="2">  1       -4 0.97246136E-01 0.20814931E+04</pdfrwt>
<totfact> 0.14389655E-01</totfact>
</mgrwt>
</event>
<event>
 8    1  0.1287848E-011  0.1425732E+04  0.7818608E-02  0.8935400E-01
         -4   -1    0    0    0  501 -0.00000000000E+00  0.00000000000E+00  0.19510314265E+04  0.19510318399E+04  0.12700000000E+01 0. -1.
          4   -1    0    0  501    0  0.00000000000E+00 -0.00000000000E+00 -0.26046430680E+03  0.26046740298E+03  0.12700000000E+01 0.  1.
     200001    2    1    2    0    0  0.12694753371E+03  0.23259754470E+02  0.91000818155E+03  0.11551238605E+04  0.69967102991E+03 0.  0.
    5000001    2    3    3    0    0  0.24690048004E+02  0.87754672271E+02  0.16294171648E+03  0.24808224565E+03  0.16335334911E+03 0.  0.
        -11    1    4    4    0    0 -0.54784258714E+02 -0.10800331498E+02  0.36890253063E+02  0.66924232791E+02  0.51100000000E-03 0. -1.
     200002    1    4    4    0    0  0.79474306719E+02  0.98555003769E+02  0.12605146341E+03  0.18115801286E+03  0.30000000000E+02 0. -1.
     200000    1    3    3    0    0  0.10225748570E+03 -0.64494917801E+02  0.74706646507E+03  0.90704161483E+03  0.50000000000E+03 0. -1.
    -200001    1    1    2    0    0 -0.12694753371E+03 -0.23259754470E+02  0.78055893818E+03  0.10563753824E+04  0.70000000000E+03 0.  1.
<mgrwt>
<rscale>  0 0.14257320E+04</rscale>
<asrwt>0</asrwt>
<pdfrwt beam="1">  1        4 0.37209436E-01 0.14257320E+04</pdfrwt>
<pdfrwt beam="2">  1       -4 0.27871903E+00 0.14257320E+04</pdfrwt>
<totfact> 0.57980958E-01</totfact>
</mgrwt>
</event>
<event>
 8    1  0.1287848E-011  0.1711404E+04  0.7818608E-02  0.8754887E-01
         -4   -1    0    0    0  501 -0.00000000000E+00  0.00000000000E+00  0.49477396570E+03  0.49477559564E+03  0.12700000000E+01 0. -1.
          4   -1    0    0  501    0  0.00000000000E+00 -0.00000000000E+00 -0.14799148523E+04  0.14799153972E+04  0.12700000000E+01 0.  1.
     200001    2    1    2    0    0  0.12592191649E+03  0.47561067885E+03 -0.46888792163E+03  0.97540176011E+03  0.69963623668E+03 0.  0.
    5000001    2    3    3    0    0 -0.20353164597E+01  0.23433039023E+03 -0.23555186515E+03  0.35974361926E+03  0.13789820927E+03 0.  0.
        -11    1    4    4    0    0 -0.47613258178E+02  0.16765135184E+03 -0.10545339900E+03  0.20370178568E+03  0.51100000000E-03 0. -1.
     200002    1    4    4    0    0  0.45577941718E+02  0.66679038396E+02 -0.13009846615E+03  0.15604183358E+03  0.30000000000E+02 0. -1.
     200000    1    3    3    0    0  0.12795723295E+03  0.24128028862E+03 -0.23333605648E+03  0.61565814085E+03  0.50000000000E+03 0. -1.
    -200001    1    1    2    0    0 -0.12592191649E+03 -0.47561067885E+03 -0.51625296498E+03  0.99928923278E+03  0.70000000000E+03 0.  1.
<mgrwt>
<rscale>  0 0.17114035E+04</rscale>
<asrwt>0</asrwt>
<pdfrwt beam="1">  1        4 0.21141656E+00 0.17114035E+04</pdfrwt>
<pdfrwt beam="2">  1       -4 0.70682151E-01 0.17114035E+04</pdfrwt>
<totfact> 0.38872973E-01</totfact>
</mgrwt>
</event>
<event>
 8    1  0.1287848E-011  0.1626944E+04  0.7818608E-02  0.8804164E-01
          4   -1    0    0  501    0  0.00000000000E+00  0.00000000000E+00  0.10683133946E+04  0.10683141495E+04  0.12700000000E+01 0.  1.
         -4   -1    0    0    0  501 -0.00000000000E+00 -0.00000000000E+00 -0.61942051013E+03  0.61942181207E+03  0.12700000000E+01 0. -1.
     200001    2    1    2    0    0 -0.22599850847E+02 -0.33119826439E+02 -0.20358291921E+03  0.72996127482E+03  0.69984982787E+03 0.  0.
    5000001    2    3    3    0    0  0.33042118826E+02  0.48871342302E+02  0.15754322616E+02  0.17504920413E+03  0.16405436742E+03 0.  0.
        -11    1    4    4    0    0  0.53857156721E+02 -0.37394684083E+02  0.41878094353E+02  0.77799296364E+02  0.51100000000E-03 0. -1.
     200002    1    4    4    0    0 -0.20815037895E+02  0.86266026385E+02 -0.26123771737E+02  0.97249907767E+02  0.30000000000E+02 0. -1.
     200000    1    3    3    0    0 -0.55641969673E+02 -0.81991168741E+02 -0.21933724183E+03  0.55491207069E+03  0.50000000000E+03 0. -1.
    -200001    1    1    2    0    0  0.22599850847E+02  0.33119826439E+02  0.65247580370E+03  0.95777468675E+03  0.70000000000E+03 0.  1.
<mgrwt>
<rscale>  0 0.16269443E+04</rscale>
<asrwt>0</asrwt>
<pdfrwt beam="1">  1        4 0.15261635E+00 0.16269443E+04</pdfrwt>
<pdfrwt beam="2">  1       -4 0.88488791E-01 0.16269443E+04</pdfrwt>
<totfact> 0.60321398E-01</totfact>
</mgrwt>
</event>
<event>
 8    1  0.1287848E-011  0.2497920E+04  0.7818608E-02  0.8403727E-01
         -4   -1    0    0    0  501 -0.00000000000E+00  0.00000000000E+00  0.12782445988E+04  0.12782452297E+04  0.12700000000E+01 0. -1.
          4   -1    0    0  501    0  0.00000000000E+00 -0.00000000000E+00 -0.12203450049E+04  0.12203456658E+04  0.12700000000E+01 0.  1.
     200001    2    1    2    0    0 -0.10095800435E+04  0.37893943348E+02 -0.19363452356E+03  0.12440163750E+04  0.69956743592E+03 0.  0.
    5000001    2    3    3    0    0 -0.34676732760E+03  0.65545398954E+02 -0.46681994349E+02  0.40040488552E+03  0.18330598719E+03 0.  0.
        -11    1    4    4    0    0 -0.24907054774E+01  0.62661855129E+01 -0.49307515169E+02  0.49766452024E+02  0.51100000000E-03 0. -1.
     200002    1    4    4    0    0 -0.34427662212E+03  0.59279213441E+02  0.26255208194E+01  0.35063843349E+03  0.30000000000E+02 0. -1.
     200000    1    3    3    0    0 -0.66281271590E+03 -0.27651455606E+02 -0.14695252921E+03  0.84361148949E+03  0.50000000000E+03 0.  1.
    -200001    1    1    2    0    0  0.10095800435E+04 -0.37893943348E+02  0.25153411743E+03  0.12545745205E+04  0.70000000000E+03 0. -1.
<mgrwt>
<rscale>  0 0.24979200E+04</rscale>
<asrwt>0</asrwt>
<pdfrwt beam="1">  1        4 0.17433509E+00 0.24979200E+04</pdfrwt>
<pdfrwt beam="2">  1       -4 0.18260647E+00 0.24979200E+04</pdfrwt>
<totfact> 0.61080666E-02</totfact>
</mgrwt>
</event>
<event>
 8    1  0.1287848E-011  0.1500972E+04  0.7818608E-02  0.8883807E-01
         -4   -1    0    0    0  501 -0.00000000000E+00  0.00000000000E+00  0.12399682141E+04  0.12399688645E+04  0.12700000000E+01 0.  1.
          4   -1    0    0  501    0  0.00000000000E+00 -0.00000000000E+00 -0.45422712976E+03  0.45422890519E+03  0.12700000000E+01 0. -1.
     200001    2    1    2    0    0 -0.81554161805E+02 -0.25615946473E+03  0.36796325009E+03  0.83582310118E+03  0.70066721800E+03 0.  0.
    5000001    2    3    3    0    0 -0.49121647327E+02 -0.41217425820E+02  0.21514974608E+03  0.26960413727E+03  0.14928216627E+03 0.  0.
        -11    1    4    4    0    0 -0.24761778061E+02  0.53289870236E+02  0.60936848099E+02  0.84653738127E+02  0.51100000000E-03 0. -1.
     200002    1    4    4    0    0 -0.24359869266E+02 -0.94507296056E+02  0.15421289798E+03  0.18495039914E+03  0.30000000000E+02 0. -1.
     200000    1    3    3    0    0 -0.32432514478E+02 -0.21494203891E+03  0.15281350400E+03  0.56621896391E+03  0.50000000000E+03 0.  1.
    -200001    1    1    2    0    0  0.81554161805E+02  0.25615946473E+03  0.41777783423E+03  0.85837466846E+03  0.70000000000E+03 0.  1.
<mgrwt>
<rscale>  0 0.15009720E+04</rscale>
<asrwt>0</asrwt>
<pdfrwt beam="1">  1        4 0.64889763E-01 0.15009720E+04</pdfrwt>
<pdfrwt beam="2">  1       -4 0.17713849E+00 0.15009720E+04</pdfrwt>
<totfact> 0.80896726E-01</totfact>
</mgrwt>
</event>
<event>
 8    1  0.1287848E-011  0.2853979E+04  0.7818608E-02  0.8286703E-01
          4   -1    0    0  501    0  0.00000000000E+00  0.00000000000E+00  0.18932877469E+04  0.18932881729E+04  0.12700000000E+01 0.  1.
         -4   -1    0    0    0  501 -0.00000000000E+00 -0.00000000000E+00 -0.10755351690E+04  0.10755359188E+04  0.12700000000E+01 0. -1.
     200001    2    1    2    0    0 -0.10389190257E+04 -0.35596833824E+03  0.10134492711E+04  0.16518717783E+04  0.70394228956E+03 0.  0.
    5000001    2    3    3    0    0 -0.35954934117E+03 -0.93347357104E+02  0.32838847055E+03  0.53391773253E+03  0.19809013025E+03 0.  0.
        -11    1    4    4    0    0 -0.16812957589E+01  0.77965296507E+01 -0.21189307832E+02  0.22640658045E+02  0.51100000000E-03 0. -1.
     200002    1    4    4    0    0 -0.35786804542E+03 -0.10114388675E+03  0.34957777838E+03  0.51127707448E+03  0.30000000000E+02 0. -1.
     200000    1    3    3    0    0 -0.67936968457E+03 -0.26262098114E+03  0.68506080058E+03  0.11179540458E+04  0.50000000000E+03 0. -1.
    -200001    1    1    2    0    0  0.10389190257E+04  0.35596833824E+03 -0.19569669315E+03  0.13169523133E+04  0.70000000000E+03 0.  1.
<mgrwt>
<rscale>  0 0.28539792E+04</rscale>
<asrwt>0</asrwt>
<pdfrwt beam="1">  1        4 0.27046976E+00 0.28539792E+04</pdfrwt>
<pdfrwt beam="2">  1       -4 0.15364797E+00 0.28539792E+04</pdfrwt>
<totfact> 0.22937190E-02</totfact>
</mgrwt>
</event>
<event>
 8    1  0.1287848E-011  0.1658828E+04  0.7818608E-02  0.8785201E-01
         -4   -1    0    0    0  501 -0.00000000000E+00  0.00000000000E+00  0.81697167473E+03  0.81697266185E+03  0.12700000000E+01 0. -1.
          4   -1    0    0  501    0  0.00000000000E+00 -0.00000000000E+00 -0.84204344415E+03  0.84204440188E+03  0.12700000000E+01 0.  1.
     200001    2    1    2    0    0  0.42661054308E+03  0.11866252869E+03  0.34756398094E+02  0.82856130885E+03  0.69944870015E+03 0.  0.
    5000001    2    3    3    0    0  0.18200610513E+03  0.42576205933E+02  0.44044369475E+02  0.26668345203E+03  0.18504378262E+03 0.  0.
        -11    1    4    4    0    0  0.88113739219E+02  0.81940381556E+02 -0.44672377301E+02  0.12835060757E+03  0.51100000000E-03 0. -1.
     200002    1    4    4    0    0  0.93892365912E+02 -0.39364175623E+02  0.88716746776E+02  0.13833284446E+03  0.30000000000E+02 0. -1.
     200000    1    3    3    0    0  0.24460443795E+03  0.76086322761E+02 -0.92879713818E+01  0.56187785682E+03  0.50000000000E+03 0.  1.
    -200001    1    1    2    0    0 -0.42661054308E+03 -0.11866252869E+03 -0.59828167511E+02  0.83045575488E+03  0.70000000000E+03 0.  1.
<mgrwt>
<rscale>  0 0.16588276E+04</rscale>
<asrwt>0</asrwt>
<pdfrwt beam="1">  1        4 0.12029206E+00 0.16588276E+04</pdfrwt>
<pdfrwt beam="2">  1       -4 0.11671038E+00 0.16588276E+04</pdfrwt>
<totfact> 0.57398323E-01</totfact>
</mgrwt>
</event>
<event>
 8    1  0.1287848E-011  0.2438699E+04  0.7818608E-02  0.8425156E-01
         -4   -1    0    0    0  501 -0.00000000000E+00  0.00000000000E+00  0.28240455572E+04  0.28240458428E+04  0.12700000000E+01 0. -1.
          4   -1    0    0  501    0  0.00000000000E+00 -0.00000000000E+00 -0.52648224227E+03  0.52648377404E+03  0.12700000000E+01 0.  1.
     200001    2    1    2    0    0 -0.60821923371E+03  0.72942236339E+03  0.15719490695E+04  0.19654290235E+04  0.69992838836E+03 0.  0.
    5000001    2    3    3    0    0 -0.12855293352E+03  0.58056608845E+02  0.26202185133E+03  0.33855439624E+03  0.16145340532E+03 0.  0.
        -11    1    4    4    0    0 -0.15089135464E+03  0.84081777460E+01  0.20071241905E+03  0.25124564378E+03  0.51100000000E-03 0. -1.
     200002    1    4    4    0    0  0.22338421121E+02  0.49648431099E+02  0.61309432278E+02  0.87308752454E+02  0.30000000000E+02 0. -1.
     200000    1    3    3    0    0 -0.47966630019E+03  0.67136575455E+03  0.13099272181E+04  0.16268746272E+04  0.50000000000E+03 0.  1.
    -200001    1    1    2    0    0  0.60821923371E+03 -0.72942236339E+03  0.72561424547E+03  0.13851005934E+04  0.70000000000E+03 0.  1.
<mgrwt>
<rscale>  0 0.24386987E+04</rscale>
<asrwt>0</asrwt>
<pdfrwt beam="1">  1        4 0.75211879E-01 0.24386987E+04</pdfrwt>
<pdfrwt beam="2">  1       -4 0.40343521E+00 0.24386987E+04</pdfrwt>
<totfact> 0.18582050E-02</totfact>
</mgrwt>
</event>
<event>
 8    1  0.1287848E-011  0.1527065E+04  0.7818608E-02  0.8866652E-01
         -4   -1    0    0    0  501 -0.00000000000E+00  0.00000000000E+00  0.91292756390E+03  0.91292844726E+03  0.12700000000E+01 0.  1.
          4   -1    0    0  501    0  0.00000000000E+00 -0.00000000000E+00 -0.63858319537E+03  0.63858445824E+03  0.12700000000E+01 0. -1.
     200001    2    1    2    0    0 -0.83662558416E+01  0.15889368987E+03  0.40185927545E+03  0.82241946128E+03  0.69968971274E+03 0.  0.
    5000001    2    3    3    0    0  0.16007021468E+02  0.22810998736E+02  0.23815844804E+02  0.18052430557E+03  0.17676329947E+03 0.  0.
        -11    1    4    4    0    0  0.16486838031E+02  0.45791903622E+02  0.91138034503E+02  0.10331919279E+03  0.51100000000E-03 0. -1.
     200002    1    4    4    0    0 -0.47981656327E+00 -0.22980904886E+02 -0.67322189700E+02  0.77205112779E+02  0.30000000000E+02 0. -1.
     200000    1    3    3    0    0 -0.24373277309E+02  0.13608269114E+03  0.37804343065E+03  0.64189515571E+03  0.50000000000E+03 0.  1.
    -200001    1    1    2    0    0  0.83662558416E+01 -0.15889368987E+03 -0.12751490692E+03  0.72909344422E+03  0.70000000000E+03 0. -1.
<mgrwt>
<rscale>  0 0.15270650E+04</rscale>
<asrwt>0</asrwt>
<pdfrwt beam="1">  1        4 0.91226324E-01 0.15270650E+04</pdfrwt>
<pdfrwt beam="2">  1       -4 0.13041838E+00 0.15270650E+04</pdfrwt>
<totfact> 0.85359735E-01</totfact>
</mgrwt>
</event>
<event>
 8    1  0.1287848E-011  0.1495393E+04  0.7818608E-02  0.8887522E-01
          4   -1    0    0  501    0  0.00000000000E+00  0.00000000000E+00  0.70224293016E+03  0.70224407855E+03  0.12700000000E+01 0.  1.
         -4   -1    0    0    0  501 -0.00000000000E+00 -0.00000000000E+00 -0.79609022345E+03  0.79609123646E+03  0.12700000000E+01 0. -1.
     200001    2    1    2    0    0  0.41403997839E+02  0.23558228555E+03 -0.15469930979E+03  0.75609797277E+03  0.70038486825E+03 0.  0.
    5000001    2    3    3    0    0 -0.19679354547E+01  0.64315284004E+02 -0.52873811245E+02  0.21611469287E+03  0.19942314819E+03 0.  0.
        -11    1    4    4    0    0 -0.76752664295E+02 -0.30621686586E+02 -0.37154639564E+02  0.90604229521E+02  0.51100000000E-03 0. -1.
     200002    1    4    4    0    0  0.74784728840E+02  0.94936970590E+02 -0.15719171680E+02  0.12551046335E+03  0.30000000000E+02 0. -1.
     200000    1    3    3    0    0  0.43371933293E+02  0.17126700155E+03 -0.10182549855E+03  0.53998327990E+03  0.50000000000E+03 0. -1.
    -200001    1    1    2    0    0 -0.41403997839E+02 -0.23558228555E+03  0.60852016500E+02  0.74223734224E+03  0.70000000000E+03 0.  1.
<mgrwt>
<rscale>  0 0.14953934E+04</rscale>
<asrwt>0</asrwt>
<pdfrwt beam="1">  1        4 0.10032057E+00 0.14953934E+04</pdfrwt>
<pdfrwt beam="2">  1       -4 0.11372733E+00 0.14953934E+04</pdfrwt>
<totfact> 0.96311385E-01</totfact>
</mgrwt>
</event>
<event>
 8    1  0.1287848E-011  0.1586849E+04  0.7818608E-02  0.8828668E-01
          4   -1    0    0  501    0  0.00000000000E+00  0.00000000000E+00  0.72482778693E+03  0.72482889954E+03  0.12700000000E+01 0.  1.
         -4   -1    0    0    0  501 -0.00000000000E+00 -0.00000000000E+00 -0.86851117743E+03  0.86851210597E+03  0.12700000000E+01 0. -1.
     200001    2    1    2    0    0  0.19127440436E+03  0.13553523518E+03  0.22082617303E+03  0.77004098751E+03  0.69945923828E+03 0.  0.
    5000001    2    3    3    0    0  0.35021902235E+02  0.51943953472E+02  0.97841453740E+02  0.22549752003E+03  0.19326529313E+03 0.  0.
        -11    1    4    4    0    0  0.19662307571E+02  0.14100226027E+02  0.15049001215E+03  0.15242265734E+03  0.51100000000E-03 0. -1.
     200002    1    4    4    0    0  0.15359594665E+02  0.37843727445E+02 -0.52648558406E+02  0.73074862692E+02  0.30000000000E+02 0. -1.
     200000    1    3    3    0    0  0.15625250213E+03  0.83591281711E+02  0.12298471929E+03  0.54454346748E+03  0.50000000000E+03 0.  1.
    -200001    1    1    2    0    0 -0.19127440436E+03 -0.13553523518E+03 -0.36450956352E+03  0.82330001800E+03  0.70000000000E+03 0. -1.
<mgrwt>
<rscale>  0 0.15868493E+04</rscale>
<asrwt>0</asrwt>
<pdfrwt beam="1">  1        4 0.10354697E+00 0.15868493E+04</pdfrwt>
<pdfrwt beam="2">  1       -4 0.12407317E+00 0.15868493E+04</pdfrwt>
<totfact> 0.71446139E-01</totfact>
</mgrwt>
</event>
<event>
 8    1  0.1287848E-011  0.1402803E+04  0.7818608E-02  0.8951792E-01
         -4   -1    0    0    0  501 -0.00000000000E+00  0.00000000000E+00  0.47394987362E+03  0.47395157517E+03  0.12700000000E+01 0. -1.
          4   -1    0    0  501    0  0.00000000000E+00 -0.00000000000E+00 -0.10380052449E+04  0.10380060218E+04  0.12700000000E+01 0.  1.
     200001    2    1    2    0    0 -0.30795314173E+02  0.28403086689E+02 -0.27766189151E+03  0.75447735831E+03  0.70027485425E+03 0.  0.
    5000001    2    3    3    0    0 -0.12756619733E+03  0.63329141042E+02 -0.10683072823E+03  0.21617658788E+03  0.12262054413E+03 0.  0.
        -11    1    4    4    0    0  0.54790458773E+01  0.50135094352E+01  0.19799115183E+02  0.21146162367E+02  0.51100000000E-03 0. -1.
     200002    1    4    4    0    0 -0.13304524321E+03  0.58315631607E+02 -0.12662984342E+03  0.19503042551E+03  0.30000000000E+02 0. -1.
     200000    1    3    3    0    0  0.96770883159E+02 -0.34926054353E+02 -0.17083116328E+03  0.53830077043E+03  0.50000000000E+03 0.  1.
    -200001    1    1    2    0    0  0.30795314173E+02 -0.28403086689E+02 -0.28639347972E+03  0.75748023864E+03  0.70000000000E+03 0.  1.
<mgrwt>
<rscale>  0 0.14028034E+04</rscale>
<asrwt>0</asrwt>
<pdfrwt beam="1">  1        4 0.14828664E+00 0.14028034E+04</pdfrwt>
<pdfrwt beam="2">  1       -4 0.67707303E-01 0.14028034E+04</pdfrwt>
<totfact> 0.12099277E+00</totfact>
</mgrwt>
</event>
<event>
 8    1  0.1287848E-011  0.1603459E+04  0.7818608E-02  0.8818426E-01
          4   -1    0    0  501    0  0.00000000000E+00  0.00000000000E+00  0.97806567084E+03  0.97806649538E+03  0.12700000000E+01 0.  1.
         -4   -1    0    0    0  501 -0.00000000000E+00 -0.00000000000E+00 -0.65718306327E+03  0.65718429040E+03  0.12700000000E+01 0. -1.
     200001    2    1    2    0    0 -0.46537761875E+01 -0.35045220653E+03 -0.19063840434E+02  0.78178608575E+03  0.69856112629E+03 0.  0.
    5000001    2    3    3    0    0  0.73982752159E+02 -0.15466399385E+03 -0.25241523208E+02  0.23905697138E+03  0.16467149864E+03 0.  0.
        -11    1    4    4    0    0 -0.15149456823E+02  0.15369837288E+02  0.30084700833E+02  0.37024683182E+02  0.51100000000E-03 0. -1.
     200002    1    4    4    0    0  0.89132208982E+02 -0.17003383114E+03 -0.55326224041E+02  0.20203228820E+03  0.30000000000E+02 0. -1.
     200000    1    3    3    0    0 -0.78636528347E+02 -0.19578821268E+03  0.61776827739E+01  0.54272911436E+03  0.50000000000E+03 0. -1.
    -200001    1    1    2    0    0  0.46537761875E+01  0.35045220653E+03  0.33994644800E+03  0.85346470003E+03  0.70000000000E+03 0. -1.
<mgrwt>
<rscale>  0 0.16034586E+04</rscale>
<asrwt>0</asrwt>
<pdfrwt beam="1">  1        4 0.13972381E+00 0.16034586E+04</pdfrwt>
<pdfrwt beam="2">  1       -4 0.93883441E-01 0.16034586E+04</pdfrwt>
<totfact> 0.66477100E-01</totfact>
</mgrwt>
</event>
<event>
 8    1  0.1287848E-011  0.2770123E+04  0.7818608E-02  0.8312605E-01
          4   -1    0    0  501    0  0.00000000000E+00  0.00000000000E+00  0.24129245944E+04  0.24129249287E+04  0.12700000000E+01 0.  1.
         -4   -1    0    0    0  501 -0.00000000000E+00 -0.00000000000E+00 -0.79504867777E+03  0.79504969211E+03  0.12700000000E+01 0. -1.
     200001    2    1    2    0    0  0.33055985803E+03 -0.63777472055E+03  0.19152028566E+04  0.21618246683E+04  0.69961239300E+03 0.  0.
    5000001    2    3    3    0    0  0.21826779363E+02 -0.17650088243E+03  0.31389912664E+03  0.39483193958E+03  0.16040769625E+03 0.  0.
        -11    1    4    4    0    0  0.26902500235E+02  0.26944104354E+01  0.14236833750E+03  0.14491289759E+03  0.51100000000E-03 0. -1.
     200002    1    4    4    0    0 -0.50757208720E+01 -0.17919529286E+03  0.17153078914E+03  0.24991904199E+03  0.30000000000E+02 0. -1.
     200000    1    3    3    0    0  0.30873307867E+03 -0.46127383813E+03  0.16013037300E+04  0.17669927287E+04  0.50000000000E+03 0. -1.
    -200001    1    1    2    0    0 -0.33055985803E+03  0.63777472055E+03 -0.29732693994E+03  0.10461499525E+04  0.70000000000E+03 0. -1.
<mgrwt>
<rscale>  0 0.27701225E+04</rscale>
<asrwt>0</asrwt>
<pdfrwt beam="1">  1        4 0.34470361E+00 0.27701225E+04</pdfrwt>
<pdfrwt beam="2">  1       -4 0.11357848E+00 0.27701225E+04</pdfrwt>
<totfact> 0.17074076E-02</totfact>
</mgrwt>
</event>
<event>
 8    1  0.1287848E-011  0.2003837E+04  0.7818608E-02  0.8604829E-01
         -4   -1    0    0    0  501 -0.00000000000E+00  0.00000000000E+00  0.43310808349E+03  0.43310994549E+03  0.12700000000E+01 0. -1.
          4   -1    0    0  501    0  0.00000000000E+00 -0.00000000000E+00 -0.23177534673E+04  0.23177538152E+04  0.12700000000E+01 0.  1.
     200001    2    1    2    0    0  0.43798004328E+03 -0.55746482870E+03 -0.10939652584E+04  0.14789484277E+04  0.69852337957E+03 0.  0.
    5000001    2    3    3    0    0  0.91900254984E+02 -0.10585540628E+03 -0.21029621422E+03  0.31507847371E+03  0.18814601504E+03 0.  0.
        -11    1    4    4    0    0  0.26488494627E+02  0.33861810009E+02 -0.13331682519E+03  0.14007725869E+03  0.51100000000E-03 0. -1.
     200002    1    4    4    0    0  0.65411760357E+02 -0.13971721629E+03 -0.76979389032E+02  0.17500121501E+03  0.30000000000E+02 0. -1.
     200000    1    3    3    0    0  0.34607978830E+03 -0.45160942242E+03 -0.88366904415E+03  0.11638699540E+04  0.50000000000E+03 0. -1.
    -200001    1    1    2    0    0 -0.43798004328E+03  0.55746482870E+03 -0.79068012541E+03  0.12719153330E+04  0.70000000000E+03 0. -1.
<mgrwt>
<rscale>  0 0.20038371E+04</rscale>
<asrwt>0</asrwt>
<pdfrwt beam="1">  1        4 0.33110779E+00 0.20038371E+04</pdfrwt>
<pdfrwt beam="2">  1       -4 0.61872742E-01 0.20038371E+04</pdfrwt>
<totfact> 0.90416446E-02</totfact>
</mgrwt>
</event>
<event>
 8    1  0.1287848E-011  0.1675219E+04  0.7818608E-02  0.8775625E-01
          4   -1    0    0  501    0  0.00000000000E+00  0.00000000000E+00  0.13489343505E+04  0.13489349483E+04  0.12700000000E+01 0.  1.
         -4   -1    0    0    0  501 -0.00000000000E+00 -0.00000000000E+00 -0.52010532610E+03  0.52010687665E+03  0.12700000000E+01 0. -1.
     200001    2    1    2    0    0  0.48720501774E+02  0.41329352882E+03  0.19548986681E+03  0.83739085844E+03  0.69987279810E+03 0.  0.
    5000001    2    3    3    0    0  0.24278253257E+02  0.20223853430E+03  0.15174174628E+03  0.29236284790E+03  0.14477782611E+03 0.  0.
        -11    1    4    4    0    0 -0.30410538930E+02 -0.11871604001E+01  0.44974114783E+02  0.54303602353E+02  0.51100000000E-03 0. -1.
     200002    1    4    4    0    0  0.54688792187E+02  0.20342569470E+03  0.10676763149E+03  0.23805924555E+03  0.30000000000E+02 0. -1.
     200000    1    3    3    0    0  0.24442248517E+02  0.21105499451E+03  0.43748120535E+02  0.54502801054E+03  0.50000000000E+03 0. -1.
    -200001    1    1    2    0    0 -0.48720501774E+02 -0.41329352882E+03  0.63333915757E+03  0.10316509665E+04  0.70000000000E+03 0.  1.
<mgrwt>
<rscale>  0 0.16752193E+04</rscale>
<asrwt>0</asrwt>
<pdfrwt beam="1">  1        4 0.19270506E+00 0.16752193E+04</pdfrwt>
<pdfrwt beam="2">  1       -4 0.74300916E-01 0.16752193E+04</pdfrwt>
<totfact> 0.46322393E-01</totfact>
</mgrwt>
</event>
<event>
 8    1  0.1287848E-011  0.3183125E+04  0.7818608E-02  0.8193288E-01
          4   -1    0    0  501    0  0.00000000000E+00  0.00000000000E+00  0.20314042200E+04  0.20314046170E+04  0.12700000000E+01 0.  1.
         -4   -1    0    0    0  501 -0.00000000000E+00 -0.00000000000E+00 -0.12469546037E+04  0.12469552504E+04  0.12700000000E+01 0. -1.
     200001    2    1    2    0    0  0.33570856584E+03 -0.24651370332E+03 -0.10157312239E+04  0.13024751783E+04  0.70090115120E+03 0.  0.
    5000001    2    3    3    0    0  0.67672234382E+02 -0.34023947400E+02 -0.30439098323E+03  0.36813032261E+03  0.19268861784E+03 0.  0.
        -11    1    4    4    0    0 -0.28668410069E+02  0.61641809639E+02 -0.10198100958E+03  0.12256311332E+03  0.51100000000E-03 0. -1.
     200002    1    4    4    0    0  0.96340644451E+02 -0.95665757039E+02 -0.20240997365E+03  0.24556720929E+03  0.30000000000E+02 0. -1.
     200000    1    3    3    0    0  0.26803633146E+03 -0.21248975592E+03 -0.71134024071E+03  0.93434485572E+03  0.50000000000E+03 0. -1.
    -200001    1    1    2    0    0 -0.33570856584E+03  0.24651370332E+03  0.18001808402E+04  0.19758846891E+04  0.70000000000E+03 0.  1.
<mgrwt>
<rscale>  0 0.31831246E+04</rscale>
<asrwt>0</asrwt>
<pdfrwt beam="1">  1        4 0.29020067E+00 0.31831246E+04</pdfrwt>
<pdfrwt beam="2">  1       -4 0.17813645E+00 0.31831246E+04</pdfrwt>
<totfact> 0.11139796E-02</totfact>
</mgrwt>
</event>
<event>
 8    1  0.1287848E-011  0.1756856E+04  0.7818608E-02  0.8729585E-01
          4   -1    0    0  501    0  0.00000000000E+00  0.00000000000E+00  0.50395824773E+03  0.50395984796E+03  0.12700000000E+01 0.  1.
         -4   -1    0    0    0  501 -0.00000000000E+00 -0.00000000000E+00 -0.15311461296E+04  0.15311466563E+04  0.12700000000E+01 0. -1.
     200001    2    1    2    0    0 -0.37330164959E+03  0.29825813235E+03 -0.78164234290E+03  0.11527207344E+04  0.69963440752E+03 0.  0.
    5000001    2    3    3    0    0 -0.11940276490E+03  0.49194847440E+02 -0.31040089696E+03  0.37905047911E+03  0.17508111149E+03 0.  0.
        -11    1    4    4    0    0  0.17915993836E+02  0.45833293983E+00 -0.18098429500E+03  0.18186948051E+03  0.51100000000E-03 0. -1.
     200002    1    4    4    0    0 -0.13731875873E+03  0.48736514500E+02 -0.12941660196E+03  0.19718099860E+03  0.30000000000E+02 0. -1.
     200000    1    3    3    0    0 -0.25389888469E+03  0.24906328491E+03 -0.47124144594E+03  0.77367025528E+03  0.50000000000E+03 0.  1.
    -200001    1    1    2    0    0  0.37330164959E+03 -0.29825813235E+03 -0.24554553893E+03  0.88238576982E+03  0.70000000000E+03 0.  1.
<mgrwt>
<rscale>  0 0.17568562E+04</rscale>
<asrwt>0</asrwt>
<pdfrwt beam="1">  1        4 0.71994188E-01 0.17568562E+04</pdfrwt>
<pdfrwt beam="2">  1       -4 0.21873531E+00 0.17568562E+04</pdfrwt>
<totfact> 0.33364972E-01</totfact>
</mgrwt>
</event>
<event>
 8    1  0.1287848E-011  0.1619964E+04  0.7818608E-02  0.8808377E-01
          4   -1    0    0  501    0  0.00000000000E+00  0.00000000000E+00  0.74710757596E+03  0.74710865539E+03  0.12700000000E+01 0.  1.
         -4   -1    0    0    0  501 -0.00000000000E+00 -0.00000000000E+00 -0.87814535265E+03  0.87814627100E+03  0.12700000000E+01 0. -1.
     200001    2    1    2    0    0 -0.11398211497E+03  0.27170754475E+03 -0.34861920913E+03  0.83521784362E+03  0.69945448809E+03 0.  0.
    5000001    2    3    3    0    0 -0.84900138724E+02  0.10078068408E+03 -0.11786349517E+03  0.25788782312E+03  0.18774862445E+03 0.  0.
        -11    1    4    4    0    0 -0.87048641793E+02  0.14682297207E+03 -0.10807943440E+03  0.20202874871E+03  0.51100000000E-03 0. -1.
     200002    1    4    4    0    0  0.21485030686E+01 -0.46042287989E+02 -0.97840607674E+01  0.55859074409E+02  0.30000000000E+02 0. -1.
     200000    1    3    3    0    0 -0.29081976243E+02  0.17092686068E+03 -0.23075571397E+03  0.57733002050E+03  0.50000000000E+03 0. -1.
    -200001    1    1    2    0    0  0.11398211497E+03 -0.27170754475E+03  0.21758143245E+03  0.79003708277E+03  0.70000000000E+03 0.  1.
<mgrwt>
<rscale>  0 0.16199638E+04</rscale>
<asrwt>0</asrwt>
<pdfrwt beam="1">  1        4 0.10672980E+00 0.16199638E+04</pdfrwt>
<pdfrwt beam="2">  1       -4 0.12544948E+00 0.16199638E+04</pdfrwt>
<totfact> 0.64430407E-01</totfact>
</mgrwt>
</event>
<event>
 8    1  0.1287848E-011  0.2153868E+04  0.7818608E-02  0.8537878E-01
         -4   -1    0    0    0  501 -0.00000000000E+00  0.00000000000E+00  0.10025961516E+04  0.10025969560E+04  0.12700000000E+01 0. -1.
          4   -1    0    0  501    0  0.00000000000E+00 -0.00000000000E+00 -0.11567818349E+04  0.11567825320E+04  0.12700000000E+01 0.  1.
     200001    2    1    2    0    0  0.27641647843E+03  0.64600551622E+03 -0.49764557537E+03  0.11097634182E+04  0.70013893564E+03 0.  0.
    5000001    2    3    3    0    0  0.50952561578E+02  0.21452267423E+03 -0.16217131530E+03  0.33545443603E+03  0.19394329546E+03 0.  0.
        -11    1    4    4    0    0  0.82809145442E+02  0.21927254842E+03 -0.90310552213E+02  0.25118479433E+03  0.51100000000E-03 0. -1.
     200002    1    4    4    0    0 -0.31856583863E+02 -0.47498741915E+01 -0.71860763090E+02  0.84269641700E+02  0.30000000000E+02 0. -1.
     200000    1    3    3    0    0  0.22546391686E+03  0.43148284199E+03 -0.33547426006E+03  0.77430898219E+03  0.50000000000E+03 0.  1.
    -200001    1    1    2    0    0 -0.27641647843E+03 -0.64600551622E+03  0.34345989210E+03  0.10496160698E+04  0.70000000000E+03 0. -1.
<mgrwt>
<rscale>  0 0.21538678E+04</rscale>
<asrwt>0</asrwt>
<pdfrwt beam="1">  1        4 0.16525465E+00 0.21538678E+04</pdfrwt>
<pdfrwt beam="2">  1       -4 0.14322813E+00 0.21538678E+04</pdfrwt>
<totfact> 0.14261894E-01</totfact>
</mgrwt>
</event>
<event>
 8    1  0.1287848E-011  0.2233802E+04  0.7818608E-02  0.8504489E-01
          4   -1    0    0  501    0  0.00000000000E+00  0.00000000000E+00  0.49338405910E+03  0.49338569362E+03  0.12700000000E+01 0.  1.
         -4   -1    0    0    0  501 -0.00000000000E+00 -0.00000000000E+00 -0.25283847428E+04  0.25283850618E+04  0.12700000000E+01 0. -1.
     200001    2    1    2    0    0 -0.18375326389E+03 -0.79021625796E+03 -0.59081422706E+03  0.12234711369E+04  0.69972364228E+03 0.  0.
    5000001    2    3    3    0    0 -0.16444318635E+02 -0.10658690809E+03 -0.10932391380E+03  0.23494987109E+03  0.17781602629E+03 0.  0.
        -11    1    4    4    0    0 -0.61965050393E+02 -0.13349016102E+03 -0.77102872372E+02  0.16614494722E+03  0.51100000000E-03 0. -1.
     200002    1    4    4    0    0  0.45520731758E+02  0.26903252929E+02 -0.32221041426E+02  0.68804923868E+02  0.30000000000E+02 0. -1.
     200000    1    3    3    0    0 -0.16730894526E+03 -0.68362934987E+03 -0.48149031326E+03  0.98852126580E+03  0.50000000000E+03 0. -1.
    -200001    1    1    2    0    0  0.18375326389E+03  0.79021625796E+03 -0.14441864566E+04  0.17982996185E+04  0.70000000000E+03 0.  1.
<mgrwt>
<rscale>  0 0.22338019E+04</rscale>
<asrwt>0</asrwt>
<pdfrwt beam="1">  1        4 0.70483578E-01 0.22338019E+04</pdfrwt>
<pdfrwt beam="2">  1       -4 0.36119795E+00 0.22338019E+04</pdfrwt>
<totfact> 0.42442504E-02</totfact>
</mgrwt>
</event>
<event>
 8    1  0.1287848E-011  0.1494220E+04  0.7818608E-02  0.8888306E-01
          4   -1    0    0  501    0  0.00000000000E+00  0.00000000000E+00  0.34090114106E+03  0.34090350670E+03  0.12700000000E+01 0.  1.
         -4   -1    0    0    0  501 -0.00000000000E+00 -0.00000000000E+00 -0.16373381433E+04  0.16373386359E+04  0.12700000000E+01 0. -1.
     200001    2    1    2    0    0 -0.32682836558E+02  0.51484456373E+02 -0.31528299977E+03  0.77143561554E+03  0.70142050293E+03 0.  0.
    5000001    2    3    3    0    0 -0.86204570383E+02  0.45260435092E+02 -0.27931912958E+02  0.19223447472E+03  0.16338349541E+03 0.  0.
        -11    1    4    4    0    0 -0.12595801306E+03  0.57292812786E+02 -0.13662931475E+02  0.13904877975E+03  0.51100000000E-03 0. -1.
     200002    1    4    4    0    0  0.39753442680E+02 -0.12032377695E+02 -0.14268981483E+02  0.53185694980E+02  0.30000000000E+02 0. -1.
     200000    1    3    3    0    0  0.53521733825E+02  0.62240212814E+01 -0.28735108682E+03  0.57920114082E+03  0.50000000000E+03 0.  1.
    -200001    1    1    2    0    0  0.32682836558E+02 -0.51484456373E+02 -0.98115400250E+03  0.12068065270E+04  0.70000000000E+03 0. -1.
<mgrwt>
<rscale>  0 0.14942199E+04</rscale>
<asrwt>0</asrwt>
<pdfrwt beam="1">  1        4 0.48700368E-01 0.14942199E+04</pdfrwt>
<pdfrwt beam="2">  1       -4 0.23390565E+00 0.14942199E+04</pdfrwt>
<totfact> 0.63186628E-01</totfact>
</mgrwt>
</event>
<event>
 8    1  0.1287848E-011  0.1768319E+04  0.7818608E-02  0.8723331E-01
          4   -1    0    0  501    0  0.00000000000E+00  0.00000000000E+00  0.38891372759E+03  0.38891580118E+03  0.12700000000E+01 0.  1.
         -4   -1    0    0    0  501 -0.00000000000E+00 -0.00000000000E+00 -0.20100469333E+04  0.20100473345E+04  0.12700000000E+01 0. -1.
     200001    2    1    2    0    0  0.90294018399E+02  0.51932326026E+03 -0.96590429955E+03  0.13048084035E+04  0.70121622602E+03 0.  0.
    5000001    2    3    3    0    0  0.36221903036E+02  0.15349165572E+03 -0.34369590236E+03  0.42509262780E+03  0.19417815088E+03 0.  0.
        -11    1    4    4    0    0 -0.79627154983E+00  0.66376616243E+02  0.99101130401E+00  0.66388789233E+02  0.51100000000E-03 0. -1.
     200002    1    4    4    0    0  0.37018174586E+02  0.87115039481E+02 -0.34468691366E+03  0.35870383857E+03  0.30000000000E+02 0. -1.
     200000    1    3    3    0    0  0.54072115363E+02  0.36583160454E+03 -0.62220839719E+03  0.87971577573E+03  0.50000000000E+03 0. -1.
    -200001    1    1    2    0    0 -0.90294018399E+02 -0.51932326026E+03 -0.65522890616E+03  0.10941547321E+04  0.70000000000E+03 0.  1.
<mgrwt>
<rscale>  0 0.17683188E+04</rscale>
<asrwt>0</asrwt>
<pdfrwt beam="1">  1        4 0.55559282E-01 0.17683188E+04</pdfrwt>
<pdfrwt beam="2">  1       -4 0.28714973E+00 0.17683188E+04</pdfrwt>
<totfact> 0.21933228E-01</totfact>
</mgrwt>
</event>
<event>
 8    1  0.1287848E-011  0.1620142E+04  0.7818608E-02  0.8808269E-01
          4   -1    0    0  501    0  0.00000000000E+00  0.00000000000E+00  0.64522874023E+03  0.64522999010E+03  0.12700000000E+01 0.  1.
         -4   -1    0    0    0  501 -0.00000000000E+00 -0.00000000000E+00 -0.10170245978E+04  0.10170253907E+04  0.12700000000E+01 0. -1.
     200001    2    1    2    0    0 -0.38559596260E+03  0.31569230581E+02 -0.54820852988E+02  0.80193333869E+03  0.70029343213E+03 0.  0.
    5000001    2    3    3    0    0  0.18890739785E+02  0.10595916432E+03 -0.27386626574E+02  0.15393951817E+03  0.10659804589E+03 0.  0.
        -11    1    4    4    0    0 -0.12293536810E+02  0.43324179930E+02 -0.56659287522E+02  0.72376726071E+02  0.51100000000E-03 0. -1.
     200002    1    4    4    0    0  0.31184276595E+02  0.62634984393E+02  0.29272660948E+02  0.81562792103E+02  0.30000000000E+02 0. -1.
     200000    1    3    3    0    0 -0.40448670238E+03 -0.74389933742E+02 -0.27434226415E+02  0.64799382051E+03  0.50000000000E+03 0. -1.
    -200001    1    1    2    0    0  0.38559596260E+03 -0.31569230581E+02 -0.31697500456E+03  0.86032204215E+03  0.70000000000E+03 0.  1.
<mgrwt>
<rscale>  0 0.16201422E+04</rscale>
<asrwt>0</asrwt>
<pdfrwt beam="1">  1        4 0.92175680E-01 0.16201422E+04</pdfrwt>
<pdfrwt beam="2">  1       -4 0.14528937E+00 0.16201422E+04</pdfrwt>
<totfact> 0.62556515E-01</totfact>
</mgrwt>
</event>
<event>
 8    1  0.1287848E-011  0.1477531E+04  0.7818608E-02  0.8899533E-01
         -4   -1    0    0    0  501 -0.00000000000E+00  0.00000000000E+00  0.36970611214E+03  0.36970829346E+03  0.12700000000E+01 0. -1.
          4   -1    0    0  501    0  0.00000000000E+00 -0.00000000000E+00 -0.14762328180E+04  0.14762333643E+04  0.12700000000E+01 0.  1.
     200001    2    1    2    0    0 -0.33761288684E+02 -0.13688266676E+03 -0.31613010725E+03  0.78076398611E+03  0.69984103068E+03 0.  0.
    5000001    2    3    3    0    0  0.22856470155E+02  0.66686567770E+02 -0.79253963551E+02  0.18851715301E+03  0.15584610900E+03 0.  0.
        -11    1    4    4    0    0  0.84175446396E+02  0.16204344621E+02 -0.33178651550E+02  0.91917949713E+02  0.51100000000E-03 0. -1.
     200002    1    4    4    0    0 -0.61318976241E+02  0.50482223149E+02 -0.46075312001E+02  0.96599203295E+02  0.30000000000E+02 0. -1.
     200000    1    3    3    0    0 -0.56617758839E+02 -0.20356923453E+03 -0.23687614370E+03  0.59224683310E+03  0.50000000000E+03 0.  1.
    -200001    1    1    2    0    0  0.33761288684E+02  0.13688266676E+03 -0.79039659862E+03  0.10651776717E+04  0.70000000000E+03 0.  1.
<mgrwt>
<rscale>  0 0.14775315E+04</rscale>
<asrwt>0</asrwt>
<pdfrwt beam="1">  1        4 0.21089059E+00 0.14775315E+04</pdfrwt>
<pdfrwt beam="2">  1       -4 0.52815354E-01 0.14775315E+04</pdfrwt>
<totfact> 0.74787249E-01</totfact>
</mgrwt>
</event>
<event>
 8    1  0.1287848E-011  0.1961159E+04  0.7818608E-02  0.8624999E-01
         -4   -1    0    0    0  501 -0.00000000000E+00  0.00000000000E+00  0.22876042986E+04  0.22876046511E+04  0.12700000000E+01 0. -1.
          4   -1    0    0  501    0  0.00000000000E+00 -0.00000000000E+00 -0.42032312863E+03  0.42032504727E+03  0.12700000000E+01 0.  1.
     200001    2    1    2    0    0  0.60920819909E+03 -0.17339765982E+03  0.56851098323E+03  0.11023128773E+04  0.70049094435E+03 0.  0.
    5000001    2    3    3    0    0  0.14454971319E+03 -0.45635437705E+02  0.57089632324E+02  0.23988462400E+03  0.17694121610E+03 0.  0.
        -11    1    4    4    0    0  0.17776177027E+03 -0.24611267392E+02  0.62755218856E+02  0.19011359484E+03  0.51100000000E-03 0. -1.
     200002    1    4    4    0    0 -0.33212057072E+02 -0.21024170313E+02 -0.56655865322E+01  0.49771029154E+02  0.30000000000E+02 0. -1.
     200000    1    3    3    0    0  0.46465848589E+03 -0.12776222211E+03  0.51142135091E+03  0.86242825329E+03  0.50000000000E+03 0. -1.
    -200001    1    1    2    0    0 -0.60920819909E+03  0.17339765982E+03  0.12987701867E+04  0.16056168211E+04  0.70000000000E+03 0. -1.
<mgrwt>
<rscale>  0 0.19611589E+04</rscale>
<asrwt>0</asrwt>
<pdfrwt beam="1">  1        4 0.60046323E-01 0.19611589E+04</pdfrwt>
<pdfrwt beam="2">  1       -4 0.32680078E+00 0.19611589E+04</pdfrwt>
<totfact> 0.10314087E-01</totfact>
</mgrwt>
</event>
<event>
 8    1  0.1287848E-011  0.1652087E+04  0.7818608E-02  0.8789173E-01
          4   -1    0    0  501    0  0.00000000000E+00  0.00000000000E+00  0.74709421768E+03  0.74709529713E+03  0.12700000000E+01 0.  1.
         -4   -1    0    0    0  501 -0.00000000000E+00 -0.00000000000E+00 -0.91333398682E+03  0.91333486980E+03  0.12700000000E+01 0. -1.
     200001    2    1    2    0    0  0.56010201094E+02  0.10463685878E+02  0.35384045604E+03  0.78651365377E+03  0.70011001127E+03 0.  0.
    5000001    2    3    3    0    0  0.45087655484E+02 -0.44411499736E+02  0.10412817923E+03  0.22483152908E+03  0.18894777261E+03 0.  0.
        -11    1    4    4    0    0 -0.27695353904E+02  0.53899558419E+02 -0.12555938560E+01  0.60611645265E+02  0.51100000000E-03 0. -1.
     200002    1    4    4    0    0  0.72783009388E+02 -0.98311058155E+02  0.10538377309E+03  0.16421988382E+03  0.30000000000E+02 0. -1.
     200000    1    3    3    0    0  0.10922545610E+02  0.54875185614E+02  0.24971227682E+03  0.56168212469E+03  0.50000000000E+03 0.  1.
    -200001    1    1    2    0    0 -0.56010201094E+02 -0.10463685878E+02 -0.52008022518E+03  0.87391651316E+03  0.70000000000E+03 0. -1.
<mgrwt>
<rscale>  0 0.16520874E+04</rscale>
<asrwt>0</asrwt>
<pdfrwt beam="1">  1        4 0.10672789E+00 0.16520874E+04</pdfrwt>
<pdfrwt beam="2">  1       -4 0.13047642E+00 0.16520874E+04</pdfrwt>
<totfact> 0.58186021E-01</totfact>
</mgrwt>
</event>
<event>
 8    1  0.1287848E-011  0.1625530E+04  0.7818608E-02  0.8805015E-01
          4   -1    0    0  501    0  0.00000000000E+00  0.00000000000E+00  0.77045074790E+03  0.77045179462E+03  0.12700000000E+01 0.  1.
         -4   -1    0    0    0  501 -0.00000000000E+00 -0.00000000000E+00 -0.85740142948E+03  0.85740237005E+03  0.12700000000E+01 0. -1.
     200001    2    1    2    0    0  0.13245175782E+03 -0.31115429511E+03 -0.28074662136E+03  0.82665672971E+03  0.70013014494E+03 0.  0.
    5000001    2    3    3    0    0  0.13550937543E+03 -0.90431595679E+02 -0.13860974065E+03  0.26191718627E+03  0.15115319360E+03 0.  0.
        -11    1    4    4    0    0  0.12869406133E+03 -0.29030449087E+01 -0.70016092101E+02  0.14653614655E+03  0.51100000000E-03 0. -1.
     200002    1    4    4    0    0  0.68153140966E+01 -0.87528550770E+02 -0.68593648550E+02  0.11538103972E+03  0.30000000000E+02 0. -1.
     200000    1    3    3    0    0 -0.30576176056E+01 -0.22072269943E+03 -0.14213688071E+03  0.56473954344E+03  0.50000000000E+03 0. -1.
    -200001    1    1    2    0    0 -0.13245175782E+03  0.31115429511E+03  0.19379593978E+03  0.80119743496E+03  0.70000000000E+03 0.  1.
<mgrwt>
<rscale>  0 0.16255303E+04</rscale>
<asrwt>0</asrwt>
<pdfrwt beam="1">  1        4 0.11006453E+00 0.16255303E+04</pdfrwt>
<pdfrwt beam="2">  1       -4 0.12248606E+00 0.16255303E+04</pdfrwt>
<totfact> 0.63475164E-01</totfact>
</mgrwt>
</event>
<event>
 8    1  0.1287848E-011  0.1413553E+04  0.7818608E-02  0.8944066E-01
         -4   -1    0    0    0  501 -0.00000000000E+00  0.00000000000E+00  0.40849697938E+03  0.40849895356E+03  0.12700000000E+01 0. -1.
          4   -1    0    0  501    0  0.00000000000E+00 -0.00000000000E+00 -0.12228509163E+04  0.12228515758E+04  0.12700000000E+01 0.  1.
     200001    2    1    2    0    0 -0.43737875776E+02  0.77912488127E+02 -0.45433081634E+03  0.83913843343E+03  0.69982387941E+03 0.  0.
    5000001    2    3    3    0    0 -0.14663916539E+02  0.10315431672E+02  0.42591569289E+02  0.13037435809E+03  0.12190977358E+03 0.  0.
        -11    1    4    4    0    0 -0.22266838573E+00 -0.92758725684E+01  0.77652600563E+02  0.78204972780E+02  0.51100000000E-03 0. -1.
     200002    1    4    4    0    0 -0.14441248154E+02  0.19591304241E+02 -0.35061031274E+02  0.52169385314E+02  0.30000000000E+02 0. -1.
     200000    1    3    3    0    0 -0.29073959236E+02  0.67597056455E+02 -0.49692238563E+03  0.70876407533E+03  0.50000000000E+03 0.  1.
    -200001    1    1    2    0    0  0.43737875776E+02 -0.77912488127E+02 -0.36002312062E+03  0.79221209595E+03  0.70000000000E+03 0. -1.
<mgrwt>
<rscale>  0 0.14135530E+04</rscale>
<asrwt>0</asrwt>
<pdfrwt beam="1">  1        4 0.17469317E+00 0.14135530E+04</pdfrwt>
<pdfrwt beam="2">  1       -4 0.58356900E-01 0.14135530E+04</pdfrwt>
<totfact> 0.10648372E+00</totfact>
</mgrwt>
</event>
<event>
 8    1  0.1287848E-011  0.1577008E+04  0.7818608E-02  0.8834799E-01
          4   -1    0    0  501    0  0.00000000000E+00  0.00000000000E+00  0.12336688078E+04  0.12336694615E+04  0.12700000000E+01 0.  1.
         -4   -1    0    0    0  501 -0.00000000000E+00 -0.00000000000E+00 -0.50397386194E+03  0.50397546212E+03  0.12700000000E+01 0. -1.
     200001    2    1    2    0    0  0.98502522497E+02 -0.33525800745E+03  0.46943250718E+03  0.91312250700E+03  0.70094590055E+03 0.  0.
    5000001    2    3    3    0    0  0.37609658782E+01 -0.45560246177E+02  0.12306104377E+03  0.23277410648E+03  0.19222352420E+03 0.  0.
        -11    1    4    4    0    0 -0.46784257300E+01 -0.24647792348E+01 -0.50741689298E+02  0.51016485934E+02  0.51100000000E-03 0. -1.
     200002    1    4    4    0    0  0.84393916082E+01 -0.43095466943E+02  0.17380273307E+03  0.18175762054E+03  0.30000000000E+02 0. -1.
     200000    1    3    3    0    0  0.94741556619E+02 -0.28969776127E+03  0.34637146340E+03  0.68034840052E+03  0.50000000000E+03 0.  1.
    -200001    1    1    2    0    0 -0.98502522497E+02  0.33525800745E+03  0.26026243865E+03  0.82452241660E+03  0.70000000000E+03 0. -1.
<mgrwt>
<rscale>  0 0.15770083E+04</rscale>
<asrwt>0</asrwt>
<pdfrwt beam="1">  1        4 0.17623856E+00 0.15770083E+04</pdfrwt>
<pdfrwt beam="2">  1       -4 0.71996428E-01 0.15770083E+04</pdfrwt>
<totfact> 0.64938809E-01</totfact>
</mgrwt>
</event>
<event>
 8    1  0.1287848E-011  0.1493936E+04  0.7818608E-02  0.8888495E-01
          4   -1    0    0  501    0  0.00000000000E+00  0.00000000000E+00  0.22037728122E+03  0.22038094059E+03  0.12700000000E+01 0.  1.
         -4   -1    0    0    0  501 -0.00000000000E+00 -0.00000000000E+00 -0.25318211670E+04  0.25318214855E+04  0.12700000000E+01 0. -1.
     200001    2    1    2    0    0 -0.11548248894E+03  0.94227419268E+02 -0.76177657679E+03  0.10452508215E+04  0.70002193909E+03 0.  0.
    5000001    2    3    3    0    0  0.87554349365E+02  0.88119955905E+02 -0.11440828008E+03  0.20242998032E+03  0.11161429864E+03 0.  0.
        -11    1    4    4    0    0  0.48537228623E+02  0.10427707994E+03 -0.74516436914E+02  0.13704842697E+03  0.51100000000E-03 0. -1.
     200002    1    4    4    0    0  0.39017120743E+02 -0.16157124035E+02 -0.39891843169E+02  0.65381553358E+02  0.30000000000E+02 0. -1.
     200000    1    3    3    0    0 -0.20303683830E+03  0.61074633624E+01 -0.64736829670E+03  0.84282084122E+03  0.50000000000E+03 0. -1.
    -200001    1    1    2    0    0  0.11548248894E+03 -0.94227419268E+02 -0.15496673090E+04  0.17069516046E+04  0.70000000000E+03 0. -1.
<mgrwt>
<rscale>  0 0.14939362E+04</rscale>
<asrwt>0</asrwt>
<pdfrwt beam="1">  1        4 0.31482754E-01 0.14939362E+04</pdfrwt>
<pdfrwt beam="2">  1       -4 0.36168900E+00 0.14939362E+04</pdfrwt>
<totfact> 0.23949106E-01</totfact>
</mgrwt>
</event>
<event>
 8    1  0.1287848E-011  0.1883228E+04  0.7818608E-02  0.8663250E-01
         -4   -1    0    0    0  501 -0.00000000000E+00  0.00000000000E+00  0.16271116264E+04  0.16271121221E+04  0.12700000000E+01 0. -1.
          4   -1    0    0  501    0  0.00000000000E+00 -0.00000000000E+00 -0.54491341549E+03  0.54491489545E+03  0.12700000000E+01 0.  1.
     200001    2    1    2    0    0 -0.87986906794E+02 -0.12773733324E+03  0.12454522804E+04  0.14366968786E+04  0.69920527450E+03 0.  0.
    5000001    2    3    3    0    0  0.15297109842E+02 -0.65863133904E+01  0.25065800415E+03  0.31199211290E+03  0.18501962701E+03 0.  0.
        -11    1    4    4    0    0 -0.34011806669E+02 -0.23226095956E+02  0.24849449995E+03  0.25188443984E+03  0.51100000000E-03 0. -1.
     200002    1    4    4    0    0  0.49308916511E+02  0.16639782566E+02  0.21635041977E+01  0.60107673069E+02  0.30000000000E+02 0. -1.
     200000    1    3    3    0    0 -0.10328401664E+03 -0.12115101985E+03  0.99479427630E+03  0.11247047656E+04  0.50000000000E+03 0. -1.
    -200001    1    1    2    0    0  0.87986906794E+02  0.12773733324E+03 -0.16325406950E+03  0.73533013897E+03  0.70000000000E+03 0.  1.
<mgrwt>
<rscale>  0 0.18832282E+04</rscale>
<asrwt>0</asrwt>
<pdfrwt beam="1">  1        4 0.77844915E-01 0.18832282E+04</pdfrwt>
<pdfrwt beam="2">  1       -4 0.23244466E+00 0.18832282E+04</pdfrwt>
<totfact> 0.22696508E-01</totfact>
</mgrwt>
</event>
<event>
 8    1  0.1287848E-011  0.1837870E+04  0.7818608E-02  0.8686416E-01
         -4   -1    0    0    0  501 -0.00000000000E+00  0.00000000000E+00  0.12787720218E+04  0.12787726525E+04  0.12700000000E+01 0. -1.
          4   -1    0    0  501    0  0.00000000000E+00 -0.00000000000E+00 -0.66035180454E+03  0.66035302578E+03  0.12700000000E+01 0.  1.
     200001    2    1    2    0    0  0.34753175101E+02  0.52691504443E+03  0.60195476392E+03  0.10621317453E+04  0.69780159027E+03 0.  0.
    5000001    2    3    3    0    0  0.26702414262E+02  0.10806713118E+03  0.10688085381E+03  0.24323213874E+03  0.18800753346E+03 0.  0.
        -11    1    4    4    0    0 -0.65367993227E+02  0.98918177911E+02  0.39758773781E+02  0.12505415048E+03  0.51100000000E-03 0. -1.
     200002    1    4    4    0    0  0.92070407490E+02  0.91489532682E+01  0.67122080034E+02  0.11817798826E+03  0.30000000000E+02 0. -1.
     200000    1    3    3    0    0  0.80507608389E+01  0.41884791325E+03  0.49507391011E+03  0.81889960658E+03  0.50000000000E+03 0. -1.
    -200001    1    1    2    0    0 -0.34753175101E+02 -0.52691504443E+03  0.16465453351E+02  0.87699393292E+03  0.70000000000E+03 0.  1.
<mgrwt>
<rscale>  0 0.18378696E+04</rscale>
<asrwt>0</asrwt>
<pdfrwt beam="1">  1        4 0.94336104E-01 0.18378696E+04</pdfrwt>
<pdfrwt beam="2">  1       -4 0.18268185E+00 0.18378696E+04</pdfrwt>
<totfact> 0.30972053E-01</totfact>
</mgrwt>
</event>
<event>
 8    1  0.1287848E-011  0.1756950E+04  0.7818608E-02  0.8729534E-01
          4   -1    0    0  501    0  0.00000000000E+00  0.00000000000E+00  0.20223421903E+03  0.20223820669E+03  0.12700000000E+01 0.  1.
         -4   -1    0    0    0  501 -0.00000000000E+00 -0.00000000000E+00 -0.38159219601E+04  0.38159221714E+04  0.12700000000E+01 0. -1.
     200001    2    1    2    0    0  0.42856086994E+03 -0.20850471127E+03 -0.22997370132E+04  0.24549568888E+04  0.71476175186E+03 0.  0.
    5000001    2    3    3    0    0  0.52898637563E+02  0.68946346514E+02 -0.61236416206E+03  0.63415257718E+03  0.14002771018E+03 0.  0.
        -11    1    4    4    0    0  0.66313487737E+02  0.67479074961E+02 -0.20861740559E+03  0.22906795089E+03  0.51100000000E-03 0. -1.
     200002    1    4    4    0    0 -0.13414850175E+02  0.14672715537E+01 -0.40374675647E+03  0.40508462628E+03  0.30000000000E+02 0. -1.
     200000    1    3    3    0    0  0.37566223238E+03 -0.27745105779E+03 -0.16873728512E+04  0.18208043116E+04  0.50000000000E+03 0. -1.
    -200001    1    1    2    0    0 -0.42856086994E+03  0.20850471127E+03 -0.13139507278E+04  0.15632034893E+04  0.70000000000E+03 0.  1.
<mgrwt>
<rscale>  0 0.17569501E+04</rscale>
<asrwt>0</asrwt>
<pdfrwt beam="1">  1        4 0.28890905E-01 0.17569501E+04</pdfrwt>
<pdfrwt beam="2">  1       -4 0.54513196E+00 0.17569501E+04</pdfrwt>
<totfact> 0.11454901E-02</totfact>
</mgrwt>
</event>
<event>
 8    1  0.1287848E-011  0.1413722E+04  0.7818608E-02  0.8943945E-01
          4   -1    0    0  501    0  0.00000000000E+00  0.00000000000E+00  0.48523263403E+03  0.48523429601E+03  0.12700000000E+01 0.  1.
         -4   -1    0    0    0  501 -0.00000000000E+00 -0.00000000000E+00 -0.10297135974E+04  0.10297143806E+04  0.12700000000E+01 0. -1.
     200001    2    1    2    0    0 -0.10728505782E+02 -0.97389440006E+02 -0.27472141609E+03  0.75839727900E+03  0.70006769136E+03 0.  0.
    5000001    2    3    3    0    0 -0.71662541835E+01 -0.10586902560E+03 -0.55976161785E+02  0.21256389848E+03  0.17547214727E+03 0.  0.
        -11    1    4    4    0    0 -0.12389197112E+02 -0.27431456134E+02  0.61261960939E+02  0.68256903307E+02  0.51100000000E-03 0. -1.
     200002    1    4    4    0    0  0.52229429284E+01 -0.78437569471E+02 -0.11723812272E+03  0.14430699518E+03  0.30000000000E+02 0. -1.
     200000    1    3    3    0    0 -0.35622515984E+01  0.84795855982E+01 -0.21874525431E+03  0.54583338052E+03  0.50000000000E+03 0. -1.
    -200001    1    1    2    0    0  0.10728505782E+02  0.97389440006E+02 -0.26975954731E+03  0.75655139761E+03  0.70000000000E+03 0.  1.
<mgrwt>
<rscale>  0 0.14137220E+04</rscale>
<asrwt>0</asrwt>
<pdfrwt beam="1">  1        4 0.69319122E-01 0.14137220E+04</pdfrwt>
<pdfrwt beam="2">  1       -4 0.14710212E+00 0.14137220E+04</pdfrwt>
<totfact> 0.11726910E+00</totfact>
</mgrwt>
</event>
<event>
 8    1  0.1287848E-011  0.1984101E+04  0.7818608E-02  0.8614090E-01
         -4   -1    0    0    0  501 -0.00000000000E+00  0.00000000000E+00  0.63369464486E+03  0.63369591748E+03  0.12700000000E+01 0. -1.
          4   -1    0    0  501    0  0.00000000000E+00 -0.00000000000E+00 -0.15530539239E+04  0.15530544432E+04  0.12700000000E+01 0.  1.
     200001    2    1    2    0    0 -0.67746029612E+03  0.11460746518E+03 -0.29471506995E+03  0.10238798985E+04  0.69956111250E+03 0.  0.
    5000001    2    3    3    0    0 -0.34341890683E+03  0.51614515502E+02 -0.10762517102E+03  0.39098623302E+03  0.14382785960E+03 0.  0.
        -11    1    4    4    0    0 -0.90432068595E+02 -0.42668746861E+02 -0.34587494555E+01  0.10005270580E+03  0.51100000000E-03 0. -1.
     200002    1    4    4    0    0 -0.25298683824E+03  0.94283262363E+02 -0.10416642156E+03  0.29093352723E+03  0.30000000000E+02 0. -1.
     200000    1    3    3    0    0 -0.33404138928E+03  0.62992949681E+02 -0.18708989893E+03  0.63289366543E+03  0.50000000000E+03 0.  1.
    -200001    1    1    2    0    0  0.67746029612E+03 -0.11460746518E+03 -0.62464420909E+03  0.11628704622E+04  0.70000000000E+03 0. -1.
<mgrwt>
<rscale>  0 0.19841007E+04</rscale>
<asrwt>0</asrwt>
<pdfrwt beam="1">  1        4 0.22186497E+00 0.19841007E+04</pdfrwt>
<pdfrwt beam="2">  1       -4 0.90527935E-01 0.19841007E+04</pdfrwt>
<totfact> 0.18581340E-01</totfact>
</mgrwt>
</event>
<event>
 8    1  0.1287848E-011  0.1659065E+04  0.7818608E-02  0.8785062E-01
          4   -1    0    0  501    0  0.00000000000E+00  0.00000000000E+00  0.48162692964E+03  0.48162860406E+03  0.12700000000E+01 0.  1.
         -4   -1    0    0    0  501 -0.00000000000E+00 -0.00000000000E+00 -0.14287442299E+04  0.14287447944E+04  0.12700000000E+01 0. -1.
     200001    2    1    2    0    0  0.42645817965E+03 -0.18488611568E+02 -0.62049375598E+03  0.10278251859E+04  0.69943098576E+03 0.  0.
    5000001    2    3    3    0    0  0.72753744150E+02 -0.64894243885E+02 -0.15338795655E+03  0.25617232467E+03  0.18053261350E+03 0.  0.
        -11    1    4    4    0    0  0.12670948733E+03 -0.35601489806E+02 -0.12707100942E+03  0.18294753809E+03  0.51100000000E-03 0. -1.
     200002    1    4    4    0    0 -0.53955743184E+02 -0.29292754079E+02 -0.26316947128E+02  0.73224786584E+02  0.30000000000E+02 0. -1.
     200000    1    3    3    0    0  0.35370443550E+03  0.46405632316E+02 -0.46710579943E+03  0.77165286125E+03  0.50000000000E+03 0. -1.
    -200001    1    1    2    0    0 -0.42645817965E+03  0.18488611568E+02 -0.32662354433E+03  0.88254821254E+03  0.70000000000E+03 0.  1.
<mgrwt>
<rscale>  0 0.16590646E+04</rscale>
<asrwt>0</asrwt>
<pdfrwt beam="1">  1        4 0.68804008E-01 0.16590646E+04</pdfrwt>
<pdfrwt beam="2">  1       -4 0.20410648E+00 0.16590646E+04</pdfrwt>
<totfact> 0.46216362E-01</totfact>
</mgrwt>
</event>
<event>
 8    1  0.1287848E-011  0.1603846E+04  0.7818608E-02  0.8818189E-01
         -4   -1    0    0    0  501 -0.00000000000E+00  0.00000000000E+00  0.59106377176E+03  0.59106513617E+03  0.12700000000E+01 0. -1.
          4   -1    0    0  501    0  0.00000000000E+00 -0.00000000000E+00 -0.10880022505E+04  0.10880029917E+04  0.12700000000E+01 0.  1.
     200001    2    1    2    0    0 -0.31456201056E+03  0.15915769074E+03 -0.42537126905E+03  0.89204697539E+03  0.70037608523E+03 0.  0.
    5000001    2    3    3    0    0 -0.85905689793E+02 -0.21678162625E+02 -0.12155335136E+03  0.23837225047E+03  0.18492263867E+03 0.  0.
        -11    1    4    4    0    0 -0.97445564142E+02  0.20834008430E+02 -0.14835667893E+03  0.17871597036E+03  0.51100000000E-03 0. -1.
     200002    1    4    4    0    0  0.11539874350E+02 -0.42512171055E+02  0.26803327568E+02  0.59656280110E+02  0.30000000000E+02 0. -1.
     200000    1    3    3    0    0 -0.22865632077E+03  0.18083585336E+03 -0.30381791769E+03  0.65367472492E+03  0.50000000000E+03 0. -1.
    -200001    1    1    2    0    0  0.31456201056E+03 -0.15915769074E+03 -0.71567209707E+02  0.78702115252E+03  0.70000000000E+03 0.  1.
<mgrwt>
<rscale>  0 0.16038460E+04</rscale>
<asrwt>0</asrwt>
<pdfrwt beam="1">  1        4 0.15542904E+00 0.16038460E+04</pdfrwt>
<pdfrwt beam="2">  1       -4 0.84437832E-01 0.16038460E+04</pdfrwt>
<totfact> 0.64089456E-01</totfact>
</mgrwt>
</event>
<event>
 8    1  0.1287848E-011  0.2177116E+04  0.7818608E-02  0.8528014E-01
         -4   -1    0    0    0  501 -0.00000000000E+00  0.00000000000E+00  0.69290087095E+03  0.69290203482E+03  0.12700000000E+01 0.  1.
          4   -1    0    0  501    0  0.00000000000E+00 -0.00000000000E+00 -0.17101390947E+04  0.17101395663E+04  0.12700000000E+01 0. -1.
     200001    2    1    2    0    0  0.77191980167E+03  0.23924840201E+03 -0.73407013732E+03  0.12970198367E+04  0.70021533279E+03 0.  0.
    5000001    2    3    3    0    0  0.31167184652E+03  0.96283381304E+02 -0.19720610622E+03  0.41924414484E+03  0.17454390630E+03 0.  0.
        -11    1    4    4    0    0  0.97836777474E+02 -0.37419968328E+02 -0.13107806268E+02  0.10556563665E+03  0.51100000000E-03 0. -1.
     200002    1    4    4    0    0  0.21383506904E+03  0.13370334963E+03 -0.18409829995E+03  0.31367850819E+03  0.30000000000E+02 0. -1.
     200000    1    3    3    0    0  0.46024795515E+03  0.14296502070E+03 -0.53686403111E+03  0.87777569188E+03  0.50000000000E+03 0. -1.
    -200001    1    1    2    0    0 -0.77191980167E+03 -0.23924840201E+03 -0.28316808641E+03  0.11060217644E+04  0.70000000000E+03 0.  1.
<mgrwt>
<rscale>  0 0.21771163E+04</rscale>
<asrwt>0</asrwt>
<pdfrwt beam="1">  1        4 0.24430570E+00 0.21771163E+04</pdfrwt>
<pdfrwt beam="2">  1       -4 0.98985956E-01 0.21771163E+04</pdfrwt>
<totfact> 0.10704051E-01</totfact>
</mgrwt>
</event>
<event>
 8    1  0.1287848E-011  0.1786757E+04  0.7818608E-02  0.8713374E-01
          4   -1    0    0  501    0  0.00000000000E+00  0.00000000000E+00  0.97809085883E+03  0.97809168334E+03  0.12700000000E+01 0.  1.
         -4   -1    0    0    0  501 -0.00000000000E+00 -0.00000000000E+00 -0.81600142053E+03  0.81600240882E+03  0.12700000000E+01 0. -1.
     200001    2    1    2    0    0 -0.45994689923E+01 -0.41295054918E+03  0.45317377706E+03  0.93079842818E+03  0.70033558421E+03 0.  0.
    5000001    2    3    3    0    0  0.82947341326E+02 -0.22667657481E+03  0.80908406963E+02  0.27433522031E+03  0.10223067926E+03 0.  0.
        -11    1    4    4    0    0  0.65642114984E+02 -0.19469038124E+03  0.34787601346E+02  0.20838284242E+03  0.51100000000E-03 0. -1.
     200002    1    4    4    0    0  0.17305226342E+02 -0.31986193569E+02  0.46120805617E+02  0.65952377884E+02  0.30000000000E+02 0. -1.
     200000    1    3    3    0    0 -0.87546810318E+02 -0.18627397437E+03  0.37226537010E+03  0.65646320788E+03  0.50000000000E+03 0.  1.
    -200001    1    1    2    0    0  0.45994689923E+01  0.41295054918E+03 -0.29108433876E+03  0.86329566398E+03  0.70000000000E+03 0. -1.
<mgrwt>
<rscale>  0 0.17867570E+04</rscale>
<asrwt>0</asrwt>
<pdfrwt beam="1">  1        4 0.13972740E+00 0.17867570E+04</pdfrwt>
<pdfrwt beam="2">  1       -4 0.11657176E+00 0.17867570E+04</pdfrwt>
<totfact> 0.38933722E-01</totfact>
</mgrwt>
</event>
<event>
 8    1  0.1287848E-011  0.2465397E+04  0.7818608E-02  0.8415418E-01
         -4   -1    0    0    0  501 -0.00000000000E+00  0.00000000000E+00  0.34249604556E+04  0.34249606910E+04  0.12700000000E+01 0.  1.
          4   -1    0    0  501    0  0.00000000000E+00 -0.00000000000E+00 -0.44366705674E+03  0.44366887443E+03  0.12700000000E+01 0. -1.
     200001    2    1    2    0    0 -0.57385545997E+03  0.70914211036E+03  0.79284899565E+03  0.13964884838E+04  0.69955552602E+03 0.  0.
    5000001    2    3    3    0    0 -0.17273728973E+03  0.20880901145E+03  0.19238493342E+03  0.38565413223E+03  0.19564706125E+03 0.  0.
        -11    1    4    4    0    0 -0.17994723236E+03  0.15117648156E+03  0.67220146252E+02  0.24444607396E+03  0.51100000000E-03 0. -1.
     200002    1    4    4    0    0  0.72099426345E+01  0.57632529887E+02  0.12516478717E+03  0.14120805827E+03  0.30000000000E+02 0. -1.
     200000    1    3    3    0    0 -0.40111817024E+03  0.50033309891E+03  0.60046406223E+03  0.10108343516E+04  0.50000000000E+03 0.  1.
    -200001    1    1    2    0    0  0.57385545997E+03 -0.70914211036E+03  0.21884444032E+04  0.24721410816E+04  0.70000000000E+03 0. -1.
<mgrwt>
<rscale>  0 0.24653974E+04</rscale>
<asrwt>0</asrwt>
<pdfrwt beam="1">  1        4 0.63381154E-01 0.24653974E+04</pdfrwt>
<pdfrwt beam="2">  1       -4 0.48928021E+00 0.24653974E+04</pdfrwt>
<totfact> 0.61738987E-03</totfact>
</mgrwt>
</event>
<event>
 8    1  0.1287848E-011  0.1784908E+04  0.7818608E-02  0.8714367E-01
          4   -1    0    0  501    0  0.00000000000E+00  0.00000000000E+00  0.55319810307E+03  0.55319956086E+03  0.12700000000E+01 0.  1.
         -4   -1    0    0    0  501 -0.00000000000E+00 -0.00000000000E+00 -0.14397596007E+04  0.14397601608E+04  0.12700000000E+01 0. -1.
     200001    2    1    2    0    0  0.51128242382E+03 -0.71254062229E+02 -0.66679683349E+03  0.10958625330E+04  0.69986414101E+03 0.  0.
    5000001    2    3    3    0    0  0.13942102294E+03  0.43572288315E+02 -0.14663984920E+03  0.27608861264E+03  0.18271538171E+03 0.  0.
        -11    1    4    4    0    0  0.48013326594E+02  0.98202448786E+02 -0.11993854796E+03  0.16227832808E+03  0.51100000000E-03 0. -1.
     200002    1    4    4    0    0  0.91407696346E+02 -0.54630160471E+02 -0.26701301238E+02  0.11381028456E+03  0.30000000000E+02 0. -1.
     200000    1    3    3    0    0  0.37186140088E+03 -0.11482635054E+03 -0.52015698429E+03  0.81977392039E+03  0.50000000000E+03 0. -1.
    -200001    1    1    2    0    0 -0.51128242382E+03  0.71254062229E+02 -0.21976466414E+03  0.89709718866E+03  0.70000000000E+03 0. -1.
<mgrwt>
<rscale>  0 0.17849082E+04</rscale>
<asrwt>0</asrwt>
<pdfrwt beam="1">  1        4 0.79028445E-01 0.17849082E+04</pdfrwt>
<pdfrwt beam="2">  1       -4 0.20568009E+00 0.17849082E+04</pdfrwt>
<totfact> 0.32799005E-01</totfact>
</mgrwt>
</event>
<event>
 8    1  0.1287848E-011  0.1490277E+04  0.7818608E-02  0.8890944E-01
         -4   -1    0    0    0  501 -0.00000000000E+00  0.00000000000E+00  0.26759569647E+03  0.26759871015E+03  0.12700000000E+01 0. -1.
          4   -1    0    0  501    0  0.00000000000E+00 -0.00000000000E+00 -0.20748749498E+04  0.20748753385E+04  0.12700000000E+01 0.  1.
     200001    2    1    2    0    0  0.45161852917E+02 -0.22197822986E+03 -0.71563658668E+03  0.10260403666E+04  0.69950638471E+03 0.  0.
    5000001    2    3    3    0    0  0.16138710485E+02 -0.10440500366E+03 -0.30453825071E+03  0.36750589663E+03  0.17651111907E+03 0.  0.
        -11    1    4    4    0    0  0.12832605159E+02  0.39106728141E+02 -0.14534199782E+03  0.15105730129E+03  0.51100000000E-03 0. -1.
     200002    1    4    4    0    0  0.33061053252E+01 -0.14351173180E+03 -0.15919625288E+03  0.21644859535E+03  0.30000000000E+02 0. -1.
     200000    1    3    3    0    0  0.29023142433E+02 -0.11757322620E+03 -0.41109833597E+03  0.65853446998E+03  0.50000000000E+03 0. -1.
    -200001    1    1    2    0    0 -0.45161852917E+02  0.22197822986E+03 -0.10916426667E+04  0.13164336820E+04  0.70000000000E+03 0.  1.
<mgrwt>
<rscale>  0 0.14902773E+04</rscale>
<asrwt>0</asrwt>
<pdfrwt beam="1">  1        4 0.29641094E+00 0.14902773E+04</pdfrwt>
<pdfrwt beam="2">  1       -4 0.38228201E-01 0.14902773E+04</pdfrwt>
<totfact> 0.42494410E-01</totfact>
</mgrwt>
</event>
<event>
 8    1  0.1287848E-011  0.2089897E+04  0.7818608E-02  0.8565707E-01
          4   -1    0    0  501    0  0.00000000000E+00  0.00000000000E+00  0.82306892179E+03  0.82306990160E+03  0.12700000000E+01 0.  1.
         -4   -1    0    0    0  501 -0.00000000000E+00 -0.00000000000E+00 -0.13266391903E+04  0.13266397982E+04  0.12700000000E+01 0. -1.
     200001    2    1    2    0    0  0.84603331653E+02 -0.71813524897E+03 -0.54266766622E+03  0.11425331680E+04  0.69858276860E+03 0.  0.
    5000001    2    3    3    0    0 -0.77580784150E+01 -0.29215854901E+03 -0.13359562167E+03  0.36322147392E+03  0.16930813165E+03 0.  0.
        -11    1    4    4    0    0  0.69650577685E+02 -0.18105268539E+03 -0.10851354514E+03  0.22227565619E+03  0.51100000000E-03 0. -1.
     200002    1    4    4    0    0 -0.77408656100E+02 -0.11110586362E+03 -0.25082076537E+02  0.14094581772E+03  0.30000000000E+02 0. -1.
     200000    1    3    3    0    0  0.92361410068E+02 -0.42597669996E+03 -0.40907204454E+03  0.77931169413E+03  0.50000000000E+03 0.  1.
    -200001    1    1    2    0    0 -0.84603331653E+02  0.71813524897E+03  0.39097397731E+02  0.10071765317E+04  0.70000000000E+03 0. -1.
<mgrwt>
<rscale>  0 0.20898968E+04</rscale>
<asrwt>0</asrwt>
<pdfrwt beam="1">  1        4 0.11758139E+00 0.20898968E+04</pdfrwt>
<pdfrwt beam="2">  1       -4 0.18952000E+00 0.20898968E+04</pdfrwt>
<totfact> 0.16021666E-01</totfact>
</mgrwt>
</event>
<event>
 8    1  0.1287848E-011  0.1516226E+04  0.7818608E-02  0.8873734E-01
         -4   -1    0    0    0  501 -0.00000000000E+00  0.00000000000E+00  0.70101529625E+03  0.70101644665E+03  0.12700000000E+01 0. -1.
          4   -1    0    0  501    0  0.00000000000E+00 -0.00000000000E+00 -0.81985915431E+03  0.81986013795E+03  0.12700000000E+01 0.  1.
     200001    2    1    2    0    0 -0.98098210262E+02  0.19625217918E+03 -0.25338227045E+03  0.77506242471E+03  0.69884262214E+03 0.  0.
    5000001    2    3    3    0    0 -0.49525925571E+02  0.32706297714E+02  0.86396880834E+00  0.18876243975E+03  0.17918703358E+03 0.  0.
        -11    1    4    4    0    0  0.57855071904E+02  0.35061804837E+02  0.29227899633E+02  0.73694027035E+02  0.51100000000E-03 0. -1.
     200002    1    4    4    0    0 -0.10738099748E+03 -0.23555071233E+01 -0.28363930825E+02  0.11506841271E+03  0.30000000000E+02 0. -1.
     200000    1    3    3    0    0 -0.48572284691E+02  0.16354588147E+03 -0.25424623926E+03  0.58629998496E+03  0.50000000000E+03 0.  1.
    -200001    1    1    2    0    0  0.98098210262E+02 -0.19625217918E+03  0.13453841240E+03  0.74581415990E+03  0.70000000000E+03 0.  1.
<mgrwt>
<rscale>  0 0.15162261E+04</rscale>
<asrwt>0</asrwt>
<pdfrwt beam="1">  1        4 0.11712289E+00 0.15162261E+04</pdfrwt>
<pdfrwt beam="2">  1       -4 0.10014519E+00 0.15162261E+04</pdfrwt>
<totfact> 0.89848573E-01</totfact>
</mgrwt>
</event>
<event>
 8    1  0.1287848E-011  0.1772935E+04  0.7818608E-02  0.8720826E-01
         -4   -1    0    0    0  501 -0.00000000000E+00  0.00000000000E+00  0.22791950201E+04  0.22791953739E+04  0.12700000000E+01 0. -1.
          4   -1    0    0  501    0  0.00000000000E+00 -0.00000000000E+00 -0.34478002568E+03  0.34478236470E+03  0.12700000000E+01 0.  1.
     200001    2    1    2    0    0  0.25041518363E+03 -0.42073448472E+03  0.61659491109E+03  0.10535080500E+04  0.69997475399E+03 0.  0.
    5000001    2    3    3    0    0  0.12343082652E+03 -0.14711134897E+03  0.21913518161E+03  0.34713075427E+03  0.18868655175E+03 0.  0.
        -11    1    4    4    0    0  0.13387180098E+03 -0.10854983629E+03  0.23789345532E+03  0.29376525005E+03  0.51100000000E-03 0. -1.
     200002    1    4    4    0    0 -0.10440974463E+02 -0.38561512681E+02 -0.18758273706E+02  0.53365504218E+02  0.30000000000E+02 0. -1.
     200000    1    3    3    0    0  0.12698435711E+03 -0.27362313575E+03  0.39745972948E+03  0.70637729573E+03  0.50000000000E+03 0.  1.
    -200001    1    1    2    0    0 -0.25041518363E+03  0.42073448472E+03  0.13178200833E+04  0.15704696886E+04  0.70000000000E+03 0. -1.
<mgrwt>
<rscale>  0 0.17729348E+04</rscale>
<asrwt>0</asrwt>
<pdfrwt beam="1">  1        4 0.49254480E-01 0.17729348E+04</pdfrwt>
<pdfrwt beam="2">  1       -4 0.32559949E+00 0.17729348E+04</pdfrwt>
<totfact> 0.16231890E-01</totfact>
</mgrwt>
</event>
<event>
 8    1  0.1287848E-011  0.1596986E+04  0.7818608E-02  0.8822402E-01
          4   -1    0    0  501    0  0.00000000000E+00  0.00000000000E+00  0.92604659487E+03  0.92604746573E+03  0.12700000000E+01 0. -1.
         -4   -1    0    0    0  501 -0.00000000000E+00 -0.00000000000E+00 -0.68850644078E+03  0.68850761208E+03  0.12700000000E+01 0.  1.
     200001    2    1    2    0    0  0.15969062598E+03  0.20674516664E+03  0.40363588730E+03  0.84915815297E+03  0.69993069606E+03 0.  0.
    5000001    2    3    3    0    0  0.60128644207E+01 -0.50785664775E+01  0.16929969062E+03  0.23809383444E+03  0.16722542384E+03 0.  0.
        -11    1    4    4    0    0  0.50891752998E+02 -0.41055199820E+02  0.15963235335E+03  0.17250503817E+03  0.51100000000E-03 0. -1.
     200002    1    4    4    0    0 -0.44878888578E+02  0.35976633343E+02  0.96673372667E+01  0.65588796272E+02  0.30000000000E+02 0. -1.
     200000    1    3    3    0    0  0.15367776156E+03  0.21182373312E+03  0.23433619668E+03  0.61106431853E+03  0.50000000000E+03 0. -1.
    -200001    1    1    2    0    0 -0.15969062598E+03 -0.20674516664E+03 -0.16609573320E+03  0.76539692483E+03  0.70000000000E+03 0.  1.
<mgrwt>
<rscale>  0 0.15969855E+04</rscale>
<asrwt>0</asrwt>
<pdfrwt beam="1">  1        4 0.13229252E+00 0.15969855E+04</pdfrwt>
<pdfrwt beam="2">  1       -4 0.98358208E-01 0.15969855E+04</pdfrwt>
<totfact> 0.68614577E-01</totfact>
</mgrwt>
</event>
<event>
 8    1  0.1287848E-011  0.1922335E+04  0.7818608E-02  0.8643818E-01
         -4   -1    0    0    0  501 -0.00000000000E+00  0.00000000000E+00  0.95234558848E+03  0.95234643528E+03  0.12700000000E+01 0. -1.
          4   -1    0    0  501    0  0.00000000000E+00 -0.00000000000E+00 -0.97006905949E+03  0.97006989082E+03  0.12700000000E+01 0.  1.
     200001    2    1    2    0    0 -0.44658942153E+03 -0.45315800098E+03 -0.17929896129E+03  0.96278049708E+03  0.70000277340E+03 0.  0.
    5000001    2    3    3    0    0 -0.15670118651E+03 -0.20778869272E+03 -0.13974382378E+03  0.33364943352E+03  0.15511997140E+03 0.  0.
        -11    1    4    4    0    0 -0.11288997357E+03 -0.13188760743E+03 -0.95514920725E+01  0.17386695525E+03  0.51100000000E-03 0. -1.
     200002    1    4    4    0    0 -0.43811212943E+02 -0.75901085286E+02 -0.13019233171E+03  0.15978247827E+03  0.30000000000E+02 0. -1.
     200000    1    3    3    0    0 -0.28988823501E+03 -0.24536930826E+03 -0.39555137510E+02  0.62913106356E+03  0.50000000000E+03 0.  1.
    -200001    1    1    2    0    0  0.44658942153E+03  0.45315800098E+03  0.16157549028E+03  0.95963582902E+03  0.70000000000E+03 0. -1.
<mgrwt>
<rscale>  0 0.19223346E+04</rscale>
<asrwt>0</asrwt>
<pdfrwt beam="1">  1        4 0.13858141E+00 0.19223346E+04</pdfrwt>
<pdfrwt beam="2">  1       -4 0.13604949E+00 0.19223346E+04</pdfrwt>
<totfact> 0.26646077E-01</totfact>
</mgrwt>
</event>
<event>
 8    1  0.1287848E-011  0.1656658E+04  0.7818608E-02  0.8786477E-01
          4   -1    0    0  501    0  0.00000000000E+00  0.00000000000E+00  0.11251752224E+04  0.11251759391E+04  0.12700000000E+01 0.  1.
         -4   -1    0    0    0  501 -0.00000000000E+00 -0.00000000000E+00 -0.60979592212E+03  0.60979724461E+03  0.12700000000E+01 0. -1.
     200001    2    1    2    0    0 -0.26048517639E+03 -0.30372386964E+03  0.57314027525E+02  0.80765203645E+03  0.69922542726E+03 0.  0.
    5000001    2    3    3    0    0 -0.12570902540E+03 -0.69992060015E+02  0.87254551458E+02  0.23871301979E+03  0.16931893437E+03 0.  0.
        -11    1    4    4    0    0 -0.14363413987E+03 -0.81708949366E+01  0.86151843280E+02  0.16768920586E+03  0.51100000000E-03 0. -1.
     200002    1    4    4    0    0  0.17925114469E+02 -0.61821165079E+02  0.11027081782E+01  0.71023813934E+02  0.30000000000E+02 0. -1.
     200000    1    3    3    0    0 -0.13477615099E+03 -0.23373180963E+03 -0.29940523933E+02  0.56893901666E+03  0.50000000000E+03 0. -1.
    -200001    1    1    2    0    0  0.26048517639E+03  0.30372386964E+03  0.45806527277E+03  0.92732114730E+03  0.70000000000E+03 0.  1.
<mgrwt>
<rscale>  0 0.16566581E+04</rscale>
<asrwt>0</asrwt>
<pdfrwt beam="1">  1        4 0.16073946E+00 0.16566581E+04</pdfrwt>
<pdfrwt beam="2">  1       -4 0.87113849E-01 0.16566581E+04</pdfrwt>
<totfact> 0.54215949E-01</totfact>
</mgrwt>
</event>
<event>
 8    1  0.1287848E-011  0.2094331E+04  0.7818608E-02  0.8563745E-01
         -4   -1    0    0    0  501 -0.00000000000E+00  0.00000000000E+00  0.15059542962E+04  0.15059548317E+04  0.12700000000E+01 0. -1.
          4   -1    0    0  501    0  0.00000000000E+00 -0.00000000000E+00 -0.72814516351E+03  0.72814627104E+03  0.12700000000E+01 0.  1.
     200001    2    1    2    0    0  0.65263205521E+03  0.60915621392E+02 -0.59647945827E+02  0.96092646005E+03  0.70013032484E+03 0.  0.
    5000001    2    3    3    0    0  0.29897506752E+03  0.40393908559E+02 -0.84169539266E+02  0.34766003003E+03  0.15088149753E+03 0.  0.
        -11    1    4    4    0    0  0.23204058906E+03  0.26766665572E+02 -0.12253409857E+03  0.26376863853E+03  0.51100000000E-03 0. -1.
     200002    1    4    4    0    0  0.66934478453E+02  0.13627242987E+02  0.38364559306E+02  0.83891391501E+02  0.30000000000E+02 0. -1.
     200000    1    3    3    0    0  0.35365698769E+03  0.20521712833E+02  0.24521593439E+02  0.61326643002E+03  0.50000000000E+03 0.  1.
    -200001    1    1    2    0    0 -0.65263205521E+03 -0.60915621392E+02  0.83745707847E+03  0.12731746427E+04  0.70000000000E+03 0. -1.
<mgrwt>
<rscale>  0 0.20943306E+04</rscale>
<asrwt>0</asrwt>
<pdfrwt beam="1">  1        4 0.10402085E+00 0.20943306E+04</pdfrwt>
<pdfrwt beam="2">  1       -4 0.21513645E+00 0.20943306E+04</pdfrwt>
<totfact> 0.14634067E-01</totfact>
</mgrwt>
</event>
<event>
 8    1  0.1287848E-011  0.1884920E+04  0.7818608E-02  0.8662399E-01
          4   -1    0    0  501    0  0.00000000000E+00  0.00000000000E+00  0.99275600255E+03  0.99275681489E+03  0.12700000000E+01 0.  1.
         -4   -1    0    0    0  501 -0.00000000000E+00 -0.00000000000E+00 -0.89471092220E+03  0.89471182355E+03  0.12700000000E+01 0. -1.
     200001    2    1    2    0    0  0.18045549460E+03 -0.14262406171E+03  0.63783027710E+03  0.97408270296E+03  0.69935959371E+03 0.  0.
    5000001    2    3    3    0    0  0.79949251945E+02 -0.47349334267E+02  0.13939716855E+03  0.25462850553E+03  0.19175573756E+03 0.  0.
        -11    1    4    4    0    0  0.60211319343E+02 -0.10706424254E+03  0.32559959542E+02  0.12707598504E+03  0.51100000000E-03 0. -1.
     200002    1    4    4    0    0  0.19737932601E+02  0.59714908277E+02  0.10683720901E+03  0.12755252049E+03  0.30000000000E+02 0. -1.
     200000    1    3    3    0    0  0.10050624266E+03 -0.95274727440E+02  0.49843310855E+03  0.71945419743E+03  0.50000000000E+03 0.  1.
    -200001    1    1    2    0    0 -0.18045549460E+03  0.14262406171E+03 -0.53978519675E+03  0.91338593548E+03  0.70000000000E+03 0. -1.
<mgrwt>
<rscale>  0 0.18849204E+04</rscale>
<asrwt>0</asrwt>
<pdfrwt beam="1">  1        4 0.14182241E+00 0.18849204E+04</pdfrwt>
<pdfrwt beam="2">  1       -4 0.12781597E+00 0.18849204E+04</pdfrwt>
<totfact> 0.29505924E-01</totfact>
</mgrwt>
</event>
<event>
 8    1  0.1287848E-011  0.1678598E+04  0.7818608E-02  0.8773666E-01
         -4   -1    0    0    0  501 -0.00000000000E+00  0.00000000000E+00  0.10162436584E+04  0.10162444520E+04  0.12700000000E+01 0. -1.
          4   -1    0    0  501    0  0.00000000000E+00 -0.00000000000E+00 -0.69316162606E+03  0.69316278950E+03  0.12700000000E+01 0.  1.
     200001    2    1    2    0    0  0.17442651205E+03  0.36163151502E+03  0.39650934977E+03  0.89910264957E+03  0.69997424898E+03 0.  0.
    5000001    2    3    3    0    0  0.14927205492E+03  0.15599403849E+03  0.13680366848E+03  0.29879726115E+03  0.15475229606E+03 0.  0.
        -11    1    4    4    0    0  0.62919590212E+02  0.37064920027E+02 -0.25914752351E+02  0.77487144216E+02  0.51100000000E-03 0. -1.
     200002    1    4    4    0    0  0.86352464708E+02  0.11892911846E+03  0.16271842083E+03  0.22131011693E+03  0.30000000000E+02 0. -1.
     200000    1    3    3    0    0  0.25154457126E+02  0.20563747653E+03  0.25970568129E+03  0.60030538842E+03  0.50000000000E+03 0. -1.
    -200001    1    1    2    0    0 -0.17442651205E+03 -0.36163151502E+03 -0.73427317393E+02  0.81030459193E+03  0.70000000000E+03 0.  1.
<mgrwt>
<rscale>  0 0.16785980E+04</rscale>
<asrwt>0</asrwt>
<pdfrwt beam="1">  1        4 0.99023231E-01 0.16785980E+04</pdfrwt>
<pdfrwt beam="2">  1       -4 0.14517780E+00 0.16785980E+04</pdfrwt>
<totfact> 0.52719373E-01</totfact>
</mgrwt>
</event>
<event>
 8    1  0.1287848E-011  0.1491620E+04  0.7818608E-02  0.8890045E-01
          4   -1    0    0  501    0  0.00000000000E+00  0.00000000000E+00  0.78451022857E+03  0.78451125653E+03  0.12700000000E+01 0.  1.
         -4   -1    0    0    0  501 -0.00000000000E+00 -0.00000000000E+00 -0.70901675957E+03  0.70901789699E+03  0.12700000000E+01 0. -1.
     200001    2    1    2    0    0 -0.28365703857E+02  0.23936116297E+03  0.12282614244E+03  0.75168094703E+03  0.70131277286E+03 0.  0.
    5000001    2    3    3    0    0  0.10963626415E+03  0.67805401083E+02  0.26492565761E+02  0.19692326966E+03  0.14648971043E+03 0.  0.
        -11    1    4    4    0    0  0.13564774640E+03  0.28569240599E+02  0.11368999985E+02  0.13908906058E+03  0.51100000000E-03 0. -1.
     200002    1    4    4    0    0 -0.26011482251E+02  0.39236160484E+02  0.15123565777E+02  0.57834209083E+02  0.30000000000E+02 0. -1.
     200000    1    3    3    0    0 -0.13800196801E+03  0.17155576188E+03  0.96333576675E+02  0.55475767737E+03  0.50000000000E+03 0. -1.
    -200001    1    1    2    0    0  0.28365703857E+02 -0.23936116297E+03 -0.47332673438E+02  0.74184820649E+03  0.70000000000E+03 0. -1.
<mgrwt>
<rscale>  0 0.14916199E+04</rscale>
<asrwt>0</asrwt>
<pdfrwt beam="1">  1        4 0.11207304E+00 0.14916199E+04</pdfrwt>
<pdfrwt beam="2">  1       -4 0.10128826E+00 0.14916199E+04</pdfrwt>
<totfact> 0.97580453E-01</totfact>
</mgrwt>
</event>
<event>
 8    1  0.1287848E-011  0.1876872E+04  0.7818608E-02  0.8666455E-01
         -4   -1    0    0    0  501 -0.00000000000E+00  0.00000000000E+00  0.15044579247E+04  0.15044584607E+04  0.12700000000E+01 0. -1.
          4   -1    0    0  501    0  0.00000000000E+00 -0.00000000000E+00 -0.58536720991E+03  0.58536858759E+03  0.12700000000E+01 0.  1.
     200001    2    1    2    0    0 -0.23826557297E+03  0.39572917624E+03 -0.99437673453E+01  0.83823720610E+03  0.69940737127E+03 0.  0.
    5000001    2    3    3    0    0 -0.33083854293E+01  0.23771581127E+02 -0.79038174857E+02  0.16866169154E+03  0.14704999023E+03 0.  0.
        -11    1    4    4    0    0 -0.11996635062E+02  0.33715640129E+02 -0.11474241262E+03  0.12019353101E+03  0.51100000000E-03 0. -1.
     200002    1    4    4    0    0  0.86882496324E+01 -0.99440590026E+01  0.35704237765E+02  0.48468160534E+02  0.30000000000E+02 0. -1.
     200000    1    3    3    0    0 -0.23495718754E+03  0.37195759512E+03  0.69094407511E+02  0.66957551455E+03  0.50000000000E+03 0.  1.
    -200001    1    1    2    0    0  0.23826557297E+03 -0.39572917624E+03  0.92903448214E+03  0.12515898422E+04  0.70000000000E+03 0. -1.
<mgrwt>
<rscale>  0 0.18768722E+04</rscale>
<asrwt>0</asrwt>
<pdfrwt beam="1">  1        4 0.83624022E-01 0.18768722E+04</pdfrwt>
<pdfrwt beam="2">  1       -4 0.21492270E+00 0.18768722E+04</pdfrwt>
<totfact> 0.24938516E-01</totfact>
</mgrwt>
</event>
<event>
 8    1  0.1287848E-011  0.1640852E+04  0.7818608E-02  0.8795837E-01
          4   -1    0    0  501    0  0.00000000000E+00  0.00000000000E+00  0.33296631151E+03  0.33296873352E+03  0.12700000000E+01 0.  1.
         -4   -1    0    0    0  501 -0.00000000000E+00 -0.00000000000E+00 -0.20215122194E+04  0.20215126183E+04  0.12700000000E+01 0. -1.
     200001    2    1    2    0    0 -0.12534061565E+03 -0.20906255330E+03 -0.33938201824E+03  0.81511114873E+03  0.69986327904E+03 0.  0.
    5000001    2    3    3    0    0 -0.24405689264E+02 -0.47744185297E+02 -0.80552174836E+02  0.22080115970E+03  0.19846751461E+03 0.  0.
        -11    1    4    4    0    0 -0.10121338233E+03  0.14456454271E+02 -0.37516007253E+02  0.10890632963E+03  0.51100000000E-03 0. -1.
     200002    1    4    4    0    0  0.76807693067E+02 -0.62200639567E+02 -0.43036167582E+02  0.11189483007E+03  0.30000000000E+02 0. -1.
     200000    1    3    3    0    0 -0.10093492639E+03 -0.16131836801E+03 -0.25882984341E+03  0.59430998903E+03  0.50000000000E+03 0.  1.
    -200001    1    1    2    0    0  0.12534061565E+03  0.20906255330E+03 -0.13491638896E+04  0.15393702031E+04  0.70000000000E+03 0. -1.
<mgrwt>
<rscale>  0 0.16408520E+04</rscale>
<asrwt>0</asrwt>
<pdfrwt beam="1">  1        4 0.47566818E-01 0.16408520E+04</pdfrwt>
<pdfrwt beam="2">  1       -4 0.28878766E+00 0.16408520E+04</pdfrwt>
<totfact> 0.29989450E-01</totfact>
</mgrwt>
</event>
<event>
 8    1  0.1434270E-011  0.2021243E+04  0.7818608E-02  0.8596753E-01
         -4   -1    0    0    0  501 -0.00000000000E+00  0.00000000000E+00  0.10011801177E+04  0.10011809232E+04  0.12700000000E+01 0. -1.
          4   -1    0    0  501    0  0.00000000000E+00 -0.00000000000E+00 -0.10201499616E+04  0.10201507522E+04  0.12700000000E+01 0.  1.
     200001    2    1    2    0    0  0.37995263862E+03  0.37167724518E+03 -0.50822531223E+03  0.10154097622E+04  0.70018285825E+03 0.  0.
    5000001    2    3    3    0    0  0.15718329111E+03  0.47462296289E+02 -0.88110539670E+02  0.25302013910E+03  0.17116210742E+03 0.  0.
        -11    1    4    4    0    0  0.68585102478E+02  0.64386531488E+02  0.32432359668E+02  0.99505777083E+02  0.51100000000E-03 0. -1.
     200002    1    4    4    0    0  0.88598188634E+02 -0.16924235198E+02 -0.12054289934E+03  0.15351436202E+03  0.30000000000E+02 0. -1.
     200000    1    3    3    0    0  0.22276934751E+03  0.32421494889E+03 -0.42011477256E+03  0.76238962309E+03  0.50000000000E+03 0.  1.
    -200001    1    1    2    0    0 -0.37995263862E+03 -0.37167724518E+03  0.48925546832E+03  0.10059219132E+04  0.70000000000E+03 0. -1.
<mgrwt>
<rscale>  0 0.20212427E+04</rscale>
<asrwt>0</asrwt>
<pdfrwt beam="1">  1        4 0.14573582E+00 0.20212427E+04</pdfrwt>
<pdfrwt beam="2">  1       -4 0.14302585E+00 0.20212427E+04</pdfrwt>
<totfact> 0.20331414E-01</totfact>
</mgrwt>
</event>
<event>
 8    1  0.1287848E-011  0.1590514E+04  0.7818608E-02  0.8826397E-01
          4   -1    0    0  501    0  0.00000000000E+00  0.00000000000E+00  0.15275871388E+04  0.15275876667E+04  0.12700000000E+01 0.  1.
         -4   -1    0    0    0  501 -0.00000000000E+00 -0.00000000000E+00 -0.41400661385E+03  0.41400856176E+03  0.12700000000E+01 0. -1.
     200001    2    1    2    0    0  0.27593281043E+03  0.21008416187E+03  0.73849305648E+03  0.10750139300E+04  0.70000620310E+03 0.  0.
    5000001    2    3    3    0    0  0.70058298012E+02  0.26207491887E+02  0.19226543117E+03  0.28472312074E+03  0.19623012436E+03 0.  0.
        -11    1    4    4    0    0 -0.53585736523E+02  0.12975781386E+02  0.13253820968E+03  0.14354852520E+03  0.51100000000E-03 0. -1.
     200002    1    4    4    0    0  0.12364403453E+03  0.13231710501E+02  0.59727221492E+02  0.14117459554E+03  0.30000000000E+02 0. -1.
     200000    1    3    3    0    0  0.20587451242E+03  0.18387666998E+03  0.54622762531E+03  0.79029080931E+03  0.50000000000E+03 0.  1.
    -200001    1    1    2    0    0 -0.27593281043E+03 -0.21008416187E+03  0.37508746846E+03  0.86658229842E+03  0.70000000000E+03 0.  1.
<mgrwt>
<rscale>  0 0.15905139E+04</rscale>
<asrwt>0</asrwt>
<pdfrwt beam="1">  1        4 0.21822691E+00 0.15905139E+04</pdfrwt>
<pdfrwt beam="2">  1       -4 0.59143979E-01 0.15905139E+04</pdfrwt>
<totfact> 0.52312424E-01</totfact>
</mgrwt>
</event>
<event>
 8    1  0.1287848E-011  0.1754745E+04  0.7818608E-02  0.8730743E-01
          4   -1    0    0  501    0  0.00000000000E+00  0.00000000000E+00  0.79772410579E+03  0.79772511672E+03  0.12700000000E+01 0.  1.
         -4   -1    0    0    0  501 -0.00000000000E+00 -0.00000000000E+00 -0.96497105760E+03  0.96497189333E+03  0.12700000000E+01 0. -1.
     200001    2    1    2    0    0  0.22559966158E+03 -0.24423189956E+02  0.39641938359E+03  0.83576042258E+03  0.69989674721E+03 0.  0.
    5000001    2    3    3    0    0  0.71057406369E+02  0.49163530942E+02  0.10481084558E+03  0.23215968237E+03  0.18827266661E+03 0.  0.
        -11    1    4    4    0    0  0.81467595477E+01  0.95691124772E+02 -0.24199388012E+01  0.96067773760E+02  0.51100000000E-03 0. -1.
     200002    1    4    4    0    0  0.62910646821E+02 -0.46527593830E+02  0.10723078438E+03  0.13609190861E+03  0.30000000000E+02 0. -1.
     200000    1    3    3    0    0  0.15454225521E+03 -0.73586720897E+02  0.29160853801E+03  0.60360074021E+03  0.50000000000E+03 0.  1.
    -200001    1    1    2    0    0 -0.22559966158E+03  0.24423189956E+02 -0.56366633541E+03  0.92693658747E+03  0.70000000000E+03 0.  1.
<mgrwt>
<rscale>  0 0.17547448E+04</rscale>
<asrwt>0</asrwt>
<pdfrwt beam="1">  1        4 0.11396072E+00 0.17547448E+04</pdfrwt>
<pdfrwt beam="2">  1       -4 0.13785314E+00 0.17547448E+04</pdfrwt>
<totfact> 0.42738128E-01</totfact>
</mgrwt>
</event>
<event>
 8    1  0.1287848E-011  0.1515804E+04  0.7818608E-02  0.8874011E-01
         -4   -1    0    0    0  501 -0.00000000000E+00  0.00000000000E+00  0.28815756521E+03  0.28816036383E+03  0.12700000000E+01 0. -1.
          4   -1    0    0  501    0  0.00000000000E+00 -0.00000000000E+00 -0.19933934741E+04  0.19933938787E+04  0.12700000000E+01 0.  1.
     200001    2    1    2    0    0  0.17474306728E+03  0.19769001058E+03 -0.10368317283E+04  0.12783690011E+04  0.69970764638E+03 0.  0.
    5000001    2    3    3    0    0  0.44781199362E+02  0.94912113397E+02 -0.35750941432E+03  0.41875735071E+03  0.19113103454E+03 0.  0.
        -11    1    4    4    0    0  0.21153817343E+02  0.88637376019E+01  0.19541435692E+02  0.30131670077E+02  0.51100000000E-03 0. -1.
     200002    1    4    4    0    0  0.23627382019E+02  0.86048375796E+02 -0.37705085001E+03  0.38862568064E+03  0.30000000000E+02 0. -1.
     200000    1    3    3    0    0  0.12996186792E+03  0.10277789718E+03 -0.67932231398E+03  0.85961165042E+03  0.50000000000E+03 0.  1.
    -200001    1    1    2    0    0 -0.17474306728E+03 -0.19769001058E+03 -0.66840418059E+03  0.10031852414E+04  0.70000000000E+03 0.  1.
<mgrwt>
<rscale>  0 0.15158035E+04</rscale>
<asrwt>0</asrwt>
<pdfrwt beam="1">  1        4 0.28477072E+00 0.15158035E+04</pdfrwt>
<pdfrwt beam="2">  1       -4 0.41165596E-01 0.15158035E+04</pdfrwt>
<totfact> 0.43125217E-01</totfact>
</mgrwt>
</event>
<event>
 8    1  0.1287848E-011  0.1686273E+04  0.7818608E-02  0.8769233E-01
          4   -1    0    0  501    0  0.00000000000E+00  0.00000000000E+00  0.54518641049E+03  0.54518788971E+03  0.12700000000E+01 0.  1.
         -4   -1    0    0    0  501 -0.00000000000E+00 -0.00000000000E+00 -0.13039153224E+04  0.13039159409E+04  0.12700000000E+01 0. -1.
     200001    2    1    2    0    0  0.17420342352E+02  0.43250565245E+03 -0.59245781745E+03  0.10094546868E+04  0.69327331665E+03 0.  0.
    5000001    2    3    3    0    0  0.17473740983E+02  0.21171888452E+03 -0.19063556794E+03  0.33106842522E+03  0.16773242003E+03 0.  0.
        -11    1    4    4    0    0  0.39019024756E+02 -0.65982863008E+01 -0.10714716519E+01  0.39587494576E+02  0.51100000000E-03 0. -1.
     200002    1    4    4    0    0 -0.21545283773E+02  0.21831717082E+03 -0.18956409629E+03  0.29148093064E+03  0.30000000000E+02 0. -1.
     200000    1    3    3    0    0 -0.53398630869E-01  0.22078676793E+03 -0.40182224950E+03  0.67838626161E+03  0.50000000000E+03 0. -1.
    -200001    1    1    2    0    0 -0.17420342352E+02 -0.43250565245E+03 -0.16627109444E+03  0.83964914373E+03  0.70000000000E+03 0. -1.
<mgrwt>
<rscale>  0 0.16862726E+04</rscale>
<asrwt>0</asrwt>
<pdfrwt beam="1">  1        4 0.77883923E-01 0.16862726E+04</pdfrwt>
<pdfrwt beam="2">  1       -4 0.18627377E+00 0.16862726E+04</pdfrwt>
<totfact> 0.46024009E-01</totfact>
</mgrwt>
</event>
<event>
 8    1  0.1287848E-011  0.2870862E+04  0.7818608E-02  0.8281600E-01
          4   -1    0    0  501    0  0.00000000000E+00  0.00000000000E+00  0.83097070805E+03  0.83097167854E+03  0.12700000000E+01 0.  1.
         -4   -1    0    0    0  501 -0.00000000000E+00 -0.00000000000E+00 -0.24795819887E+04  0.24795823139E+04  0.12700000000E+01 0. -1.
     200001    2    1    2    0    0 -0.54105107054E+03  0.75869856555E+03  0.14124188990E+03  0.11746855166E+04  0.70112553586E+03 0.  0.
    5000001    2    3    3    0    0 -0.77499679665E+02  0.14752892314E+03  0.63218958692E+02  0.25572098972E+03  0.18337285604E+03 0.  0.
        -11    1    4    4    0    0 -0.47443580674E+02 -0.35716054429E+02  0.20560946002E+02  0.62843316207E+02  0.51100000000E-03 0. -1.
     200002    1    4    4    0    0 -0.30056098991E+02  0.18324497757E+03  0.42658012690E+02  0.19287767351E+03  0.30000000000E+02 0. -1.
     200000    1    3    3    0    0 -0.46355139088E+03  0.61116964241E+03  0.78022931208E+02  0.91896452684E+03  0.50000000000E+03 0.  1.
    -200001    1    1    2    0    0  0.54105107054E+03 -0.75869856555E+03 -0.17898531705E+04  0.21358684759E+04  0.70000000000E+03 0. -1.
<mgrwt>
<rscale>  0 0.28708620E+04</rscale>
<asrwt>0</asrwt>
<pdfrwt beam="1">  1        4 0.11871019E+00 0.28708620E+04</pdfrwt>
<pdfrwt beam="2">  1       -4 0.35422609E+00 0.28708620E+04</pdfrwt>
<totfact> 0.13150869E-02</totfact>
</mgrwt>
</event>
<event>
 8    1  0.1313611E-011  0.1739397E+04  0.7818608E-02  0.8739209E-01
          4   -1    0    0  501    0  0.00000000000E+00  0.00000000000E+00  0.10509157446E+04  0.10509165120E+04  0.12700000000E+01 0.  1.
         -4   -1    0    0    0  501 -0.00000000000E+00 -0.00000000000E+00 -0.71972804828E+03  0.71972916877E+03  0.12700000000E+01 0. -1.
     200001    2    1    2    0    0  0.28537824140E+03  0.42697707220E+03  0.14778192411E+03  0.88329691161E+03  0.70329494248E+03 0.  0.
    5000001    2    3    3    0    0  0.13692658877E+03  0.83352929185E+02 -0.29796665339E+02  0.23395139475E+03  0.16777607793E+03 0.  0.
        -11    1    4    4    0    0  0.10234871868E+03  0.98035882358E+02 -0.81387879906E+02  0.16343280405E+03  0.51100000000E-03 0. -1.
     200002    1    4    4    0    0  0.34577870089E+02 -0.14682953173E+02  0.51591214568E+02  0.70518590700E+02  0.30000000000E+02 0. -1.
     200000    1    3    3    0    0  0.14845165264E+03  0.34362414301E+03  0.17757858945E+03  0.64934551686E+03  0.50000000000E+03 0.  1.
    -200001    1    1    2    0    0 -0.28537824140E+03 -0.42697707220E+03  0.18340577223E+03  0.88734876916E+03  0.70000000000E+03 0.  1.
<mgrwt>
<rscale>  0 0.17393967E+04</rscale>
<asrwt>0</asrwt>
<pdfrwt beam="1">  1        4 0.15013096E+00 0.17393967E+04</pdfrwt>
<pdfrwt beam="2">  1       -4 0.10281843E+00 0.17393967E+04</pdfrwt>
<totfact> 0.43877296E-01</totfact>
</mgrwt>
</event>
<event>
 8    1  0.1287848E-011  0.1859944E+04  0.7818608E-02  0.8675056E-01
         -4   -1    0    0    0  501 -0.00000000000E+00  0.00000000000E+00  0.72843649830E+03  0.72843760540E+03  0.12700000000E+01 0. -1.
          4   -1    0    0  501    0  0.00000000000E+00 -0.00000000000E+00 -0.11872641447E+04  0.11872648240E+04  0.12700000000E+01 0.  1.
     200001    2    1    2    0    0 -0.59482207530E+03 -0.13685819856E+03 -0.20951145433E+03  0.95408814527E+03  0.70274153975E+03 0.  0.
    5000001    2    3    3    0    0 -0.30319555820E+03 -0.45912929147E+02 -0.10591147006E+02  0.33531002982E+03  0.13522240985E+03 0.  0.
        -11    1    4    4    0    0 -0.19536066634E+03 -0.42190553698E+02  0.52666947652E+02  0.20668730041E+03  0.51100000000E-03 0. -1.
     200002    1    4    4    0    0 -0.10783489186E+03 -0.37223754494E+01 -0.63258094659E+02  0.12862272941E+03  0.30000000000E+02 0. -1.
     200000    1    3    3    0    0 -0.29162651709E+03 -0.90945269409E+02 -0.19892030732E+03  0.61877811545E+03  0.50000000000E+03 0.  1.
    -200001    1    1    2    0    0  0.59482207530E+03  0.13685819856E+03 -0.24931619211E+03  0.96161428412E+03  0.70000000000E+03 0. -1.
<mgrwt>
<rscale>  0 0.18599444E+04</rscale>
<asrwt>0</asrwt>
<pdfrwt beam="1">  1        4 0.16960929E+00 0.18599444E+04</pdfrwt>
<pdfrwt beam="2">  1       -4 0.10406249E+00 0.18599444E+04</pdfrwt>
<totfact> 0.30252998E-01</totfact>
</mgrwt>
</event>
<event>
 8    1  0.1287848E-011  0.2295445E+04  0.7818608E-02  0.8479719E-01
          4   -1    0    0  501    0  0.00000000000E+00  0.00000000000E+00  0.72569333900E+03  0.72569445028E+03  0.12700000000E+01 0.  1.
         -4   -1    0    0    0  501 -0.00000000000E+00 -0.00000000000E+00 -0.18151817591E+04  0.18151822034E+04  0.12700000000E+01 0. -1.
     200001    2    1    2    0    0  0.48890454883E+03 -0.73174108570E+03 -0.29022916231E+03  0.11612795982E+04  0.69990332482E+03 0.  0.
    5000001    2    3    3    0    0  0.57659926772E+02 -0.10608152901E+03 -0.10032200080E+03  0.23203983636E+03  0.17088014473E+03 0.  0.
        -11    1    4    4    0    0 -0.28154313334E+02 -0.91987535426E+02 -0.10176230955E+03  0.14003549435E+03  0.51100000000E-03 0. -1.
     200002    1    4    4    0    0  0.85814240106E+02 -0.14093993584E+02  0.14403087443E+01  0.92004342013E+02  0.30000000000E+02 0. -1.
     200000    1    3    3    0    0  0.43124462206E+03 -0.62565955669E+03 -0.18990716151E+03  0.92923976181E+03  0.50000000000E+03 0.  1.
    -200001    1    1    2    0    0 -0.48890454883E+03  0.73174108570E+03 -0.79925925778E+03  0.13795970555E+04  0.70000000000E+03 0. -1.
<mgrwt>
<rscale>  0 0.22954453E+04</rscale>
<asrwt>0</asrwt>
<pdfrwt beam="1">  1        4 0.10367059E+00 0.22954453E+04</pdfrwt>
<pdfrwt beam="2">  1       -4 0.25931179E+00 0.22954453E+04</pdfrwt>
<totfact> 0.76509645E-02</totfact>
</mgrwt>
</event>
<event>
 8    1  0.1287848E-011  0.1507311E+04  0.7818608E-02  0.8879605E-01
         -4   -1    0    0    0  501 -0.00000000000E+00  0.00000000000E+00  0.21164764938E+03  0.21165145969E+03  0.12700000000E+01 0. -1.
          4   -1    0    0  501    0  0.00000000000E+00 -0.00000000000E+00 -0.26836629569E+04  0.26836632574E+04  0.12700000000E+01 0.  1.
     200001    2    1    2    0    0 -0.27926351661E+03 -0.35748119937E+02 -0.12293923587E+04  0.14415685795E+04  0.69817501949E+03 0.  0.
    5000001    2    3    3    0    0  0.27068284927E+00  0.21258695073E+02 -0.34245131809E+03  0.38418806367E+03  0.17284547325E+03 0.  0.
        -11    1    4    4    0    0 -0.30044438094E+02 -0.35381168225E+02 -0.14454015917E+02  0.48614955536E+02  0.51100000000E-03 0. -1.
     200002    1    4    4    0    0  0.30315120944E+02  0.56639863298E+02 -0.32799730217E+03  0.33557310814E+03  0.30000000000E+02 0. -1.
     200000    1    3    3    0    0 -0.27953419946E+03 -0.57006815010E+02 -0.88694104062E+03  0.10573805158E+04  0.50000000000E+03 0. -1.
    -200001    1    1    2    0    0  0.27926351661E+03  0.35748119937E+02 -0.12426229489E+04  0.14537461377E+04  0.70000000000E+03 0.  1.
<mgrwt>
<rscale>  0 0.15073114E+04</rscale>
<asrwt>0</asrwt>
<pdfrwt beam="1">  1        4 0.38338070E+00 0.15073114E+04</pdfrwt>
<pdfrwt beam="2">  1       -4 0.30235674E-01 0.15073114E+04</pdfrwt>
<totfact> 0.18531090E-01</totfact>
</mgrwt>
</event>
<event>
 8    1  0.1287848E-011  0.1899554E+04  0.7818608E-02  0.8655079E-01
         -4   -1    0    0    0  501 -0.00000000000E+00  0.00000000000E+00  0.36970592483E+03  0.36970810615E+03  0.12700000000E+01 0. -1.
          4   -1    0    0  501    0  0.00000000000E+00 -0.00000000000E+00 -0.24399732912E+04  0.24399736217E+04  0.12700000000E+01 0.  1.
     200001    2    1    2    0    0 -0.25544371271E+03  0.10268238652E+03 -0.18923930825E+04  0.20367429051E+04  0.70098139775E+03 0.  0.
    5000001    2    3    3    0    0 -0.88499456398E+02 -0.73251218165E+02 -0.67259611402E+03  0.69632220165E+03  0.13885669292E+03 0.  0.
        -11    1    4    4    0    0  0.21380364257E+02 -0.41809373645E+02 -0.86411277251E+02  0.98346593926E+02  0.51100000000E-03 0. -1.
     200002    1    4    4    0    0 -0.10987982065E+03 -0.31441844520E+02 -0.58618483677E+03  0.59797560773E+03  0.30000000000E+02 0. -1.
     200000    1    3    3    0    0 -0.16694425632E+03  0.17593360468E+03 -0.12197969685E+04  0.13404207035E+04  0.50000000000E+03 0.  1.
    -200001    1    1    2    0    0  0.25544371271E+03 -0.10268238652E+03 -0.17787428388E+03  0.77293882276E+03  0.70000000000E+03 0. -1.
<mgrwt>
<rscale>  0 0.18995537E+04</rscale>
<asrwt>0</asrwt>
<pdfrwt beam="1">  1        4 0.34856778E+00 0.18995537E+04</pdfrwt>
<pdfrwt beam="2">  1       -4 0.52815313E-01 0.18995537E+04</pdfrwt>
<totfact> 0.98743721E-02</totfact>
</mgrwt>
</event>
<event>
 8    1  0.1287848E-011  0.1518309E+04  0.7818608E-02  0.8872368E-01
          4   -1    0    0  501    0  0.00000000000E+00  0.00000000000E+00  0.58449505569E+03  0.58449643543E+03  0.12700000000E+01 0.  1.
         -4   -1    0    0    0  501 -0.00000000000E+00 -0.00000000000E+00 -0.98600250858E+03  0.98600332648E+03  0.12700000000E+01 0. -1.
     200001    2    1    2    0    0 -0.11700733196E+03 -0.19164942562E+03 -0.44672371276E+01  0.73499922271E+03  0.69984547087E+03 0.  0.
    5000001    2    3    3    0    0 -0.36655408666E+02 -0.11894863381E+03  0.29288572298E+01  0.22333865268E+03  0.18541623205E+03 0.  0.
        -11    1    4    4    0    0 -0.66754670922E+02 -0.59101616232E+02  0.77916215251E+02  0.11840660341E+03  0.51100000000E-03 0. -1.
     200002    1    4    4    0    0  0.30099262256E+02 -0.59847017583E+02 -0.74987358021E+02  0.10493204927E+03  0.30000000000E+02 0. -1.
     200000    1    3    3    0    0 -0.80351923297E+02 -0.72700791802E+02 -0.73960943573E+01  0.51166057002E+03  0.50000000000E+03 0. -1.
    -200001    1    1    2    0    0  0.11700733196E+03  0.19164942562E+03 -0.39704021576E+03  0.83550053920E+03  0.70000000000E+03 0. -1.
<mgrwt>
<rscale>  0 0.15183087E+04</rscale>
<asrwt>0</asrwt>
<pdfrwt beam="1">  1        4 0.83499451E-01 0.15183087E+04</pdfrwt>
<pdfrwt beam="2">  1       -4 0.14085766E+00 0.15183087E+04</pdfrwt>
<totfact> 0.85918129E-01</totfact>
</mgrwt>
</event>
<event>
 8    1  0.1287848E-011  0.1852057E+04  0.7818608E-02  0.8679096E-01
         -4   -1    0    0    0  501 -0.00000000000E+00  0.00000000000E+00  0.56354399133E+03  0.56354542236E+03  0.12700000000E+01 0. -1.
          4   -1    0    0  501    0  0.00000000000E+00 -0.00000000000E+00 -0.15216678347E+04  0.15216683647E+04  0.12700000000E+01 0.  1.
     200001    2    1    2    0    0 -0.47420023554E+03 -0.35977843956E+03 -0.34253093853E+03  0.97920247902E+03  0.69799975796E+03 0.  0.
    5000001    2    3    3    0    0 -0.15303571677E+03 -0.10615384387E+03 -0.15784618698E+03  0.30720505260E+03  0.18646971986E+03 0.  0.
        -11    1    4    4    0    0 -0.38405708719E+02 -0.80477864775E+02  0.20550174971E+02  0.91509534326E+02  0.51100000000E-03 0. -1.
     200002    1    4    4    0    0 -0.11463000805E+03 -0.25675979096E+02 -0.17839636195E+03  0.21569551828E+03  0.30000000000E+02 0. -1.
     200000    1    3    3    0    0 -0.32116451876E+03 -0.25362459569E+03 -0.18468475155E+03  0.67199742641E+03  0.50000000000E+03 0. -1.
    -200001    1    1    2    0    0  0.47420023554E+03  0.35977843956E+03 -0.61559290483E+03  0.11060113080E+04  0.70000000000E+03 0.  1.
<mgrwt>
<rscale>  0 0.18520570E+04</rscale>
<asrwt>0</asrwt>
<pdfrwt beam="1">  1        4 0.21738126E+00 0.18520570E+04</pdfrwt>
<pdfrwt beam="2">  1       -4 0.80506425E-01 0.18520570E+04</pdfrwt>
<totfact> 0.26277566E-01</totfact>
</mgrwt>
</event>
<event>
 8    1  0.1287848E-011  0.1484467E+04  0.7818608E-02  0.8894849E-01
          4   -1    0    0  501    0  0.00000000000E+00  0.00000000000E+00  0.32360346360E+03  0.32360595568E+03  0.12700000000E+01 0.  1.
         -4   -1    0    0    0  501 -0.00000000000E+00 -0.00000000000E+00 -0.17024149425E+04  0.17024154162E+04  0.12700000000E+01 0. -1.
     200001    2    1    2    0    0 -0.21792555795E+03  0.62723990963E+02 -0.55792425084E+03  0.92362321830E+03  0.70026747165E+03 0.  0.
    5000001    2    3    3    0    0 -0.66071465183E+02  0.33472229862E+02 -0.17272019825E+03  0.27377901147E+03  0.19909005890E+03 0.  0.
        -11    1    4    4    0    0 -0.56997802693E+02  0.11195463240E+03 -0.83260844670E+02  0.15071482171E+03  0.51100000000E-03 0. -1.
     200002    1    4    4    0    0 -0.90736624901E+01 -0.78482402536E+02 -0.89459353583E+02  0.12306418976E+03  0.30000000000E+02 0. -1.
     200000    1    3    3    0    0 -0.15185409277E+03  0.29251761101E+02 -0.38520405259E+03  0.64984420683E+03  0.50000000000E+03 0.  1.
    -200001    1    1    2    0    0  0.21792555795E+03 -0.62723990963E+02 -0.82088722808E+03  0.11023981536E+04  0.70000000000E+03 0. -1.
<mgrwt>
<rscale>  0 0.14844667E+04</rscale>
<asrwt>0</asrwt>
<pdfrwt beam="1">  1        4 0.46229279E-01 0.14844667E+04</pdfrwt>
<pdfrwt beam="2">  1       -4 0.24320234E+00 0.14844667E+04</pdfrwt>
<totfact> 0.61613232E-01</totfact>
</mgrwt>
</event>
<event>
 8    1  0.1287848E-011  0.1503882E+04  0.7818608E-02  0.8881875E-01
         -4   -1    0    0    0  501 -0.00000000000E+00  0.00000000000E+00  0.56868807839E+03  0.56868949648E+03  0.12700000000E+01 0. -1.
          4   -1    0    0  501    0  0.00000000000E+00 -0.00000000000E+00 -0.99424210841E+03  0.99424291953E+03  0.12700000000E+01 0.  1.
     200001    2    1    2    0    0  0.22002379140E+03 -0.15504977880E+03 -0.27242218940E+03  0.79749119468E+03  0.69951944479E+03 0.  0.
    5000001    2    3    3    0    0 -0.10888655929E+02  0.35909046755E+02 -0.46000197209E+02  0.17214908837E+03  0.16158981408E+03 0.  0.
        -11    1    4    4    0    0  0.18211959410E+01  0.67592462891E+02  0.37325989101E+02  0.77235272104E+02  0.51100000000E-03 0. -1.
     200002    1    4    4    0    0 -0.12709851870E+02 -0.31683416136E+02 -0.83326186310E+02  0.94913816263E+02  0.30000000000E+02 0. -1.
     200000    1    3    3    0    0  0.23091244732E+03 -0.19095882556E+03 -0.22642199219E+03  0.62534210632E+03  0.50000000000E+03 0. -1.
    -200001    1    1    2    0    0 -0.22002379140E+03  0.15504977880E+03 -0.15313184062E+03  0.76544122132E+03  0.70000000000E+03 0.  1.
<mgrwt>
<rscale>  0 0.15038821E+04</rscale>
<asrwt>0</asrwt>
<pdfrwt beam="1">  1        4 0.14203474E+00 0.15038821E+04</pdfrwt>
<pdfrwt beam="2">  1       -4 0.81241314E-01 0.15038821E+04</pdfrwt>
<totfact> 0.89582421E-01</totfact>
</mgrwt>
</event>
<event>
 8    1  0.1287848E-011  0.1646882E+04  0.7818608E-02  0.8792253E-01
          4   -1    0    0  501    0  0.00000000000E+00  0.00000000000E+00  0.31540725718E+04  0.31540728274E+04  0.12700000000E+01 0.  1.
         -4   -1    0    0    0  501 -0.00000000000E+00 -0.00000000000E+00 -0.21497539006E+03  0.21497914138E+03  0.12700000000E+01 0. -1.
     200001    2    1    2    0    0 -0.52107645564E+02  0.27935361819E+03  0.21396071347E+04  0.22690801574E+04  0.70003744113E+03 0.  0.
    5000001    2    3    3    0    0 -0.15689145471E+02  0.11614927819E+03  0.88069819775E+03  0.90423083408E+03  0.16812876517E+03 0.  0.
        -11    1    4    4    0    0 -0.49071682986E+02  0.11549076278E+03  0.81536178864E+03  0.82496120681E+03  0.51100000000E-03 0. -1.
     200002    1    4    4    0    0  0.33382537515E+02  0.65851540847E+00  0.65336409105E+02  0.79269627274E+02  0.30000000000E+02 0. -1.
     200000    1    3    3    0    0 -0.36418500093E+02  0.16320434001E+03  0.12589089370E+04  0.13648493233E+04  0.50000000000E+03 0. -1.
    -200001    1    1    2    0    0  0.52107645564E+02 -0.27935361819E+03  0.79949004697E+03  0.10999718114E+04  0.70000000000E+03 0. -1.
<mgrwt>
<rscale>  0 0.16468816E+04</rscale>
<asrwt>0</asrwt>
<pdfrwt beam="1">  1        4 0.45058205E+00 0.16468816E+04</pdfrwt>
<pdfrwt beam="2">  1       -4 0.30711058E-01 0.16468816E+04</pdfrwt>
<totfact> 0.58863794E-02</totfact>
</mgrwt>
</event>
<event>
 8    1  0.1287848E-011  0.1448621E+04  0.7818608E-02  0.8919357E-01
         -4   -1    0    0    0  501 -0.00000000000E+00  0.00000000000E+00  0.10051990538E+04  0.10051998560E+04  0.12700000000E+01 0. -1.
          4   -1    0    0  501    0  0.00000000000E+00 -0.00000000000E+00 -0.52191074974E+03  0.52191229493E+03  0.12700000000E+01 0.  1.
     200001    2    1    2    0    0 -0.64658319853E+02  0.17293503818E+03  0.21608475231E+03  0.75543542864E+03  0.69993059721E+03 0.  0.
    5000001    2    3    3    0    0  0.33857685565E+02  0.80671038233E+02  0.62528652710E+02  0.21525256633E+03  0.18646628548E+03 0.  0.
        -11    1    4    4    0    0 -0.13066358418E+01  0.12714855131E+03  0.76274528139E+02  0.14827766197E+03  0.51100000000E-03 0. -1.
     200002    1    4    4    0    0  0.35164321407E+02 -0.46477513078E+02 -0.13745875428E+02  0.66974904353E+02  0.30000000000E+02 0. -1.
     200000    1    3    3    0    0 -0.98516005417E+02  0.92263999942E+02  0.15355609960E+03  0.54018286231E+03  0.50000000000E+03 0.  1.
    -200001    1    1    2    0    0  0.64658319853E+02 -0.17293503818E+03  0.26720355172E+03  0.77167672234E+03  0.70000000000E+03 0. -1.
<mgrwt>
<rscale>  0 0.14486214E+04</rscale>
<asrwt>0</asrwt>
<pdfrwt beam="1">  1        4 0.74558848E-01 0.14486214E+04</pdfrwt>
<pdfrwt beam="2">  1       -4 0.14360003E+00 0.14486214E+04</pdfrwt>
<totfact> 0.10604081E+00</totfact>
</mgrwt>
</event>
<event>
 8    1  0.1287848E-011  0.1497002E+04  0.7818608E-02  0.8886449E-01
          4   -1    0    0  501    0  0.00000000000E+00  0.00000000000E+00  0.10157860380E+04  0.10157868319E+04  0.12700000000E+01 0.  1.
         -4   -1    0    0    0  501 -0.00000000000E+00 -0.00000000000E+00 -0.55154522864E+03  0.55154669081E+03  0.12700000000E+01 0. -1.
     200001    2    1    2    0    0  0.13291378526E+03 -0.20079543156E+03  0.12003032934E+03  0.75095999655E+03  0.70110538210E+03 0.  0.
    5000001    2    3    3    0    0  0.59615996967E+02 -0.11164693578E+03  0.18796539899E+02  0.22792242601E+03  0.18861658729E+03 0.  0.
        -11    1    4    4    0    0  0.10898333717E+03 -0.93691419211E+02 -0.33934809375E+02  0.14767200514E+03  0.51100000000E-03 0. -1.
     200002    1    4    4    0    0 -0.49367340202E+02 -0.17955516573E+02  0.52731349273E+02  0.80250420872E+02  0.30000000000E+02 0. -1.
     200000    1    3    3    0    0  0.73297788294E+02 -0.89148495777E+02  0.10123378944E+03  0.52303757054E+03  0.50000000000E+03 0. -1.
    -200001    1    1    2    0    0 -0.13291378526E+03  0.20079543156E+03  0.34421047998E+03  0.81637352613E+03  0.70000000000E+03 0.  1.
<mgrwt>
<rscale>  0 0.14970020E+04</rscale>
<asrwt>0</asrwt>
<pdfrwt beam="1">  1        4 0.14511245E+00 0.14970020E+04</pdfrwt>
<pdfrwt beam="2">  1       -4 0.78792337E-01 0.14970020E+04</pdfrwt>
<totfact> 0.90802498E-01</totfact>
</mgrwt>
</event>
<event>
 8    1  0.1287848E-011  0.1663386E+04  0.7818608E-02  0.8782526E-01
          4   -1    0    0  501    0  0.00000000000E+00  0.00000000000E+00  0.93468705891E+03  0.93468792171E+03  0.12700000000E+01 0.  1.
         -4   -1    0    0    0  501 -0.00000000000E+00 -0.00000000000E+00 -0.74004658483E+03  0.74004767456E+03  0.12700000000E+01 0. -1.
     200001    2    1    2    0    0  0.11318509711E+03 -0.29095051716E+03 -0.22859287417E+03  0.79918460592E+03  0.69926980671E+03 0.  0.
    5000001    2    3    3    0    0  0.89364201871E+02 -0.14856093989E+03 -0.70448285083E+02  0.25526187444E+03  0.17360688417E+03 0.  0.
        -11    1    4    4    0    0  0.10145181727E+03 -0.30154816243E+02 -0.79222792606E+02  0.13220451974E+03  0.51100000000E-03 0. -1.
     200002    1    4    4    0    0 -0.12087615399E+02 -0.11840612365E+03  0.87745075231E+01  0.12305735470E+03  0.30000000000E+02 0. -1.
     200000    1    3    3    0    0  0.23820895240E+02 -0.14238957727E+03 -0.15814458908E+03  0.54392273148E+03  0.50000000000E+03 0. -1.
    -200001    1    1    2    0    0 -0.11318509711E+03  0.29095051716E+03  0.42323334825E+03  0.87555099036E+03  0.70000000000E+03 0.  1.
<mgrwt>
<rscale>  0 0.16633864E+04</rscale>
<asrwt>0</asrwt>
<pdfrwt beam="1">  1        4 0.13352686E+00 0.16633864E+04</pdfrwt>
<pdfrwt beam="2">  1       -4 0.10572108E+00 0.16633864E+04</pdfrwt>
<totfact> 0.56077627E-01</totfact>
</mgrwt>
</event>
<event>
 8    1  0.1287848E-011  0.1752732E+04  0.7818608E-02  0.8731848E-01
         -4   -1    0    0    0  501 -0.00000000000E+00  0.00000000000E+00  0.18259895249E+04  0.18259899665E+04  0.12700000000E+01 0. -1.
          4   -1    0    0  501    0  0.00000000000E+00 -0.00000000000E+00 -0.42060201506E+03  0.42060393242E+03  0.12700000000E+01 0.  1.
     200001    2    1    2    0    0  0.19656864167E+03  0.45219963035E+03  0.94439377175E+03  0.12741542026E+04  0.69890314006E+03 0.  0.
    5000001    2    3    3    0    0  0.27366927197E+02 -0.34829276987E+02  0.26087729207E+03  0.28267996953E+03  0.99443332675E+02 0.  0.
        -11    1    4    4    0    0  0.18177227477E+02  0.18555666377E+02  0.16952132425E+02  0.31017723118E+02  0.51100000000E-03 0. -1.
     200002    1    4    4    0    0  0.91896997201E+01 -0.53384943363E+02  0.24392515965E+03  0.25166224641E+03  0.30000000000E+02 0. -1.
     200000    1    3    3    0    0  0.16920171447E+03  0.48702890734E+03  0.68351647968E+03  0.99147423302E+03  0.50000000000E+03 0. -1.
    -200001    1    1    2    0    0 -0.19656864167E+03 -0.45219963035E+03  0.46099373805E+03  0.97243969638E+03  0.70000000000E+03 0. -1.
<mgrwt>
<rscale>  0 0.17527322E+04</rscale>
<asrwt>0</asrwt>
<pdfrwt beam="1">  1        4 0.60086171E-01 0.17527322E+04</pdfrwt>
<pdfrwt beam="2">  1       -4 0.26085582E+00 0.17527322E+04</pdfrwt>
<totfact> 0.27004927E-01</totfact>
</mgrwt>
</event>
<event>
 8    1  0.1287848E-011  0.2196201E+04  0.7818608E-02  0.8520011E-01
          4   -1    0    0  501    0  0.00000000000E+00  0.00000000000E+00  0.30578771810E+04  0.30578774448E+04  0.12700000000E+01 0. -1.
         -4   -1    0    0    0  501 -0.00000000000E+00 -0.00000000000E+00 -0.39433261095E+03  0.39433465604E+03  0.12700000000E+01 0.  1.
     200001    2    1    2    0    0  0.64705433916E+03 -0.24472579675E+03  0.20961496191E+04  0.23162072312E+04  0.70171410034E+03 0.  0.
    5000001    2    3    3    0    0  0.69291588881E+02 -0.16298987137E+03  0.31506336940E+03  0.37642405102E+03  0.10518135285E+03 0.  0.
        -11    1    4    4    0    0 -0.60998138705E+01 -0.10103639502E+03  0.12663304035E+03  0.16211566166E+03  0.51100000000E-03 0. -1.
     200002    1    4    4    0    0  0.75391402751E+02 -0.61953476349E+02  0.18843032905E+03  0.21430838935E+03  0.30000000000E+02 0. -1.
     200000    1    3    3    0    0  0.57776275028E+03 -0.81735925375E+02  0.17810862497E+04  0.19397831802E+04  0.50000000000E+03 0. -1.
    -200001    1    1    2    0    0 -0.64705433916E+03  0.24472579675E+03  0.56739495096E+03  0.11360048696E+04  0.70000000000E+03 0.  1.
<mgrwt>
<rscale>  0 0.21962010E+04</rscale>
<asrwt>0</asrwt>
<pdfrwt beam="1">  1        4 0.43683979E+00 0.21962010E+04</pdfrwt>
<pdfrwt beam="2">  1       -4 0.56333392E-01 0.21962010E+04</pdfrwt>
<totfact> 0.20570688E-02</totfact>
</mgrwt>
</event>
<event>
 8    1  0.1287848E-011  0.1616687E+04  0.7818608E-02  0.8810362E-01
         -4   -1    0    0    0  501 -0.00000000000E+00  0.00000000000E+00  0.10028051643E+04  0.10028059685E+04  0.12700000000E+01 0. -1.
          4   -1    0    0  501    0  0.00000000000E+00 -0.00000000000E+00 -0.65158964353E+03  0.65159088119E+03  0.12700000000E+01 0.  1.
     200001    2    1    2    0    0  0.23000268150E+03 -0.21336275619E+03  0.43148412089E+03  0.88312002037E+03  0.70377377372E+03 0.  0.
    5000001    2    3    3    0    0 -0.27370237123E+02 -0.11997838244E+02  0.83719337846E+02  0.19194059812E+03  0.17011521882E+03 0.  0.
        -11    1    4    4    0    0 -0.14580568910E+02  0.24685853724E+02  0.12472746749E+03  0.12798017625E+03  0.51100000000E-03 0. -1.
     200002    1    4    4    0    0 -0.12789668213E+02 -0.36683691968E+02 -0.41008129649E+02  0.63960421877E+02  0.30000000000E+02 0. -1.
     200000    1    3    3    0    0  0.25737291862E+03 -0.20136491794E+03  0.34776478304E+03  0.69117942225E+03  0.50000000000E+03 0. -1.
    -200001    1    1    2    0    0 -0.23000268150E+03  0.21336275619E+03 -0.80268600138E+02  0.77127682929E+03  0.70000000000E+03 0. -1.
<mgrwt>
<rscale>  0 0.16166869E+04</rscale>
<asrwt>0</asrwt>
<pdfrwt beam="1">  1        4 0.93084381E-01 0.16166869E+04</pdfrwt>
<pdfrwt beam="2">  1       -4 0.14325803E+00 0.16166869E+04</pdfrwt>
<totfact> 0.63464187E-01</totfact>
</mgrwt>
</event>
<event>
 8    1  0.1287848E-011  0.1641814E+04  0.7818608E-02  0.8795264E-01
         -4   -1    0    0    0  501 -0.00000000000E+00  0.00000000000E+00  0.14624725605E+04  0.14624731119E+04  0.12700000000E+01 0. -1.
          4   -1    0    0  501    0  0.00000000000E+00 -0.00000000000E+00 -0.46078570569E+03  0.46078745585E+03  0.12700000000E+01 0.  1.
     200001    2    1    2    0    0  0.36729776830E+03 -0.12181835025E+02  0.75970758270E+03  0.10964534465E+04  0.69999892954E+03 0.  0.
    5000001    2    3    3    0    0  0.91491829189E+02 -0.72114533120E+02  0.13482705891E+03  0.24784487158E+03  0.17227154107E+03 0.  0.
        -11    1    4    4    0    0  0.50404729373E+02 -0.11004554213E+03  0.29024694094E+02  0.12447124549E+03  0.51100000000E-03 0. -1.
     200002    1    4    4    0    0  0.41087099816E+02  0.37931009011E+02  0.10580236481E+03  0.12337362609E+03  0.30000000000E+02 0. -1.
     200000    1    3    3    0    0  0.27580593911E+03  0.59932698094E+02  0.62488052380E+03  0.84860857489E+03  0.50000000000E+03 0. -1.
    -200001    1    1    2    0    0 -0.36729776830E+03  0.12181835025E+02  0.24197927208E+03  0.82680712129E+03  0.70000000000E+03 0.  1.
<mgrwt>
<rscale>  0 0.16418144E+04</rscale>
<asrwt>0</asrwt>
<pdfrwt beam="1">  1        4 0.65826692E-01 0.16418144E+04</pdfrwt>
<pdfrwt beam="2">  1       -4 0.20892482E+00 0.16418144E+04</pdfrwt>
<totfact> 0.47440695E-01</totfact>
</mgrwt>
</event>
<event>
 8    1  0.1287848E-011  0.1629632E+04  0.7818608E-02  0.8802548E-01
         -4   -1    0    0    0  501 -0.00000000000E+00  0.00000000000E+00  0.48662296941E+03  0.48662462664E+03  0.12700000000E+01 0. -1.
          4   -1    0    0  501    0  0.00000000000E+00 -0.00000000000E+00 -0.13643486392E+04  0.13643492303E+04  0.12700000000E+01 0.  1.
     200001    2    1    2    0    0  0.62399126280E+01 -0.19851145051E+03 -0.85527043251E+03  0.11229972295E+04  0.70013536703E+03 0.  0.
    5000001    2    3    3    0    0  0.11695605062E+03 -0.70088672301E+02 -0.79603327933E+02  0.18469560936E+03  0.95836519844E+02 0.  0.
        -11    1    4    4    0    0  0.96621457817E+02 -0.20356075855E+02 -0.23676659267E+02  0.10154142076E+03  0.51100000000E-03 0. -1.
     200002    1    4    4    0    0  0.20334592806E+02 -0.49732596446E+02 -0.55926668667E+02  0.83154188602E+02  0.30000000000E+02 0. -1.
     200000    1    3    3    0    0 -0.11071613799E+03 -0.12842277821E+03 -0.77566710458E+03  0.93830162011E+03  0.50000000000E+03 0.  1.
    -200001    1    1    2    0    0 -0.62399126280E+01  0.19851145051E+03 -0.22455237313E+02  0.72797662749E+03  0.70000000000E+03 0. -1.
<mgrwt>
<rscale>  0 0.16296324E+04</rscale>
<asrwt>0</asrwt>
<pdfrwt beam="1">  1        4 0.19490711E+00 0.16296324E+04</pdfrwt>
<pdfrwt beam="2">  1       -4 0.69517728E-01 0.16296324E+04</pdfrwt>
<totfact> 0.52089544E-01</totfact>
</mgrwt>
</event>
<event>
 8    1  0.1287848E-011  0.2000438E+04  0.7818608E-02  0.8606416E-01
          4   -1    0    0  501    0  0.00000000000E+00  0.00000000000E+00  0.43231663562E+03  0.43231850103E+03  0.12700000000E+01 0.  1.
         -4   -1    0    0    0  501 -0.00000000000E+00 -0.00000000000E+00 -0.23141246025E+04  0.23141249510E+04  0.12700000000E+01 0. -1.
     200001    2    1    2    0    0 -0.29097343471E+03  0.98375498942E+02 -0.55294526767E+02  0.76641955685E+03  0.69999869567E+03 0.  0.
    5000001    2    3    3    0    0 -0.13433706187E+02  0.11358181736E+02 -0.40383698878E+02  0.18778094149E+03  0.18254140927E+03 0.  0.
        -11    1    4    4    0    0 -0.65905066055E+02 -0.59106210123E+02 -0.33631232303E+02  0.94699955614E+02  0.51100000000E-03 0. -1.
     200002    1    4    4    0    0  0.52471359869E+02  0.70464391859E+02 -0.67524665757E+01  0.93080985875E+02  0.30000000000E+02 0. -1.
     200000    1    3    3    0    0 -0.27753972852E+03  0.87017317206E+02 -0.14910827888E+02  0.57863861536E+03  0.50000000000E+03 0.  1.
    -200001    1    1    2    0    0  0.29097343471E+03 -0.98375498942E+02 -0.18265134401E+04  0.19800238951E+04  0.70000000000E+03 0. -1.
<mgrwt>
<rscale>  0 0.20004376E+04</rscale>
<asrwt>0</asrwt>
<pdfrwt beam="1">  1        4 0.61759679E-01 0.20004376E+04</pdfrwt>
<pdfrwt beam="2">  1       -4 0.33058938E+00 0.20004376E+04</pdfrwt>
<totfact> 0.91497193E-02</totfact>
</mgrwt>
</event>
<event>
 8    1  0.1287848E-011  0.1640892E+04  0.7818608E-02  0.8795813E-01
         -4   -1    0    0    0  501 -0.00000000000E+00  0.00000000000E+00  0.20584830612E+04  0.20584834530E+04  0.12700000000E+01 0. -1.
          4   -1    0    0  501    0  0.00000000000E+00 -0.00000000000E+00 -0.32700211769E+03  0.32700458387E+03  0.12700000000E+01 0.  1.
     200001    2    1    2    0    0 -0.40772730663E+03 -0.12723882087E+03  0.86562458786E+03  0.11929535498E+04  0.70099997920E+03 0.  0.
    5000001    2    3    3    0    0 -0.99027937249E+02  0.25106637158E+01  0.22918093130E+03  0.31705928830E+03  0.19542225369E+03 0.  0.
        -11    1    4    4    0    0  0.47984121341E+02 -0.40090992414E+02  0.55294348064E+02  0.83469925732E+02  0.51100000000E-03 0. -1.
     200002    1    4    4    0    0 -0.14701205859E+03  0.42601656129E+02  0.17388658323E+03  0.23358936257E+03  0.30000000000E+02 0. -1.
     200000    1    3    3    0    0 -0.30869936938E+03 -0.12974948458E+03  0.63644365656E+03  0.87589426153E+03  0.50000000000E+03 0. -1.
    -200001    1    1    2    0    0  0.40772730663E+03  0.12723882087E+03  0.86585635570E+03  0.11925344871E+04  0.70000000000E+03 0.  1.
<mgrwt>
<rscale>  0 0.16408921E+04</rscale>
<asrwt>0</asrwt>
<pdfrwt beam="1">  1        4 0.46714792E-01 0.16408921E+04</pdfrwt>
<pdfrwt beam="2">  1       -4 0.29406921E+00 0.16408921E+04</pdfrwt>
<totfact> 0.28871460E-01</totfact>
</mgrwt>
</event>
<event>
 8    1  0.1287848E-011  0.1593384E+04  0.7818608E-02  0.8824623E-01
         -4   -1    0    0    0  501 -0.00000000000E+00  0.00000000000E+00  0.12538963641E+04  0.12538970072E+04  0.12700000000E+01 0. -1.
          4   -1    0    0  501    0  0.00000000000E+00 -0.00000000000E+00 -0.50619498839E+03  0.50619658155E+03  0.12700000000E+01 0.  1.
     200001    2    1    2    0    0 -0.33786288894E+03  0.14517261985E+03  0.26666512211E+03  0.83455466548E+03  0.70010340739E+03 0.  0.
    5000001    2    3    3    0    0 -0.16104530361E+03  0.13925726063E+02  0.13139741310E+03  0.27171582646E+03  0.17445542272E+03 0.  0.
        -11    1    4    4    0    0 -0.17955311141E+03 -0.75033971373E+01  0.14209447839E+03  0.22909923958E+03  0.51100000000E-03 0. -1.
     200002    1    4    4    0    0  0.18507807806E+02  0.21429123200E+02 -0.10697065295E+02  0.42616586875E+02  0.30000000000E+02 0. -1.
     200000    1    3    3    0    0 -0.17681758533E+03  0.13124689379E+03  0.13526770902E+03  0.56283883903E+03  0.50000000000E+03 0.  1.
    -200001    1    1    2    0    0  0.33786288894E+03 -0.14517261985E+03  0.48103625355E+03  0.92553892328E+03  0.70000000000E+03 0.  1.
<mgrwt>
<rscale>  0 0.15933839E+04</rscale>
<asrwt>0</asrwt>
<pdfrwt beam="1">  1        4 0.72313730E-01 0.15933839E+04</pdfrwt>
<pdfrwt beam="2">  1       -4 0.17912821E+00 0.15933839E+04</pdfrwt>
<totfact> 0.61305840E-01</totfact>
</mgrwt>
</event>
<event>
 8    1  0.1287848E-011  0.1578687E+04  0.7818608E-02  0.8833750E-01
         -4   -1    0    0    0  501 -0.00000000000E+00  0.00000000000E+00  0.45582467287E+03  0.45582644208E+03  0.12700000000E+01 0. -1.
          4   -1    0    0  501    0  0.00000000000E+00 -0.00000000000E+00 -0.13668868969E+04  0.13668874869E+04  0.12700000000E+01 0.  1.
     200001    2    1    2    0    0 -0.49458064323E+02 -0.25295921956E+03 -0.75346304289E+03  0.10603019873E+04  0.70007091099E+03 0.  0.
    5000001    2    3    3    0    0 -0.37048671302E+02 -0.45155898526E+02 -0.19457371852E+03  0.28203886333E+03  0.19564081699E+03 0.  0.
        -11    1    4    4    0    0 -0.38992961821E+02  0.42064334046E+02 -0.17964943838E+03  0.18858361536E+03  0.51100000000E-03 0. -1.
     200002    1    4    4    0    0  0.19442905195E+01 -0.87220232572E+02 -0.14924280141E+02  0.93455247971E+02  0.30000000000E+02 0. -1.
     200000    1    3    3    0    0 -0.12409393021E+02 -0.20780332103E+03 -0.55888932437E+03  0.77826312399E+03  0.50000000000E+03 0.  1.
    -200001    1    1    2    0    0  0.49458064323E+02  0.25295921956E+03 -0.15759918115E+03  0.76241194166E+03  0.70000000000E+03 0. -1.
<mgrwt>
<rscale>  0 0.15786867E+04</rscale>
<asrwt>0</asrwt>
<pdfrwt beam="1">  1        4 0.19526972E+00 0.15786867E+04</pdfrwt>
<pdfrwt beam="2">  1       -4 0.65117979E-01 0.15786867E+04</pdfrwt>
<totfact> 0.60023222E-01</totfact>
</mgrwt>
</event>
<event>
 8    1  0.1287848E-011  0.1685062E+04  0.7818608E-02  0.8769930E-01
         -4   -1    0    0    0  501 -0.00000000000E+00  0.00000000000E+00  0.10602061808E+04  0.10602069414E+04  0.12700000000E+01 0. -1.
          4   -1    0    0  501    0  0.00000000000E+00 -0.00000000000E+00 -0.66954603854E+03  0.66954724301E+03  0.12700000000E+01 0.  1.
     200001    2    1    2    0    0  0.76758681732E+02 -0.45449512975E+03  0.28717474580E+03  0.88526206162E+03  0.69911505843E+03 0.  0.
    5000001    2    3    3    0    0  0.15629198952E+03 -0.93591248407E+02  0.17931433155E+02  0.20771566467E+03  0.98172059608E+02 0.  0.
        -11    1    4    4    0    0 -0.43279616030E+01 -0.13950172098E+02 -0.17214427465E+02  0.22575984285E+02  0.51100000000E-03 0. -1.
     200002    1    4    4    0    0  0.16061995112E+03 -0.79641076309E+02  0.35145860620E+02  0.18513968038E+03  0.30000000000E+02 0. -1.
     200000    1    3    3    0    0 -0.79533307785E+02 -0.36090388135E+03  0.26924331265E+03  0.67754639695E+03  0.50000000000E+03 0. -1.
    -200001    1    1    2    0    0 -0.76758681732E+02  0.45449512975E+03  0.10348539641E+03  0.84449212279E+03  0.70000000000E+03 0.  1.
<mgrwt>
<rscale>  0 0.16850621E+04</rscale>
<asrwt>0</asrwt>
<pdfrwt beam="1">  1        4 0.95649576E-01 0.16850621E+04</pdfrwt>
<pdfrwt beam="2">  1       -4 0.15145816E+00 0.16850621E+04</pdfrwt>
<totfact> 0.51110472E-01</totfact>
</mgrwt>
</event>
<event>
 8    1  0.1287848E-011  0.1593738E+04  0.7818608E-02  0.8824404E-01
         -4   -1    0    0    0  501 -0.00000000000E+00  0.00000000000E+00  0.89140073169E+03  0.89140163639E+03  0.12700000000E+01 0. -1.
          4   -1    0    0  501    0  0.00000000000E+00 -0.00000000000E+00 -0.71236053763E+03  0.71236166971E+03  0.12700000000E+01 0.  1.
     200001    2    1    2    0    0 -0.35802312391E+03  0.67827337035E+02  0.19992461656E+03  0.81432219746E+03  0.70026401026E+03 0.  0.
    5000001    2    3    3    0    0 -0.32508219698E+02  0.33006187347E+01  0.30236714440E+00  0.18188825411E+03  0.17892894435E+03 0.  0.
        -11    1    4    4    0    0 -0.56045932706E+02 -0.25574048666E+02  0.72590953921E+02  0.95208324896E+02  0.51100000000E-03 0. -1.
     200002    1    4    4    0    0  0.23537713008E+02  0.28874667401E+02 -0.72288586776E+02  0.86679929218E+02  0.30000000000E+02 0. -1.
     200000    1    3    3    0    0 -0.32551490421E+03  0.64526718300E+02  0.19962224942E+03  0.63243394335E+03  0.50000000000E+03 0.  1.
    -200001    1    1    2    0    0  0.35802312391E+03 -0.67827337035E+02 -0.20884422501E+02  0.78944110864E+03  0.70000000000E+03 0. -1.
<mgrwt>
<rscale>  0 0.15937382E+04</rscale>
<asrwt>0</asrwt>
<pdfrwt beam="1">  1        4 0.10176594E+00 0.15937382E+04</pdfrwt>
<pdfrwt beam="2">  1       -4 0.12734311E+00 0.15937382E+04</pdfrwt>
<totfact> 0.69718409E-01</totfact>
</mgrwt>
</event>
<event>
 8    1  0.1287848E-011  0.1572886E+04  0.7818608E-02  0.8837380E-01
         -4   -1    0    0    0  501 -0.00000000000E+00  0.00000000000E+00  0.72355797239E+03  0.72355908695E+03  0.12700000000E+01 0. -1.
          4   -1    0    0  501    0  0.00000000000E+00 -0.00000000000E+00 -0.85479139366E+03  0.85479233711E+03  0.12700000000E+01 0.  1.
     200001    2    1    2    0    0 -0.11915647925E+03  0.32167599344E+01 -0.40028645719E+03  0.81901082181E+03  0.70451463032E+03 0.  0.
    5000001    2    3    3    0    0  0.49927735909E+02  0.27886596385E+02 -0.15081630224E+03  0.23468776830E+03  0.17047683273E+03 0.  0.
        -11    1    4    4    0    0  0.88143099272E+01  0.94201109877E+02 -0.95610481956E+02  0.13450987109E+03  0.51100000000E-03 0. -1.
     200002    1    4    4    0    0  0.41113425981E+02 -0.66314513492E+02 -0.55205820283E+02  0.10017789721E+03  0.30000000000E+02 0. -1.
     200000    1    3    3    0    0 -0.16908421516E+03 -0.24669836450E+02 -0.24947015495E+03  0.58432305350E+03  0.50000000000E+03 0.  1.
    -200001    1    1    2    0    0  0.11915647925E+03 -0.32167599344E+01  0.26905303592E+03  0.75934060225E+03  0.70000000000E+03 0. -1.
<mgrwt>
<rscale>  0 0.15728862E+04</rscale>
<asrwt>0</asrwt>
<pdfrwt beam="1">  1        4 0.12211320E+00 0.15728862E+04</pdfrwt>
<pdfrwt beam="2">  1       -4 0.10336557E+00 0.15728862E+04</pdfrwt>
<totfact> 0.74753946E-01</totfact>
</mgrwt>
</event>
<event>
 8    1  0.1287848E-011  0.1592068E+04  0.7818608E-02  0.8825436E-01
          4   -1    0    0  501    0  0.00000000000E+00  0.00000000000E+00  0.71907992444E+03  0.71908104594E+03  0.12700000000E+01 0.  1.
         -4   -1    0    0    0  501 -0.00000000000E+00 -0.00000000000E+00 -0.88122153419E+03  0.88122244934E+03  0.12700000000E+01 0. -1.
     200001    2    1    2    0    0 -0.30633446679E+03  0.10713801122E+03 -0.27774157394E+03  0.82012229151E+03  0.70010058716E+03 0.  0.
    5000001    2    3    3    0    0 -0.22010509006E+02  0.36775365182E+01 -0.26659986299E+02  0.18405142561E+03  0.18073789203E+03 0.  0.
        -11    1    4    4    0    0 -0.71589683662E+02 -0.60896808511E+02 -0.26382726825E+01  0.94023744749E+02  0.51100000000E-03 0. -1.
     200002    1    4    4    0    0  0.49579174656E+02  0.64574345029E+02 -0.24021713617E+02  0.90027680858E+02  0.30000000000E+02 0. -1.
     200000    1    3    3    0    0 -0.28432395779E+03  0.10346047470E+03 -0.25108158764E+03  0.63607086590E+03  0.50000000000E+03 0.  1.
    -200001    1    1    2    0    0  0.30633446679E+03 -0.10713801122E+03  0.11559996419E+03  0.78018120377E+03  0.70000000000E+03 0.  1.
<mgrwt>
<rscale>  0 0.15920683E+04</rscale>
<asrwt>0</asrwt>
<pdfrwt beam="1">  1        4 0.10272585E+00 0.15920683E+04</pdfrwt>
<pdfrwt beam="2">  1       -4 0.12588894E+00 0.15920683E+04</pdfrwt>
<totfact> 0.70181255E-01</totfact>
</mgrwt>
</event>
<event>
 8    1  0.1287848E-011  0.2427587E+04  0.7818608E-02  0.8429247E-01
         -4   -1    0    0    0  501 -0.00000000000E+00  0.00000000000E+00  0.28790707562E+04  0.28790710363E+04  0.12700000000E+01 0. -1.
          4   -1    0    0  501    0  0.00000000000E+00 -0.00000000000E+00 -0.51172457445E+03  0.51172615039E+03  0.12700000000E+01 0.  1.
     200001    2    1    2    0    0 -0.81427506111E+03 -0.32368746606E+03  0.53469491129E+03  0.12422097135E+04  0.69954904998E+03 0.  0.
    5000001    2    3    3    0    0 -0.37355321376E+03 -0.13992821689E+03  0.15579698054E+03  0.45381460297E+03  0.15017684684E+03 0.  0.
        -11    1    4    4    0    0 -0.25407450409E+03 -0.20894891054E+02  0.93054980237E+02  0.27138474432E+03  0.51100000000E-03 0. -1.
     200002    1    4    4    0    0 -0.11947870967E+03 -0.11903332584E+03  0.62742000304E+02  0.18242985865E+03  0.30000000000E+02 0. -1.
     200000    1    3    3    0    0 -0.44072184735E+03 -0.18375924917E+03  0.37889793075E+03  0.78839511053E+03  0.50000000000E+03 0.  1.
    -200001    1    1    2    0    0  0.81427506111E+03  0.32368746606E+03  0.18326512704E+04  0.21485874732E+04  0.70000000000E+03 0. -1.
<mgrwt>
<rscale>  0 0.24275868E+04</rscale>
<asrwt>0</asrwt>
<pdfrwt beam="1">  1        4 0.73103642E-01 0.24275868E+04</pdfrwt>
<pdfrwt beam="2">  1       -4 0.41129596E+00 0.24275868E+04</pdfrwt>
<totfact> 0.17447281E-02</totfact>
</mgrwt>
</event>
<event>
 8    1  0.1287848E-011  0.1443077E+04  0.7818608E-02  0.8923214E-01
         -4   -1    0    0    0  501 -0.00000000000E+00  0.00000000000E+00  0.44963311815E+03  0.44963491172E+03  0.12700000000E+01 0. -1.
          4   -1    0    0  501    0  0.00000000000E+00 -0.00000000000E+00 -0.11578680130E+04  0.11578687095E+04  0.12700000000E+01 0.  1.
     200001    2    1    2    0    0 -0.79473161961E+02  0.55543062883E+02 -0.18992390850E+03  0.73112054638E+03  0.69933192907E+03 0.  0.
    5000001    2    3    3    0    0 -0.66116137577E+02  0.15879313323E+03 -0.36003612409E+02  0.19770659393E+03  0.90581644756E+02 0.  0.
        -11    1    4    4    0    0 -0.31957430361E+02  0.10468915435E+03 -0.57762103041E+02  0.12376411815E+03  0.51100000000E-03 0. -1.
     200002    1    4    4    0    0 -0.34158707217E+02  0.54103978881E+02  0.21758490632E+02  0.73942475777E+02  0.30000000000E+02 0.  1.
     200000    1    3    3    0    0 -0.13357024384E+02 -0.10325007035E+03 -0.15392029609E+03  0.53341395246E+03  0.50000000000E+03 0. -1.
    -200001    1    1    2    0    0  0.79473161961E+02 -0.55543062883E+02 -0.51831098640E+03  0.87638307488E+03  0.70000000000E+03 0.  1.
<mgrwt>
<rscale>  0 0.14430770E+04</rscale>
<asrwt>0</asrwt>
<pdfrwt beam="1">  1        4 0.16540989E+00 0.14430770E+04</pdfrwt>
<pdfrwt beam="2">  1       -4 0.64233481E-01 0.14430770E+04</pdfrwt>
<totfact> 0.10067570E+00</totfact>
</mgrwt>
</event>
<event>
 8    1  0.1287848E-011  0.1834317E+04  0.7818608E-02  0.8688260E-01
          4   -1    0    0  501    0  0.00000000000E+00  0.00000000000E+00  0.10223780738E+04  0.10223788626E+04  0.12700000000E+01 0.  1.
         -4   -1    0    0    0  501 -0.00000000000E+00 -0.00000000000E+00 -0.82276660260E+03  0.82276758277E+03  0.12700000000E+01 0. -1.
     200001    2    1    2    0    0 -0.44551955272E+03 -0.21516969585E+03  0.42711438590E+03  0.95827371147E+03  0.70076824813E+03 0.  0.
    5000001    2    3    3    0    0 -0.25480643230E+03 -0.89873820356E+02  0.16006871595E+03  0.34722220746E+03  0.14811362530E+03 0.  0.
        -11    1    4    4    0    0 -0.17048243659E+03  0.59986774136E+01  0.55204924741E+02  0.17929815680E+03  0.51100000000E-03 0. -1.
     200002    1    4    4    0    0 -0.84323995708E+02 -0.95872497770E+02  0.10486379121E+03  0.16792405065E+03  0.30000000000E+02 0. -1.
     200000    1    3    3    0    0 -0.19071312042E+03 -0.12529587549E+03  0.26704566995E+03  0.61105150401E+03  0.50000000000E+03 0. -1.
    -200001    1    1    2    0    0  0.44551955272E+03  0.21516969585E+03 -0.22750291473E+03  0.88687273387E+03  0.70000000000E+03 0. -1.
<mgrwt>
<rscale>  0 0.18343175E+04</rscale>
<asrwt>0</asrwt>
<pdfrwt beam="1">  1        4 0.14605414E+00 0.18343175E+04</pdfrwt>
<pdfrwt beam="2">  1       -4 0.11753821E+00 0.18343175E+04</pdfrwt>
<totfact> 0.33835056E-01</totfact>
</mgrwt>
</event>
<event>
 8    1  0.1287848E-011  0.1456625E+04  0.7818608E-02  0.8913821E-01
         -4   -1    0    0    0  501 -0.00000000000E+00  0.00000000000E+00  0.80241803447E+03  0.80241903950E+03  0.12700000000E+01 0. -1.
          4   -1    0    0  501    0  0.00000000000E+00 -0.00000000000E+00 -0.66104837681E+03  0.66104959677E+03  0.12700000000E+01 0.  1.
     200001    2    1    2    0    0 -0.13875360774E+02 -0.17379705191E+03  0.18946211638E+03  0.74048120521E+03  0.69427557989E+03 0.  0.
    5000001    2    3    3    0    0  0.23482352498E+02 -0.56941215802E+01  0.69879467082E+02  0.19830576871E+03  0.18400596209E+03 0.  0.
        -11    1    4    4    0    0 -0.15565896290E+02  0.82617054434E+02  0.25234845883E+02  0.87776262495E+02  0.51100000000E-03 0. -1.
     200002    1    4    4    0    0  0.39048248788E+02 -0.88311176014E+02  0.44644621198E+02  0.11052950622E+03  0.30000000000E+02 0. -1.
     200000    1    3    3    0    0 -0.37357713273E+02 -0.16810293033E+03  0.11958264930E+03  0.54217543649E+03  0.50000000000E+03 0. -1.
    -200001    1    1    2    0    0  0.13875360774E+02  0.17379705191E+03 -0.48092458717E+02  0.72298743106E+03  0.70000000000E+03 0.  1.
<mgrwt>
<rscale>  0 0.14566245E+04</rscale>
<asrwt>0</asrwt>
<pdfrwt beam="1">  1        4 0.94435642E-01 0.14566245E+04</pdfrwt>
<pdfrwt beam="2">  1       -4 0.11463131E+00 0.14566245E+04</pdfrwt>
<totfact> 0.10927025E+00</totfact>
</mgrwt>
</event>
<event>
 8    1  0.1287848E-011  0.1512293E+04  0.7818608E-02  0.8876319E-01
         -4   -1    0    0    0  501 -0.00000000000E+00  0.00000000000E+00  0.10843839913E+04  0.10843847350E+04  0.12700000000E+01 0. -1.
          4   -1    0    0  501    0  0.00000000000E+00 -0.00000000000E+00 -0.52726338649E+03  0.52726491599E+03  0.12700000000E+01 0.  1.
     200001    2    1    2    0    0 -0.14390282566E+03  0.20882003935E+03  0.41950750249E+03  0.85451611061E+03  0.69992671515E+03 0.  0.
    5000001    2    3    3    0    0 -0.60847264685E+02  0.79840077567E+02  0.98386328386E+02  0.24079559995E+03  0.19551425456E+03 0.  0.
        -11    1    4    4    0    0  0.12977853782E+02  0.32421937362E+02 -0.52878846566E+02  0.63370175363E+02  0.51100000000E-03 0. -1.
     200002    1    4    4    0    0 -0.73825118467E+02  0.47418140205E+02  0.15126517495E+03  0.17742542459E+03  0.30000000000E+02 0. -1.
     200000    1    3    3    0    0 -0.83055560972E+02  0.12897996179E+03  0.32112117410E+03  0.61372051066E+03  0.50000000000E+03 0. -1.
    -200001    1    1    2    0    0  0.14390282566E+03 -0.20882003935E+03  0.13761310235E+03  0.75713354041E+03  0.70000000000E+03 0.  1.
<mgrwt>
<rscale>  0 0.15122934E+04</rscale>
<asrwt>0</asrwt>
<pdfrwt beam="1">  1        4 0.75323504E-01 0.15122934E+04</pdfrwt>
<pdfrwt beam="2">  1       -4 0.15491216E+00 0.15122934E+04</pdfrwt>
<totfact> 0.84343517E-01</totfact>
</mgrwt>
</event>
<event>
 8    1  0.1287848E-011  0.1565880E+04  0.7818608E-02  0.8841788E-01
          4   -1    0    0  501    0  0.00000000000E+00  0.00000000000E+00  0.57381626301E+03  0.57381766843E+03  0.12700000000E+01 0.  1.
         -4   -1    0    0    0  501 -0.00000000000E+00 -0.00000000000E+00 -0.10682739881E+04  0.10682747430E+04  0.12700000000E+01 0. -1.
     200001    2    1    2    0    0 -0.25802227012E+03 -0.23509907739E+03 -0.21803464895E+03  0.81247998079E+03  0.70052661832E+03 0.  0.
    5000001    2    3    3    0    0 -0.15413208492E+03 -0.73834569415E+02 -0.31428668868E+02  0.24536341084E+03  0.17322586097E+03 0.  0.
        -11    1    4    4    0    0 -0.89741129986E+02 -0.53015632459E+02  0.65724463160E+02  0.12322269578E+03  0.51100000000E-03 0. -1.
     200002    1    4    4    0    0 -0.64390954930E+02 -0.20818936956E+02 -0.97153132029E+02  0.12214071506E+03  0.30000000000E+02 0. -1.
     200000    1    3    3    0    0 -0.10389018520E+03 -0.16126450797E+03 -0.18660598008E+03  0.56711656995E+03  0.50000000000E+03 0.  1.
    -200001    1    1    2    0    0  0.25802227012E+03  0.23509907739E+03 -0.27642307615E+03  0.82961243065E+03  0.70000000000E+03 0. -1.
<mgrwt>
<rscale>  0 0.15658796E+04</rscale>
<asrwt>0</asrwt>
<pdfrwt beam="1">  1        4 0.81973907E-01 0.15658796E+04</pdfrwt>
<pdfrwt beam="2">  1       -4 0.15261072E+00 0.15658796E+04</pdfrwt>
<totfact> 0.72238655E-01</totfact>
</mgrwt>
</event>
<event>
 8    1  0.1287848E-011  0.1510778E+04  0.7818608E-02  0.8877317E-01
         -4   -1    0    0    0  501 -0.00000000000E+00  0.00000000000E+00  0.12495793973E+04  0.12495800426E+04  0.12700000000E+01 0. -1.
          4   -1    0    0  501    0  0.00000000000E+00 -0.00000000000E+00 -0.45664217473E+03  0.45664394077E+03  0.12700000000E+01 0.  1.
     200001    2    1    2    0    0  0.78812042556E+02  0.25523128747E+03  0.27412958998E+03  0.79489763804E+03  0.69667845862E+03 0.  0.
    5000001    2    3    3    0    0 -0.42147136190E+02  0.12202401267E+03 -0.58114819365E+02  0.16819065027E+03  0.90799349401E+02 0.  0.
        -11    1    4    4    0    0 -0.39341289956E+01  0.76191437173E+01 -0.41989552250E+02  0.42856168989E+02  0.51100000000E-03 0. -1.
     200002    1    4    4    0    0 -0.38213007195E+02  0.11440486895E+03 -0.16125267115E+02  0.12533448128E+03  0.30000000000E+02 0. -1.
     200000    1    3    3    0    0  0.12095917875E+03  0.13320727480E+03  0.33224440934E+03  0.62670698777E+03  0.50000000000E+03 0. -1.
    -200001    1    1    2    0    0 -0.78812042556E+02 -0.25523128747E+03  0.51880763256E+03  0.91132634536E+03  0.70000000000E+03 0. -1.
<mgrwt>
<rscale>  0 0.15107782E+04</rscale>
<asrwt>0</asrwt>
<pdfrwt beam="1">  1        4 0.65234770E-01 0.15107782E+04</pdfrwt>
<pdfrwt beam="2">  1       -4 0.17851151E+00 0.15107782E+04</pdfrwt>
<totfact> 0.78163204E-01</totfact>
</mgrwt>
</event>
<event>
 8    1  0.1287848E-011  0.1435845E+04  0.7818608E-02  0.8928273E-01
         -4   -1    0    0    0  501 -0.00000000000E+00  0.00000000000E+00  0.27269892729E+03  0.27270188457E+03  0.12700000000E+01 0. -1.
          4   -1    0    0  501    0  0.00000000000E+00 -0.00000000000E+00 -0.18900287718E+04  0.18900291985E+04  0.12700000000E+01 0.  1.
     200001    2    1    2    0    0  0.10583009990E+03  0.46295749592E+02 -0.97316374719E+03  0.12044548873E+04  0.70022895554E+03 0.  0.
    5000001    2    3    3    0    0  0.11646923442E+03 -0.62385436523E+01 -0.28558707515E+03  0.35261292830E+03  0.17079782703E+03 0.  0.
        -11    1    4    4    0    0  0.95343017914E+02 -0.70454114270E+02 -0.10851479567E+03  0.16071569358E+03  0.51100000000E-03 0. -1.
     200002    1    4    4    0    0  0.21126216507E+02  0.64215570618E+02 -0.17707227947E+03  0.19189723472E+03  0.30000000000E+02 0. -1.
     200000    1    3    3    0    0 -0.10639134523E+02  0.52534293244E+02 -0.68757667204E+03  0.85184195899E+03  0.50000000000E+03 0.  1.
    -200001    1    1    2    0    0 -0.10583009990E+03 -0.46295749592E+02 -0.64416609734E+03  0.95827619580E+03  0.70000000000E+03 0. -1.
<mgrwt>
<rscale>  0 0.14358447E+04</rscale>
<asrwt>0</asrwt>
<pdfrwt beam="1">  1        4 0.27000434E+00 0.14358447E+04</pdfrwt>
<pdfrwt beam="2">  1       -4 0.38957232E-01 0.14358447E+04</pdfrwt>
<totfact> 0.59806366E-01</totfact>
</mgrwt>
</event>
<event>
 8    1  0.1287848E-011  0.2057881E+04  0.7818608E-02  0.8580028E-01
         -4   -1    0    0    0  501 -0.00000000000E+00  0.00000000000E+00  0.13765379025E+04  0.13765384884E+04  0.12700000000E+01 0. -1.
          4   -1    0    0  501    0  0.00000000000E+00 -0.00000000000E+00 -0.76911540733E+03  0.76911645587E+03  0.12700000000E+01 0.  1.
     200001    2    1    2    0    0  0.26753840734E+03  0.57137190728E+03 -0.12756593877E+03  0.95056053213E+03  0.69946379511E+03 0.  0.
    5000001    2    3    3    0    0 -0.15200905680E+02  0.15271423164E+03 -0.10334375027E+02  0.23017243670E+03  0.17123039225E+03 0.  0.
        -11    1    4    4    0    0  0.32652813168E+02  0.72013279012E+01 -0.58016254184E+02  0.66962310901E+02  0.51100000000E-03 0. -1.
     200002    1    4    4    0    0 -0.47853718848E+02  0.14551290374E+03  0.47681879158E+02  0.16321012580E+03  0.30000000000E+02 0. -1.
     200000    1    3    3    0    0  0.28273931302E+03  0.41865767564E+03 -0.11723156375E+03  0.72038809543E+03  0.50000000000E+03 0.  1.
    -200001    1    1    2    0    0 -0.26753840734E+03 -0.57137190728E+03  0.73498843399E+03  0.11950944121E+04  0.70000000000E+03 0. -1.
<mgrwt>
<rscale>  0 0.20578807E+04</rscale>
<asrwt>0</asrwt>
<pdfrwt beam="1">  1        4 0.10987375E+00 0.20578807E+04</pdfrwt>
<pdfrwt beam="2">  1       -4 0.19664839E+00 0.20578807E+04</pdfrwt>
<totfact> 0.16983651E-01</totfact>
</mgrwt>
</event>
<event>
 8    1  0.1287848E-011  0.1455614E+04  0.7818608E-02  0.8914518E-01
          4   -1    0    0  501    0  0.00000000000E+00  0.00000000000E+00  0.17599590698E+03  0.17600048913E+03  0.12700000000E+01 0.  1.
         -4   -1    0    0    0  501 -0.00000000000E+00 -0.00000000000E+00 -0.30097025611E+04  0.30097028291E+04  0.12700000000E+01 0. -1.
     200001    2    1    2    0    0  0.13271994911E+03  0.14267520763E+03 -0.15325116866E+04  0.16953747828E+04  0.69837868306E+03 0.  0.
    5000001    2    3    3    0    0  0.22452930824E+02  0.10118565350E+03 -0.22097266876E+03  0.28682418249E+03  0.15065364498E+03 0.  0.
        -11    1    4    4    0    0  0.40848304966E+02  0.73998197286E+02 -0.28375673399E+02  0.89159946508E+02  0.51100000000E-03 0. -1.
     200002    1    4    4    0    0 -0.18395374143E+02  0.27187456215E+02 -0.19259699536E+03  0.19766423598E+03  0.30000000000E+02 0. -1.
     200000    1    3    3    0    0  0.11026701829E+03  0.41489554132E+02 -0.13115390178E+04  0.14085506003E+04  0.50000000000E+03 0. -1.
    -200001    1    1    2    0    0 -0.13271994911E+03 -0.14267520763E+03 -0.13011949676E+04  0.14903285354E+04  0.70000000000E+03 0.  1.
<mgrwt>
<rscale>  0 0.14556140E+04</rscale>
<asrwt>0</asrwt>
<pdfrwt beam="1">  1        4 0.25142621E-01 0.14556140E+04</pdfrwt>
<pdfrwt beam="2">  1       -4 0.42995782E+00 0.14556140E+04</pdfrwt>
<totfact> 0.12501745E-01</totfact>
</mgrwt>
</event>
<event>
 8    1  0.1287848E-011  0.1445469E+04  0.7818608E-02  0.8921548E-01
          4   -1    0    0  501    0  0.00000000000E+00  0.00000000000E+00  0.12543820866E+04  0.12543827295E+04  0.12700000000E+01 0.  1.
         -4   -1    0    0    0  501 -0.00000000000E+00 -0.00000000000E+00 -0.41641479747E+03  0.41641673411E+03  0.12700000000E+01 0. -1.
     200001    2    1    2    0    0 -0.18535137994E+03  0.22414401507E+02  0.39825629418E+03  0.82333070398E+03  0.69599413275E+03 0.  0.
    5000001    2    3    3    0    0 -0.11281558958E+02 -0.51481190180E+02  0.14458486385E+03  0.23162971902E+03  0.17311833341E+03 0.  0.
        -11    1    4    4    0    0 -0.46958336010E+02 -0.93466489571E+02  0.13065534517E+03  0.16736752736E+03  0.51100000000E-03 0. -1.
     200002    1    4    4    0    0  0.35676777052E+02  0.41985299390E+02  0.13929518687E+02  0.64262191657E+02  0.30000000000E+02 0. -1.
     200000    1    3    3    0    0 -0.17406982098E+03  0.73895591687E+02  0.25367143032E+03  0.59170098497E+03  0.50000000000E+03 0. -1.
    -200001    1    1    2    0    0  0.18535137994E+03 -0.22414401507E+02  0.43971099492E+03  0.84746875960E+03  0.70000000000E+03 0.  1.
<mgrwt>
<rscale>  0 0.14454694E+04</rscale>
<asrwt>0</asrwt>
<pdfrwt beam="1">  1        4 0.17919762E+00 0.14454694E+04</pdfrwt>
<pdfrwt beam="2">  1       -4 0.59488013E-01 0.14454694E+04</pdfrwt>
<totfact> 0.94816292E-01</totfact>
</mgrwt>
</event>
<event>
 8    1  0.1287848E-011  0.1918985E+04  0.7818608E-02  0.8645464E-01
         -4   -1    0    0    0  501 -0.00000000000E+00  0.00000000000E+00  0.53653215190E+03  0.53653365497E+03  0.12700000000E+01 0.  1.
          4   -1    0    0  501    0  0.00000000000E+00 -0.00000000000E+00 -0.17158772533E+04  0.17158777233E+04  0.12700000000E+01 0. -1.
     200001    2    1    2    0    0 -0.42785470878E+03 -0.48322047865E+03 -0.72863530192E+03  0.11989879087E+04  0.70007208145E+03 0.  0.
    5000001    2    3    3    0    0  0.52782152515E+02 -0.65456055653E+02 -0.15232535309E+03  0.20517099264E+03  0.10872751345E+03 0.  0.
        -11    1    4    4    0    0  0.36385833064E+02 -0.28561858369E+02 -0.16113027721E+01  0.46285039680E+02  0.51100000000E-03 0. -1.
     200002    1    4    4    0    0  0.16396319451E+02 -0.36894197285E+02 -0.15071405032E+03  0.15888595296E+03  0.30000000000E+02 0. -1.
     200000    1    3    3    0    0 -0.48063686129E+03 -0.41776442300E+03 -0.57630994882E+03  0.99381691607E+03  0.50000000000E+03 0. -1.
    -200001    1    1    2    0    0  0.42785470878E+03  0.48322047865E+03 -0.45070979946E+03  0.10534234695E+04  0.70000000000E+03 0. -1.
<mgrwt>
<rscale>  0 0.19189847E+04</rscale>
<asrwt>0</asrwt>
<pdfrwt beam="1">  1        4 0.24512546E+00 0.19189847E+04</pdfrwt>
<pdfrwt beam="2">  1       -4 0.76647592E-01 0.19189847E+04</pdfrwt>
<totfact> 0.19520324E-01</totfact>
</mgrwt>
</event>
<event>
 8    1  0.1287848E-011  0.1649751E+04  0.7818608E-02  0.8790554E-01
         -4   -1    0    0    0  501 -0.00000000000E+00  0.00000000000E+00  0.19450116316E+04  0.19450120462E+04  0.12700000000E+01 0. -1.
          4   -1    0    0  501    0  0.00000000000E+00 -0.00000000000E+00 -0.34982654299E+03  0.34982884826E+03  0.12700000000E+01 0.  1.
     200001    2    1    2    0    0 -0.66321042326E+02 -0.24395887429E+03  0.12880435251E+04  0.14897009358E+04  0.70444186600E+03 0.  0.
    5000001    2    3    3    0    0  0.26102545000E+02 -0.11300346858E+03  0.15899832180E+03  0.24453648527E+03  0.14514303126E+03 0.  0.
        -11    1    4    4    0    0 -0.49091204460E+02 -0.63741097738E+01  0.26388848227E+02  0.56097655403E+02  0.51100000000E-03 0. -1.
     200002    1    4    4    0    0  0.75193749460E+02 -0.10662935881E+03  0.13260947358E+03  0.18843882986E+03  0.30000000000E+02 0. -1.
     200000    1    3    3    0    0 -0.92423587326E+02 -0.13095540570E+03  0.11290452033E+04  0.12451644505E+04  0.50000000000E+03 0. -1.
    -200001    1    1    2    0    0  0.66321042326E+02  0.24395887429E+03  0.30714156347E+03  0.80513995865E+03  0.70000000000E+03 0.  1.
<mgrwt>
<rscale>  0 0.16497513E+04</rscale>
<asrwt>0</asrwt>
<pdfrwt beam="1">  1        4 0.49975413E-01 0.16497513E+04</pdfrwt>
<pdfrwt beam="2">  1       -4 0.27785901E+00 0.16497513E+04</pdfrwt>
<totfact> 0.31594258E-01</totfact>
</mgrwt>
</event>
<event>
 8    1  0.1287848E-011  0.1708052E+04  0.7818608E-02  0.8756785E-01
          4   -1    0    0  501    0  0.00000000000E+00  0.00000000000E+00  0.44473064099E+03  0.44473245433E+03  0.12700000000E+01 0.  1.
         -4   -1    0    0    0  501 -0.00000000000E+00 -0.00000000000E+00 -0.16400001201E+04  0.16400006118E+04  0.12700000000E+01 0. -1.
     200001    2    1    2    0    0  0.17555175628E+03 -0.43776517179E+03 -0.75463828770E+03  0.11325709940E+04  0.70055788235E+03 0.  0.
    5000001    2    3    3    0    0  0.59339149750E+02 -0.11109591057E+03 -0.22201924385E+03  0.32392940347E+03  0.19943489602E+03 0.  0.
        -11    1    4    4    0    0 -0.52410309116E+02 -0.26881514853E+02 -0.15517777379E+03  0.16598071521E+03  0.51100000000E-03 0. -1.
     200002    1    4    4    0    0  0.11174945887E+03 -0.84214395719E+02 -0.66841470064E+02  0.15794868826E+03  0.30000000000E+02 0. -1.
     200000    1    3    3    0    0  0.11621260653E+03 -0.32666926121E+03 -0.53261904385E+03  0.80864159058E+03  0.50000000000E+03 0. -1.
    -200001    1    1    2    0    0 -0.17555175628E+03  0.43776517179E+03 -0.44063119141E+03  0.95216207213E+03  0.70000000000E+03 0.  1.
<mgrwt>
<rscale>  0 0.17080523E+04</rscale>
<asrwt>0</asrwt>
<pdfrwt beam="1">  1        4 0.63533114E-01 0.17080523E+04</pdfrwt>
<pdfrwt beam="2">  1       -4 0.23428589E+00 0.17080523E+04</pdfrwt>
<totfact> 0.35145877E-01</totfact>
</mgrwt>
</event>
<event>
 8    1  0.1287848E-011  0.1602565E+04  0.7818608E-02  0.8818974E-01
         -4   -1    0    0    0  501 -0.00000000000E+00  0.00000000000E+00  0.98723534685E+03  0.98723616372E+03  0.12700000000E+01 0. -1.
          4   -1    0    0  501    0  0.00000000000E+00 -0.00000000000E+00 -0.65035329328E+03  0.65035453330E+03  0.12700000000E+01 0.  1.
     200001    2    1    2    0    0 -0.34130842792E+02  0.38818646761E+03  0.16318039393E+03  0.81781882959E+03  0.70024720564E+03 0.  0.
    5000001    2    3    3    0    0 -0.20036922340E+02  0.42979651485E+02 -0.14814535984E+02  0.18453486519E+03  0.17772145986E+03 0.  0.
        -11    1    4    4    0    0  0.48263878259E+01  0.49242415823E+02  0.73041574786E+02  0.88222339478E+02  0.51100000000E-03 0. -1.
     200002    1    4    4    0    0 -0.24863310166E+02 -0.62627643379E+01 -0.87856110770E+02  0.96312525713E+02  0.30000000000E+02 0. -1.
     200000    1    3    3    0    0 -0.14093920452E+02  0.34520681612E+03  0.17799492991E+03  0.63328396440E+03  0.50000000000E+03 0.  1.
    -200001    1    1    2    0    0  0.34130842792E+02 -0.38818646761E+03  0.17370165964E+03  0.81977186743E+03  0.70000000000E+03 0.  1.
<mgrwt>
<rscale>  0 0.16025647E+04</rscale>
<asrwt>0</asrwt>
<pdfrwt beam="1">  1        4 0.92907761E-01 0.16025647E+04</pdfrwt>
<pdfrwt beam="2">  1       -4 0.14103377E+00 0.16025647E+04</pdfrwt>
<totfact> 0.66487230E-01</totfact>
</mgrwt>
</event>
<event>
 8    1  0.1287848E-011  0.1795047E+04  0.7818608E-02  0.8708938E-01
         -4   -1    0    0    0  501 -0.00000000000E+00  0.00000000000E+00  0.35646622751E+03  0.35646848985E+03  0.12700000000E+01 0. -1.
          4   -1    0    0  501    0  0.00000000000E+00 -0.00000000000E+00 -0.22598079274E+04  0.22598082842E+04  0.12700000000E+01 0.  1.
     200001    2    1    2    0    0 -0.48503645445E+03 -0.24403241586E+03 -0.73035199933E+03  0.11463390136E+04  0.69704154041E+03 0.  0.
    5000001    2    3    3    0    0 -0.12243498845E+03 -0.14121059710E+03 -0.20264545266E+03  0.32748228074E+03  0.17677303410E+03 0.  0.
        -11    1    4    4    0    0 -0.33430665550E+02 -0.14088564807E+03 -0.60100575212E+02  0.15677517142E+03  0.51100000000E-03 0. -1.
     200002    1    4    4    0    0 -0.89004322900E+02 -0.32494903136E+00 -0.14254487745E+03  0.17070710933E+03  0.30000000000E+02 0. -1.
     200000    1    3    3    0    0 -0.36260146600E+03 -0.10282181875E+03 -0.52770654667E+03  0.81885673287E+03  0.50000000000E+03 0. -1.
    -200001    1    1    2    0    0  0.48503645445E+03  0.24403241586E+03 -0.11729897005E+04  0.14699377605E+04  0.70000000000E+03 0. -1.
<mgrwt>
<rscale>  0 0.17950472E+04</rscale>
<asrwt>0</asrwt>
<pdfrwt beam="1">  1        4 0.32282988E+00 0.17950472E+04</pdfrwt>
<pdfrwt beam="2">  1       -4 0.50923935E-01 0.17950472E+04</pdfrwt>
<totfact> 0.15734851E-01</totfact>
</mgrwt>
</event>
