<event>
 4    1  0.1578814E-005  0.4276172E+03  0.7818608E-02  0.1034615E+00
         -1   -1    0    0    0  501 -0.00000000000E+00  0.00000000000E+00  0.24173620277E+02  0.24173620803E+02  0.50400000000E-02 0. -1.
          1   -1    0    0  501    0  0.00000000000E+00 -0.00000000000E+00 -0.18910744785E+04  0.18910744785E+04  0.50400000000E-02 0.  1.
    5000001    1    1    2    0    0 -0.22472724991E+02  0.95321062862E+02 -0.10584577343E+04  0.10794757541E+04  0.18800000000E+03 0.  0.
   -5000001    1    1    2    0    0  0.22472724991E+02 -0.95321062862E+02 -0.80844312388E+03  0.83577234516E+03  0.18800000000E+03 0.  0.
<mgrwt>
<rscale>  0 0.42761720E+03</rscale>
<asrwt>0</asrwt>
<pdfrwt beam="1">  1        1 0.27015340E+00 0.42761720E+03</pdfrwt>
<pdfrwt beam="2">  1       -1 0.34533756E-02 0.42761720E+03</pdfrwt>
<totfact> 0.14768735E+03</totfact>
</mgrwt>
</event>
<event>
 4    1  0.1578814E-005  0.7138966E+03  0.7818608E-02  0.9693758E-01
         -1   -1    0    0    0  501 -0.00000000000E+00  0.00000000000E+00  0.23887228385E+03  0.23887228391E+03  0.50400000000E-02 0. -1.
          1   -1    0    0  501    0  0.00000000000E+00 -0.00000000000E+00 -0.53338994412E+03  0.53338994414E+03  0.50400000000E-02 0.  1.
    5000001    1    1    2    0    0 -0.12216653796E+03  0.10326374065E+03 -0.42617586947E+03  0.49250171050E+03  0.18800000000E+03 0.  0.
   -5000001    1    1    2    0    0  0.12216653796E+03 -0.10326374065E+03  0.13165820920E+03  0.27976051755E+03  0.18800000000E+03 0.  0.
<mgrwt>
<rscale>  0 0.71389656E+03</rscale>
<asrwt>0</asrwt>
<pdfrwt beam="1">  1        1 0.76198563E-01 0.71389656E+03</pdfrwt>
<pdfrwt beam="2">  1       -1 0.34124612E-01 0.71389656E+03</pdfrwt>
<totfact> 0.36832787E+02</totfact>
</mgrwt>
</event>
<event>
 4    1  0.1578814E-005  0.4117759E+03  0.7818608E-02  0.1039777E+00
         -1   -1    0    0    0  501 -0.00000000000E+00  0.00000000000E+00  0.24631298275E+03  0.24631298281E+03  0.50400000000E-02 0. -1.
          1   -1    0    0  501    0  0.00000000000E+00 -0.00000000000E+00 -0.17209746257E+03  0.17209746265E+03  0.50400000000E-02 0.  1.
    5000001    1    1    2    0    0  0.53114050655E+02 -0.36539445094E+01  0.10304854987E+03  0.22090146518E+03  0.18800000000E+03 0.  0.
   -5000001    1    1    2    0    0 -0.53114050655E+02  0.36539445094E+01 -0.28833029688E+02  0.19750898027E+03  0.18800000000E+03 0.  0.
<mgrwt>
<rscale>  0 0.41177586E+03</rscale>
<asrwt>0</asrwt>
<pdfrwt beam="1">  1        1 0.24585352E-01 0.41177586E+03</pdfrwt>
<pdfrwt beam="2">  1       -1 0.35187569E-01 0.41177586E+03</pdfrwt>
<totfact> 0.15234750E+03</totfact>
</mgrwt>
</event>
<event>
 4    1  0.1578814E-005  0.7484649E+03  0.7818608E-02  0.9637762E-01
         -1   -1    0    0    0  501 -0.00000000000E+00  0.00000000000E+00  0.77449375382E+02  0.77449375546E+02  0.50400000000E-02 0. -1.
          1   -1    0    0  501    0  0.00000000000E+00 -0.00000000000E+00 -0.18082772690E+04  0.18082772690E+04  0.50400000000E-02 0.  1.
    5000001    1    1    2    0    0  0.14457099481E+03  0.98375818832E+02 -0.15513704359E+04  0.15724734667E+04  0.18800000000E+03 0.  0.
   -5000001    1    1    2    0    0 -0.14457099481E+03 -0.98375818832E+02 -0.17945745773E+03  0.31325317781E+03  0.18800000000E+03 0.  0.
<mgrwt>
<rscale>  0 0.74846495E+03</rscale>
<asrwt>0</asrwt>
<pdfrwt beam="1">  1        1 0.25832530E+00 0.74846495E+03</pdfrwt>
<pdfrwt beam="2">  1       -1 0.11064198E-01 0.74846495E+03</pdfrwt>
<totfact> 0.27040574E+02</totfact>
</mgrwt>
</event>
<event>
 4    1  0.1578814E-005  0.6954076E+03  0.7818608E-02  0.9725118E-01
         -1   -1    0    0    0  501 -0.00000000000E+00  0.00000000000E+00  0.14790336050E+03  0.14790336058E+03  0.50400000000E-02 0. -1.
          1   -1    0    0  501    0  0.00000000000E+00 -0.00000000000E+00 -0.81741176491E+03  0.81741176492E+03  0.50400000000E-02 0.  1.
    5000001    1    1    2    0    0 -0.12564725494E+03 -0.14475638853E+03 -0.64144044754E+03  0.69536428758E+03  0.18800000000E+03 0.  0.
   -5000001    1    1    2    0    0  0.12564725494E+03  0.14475638853E+03 -0.28067956871E+02  0.26995083793E+03  0.18800000000E+03 0.  0.
<mgrwt>
<rscale>  0 0.69540764E+03</rscale>
<asrwt>0</asrwt>
<pdfrwt beam="1">  1        1 0.11677311E+00 0.69540764E+03</pdfrwt>
<pdfrwt beam="2">  1       -1 0.21129052E-01 0.69540764E+03</pdfrwt>
<totfact> 0.45232193E+02</totfact>
</mgrwt>
</event>
<event>
 4    1  0.1578814E-005  0.5173895E+03  0.7818608E-02  0.1009337E+00
          1   -1    0    0  501    0  0.00000000000E+00  0.00000000000E+00  0.75378358376E+03  0.75378358378E+03  0.50400000000E-02 0. -1.
         -1   -1    0    0    0  501 -0.00000000000E+00 -0.00000000000E+00 -0.88782740143E+02  0.88782740286E+02  0.50400000000E-02 0.  1.
    5000001    1    1    2    0    0  0.15096604582E+03  0.38681660903E+02  0.19343842590E+03  0.31152759508E+03  0.18800000000E+03 0.  0.
   -5000001    1    1    2    0    0 -0.15096604582E+03 -0.38681660903E+02  0.47156241772E+03  0.53103872899E+03  0.18800000000E+03 0.  0.
<mgrwt>
<rscale>  0 0.51738949E+03</rscale>
<asrwt>0</asrwt>
<pdfrwt beam="1">  1        1 0.10768337E+00 0.51738949E+03</pdfrwt>
<pdfrwt beam="2">  1       -1 0.12683249E-01 0.51738949E+03</pdfrwt>
<totfact> 0.11829149E+03</totfact>
</mgrwt>
</event>
<event>
 4    1  0.1578814E-005  0.5305189E+03  0.7818608E-02  0.1006106E+00
          1   -1    0    0  501    0  0.00000000000E+00  0.00000000000E+00  0.57701207133E+02  0.57701207353E+02  0.50400000000E-02 0.  1.
         -1   -1    0    0    0  501 -0.00000000000E+00 -0.00000000000E+00 -0.12194296982E+04  0.12194296982E+04  0.50400000000E-02 0. -1.
    5000001    1    1    2    0    0 -0.16329501404E+03 -0.80250702462E+02 -0.68615899131E+03  0.73434569394E+03  0.18800000000E+03 0.  0.
   -5000001    1    1    2    0    0  0.16329501404E+03  0.80250702462E+02 -0.47556949975E+03  0.54278521162E+03  0.18800000000E+03 0.  0.
<mgrwt>
<rscale>  0 0.53051886E+03</rscale>
<asrwt>0</asrwt>
<pdfrwt beam="1">  1        1 0.82430304E-02 0.53051886E+03</pdfrwt>
<pdfrwt beam="2">  1       -1 0.17420423E+00 0.53051886E+03</pdfrwt>
<totfact> 0.20686429E+02</totfact>
</mgrwt>
</event>
<event>
 4    1  0.1578814E-005  0.9559294E+03  0.7818608E-02  0.9358247E-01
          1   -1    0    0  501    0  0.00000000000E+00  0.00000000000E+00  0.36167421551E+03  0.36167421555E+03  0.50400000000E-02 0. -1.
         -1   -1    0    0    0  501 -0.00000000000E+00 -0.00000000000E+00 -0.63164646885E+03  0.63164646887E+03  0.50400000000E-02 0.  1.
    5000001    1    1    2    0    0 -0.26466297449E+03  0.31586269414E+03  0.23595609333E+02  0.45355979142E+03  0.18800000000E+03 0.  0.
   -5000001    1    1    2    0    0  0.26466297449E+03 -0.31586269414E+03 -0.29356786267E+03  0.53976089299E+03  0.18800000000E+03 0.  0.
<mgrwt>
<rscale>  0 0.95592937E+03</rscale>
<asrwt>0</asrwt>
<pdfrwt beam="1">  1        1 0.51667745E-01 0.95592937E+03</pdfrwt>
<pdfrwt beam="2">  1       -1 0.90235210E-01 0.95592937E+03</pdfrwt>
<totfact> 0.91320711E+01</totfact>
</mgrwt>
</event>
<event>
 4    1  0.1578814E-005  0.8842165E+03  0.7818608E-02  0.9445529E-01
          1   -1    0    0  501    0  0.00000000000E+00  0.00000000000E+00  0.12715953923E+04  0.12715953923E+04  0.50400000000E-02 0.  1.
         -1   -1    0    0    0  501 -0.00000000000E+00 -0.00000000000E+00 -0.15371219451E+03  0.15371219459E+03  0.50400000000E-02 0. -1.
    5000001    1    1    2    0    0  0.82191546556E+02  0.34907124878E+03  0.84507656894E+03  0.93707235282E+03  0.18800000000E+03 0.  0.
   -5000001    1    1    2    0    0 -0.82191546556E+02 -0.34907124878E+03  0.27280662883E+03  0.48823523406E+03  0.18800000000E+03 0.  0.
<mgrwt>
<rscale>  0 0.88421653E+03</rscale>
<asrwt>0</asrwt>
<pdfrwt beam="1">  1        1 0.18165648E+00 0.88421653E+03</pdfrwt>
<pdfrwt beam="2">  1       -1 0.21958885E-01 0.88421653E+03</pdfrwt>
<totfact> 0.19410107E+02</totfact>
</mgrwt>
</event>
<event>
 4    1  0.1578814E-005  0.5018773E+03  0.7818608E-02  0.1013290E+00
          1   -1    0    0  501    0  0.00000000000E+00  0.00000000000E+00  0.98437191450E+02  0.98437191580E+02  0.50400000000E-02 0.  1.
         -1   -1    0    0    0  501 -0.00000000000E+00 -0.00000000000E+00 -0.63969928074E+03  0.63969928076E+03  0.50400000000E-02 0. -1.
    5000001    1    1    2    0    0 -0.11089411189E+03  0.11562210025E+03 -0.33574772608E+03  0.41681711780E+03  0.18800000000E+03 0.  0.
   -5000001    1    1    2    0    0  0.11089411189E+03 -0.11562210025E+03 -0.20551436321E+03  0.32131935455E+03  0.18800000000E+03 0.  0.
<mgrwt>
<rscale>  0 0.50187728E+03</rscale>
<asrwt>0</asrwt>
<pdfrwt beam="1">  1        1 0.14062456E-01 0.50187728E+03</pdfrwt>
<pdfrwt beam="2">  1       -1 0.91385609E-01 0.50187728E+03</pdfrwt>
<totfact> 0.49823559E+02</totfact>
</mgrwt>
</event>
<event>
 4    1  0.1578814E-005  0.4703375E+03  0.7818608E-02  0.1021825E+00
          1   -1    0    0  501    0  0.00000000000E+00  0.00000000000E+00  0.99237417398E+03  0.99237417399E+03  0.50400000000E-02 0.  1.
         -1   -1    0    0    0  501 -0.00000000000E+00 -0.00000000000E+00 -0.55729331464E+02  0.55729331692E+02  0.50400000000E-02 0. -1.
    5000001    1    1    2    0    0  0.12627590118E+03 -0.63359384440E+02  0.46961141148E+03  0.52520366774E+03  0.18800000000E+03 0.  0.
   -5000001    1    1    2    0    0 -0.12627590118E+03  0.63359384440E+02  0.46703343103E+03  0.52289983794E+03  0.18800000000E+03 0.  0.
<mgrwt>
<rscale>  0 0.47033754E+03</rscale>
<asrwt>0</asrwt>
<pdfrwt beam="1">  1        1 0.14176773E+00 0.47033754E+03</pdfrwt>
<pdfrwt beam="2">  1       -1 0.79613336E-02 0.47033754E+03</pdfrwt>
<totfact> 0.15931267E+03</totfact>
</mgrwt>
</event>
<event>
 4    1  0.1578814E-005  0.1835861E+04  0.7818608E-02  0.8687458E-01
         -1   -1    0    0    0  501 -0.00000000000E+00  0.00000000000E+00  0.30656536825E+03  0.30656536829E+03  0.50400000000E-02 0. -1.
          1   -1    0    0  501    0  0.00000000000E+00 -0.00000000000E+00 -0.27485051880E+04  0.27485051880E+04  0.50400000000E-02 0.  1.
    5000001    1    1    2    0    0 -0.37780269856E+03  0.77444158193E+03 -0.79749500980E+03  0.11890487515E+04  0.18800000000E+03 0.  0.
   -5000001    1    1    2    0    0  0.37780269856E+03 -0.77444158193E+03 -0.16444448099E+04  0.18660218047E+04  0.18800000000E+03 0.  0.
<mgrwt>
<rscale>  0 0.18358611E+04</rscale>
<asrwt>0</asrwt>
<pdfrwt beam="1">  1        1 0.39264359E+00 0.18358611E+04</pdfrwt>
<pdfrwt beam="2">  1       -1 0.43795054E-01 0.18358611E+04</pdfrwt>
<totfact> 0.60609143E+00</totfact>
</mgrwt>
</event>
<event>
 4    1  0.1578814E-005  0.8445577E+03  0.7818608E-02  0.9497671E-01
          1   -1    0    0  501    0  0.00000000000E+00  0.00000000000E+00  0.82299357738E+03  0.82299357740E+03  0.50400000000E-02 0.  1.
         -1   -1    0    0    0  501 -0.00000000000E+00 -0.00000000000E+00 -0.21667170726E+03  0.21667170732E+03  0.50400000000E-02 0. -1.
    5000001    1    1    2    0    0 -0.10763340284E+03 -0.24841249805E+03  0.62811622067E+03  0.70934315057E+03  0.18800000000E+03 0.  0.
   -5000001    1    1    2    0    0  0.10763340284E+03  0.24841249805E+03 -0.21794350553E+02  0.33032213415E+03  0.18800000000E+03 0.  0.
<mgrwt>
<rscale>  0 0.84455769E+03</rscale>
<asrwt>0</asrwt>
<pdfrwt beam="1">  1        1 0.11757051E+00 0.84455769E+03</pdfrwt>
<pdfrwt beam="2">  1       -1 0.30953100E-01 0.84455769E+03</pdfrwt>
<totfact> 0.23129806E+02</totfact>
</mgrwt>
</event>
<event>
 4    1  0.1578814E-005  0.6139925E+03  0.7818608E-02  0.9876794E-01
          1   -1    0    0  501    0  0.00000000000E+00  0.00000000000E+00  0.11115059426E+04  0.11115059426E+04  0.50400000000E-02 0.  1.
         -1   -1    0    0    0  501 -0.00000000000E+00 -0.00000000000E+00 -0.84791903359E+02  0.84791903509E+02  0.50400000000E-02 0. -1.
    5000001    1    1    2    0    0 -0.40258470259E+02  0.23932264888E+03  0.50834019617E+03  0.59384327035E+03  0.18800000000E+03 0.  0.
   -5000001    1    1    2    0    0  0.40258470259E+02 -0.23932264888E+03  0.51837384308E+03  0.60245457579E+03  0.18800000000E+03 0.  0.
<mgrwt>
<rscale>  0 0.61399252E+03</rscale>
<asrwt>0</asrwt>
<pdfrwt beam="1">  1        1 0.15878657E+00 0.61399252E+03</pdfrwt>
<pdfrwt beam="2">  1       -1 0.12113129E-01 0.61399252E+03</pdfrwt>
<totfact> 0.67308657E+02</totfact>
</mgrwt>
</event>
<event>
 4    1  0.1578814E-005  0.4840109E+03  0.7818608E-02  0.1018039E+00
         -1   -1    0    0    0  501 -0.00000000000E+00  0.00000000000E+00  0.44074387993E+02  0.44074388281E+02  0.50400000000E-02 0.  1.
          1   -1    0    0  501    0  0.00000000000E+00 -0.00000000000E+00 -0.13288131568E+04  0.13288131568E+04  0.50400000000E-02 0. -1.
    5000001    1    1    2    0    0  0.11035769343E+03 -0.10302696310E+03 -0.58360209860E+03  0.63144974868E+03  0.18800000000E+03 0.  0.
   -5000001    1    1    2    0    0 -0.11035769343E+03  0.10302696310E+03 -0.70113667019E+03  0.74143779638E+03  0.18800000000E+03 0.  0.
<mgrwt>
<rscale>  0 0.48401085E+03</rscale>
<asrwt>0</asrwt>
<pdfrwt beam="1">  1        1 0.18983043E+00 0.48401085E+03</pdfrwt>
<pdfrwt beam="2">  1       -1 0.62963420E-02 0.48401085E+03</pdfrwt>
<totfact> 0.13389971E+03</totfact>
</mgrwt>
</event>
<event>
 4    1  0.1578814E-005  0.4709246E+03  0.7818608E-02  0.1021660E+00
         -1   -1    0    0    0  501 -0.00000000000E+00  0.00000000000E+00  0.15363776654E+03  0.15363776663E+03  0.50400000000E-02 0.  1.
          1   -1    0    0  501    0  0.00000000000E+00 -0.00000000000E+00 -0.36086503376E+03  0.36086503380E+03  0.50400000000E-02 0. -1.
    5000001    1    1    2    0    0 -0.11354229383E+03  0.61415945497E+02 -0.39583786515E+02  0.23146197745E+03  0.18800000000E+03 0.  0.
   -5000001    1    1    2    0    0  0.11354229383E+03 -0.61415945497E+02 -0.16764348071E+03  0.28304082298E+03  0.18800000000E+03 0.  0.
<mgrwt>
<rscale>  0 0.47092461E+03</rscale>
<asrwt>0</asrwt>
<pdfrwt beam="1">  1        1 0.51552147E-01 0.47092461E+03</pdfrwt>
<pdfrwt beam="2">  1       -1 0.21948253E-01 0.47092461E+03</pdfrwt>
<totfact> 0.13230611E+03</totfact>
</mgrwt>
</event>
<event>
 4    1  0.1578814E-005  0.4569993E+03  0.7818608E-02  0.1025655E+00
          1   -1    0    0  501    0  0.00000000000E+00  0.00000000000E+00  0.38555491757E+03  0.38555491760E+03  0.50400000000E-02 0. -1.
         -1   -1    0    0    0  501 -0.00000000000E+00 -0.00000000000E+00 -0.13542060561E+03  0.13542060571E+03  0.50400000000E-02 0.  1.
    5000001    1    1    2    0    0 -0.10282703127E+03  0.74269374267E+02  0.15687971948E+03  0.27576182603E+03  0.18800000000E+03 0.  0.
   -5000001    1    1    2    0    0  0.10282703127E+03 -0.74269374267E+02  0.93254592479E+02  0.24521369728E+03  0.18800000000E+03 0.  0.
<mgrwt>
<rscale>  0 0.45699926E+03</rscale>
<asrwt>0</asrwt>
<pdfrwt beam="1">  1        1 0.55079274E-01 0.45699926E+03</pdfrwt>
<pdfrwt beam="2">  1       -1 0.19345801E-01 0.45699926E+03</pdfrwt>
<totfact> 0.14965721E+03</totfact>
</mgrwt>
</event>
<event>
 4    1  0.1578814E-005  0.9481740E+03  0.7818608E-02  0.9367287E-01
          1   -1    0    0  501    0  0.00000000000E+00  0.00000000000E+00  0.34592767323E+04  0.34592767323E+04  0.50400000000E-02 0. -1.
         -1   -1    0    0    0  501 -0.00000000000E+00 -0.00000000000E+00 -0.64972678392E+02  0.64972678587E+02  0.50400000000E-02 0.  1.
    5000001    1    1    2    0    0 -0.34508870386E+03  0.26463844659E+03  0.16333391311E+04  0.17006647048E+04  0.18800000000E+03 0.  0.
   -5000001    1    1    2    0    0  0.34508870386E+03 -0.26463844659E+03  0.17609649227E+04  0.18235847060E+04  0.18800000000E+03 0.  0.
<mgrwt>
<rscale>  0 0.94817398E+03</rscale>
<asrwt>0</asrwt>
<pdfrwt beam="1">  1        1 0.49418256E+00 0.94817398E+03</pdfrwt>
<pdfrwt beam="2">  1       -1 0.92818080E-02 0.94817398E+03</pdfrwt>
<totfact> 0.30695523E+01</totfact>
</mgrwt>
</event>
<event>
 4    1  0.1578814E-005  0.5529516E+03  0.7818608E-02  0.1000813E+00
         -1   -1    0    0    0  501 -0.00000000000E+00  0.00000000000E+00  0.37749896662E+03  0.37749896666E+03  0.50400000000E-02 0. -1.
          1   -1    0    0  501    0  0.00000000000E+00 -0.00000000000E+00 -0.20248759413E+03  0.20248759420E+03  0.50400000000E-02 0.  1.
    5000001    1    1    2    0    0 -0.12174051057E+03  0.15098880219E+03  0.25661174864E+02  0.27133165351E+03  0.18800000000E+03 0.  0.
   -5000001    1    1    2    0    0  0.12174051057E+03 -0.15098880219E+03  0.14935019763E+03  0.30865490735E+03  0.18800000000E+03 0.  0.
<mgrwt>
<rscale>  0 0.55295156E+03</rscale>
<asrwt>0</asrwt>
<pdfrwt beam="1">  1        1 0.28926799E-01 0.55295156E+03</pdfrwt>
<pdfrwt beam="2">  1       -1 0.53928424E-01 0.55295156E+03</pdfrwt>
<totfact> 0.56509716E+02</totfact>
</mgrwt>
</event>
<event>
 4    1  0.1578814E-005  0.4099114E+03  0.7818608E-02  0.1040401E+00
         -1   -1    0    0    0  501 -0.00000000000E+00  0.00000000000E+00  0.17883473480E+02  0.17883474190E+02  0.50400000000E-02 0. -1.
          1   -1    0    0  501    0  0.00000000000E+00 -0.00000000000E+00 -0.23489193815E+04  0.23489193815E+04  0.50400000000E-02 0.  1.
    5000001    1    1    2    0    0  0.68204422132E+02  0.11506416543E+02 -0.14157765251E+04  0.14298781101E+04  0.18800000000E+03 0.  0.
   -5000001    1    1    2    0    0 -0.68204422132E+02 -0.11506416543E+02 -0.91525938293E+03  0.93692474557E+03  0.18800000000E+03 0.  0.
<mgrwt>
<rscale>  0 0.40991140E+03</rscale>
<asrwt>0</asrwt>
<pdfrwt beam="1">  1        1 0.33555972E+00 0.40991140E+03</pdfrwt>
<pdfrwt beam="2">  1       -1 0.25547835E-02 0.40991140E+03</pdfrwt>
<totfact> 0.12168603E+03</totfact>
</mgrwt>
</event>
<event>
 4    1  0.1578814E-005  0.1293868E+04  0.7818608E-02  0.9034442E-01
          1   -1    0    0  501    0  0.00000000000E+00  0.00000000000E+00  0.33925264833E+03  0.33925264837E+03  0.50400000000E-02 0.  1.
         -1   -1    0    0    0  501 -0.00000000000E+00 -0.00000000000E+00 -0.12336633308E+04  0.12336633308E+04  0.50400000000E-02 0. -1.
    5000001    1    1    2    0    0 -0.10432208906E+03 -0.60998586790E+03 -0.42943431119E+03  0.77635280957E+03  0.18800000000E+03 0.  0.
   -5000001    1    1    2    0    0  0.10432208906E+03  0.60998586790E+03 -0.46497637124E+03  0.79656316957E+03  0.18800000000E+03 0.  0.
<mgrwt>
<rscale>  0 0.12938679E+04</rscale>
<asrwt>0</asrwt>
<pdfrwt beam="1">  1        1 0.48464665E-01 0.12938679E+04</pdfrwt>
<pdfrwt beam="2">  1       -1 0.17623762E+00 0.12938679E+04</pdfrwt>
<totfact> 0.17930123E+01</totfact>
</mgrwt>
</event>
<event>
 4    1  0.1578814E-005  0.5042212E+03  0.7818608E-02  0.1012683E+00
         -1   -1    0    0    0  501 -0.00000000000E+00  0.00000000000E+00  0.10356620490E+03  0.10356620502E+03  0.50400000000E-02 0. -1.
          1   -1    0    0  501    0  0.00000000000E+00 -0.00000000000E+00 -0.61371133470E+03  0.61371133472E+03  0.50400000000E-02 0.  1.
    5000001    1    1    2    0    0 -0.14389568603E+03  0.46844690831E+02 -0.15135973371E+03  0.28487569659E+03  0.18800000000E+03 0.  0.
   -5000001    1    1    2    0    0  0.14389568603E+03 -0.46844690831E+02 -0.35878539609E+03  0.43240184315E+03  0.18800000000E+03 0.  0.
<mgrwt>
<rscale>  0 0.50422120E+03</rscale>
<asrwt>0</asrwt>
<pdfrwt beam="1">  1        1 0.87673046E-01 0.50422120E+03</pdfrwt>
<pdfrwt beam="2">  1       -1 0.14795172E-01 0.50422120E+03</pdfrwt>
<totfact> 0.12439143E+03</totfact>
</mgrwt>
</event>
<event>
 4    1  0.1578814E-005  0.1067309E+04  0.7818608E-02  0.9237654E-01
          1   -1    0    0  501    0  0.00000000000E+00  0.00000000000E+00  0.17391485947E+03  0.17391485955E+03  0.50400000000E-02 0. -1.
         -1   -1    0    0    0  501 -0.00000000000E+00 -0.00000000000E+00 -0.16375095740E+04  0.16375095740E+04  0.50400000000E-02 0.  1.
    5000001    1    1    2    0    0  0.17496419246E+03 -0.42380106144E+03 -0.10679238873E+04  0.11772957307E+04  0.18800000000E+03 0.  0.
   -5000001    1    1    2    0    0 -0.17496419246E+03  0.42380106144E+03 -0.39567082716E+03  0.63412870286E+03  0.18800000000E+03 0.  0.
<mgrwt>
<rscale>  0 0.10673092E+04</rscale>
<asrwt>0</asrwt>
<pdfrwt beam="1">  1        1 0.24844981E-01 0.10673092E+04</pdfrwt>
<pdfrwt beam="2">  1       -1 0.23392993E+00 0.10673092E+04</pdfrwt>
<totfact> 0.17545999E+01</totfact>
</mgrwt>
</event>
<event>
 4    1  0.1578814E-005  0.6442512E+03  0.7818608E-02  0.9817627E-01
         -1   -1    0    0    0  501 -0.00000000000E+00  0.00000000000E+00  0.13827269682E+03  0.13827269691E+03  0.50400000000E-02 0. -1.
          1   -1    0    0  501    0  0.00000000000E+00 -0.00000000000E+00 -0.75043657321E+03  0.75043657322E+03  0.50400000000E-02 0.  1.
    5000001    1    1    2    0    0  0.93811120600E+02  0.16175656769E+03 -0.53770954430E+02  0.27055688696E+03  0.18800000000E+03 0.  0.
   -5000001    1    1    2    0    0 -0.93811120600E+02 -0.16175656769E+03 -0.55839292196E+03  0.61815238318E+03  0.18800000000E+03 0.  0.
<mgrwt>
<rscale>  0 0.64425116E+03</rscale>
<asrwt>0</asrwt>
<pdfrwt beam="1">  1        1 0.10720522E+00 0.64425116E+03</pdfrwt>
<pdfrwt beam="2">  1       -1 0.19753243E-01 0.64425116E+03</pdfrwt>
<totfact> 0.57773231E+02</totfact>
</mgrwt>
</event>
<event>
 4    1  0.1578814E-005  0.8821290E+03  0.7818608E-02  0.9448201E-01
          1   -1    0    0  501    0  0.00000000000E+00  0.00000000000E+00  0.18996025198E+04  0.18996025198E+04  0.50400000000E-02 0.  1.
         -1   -1    0    0    0  501 -0.00000000000E+00 -0.00000000000E+00 -0.10240979224E+03  0.10240979237E+03  0.50400000000E-02 0. -1.
    5000001    1    1    2    0    0 -0.31906542982E+03 -0.20195227103E+03  0.11910606181E+04  0.12635493122E+04  0.18800000000E+03 0.  0.
   -5000001    1    1    2    0    0  0.31906542982E+03  0.20195227103E+03  0.60613210946E+03  0.73846300002E+03  0.18800000000E+03 0.  0.
<mgrwt>
<rscale>  0 0.88212901E+03</rscale>
<asrwt>0</asrwt>
<pdfrwt beam="1">  1        1 0.27137177E+00 0.88212901E+03</pdfrwt>
<pdfrwt beam="2">  1       -1 0.14629971E-01 0.88212901E+03</pdfrwt>
<totfact> 0.14972611E+02</totfact>
</mgrwt>
</event>
<event>
 4    1  0.1578814E-005  0.4671743E+03  0.7818608E-02  0.1022721E+00
         -1   -1    0    0    0  501 -0.00000000000E+00  0.00000000000E+00  0.24684541740E+02  0.24684542254E+02  0.50400000000E-02 0. -1.
          1   -1    0    0  501    0  0.00000000000E+00 -0.00000000000E+00 -0.22104094540E+04  0.22104094540E+04  0.50400000000E-02 0.  1.
    5000001    1    1    2    0    0 -0.10924640400E+03  0.85296300626E+02 -0.10787432892E+04  0.11037396975E+04  0.18800000000E+03 0.  0.
   -5000001    1    1    2    0    0  0.10924640400E+03 -0.85296300626E+02 -0.11069816230E+04  0.11313542988E+04  0.18800000000E+03 0.  0.
<mgrwt>
<rscale>  0 0.46717425E+03</rscale>
<asrwt>0</asrwt>
<pdfrwt beam="1">  1        1 0.31577265E+00 0.46717425E+03</pdfrwt>
<pdfrwt beam="2">  1       -1 0.35263646E-02 0.46717425E+03</pdfrwt>
<totfact> 0.91018638E+02</totfact>
</mgrwt>
</event>
<event>
 4    1  0.1578814E-005  0.4896982E+03  0.7818608E-02  0.1016503E+00
          1   -1    0    0  501    0  0.00000000000E+00  0.00000000000E+00  0.86501758144E+02  0.86501758291E+02  0.50400000000E-02 0.  1.
         -1   -1    0    0    0  501 -0.00000000000E+00 -0.00000000000E+00 -0.69306194720E+03  0.69306194721E+03  0.50400000000E-02 0. -1.
    5000001    1    1    2    0    0 -0.49487424738E+02  0.14877808906E+03 -0.31093989485E+03  0.39574176327E+03  0.18800000000E+03 0.  0.
   -5000001    1    1    2    0    0  0.49487424738E+02 -0.14877808906E+03 -0.29562029420E+03  0.38382194223E+03  0.18800000000E+03 0.  0.
<mgrwt>
<rscale>  0 0.48969818E+03</rscale>
<asrwt>0</asrwt>
<pdfrwt beam="1">  1        1 0.12357394E-01 0.48969818E+03</pdfrwt>
<pdfrwt beam="2">  1       -1 0.99008846E-01 0.48969818E+03</pdfrwt>
<totfact> 0.49646401E+02</totfact>
</mgrwt>
</event>
<event>
 4    1  0.1578814E-005  0.7918088E+03  0.7818608E-02  0.9571950E-01
         -1   -1    0    0    0  501 -0.00000000000E+00  0.00000000000E+00  0.21261631151E+03  0.21261631157E+03  0.50400000000E-02 0. -1.
          1   -1    0    0  501    0  0.00000000000E+00 -0.00000000000E+00 -0.73719782502E+03  0.73719782503E+03  0.50400000000E-02 0.  1.
    5000001    1    1    2    0    0 -0.40034249128E+02  0.17243006212E+03 -0.62227849151E+03  0.67372797806E+03  0.18800000000E+03 0.  0.
   -5000001    1    1    2    0    0  0.40034249128E+02 -0.17243006212E+03  0.97696978013E+02  0.27608615854E+03  0.18800000000E+03 0.  0.
<mgrwt>
<rscale>  0 0.79180877E+03</rscale>
<asrwt>0</asrwt>
<pdfrwt beam="1">  1        1 0.10531397E+00 0.79180877E+03</pdfrwt>
<pdfrwt beam="2">  1       -1 0.30373759E-01 0.79180877E+03</pdfrwt>
<totfact> 0.28376938E+02</totfact>
</mgrwt>
</event>
<event>
 4    1  0.1578814E-005  0.6952974E+03  0.7818608E-02  0.9725308E-01
          1   -1    0    0  501    0  0.00000000000E+00  0.00000000000E+00  0.23814191520E+04  0.23814191520E+04  0.50400000000E-02 0.  1.
         -1   -1    0    0    0  501 -0.00000000000E+00 -0.00000000000E+00 -0.50751085397E+02  0.50751085647E+02  0.50400000000E-02 0. -1.
    5000001    1    1    2    0    0 -0.24924763705E+03 -0.24150093247E+02  0.63705065770E+03  0.70984868251E+03  0.18800000000E+03 0.  0.
   -5000001    1    1    2    0    0  0.24924763705E+03  0.24150093247E+02  0.16936174089E+04  0.17223215552E+04  0.18800000000E+03 0.  0.
<mgrwt>
<rscale>  0 0.69529737E+03</rscale>
<asrwt>0</asrwt>
<pdfrwt beam="1">  1        1 0.34020276E+00 0.69529737E+03</pdfrwt>
<pdfrwt beam="2">  1       -1 0.72501547E-02 0.69529737E+03</pdfrwt>
<totfact> 0.23266299E+02</totfact>
</mgrwt>
</event>
<event>
 4    1  0.1578814E-005  0.7159516E+03  0.7818608E-02  0.9690335E-01
         -1   -1    0    0    0  501 -0.00000000000E+00  0.00000000000E+00  0.16625641422E+03  0.16625641430E+03  0.50400000000E-02 0.  1.
          1   -1    0    0  501    0  0.00000000000E+00 -0.00000000000E+00 -0.77077734827E+03  0.77077734828E+03  0.50400000000E-02 0. -1.
    5000001    1    1    2    0    0 -0.15975189415E+03 -0.25177372810E+03 -0.22061012671E+03  0.41584072173E+03  0.18800000000E+03 0.  0.
   -5000001    1    1    2    0    0  0.15975189415E+03  0.25177372810E+03 -0.38391080734E+03  0.52119304085E+03  0.18800000000E+03 0.  0.
<mgrwt>
<rscale>  0 0.71595161E+03</rscale>
<asrwt>0</asrwt>
<pdfrwt beam="1">  1        1 0.11011105E+00 0.71595161E+03</pdfrwt>
<pdfrwt beam="2">  1       -1 0.23750917E-01 0.71595161E+03</pdfrwt>
<totfact> 0.40628868E+02</totfact>
</mgrwt>
</event>
<event>
 4    1  0.1578814E-005  0.7655861E+03  0.7818608E-02  0.9611211E-01
          1   -1    0    0  501    0  0.00000000000E+00  0.00000000000E+00  0.15764935151E+03  0.15764935159E+03  0.50400000000E-02 0.  1.
         -1   -1    0    0    0  501 -0.00000000000E+00 -0.00000000000E+00 -0.92947101738E+03  0.92947101739E+03  0.50400000000E-02 0. -1.
    5000001    1    1    2    0    0  0.26883351944E+03  0.19726894678E+03 -0.38600764204E+03  0.54362891594E+03  0.18800000000E+03 0.  0.
   -5000001    1    1    2    0    0 -0.26883351944E+03 -0.19726894678E+03 -0.38581402384E+03  0.54349145304E+03  0.18800000000E+03 0.  0.
<mgrwt>
<rscale>  0 0.76558606E+03</rscale>
<asrwt>0</asrwt>
<pdfrwt beam="1">  1        1 0.22521336E-01 0.76558606E+03</pdfrwt>
<pdfrwt beam="2">  1       -1 0.13278157E+00 0.76558606E+03</pdfrwt>
<totfact> 0.10927485E+02</totfact>
</mgrwt>
</event>
<event>
 4    1  0.1578814E-005  0.4223376E+03  0.7818608E-02  0.1036308E+00
          1   -1    0    0  501    0  0.00000000000E+00  0.00000000000E+00  0.40633385436E+03  0.40633385439E+03  0.50400000000E-02 0.  1.
         -1   -1    0    0    0  501 -0.00000000000E+00 -0.00000000000E+00 -0.10974293618E+03  0.10974293629E+03  0.50400000000E-02 0. -1.
    5000001    1    1    2    0    0  0.52932968144E+01  0.75231031697E+02  0.22120975192E+03  0.29994246359E+03  0.18800000000E+03 0.  0.
   -5000001    1    1    2    0    0 -0.52932968144E+01 -0.75231031697E+02  0.75381166263E+02  0.21613432709E+03  0.18800000000E+03 0.  0.
<mgrwt>
<rscale>  0 0.42233764E+03</rscale>
<asrwt>0</asrwt>
<pdfrwt beam="1">  1        1 0.58047692E-01 0.42233764E+03</pdfrwt>
<pdfrwt beam="2">  1       -1 0.15677563E-01 0.42233764E+03</pdfrwt>
<totfact> 0.19674372E+03</totfact>
</mgrwt>
</event>
<event>
 4    1  0.1578814E-005  0.4803565E+03  0.7818608E-02  0.1019037E+00
         -1   -1    0    0    0  501 -0.00000000000E+00  0.00000000000E+00  0.13762191072E+03  0.13762191081E+03  0.50400000000E-02 0. -1.
          1   -1    0    0  501    0  0.00000000000E+00 -0.00000000000E+00 -0.41915995771E+03  0.41915995774E+03  0.50400000000E-02 0.  1.
    5000001    1    1    2    0    0 -0.10926891973E+02 -0.14855386832E+03 -0.15515054962E+03  0.28566298641E+03  0.18800000000E+03 0.  0.
   -5000001    1    1    2    0    0  0.10926891973E+02  0.14855386832E+03 -0.12638749737E+03  0.27111888214E+03  0.18800000000E+03 0.  0.
<mgrwt>
<rscale>  0 0.48035651E+03</rscale>
<asrwt>0</asrwt>
<pdfrwt beam="1">  1        1 0.59879993E-01 0.48035651E+03</pdfrwt>
<pdfrwt beam="2">  1       -1 0.19660273E-01 0.48035651E+03</pdfrwt>
<totfact> 0.13076932E+03</totfact>
</mgrwt>
</event>
<event>
 4    1  0.1578814E-005  0.4546720E+03  0.7818608E-02  0.1026338E+00
         -1   -1    0    0    0  501 -0.00000000000E+00  0.00000000000E+00  0.13922795744E+03  0.13922795753E+03  0.50400000000E-02 0.  1.
          1   -1    0    0  501    0  0.00000000000E+00 -0.00000000000E+00 -0.37120176856E+03  0.37120176859E+03  0.50400000000E-02 0. -1.
    5000001    1    1    2    0    0 -0.11382401527E+03 -0.54220425306E+02 -0.13958632063E+03  0.26594003437E+03  0.18800000000E+03 0.  0.
   -5000001    1    1    2    0    0  0.11382401527E+03  0.54220425306E+02 -0.92387490482E+02  0.24448969175E+03  0.18800000000E+03 0.  0.
<mgrwt>
<rscale>  0 0.45467203E+03</rscale>
<asrwt>0</asrwt>
<pdfrwt beam="1">  1        1 0.53028824E-01 0.45467203E+03</pdfrwt>
<pdfrwt beam="2">  1       -1 0.19889708E-01 0.45467203E+03</pdfrwt>
<totfact> 0.15015728E+03</totfact>
</mgrwt>
</event>
<event>
 4    1  0.1578814E-005  0.6571596E+03  0.7818608E-02  0.9793437E-01
          1   -1    0    0  501    0  0.00000000000E+00  0.00000000000E+00  0.48091085671E+03  0.48091085674E+03  0.50400000000E-02 0.  1.
         -1   -1    0    0    0  501 -0.00000000000E+00 -0.00000000000E+00 -0.22450038366E+03  0.22450038372E+03  0.50400000000E-02 0. -1.
    5000001    1    1    2    0    0  0.79181485632E+02  0.23185784922E+03  0.77475670484E+01  0.30892036952E+03  0.18800000000E+03 0.  0.
   -5000001    1    1    2    0    0 -0.79181485632E+02 -0.23185784922E+03  0.24866290600E+03  0.39649087093E+03  0.18800000000E+03 0.  0.
<mgrwt>
<rscale>  0 0.65715956E+03</rscale>
<asrwt>0</asrwt>
<pdfrwt beam="1">  1        1 0.68701552E-01 0.65715956E+03</pdfrwt>
<pdfrwt beam="2">  1       -1 0.32071483E-01 0.65715956E+03</pdfrwt>
<totfact> 0.47372556E+02</totfact>
</mgrwt>
</event>
<event>
 4    1  0.1578814E-005  0.5371520E+03  0.7818608E-02  0.1004512E+00
         -1   -1    0    0    0  501 -0.00000000000E+00  0.00000000000E+00  0.11290822801E+03  0.11290822812E+03  0.50400000000E-02 0. -1.
          1   -1    0    0  501    0  0.00000000000E+00 -0.00000000000E+00 -0.63886448991E+03  0.63886448993E+03  0.50400000000E-02 0.  1.
    5000001    1    1    2    0    0  0.18407621224E+03  0.41388224444E+02 -0.31129861300E+03  0.40969240107E+03  0.18800000000E+03 0.  0.
   -5000001    1    1    2    0    0 -0.18407621224E+03 -0.41388224444E+02 -0.21465764890E+03  0.34208031698E+03  0.18800000000E+03 0.  0.
<mgrwt>
<rscale>  0 0.53715196E+03</rscale>
<asrwt>0</asrwt>
<pdfrwt beam="1">  1        1 0.91266354E-01 0.53715196E+03</pdfrwt>
<pdfrwt beam="2">  1       -1 0.16129747E-01 0.53715196E+03</pdfrwt>
<totfact> 0.10217562E+03</totfact>
</mgrwt>
</event>
<event>
 4    1  0.1578814E-005  0.5593951E+03  0.7818608E-02  0.9993424E-01
          1   -1    0    0  501    0  0.00000000000E+00  0.00000000000E+00  0.23875729194E+04  0.23875729194E+04  0.50400000000E-02 0.  1.
         -1   -1    0    0    0  501 -0.00000000000E+00 -0.00000000000E+00 -0.32765789510E+02  0.32765789897E+02  0.50400000000E-02 0. -1.
    5000001    1    1    2    0    0  0.46738737359E+02 -0.17915545841E+03  0.77603239187E+03  0.81966545681E+03  0.18800000000E+03 0.  0.
   -5000001    1    1    2    0    0 -0.46738737359E+02  0.17915545841E+03  0.15787747380E+04  0.16006732525E+04  0.18800000000E+03 0.  0.
<mgrwt>
<rscale>  0 0.55939507E+03</rscale>
<asrwt>0</asrwt>
<pdfrwt beam="1">  1        1 0.34108182E+00 0.55939507E+03</pdfrwt>
<pdfrwt beam="2">  1       -1 0.46808275E-02 0.55939507E+03</pdfrwt>
<totfact> 0.45776569E+02</totfact>
</mgrwt>
</event>
<event>
 4    1  0.1578814E-005  0.5852876E+03  0.7818608E-02  0.9936409E-01
          1   -1    0    0  501    0  0.00000000000E+00  0.00000000000E+00  0.25842409669E+04  0.25842409669E+04  0.50400000000E-02 0.  1.
         -1   -1    0    0    0  501 -0.00000000000E+00 -0.00000000000E+00 -0.33139476649E+02  0.33139477033E+02  0.50400000000E-02 0. -1.
    5000001    1    1    2    0    0 -0.12935016468E+03  0.14908377748E+03  0.79935658762E+03  0.84455455240E+03  0.18800000000E+03 0.  0.
   -5000001    1    1    2    0    0  0.12935016468E+03 -0.14908377748E+03  0.17517449026E+04  0.17728258915E+04  0.18800000000E+03 0.  0.
<mgrwt>
<rscale>  0 0.58528760E+03</rscale>
<asrwt>0</asrwt>
<pdfrwt beam="1">  1        1 0.36917746E+00 0.58528760E+03</pdfrwt>
<pdfrwt beam="2">  1       -1 0.47342087E-02 0.58528760E+03</pdfrwt>
<totfact> 0.33861750E+02</totfact>
</mgrwt>
</event>
<event>
 4    1  0.1578814E-005  0.4945961E+03  0.7818608E-02  0.1015199E+00
         -1   -1    0    0    0  501 -0.00000000000E+00  0.00000000000E+00  0.72123824570E+03  0.72123824572E+03  0.50400000000E-02 0.  1.
          1   -1    0    0  501    0  0.00000000000E+00 -0.00000000000E+00 -0.84793514183E+02  0.84793514333E+02  0.50400000000E-02 0. -1.
    5000001    1    1    2    0    0 -0.12937393070E+03 -0.85810921531E+02  0.38563658492E+03  0.45624631925E+03  0.18800000000E+03 0.  0.
   -5000001    1    1    2    0    0  0.12937393070E+03  0.85810921531E+02  0.25080814660E+03  0.34978544080E+03  0.18800000000E+03 0.  0.
<mgrwt>
<rscale>  0 0.49459610E+03</rscale>
<asrwt>0</asrwt>
<pdfrwt beam="1">  1        1 0.12113359E-01 0.49459610E+03</pdfrwt>
<pdfrwt beam="2">  1       -1 0.10303404E+00 0.49459610E+03</pdfrwt>
<totfact> 0.46587653E+02</totfact>
</mgrwt>
</event>
<event>
 4    1  0.1578814E-005  0.5708423E+03  0.7818608E-02  0.9967816E-01
          1   -1    0    0  501    0  0.00000000000E+00  0.00000000000E+00  0.99211208546E+02  0.99211208674E+02  0.50400000000E-02 0. -1.
         -1   -1    0    0    0  501 -0.00000000000E+00 -0.00000000000E+00 -0.82112940130E+03  0.82112940131E+03  0.50400000000E-02 0.  1.
    5000001    1    1    2    0    0  0.29436360790E+02 -0.20684207660E+03 -0.28081394414E+03  0.39730418474E+03  0.18800000000E+03 0.  0.
   -5000001    1    1    2    0    0 -0.29436360790E+02  0.20684207660E+03 -0.44110424862E+03  0.52303642525E+03  0.18800000000E+03 0.  0.
<mgrwt>
<rscale>  0 0.57084233E+03</rscale>
<asrwt>0</asrwt>
<pdfrwt beam="1">  1        1 0.14173030E-01 0.57084233E+03</pdfrwt>
<pdfrwt beam="2">  1       -1 0.11730420E+00 0.57084233E+03</pdfrwt>
<totfact> 0.27755145E+02</totfact>
</mgrwt>
</event>
<event>
 4    1  0.1578814E-005  0.9086074E+03  0.7818608E-02  0.9414885E-01
          1   -1    0    0  501    0  0.00000000000E+00  0.00000000000E+00  0.16816162869E+03  0.16816162876E+03  0.50400000000E-02 0.  1.
         -1   -1    0    0    0  501 -0.00000000000E+00 -0.00000000000E+00 -0.12273421620E+04  0.12273421620E+04  0.50400000000E-02 0. -1.
    5000001    1    1    2    0    0 -0.28253757341E+03  0.60317495041E+02 -0.98412032861E+03  0.10427379833E+04  0.18800000000E+03 0.  0.
   -5000001    1    1    2    0    0  0.28253757341E+03 -0.60317495041E+02 -0.75060204679E+02  0.35276580747E+03  0.18800000000E+03 0.  0.
<mgrwt>
<rscale>  0 0.90860741E+03</rscale>
<asrwt>0</asrwt>
<pdfrwt beam="1">  1        1 0.24023090E-01 0.90860741E+03</pdfrwt>
<pdfrwt beam="2">  1       -1 0.17533459E+00 0.90860741E+03</pdfrwt>
<totfact> 0.46730943E+01</totfact>
</mgrwt>
</event>
<event>
 4    1  0.1578814E-005  0.5898946E+03  0.7818608E-02  0.9926596E-01
         -1   -1    0    0    0  501 -0.00000000000E+00  0.00000000000E+00  0.55522740313E+03  0.55522740315E+03  0.50400000000E-02 0. -1.
          1   -1    0    0  501    0  0.00000000000E+00 -0.00000000000E+00 -0.15668159372E+03  0.15668159380E+03  0.50400000000E-02 0.  1.
    5000001    1    1    2    0    0 -0.52860419240E+02 -0.22061879757E+03  0.18294542665E+03  0.34681393699E+03  0.18800000000E+03 0.  0.
   -5000001    1    1    2    0    0  0.52860419240E+02  0.22061879757E+03  0.21560038276E+03  0.36509505996E+03  0.18800000000E+03 0.  0.
<mgrwt>
<rscale>  0 0.58989462E+03</rscale>
<asrwt>0</asrwt>
<pdfrwt beam="1">  1        1 0.22383085E-01 0.58989462E+03</pdfrwt>
<pdfrwt beam="2">  1       -1 0.79318200E-01 0.58989462E+03</pdfrwt>
<totfact> 0.36385367E+02</totfact>
</mgrwt>
</event>
<event>
 4    1  0.1578814E-005  0.7408757E+03  0.7818608E-02  0.9649775E-01
          1   -1    0    0  501    0  0.00000000000E+00  0.00000000000E+00  0.17887295363E+04  0.17887295363E+04  0.50400000000E-02 0.  1.
         -1   -1    0    0    0  501 -0.00000000000E+00 -0.00000000000E+00 -0.76716012861E+02  0.76716013027E+02  0.50400000000E-02 0. -1.
    5000001    1    1    2    0    0 -0.24908821080E+03  0.18191151233E+03  0.10627725712E+04  0.11224821928E+04  0.18800000000E+03 0.  0.
   -5000001    1    1    2    0    0  0.24908821080E+03 -0.18191151233E+03  0.64924095227E+03  0.74296335655E+03  0.18800000000E+03 0.  0.
<mgrwt>
<rscale>  0 0.74087569E+03</rscale>
<asrwt>0</asrwt>
<pdfrwt beam="1">  1        1 0.25553278E+00 0.74087569E+03</pdfrwt>
<pdfrwt beam="2">  1       -1 0.10959431E-01 0.74087569E+03</pdfrwt>
<totfact> 0.28252926E+02</totfact>
</mgrwt>
</event>
<event>
 4    1  0.1578814E-005  0.6053019E+03  0.7818608E-02  0.9894467E-01
          1   -1    0    0  501    0  0.00000000000E+00  0.00000000000E+00  0.51617838091E+03  0.51617838093E+03  0.50400000000E-02 0.  1.
         -1   -1    0    0    0  501 -0.00000000000E+00 -0.00000000000E+00 -0.17745338808E+03  0.17745338815E+03  0.50400000000E-02 0. -1.
    5000001    1    1    2    0    0 -0.59936478753E+02 -0.22944237521E+03  0.17414494703E+03  0.34915132479E+03  0.18800000000E+03 0.  0.
   -5000001    1    1    2    0    0  0.59936478753E+02  0.22944237521E+03  0.16458004580E+03  0.34448044429E+03  0.18800000000E+03 0.  0.
<mgrwt>
<rscale>  0 0.60530192E+03</rscale>
<asrwt>0</asrwt>
<pdfrwt beam="1">  1        1 0.73739770E-01 0.60530192E+03</pdfrwt>
<pdfrwt beam="2">  1       -1 0.25350483E-01 0.60530192E+03</pdfrwt>
<totfact> 0.64721945E+02</totfact>
</mgrwt>
</event>
<event>
 4    1  0.1578814E-005  0.4652885E+03  0.7818608E-02  0.1023258E+00
          1   -1    0    0  501    0  0.00000000000E+00  0.00000000000E+00  0.10019246340E+04  0.10019246340E+04  0.50400000000E-02 0.  1.
         -1   -1    0    0    0  501 -0.00000000000E+00 -0.00000000000E+00 -0.54019370440E+02  0.54019370675E+02  0.50400000000E-02 0. -1.
    5000001    1    1    2    0    0  0.90309803121E+01  0.10782047772E+03  0.28309662938E+03  0.35664340116E+03  0.18800000000E+03 0.  0.
   -5000001    1    1    2    0    0 -0.90309803121E+01 -0.10782047772E+03  0.66480863421E+03  0.69930060356E+03  0.18800000000E+03 0.  0.
<mgrwt>
<rscale>  0 0.46528846E+03</rscale>
<asrwt>0</asrwt>
<pdfrwt beam="1">  1        1 0.14313208E+00 0.46528846E+03</pdfrwt>
<pdfrwt beam="2">  1       -1 0.77170533E-02 0.46528846E+03</pdfrwt>
<totfact> 0.16452243E+03</totfact>
</mgrwt>
</event>
<event>
 4    1  0.1578814E-005  0.5737683E+03  0.7818608E-02  0.9961375E-01
         -1   -1    0    0    0  501 -0.00000000000E+00  0.00000000000E+00  0.25071777680E+03  0.25071777685E+03  0.50400000000E-02 0. -1.
          1   -1    0    0  501    0  0.00000000000E+00 -0.00000000000E+00 -0.32826751730E+03  0.32826751734E+03  0.50400000000E-02 0.  1.
    5000001    1    1    2    0    0  0.96718898517E+02  0.16626098938E+03 -0.13948837866E+03  0.30298229272E+03  0.18800000000E+03 0.  0.
   -5000001    1    1    2    0    0 -0.96718898517E+02 -0.16626098938E+03  0.61938638166E+02  0.27600300147E+03  0.18800000000E+03 0.  0.
<mgrwt>
<rscale>  0 0.57376825E+03</rscale>
<asrwt>0</asrwt>
<pdfrwt beam="1">  1        1 0.46895359E-01 0.57376825E+03</pdfrwt>
<pdfrwt beam="2">  1       -1 0.35816825E-01 0.57376825E+03</pdfrwt>
<totfact> 0.64421510E+02</totfact>
</mgrwt>
</event>
<event>
 4    1  0.1578814E-005  0.5050373E+03  0.7818608E-02  0.1012472E+00
         -1   -1    0    0    0  501 -0.00000000000E+00  0.00000000000E+00  0.29929380802E+03  0.29929380806E+03  0.50400000000E-02 0. -1.
          1   -1    0    0  501    0  0.00000000000E+00 -0.00000000000E+00 -0.21305374439E+03  0.21305374445E+03  0.50400000000E-02 0.  1.
    5000001    1    1    2    0    0  0.11513025603E+03  0.10275635346E+03 -0.25743467474E+02  0.24458244039E+03  0.18800000000E+03 0.  0.
   -5000001    1    1    2    0    0 -0.11513025603E+03 -0.10275635346E+03  0.11198353110E+03  0.26776511212E+03  0.18800000000E+03 0.  0.
<mgrwt>
<rscale>  0 0.50503729E+03</rscale>
<asrwt>0</asrwt>
<pdfrwt beam="1">  1        1 0.30436249E-01 0.50503729E+03</pdfrwt>
<pdfrwt beam="2">  1       -1 0.42756258E-01 0.50503729E+03</pdfrwt>
<totfact> 0.81680392E+02</totfact>
</mgrwt>
</event>
<event>
 4    1  0.1578814E-005  0.6674591E+03  0.7818608E-02  0.9774559E-01
          1   -1    0    0  501    0  0.00000000000E+00  0.00000000000E+00  0.16976320994E+04  0.16976320994E+04  0.50400000000E-02 0.  1.
         -1   -1    0    0    0  501 -0.00000000000E+00 -0.00000000000E+00 -0.65606321912E+02  0.65606322105E+02  0.50400000000E-02 0. -1.
    5000001    1    1    2    0    0 -0.25918019426E+03 -0.49216741541E+02  0.60410270630E+03  0.68547847559E+03  0.18800000000E+03 0.  0.
   -5000001    1    1    2    0    0  0.25918019426E+03  0.49216741541E+02  0.10279230712E+04  0.10777599459E+04  0.18800000000E+03 0.  0.
<mgrwt>
<rscale>  0 0.66745906E+03</rscale>
<asrwt>0</asrwt>
<pdfrwt beam="1">  1        1 0.24251886E+00 0.66745906E+03</pdfrwt>
<pdfrwt beam="2">  1       -1 0.93723323E-02 0.66745906E+03</pdfrwt>
<totfact> 0.41492035E+02</totfact>
</mgrwt>
</event>
<event>
 4    1  0.1578814E-005  0.9697937E+03  0.7818608E-02  0.9342309E-01
          1   -1    0    0  501    0  0.00000000000E+00  0.00000000000E+00  0.22918869441E+04  0.22918869441E+04  0.50400000000E-02 0. -1.
         -1   -1    0    0    0  501 -0.00000000000E+00 -0.00000000000E+00 -0.10259012459E+03  0.10259012471E+03  0.50400000000E-02 0.  1.
    5000001    1    1    2    0    0  0.41092612499E+03 -0.16864549849E+03  0.12175912147E+04  0.13096464982E+04  0.18800000000E+03 0.  0.
   -5000001    1    1    2    0    0 -0.41092612499E+03  0.16864549849E+03  0.97170560489E+03  0.10848305706E+04  0.18800000000E+03 0.  0.
<mgrwt>
<rscale>  0 0.96979373E+03</rscale>
<asrwt>0</asrwt>
<pdfrwt beam="1">  1        1 0.32741239E+00 0.96979373E+03</pdfrwt>
<pdfrwt beam="2">  1       -1 0.14655733E-01 0.96979373E+03</pdfrwt>
<totfact> 0.84356110E+01</totfact>
</mgrwt>
</event>
<event>
 4    1  0.1578814E-005  0.7098996E+03  0.7818608E-02  0.9700451E-01
         -1   -1    0    0    0  501 -0.00000000000E+00  0.00000000000E+00  0.12936023608E+03  0.12936023617E+03  0.50400000000E-02 0. -1.
          1   -1    0    0  501    0  0.00000000000E+00 -0.00000000000E+00 -0.97394198810E+03  0.97394198811E+03  0.50400000000E-02 0.  1.
    5000001    1    1    2    0    0 -0.29420969461E+03  0.42421133544E+02 -0.49660650767E+03  0.60853999083E+03  0.18800000000E+03 0.  0.
   -5000001    1    1    2    0    0  0.29420969461E+03 -0.42421133544E+02 -0.34797524435E+03  0.49476223346E+03  0.18800000000E+03 0.  0.
<mgrwt>
<rscale>  0 0.70989961E+03</rscale>
<asrwt>0</asrwt>
<pdfrwt beam="1">  1        1 0.13913456E+00 0.70989961E+03</pdfrwt>
<pdfrwt beam="2">  1       -1 0.18480034E-01 0.70989961E+03</pdfrwt>
<totfact> 0.42532626E+02</totfact>
</mgrwt>
</event>
<event>
 4    1  0.1578814E-005  0.4831697E+03  0.7818608E-02  0.1018268E+00
          1   -1    0    0  501    0  0.00000000000E+00  0.00000000000E+00  0.37301266286E+03  0.37301266290E+03  0.50400000000E-02 0.  1.
         -1   -1    0    0    0  501 -0.00000000000E+00 -0.00000000000E+00 -0.15646450927E+03  0.15646450935E+03  0.50400000000E-02 0. -1.
    5000001    1    1    2    0    0  0.13415138025E+03 -0.91343428159E+01  0.18528928043E+03  0.29623663933E+03  0.18800000000E+03 0.  0.
   -5000001    1    1    2    0    0 -0.13415138025E+03  0.91343428159E+01  0.31258873171E+02  0.23324053291E+03  0.18800000000E+03 0.  0.
<mgrwt>
<rscale>  0 0.48316971E+03</rscale>
<asrwt>0</asrwt>
<pdfrwt beam="1">  1        1 0.53287523E-01 0.48316971E+03</pdfrwt>
<pdfrwt beam="2">  1       -1 0.22352073E-01 0.48316971E+03</pdfrwt>
<totfact> 0.12298598E+03</totfact>
</mgrwt>
</event>
<event>
 4    1  0.1578814E-005  0.9646906E+03  0.7818608E-02  0.9348142E-01
          1   -1    0    0  501    0  0.00000000000E+00  0.00000000000E+00  0.11778032094E+03  0.11778032104E+03  0.50400000000E-02 0.  1.
         -1   -1    0    0    0  501 -0.00000000000E+00 -0.00000000000E+00 -0.19753466895E+04  0.19753466895E+04  0.50400000000E-02 0. -1.
    5000001    1    1    2    0    0 -0.35287381510E+03 -0.16688555122E+03 -0.46880740530E+03  0.63835342864E+03  0.18800000000E+03 0.  0.
   -5000001    1    1    2    0    0  0.35287381510E+03  0.16688555122E+03 -0.13887589632E+04  0.14547735819E+04  0.18800000000E+03 0.  0.
<mgrwt>
<rscale>  0 0.96469056E+03</rscale>
<asrwt>0</asrwt>
<pdfrwt beam="1">  1        1 0.16825761E-01 0.96469056E+03</pdfrwt>
<pdfrwt beam="2">  1       -1 0.28219236E+00 0.96469056E+03</pdfrwt>
<totfact> 0.14478672E+01</totfact>
</mgrwt>
</event>
<event>
 4    1  0.1578814E-005  0.5618112E+03  0.7818608E-02  0.9987965E-01
          1   -1    0    0  501    0  0.00000000000E+00  0.00000000000E+00  0.92400992815E+02  0.92400992952E+02  0.50400000000E-02 0.  1.
         -1   -1    0    0    0  501 -0.00000000000E+00 -0.00000000000E+00 -0.85397307137E+03  0.85397307138E+03  0.50400000000E-02 0. -1.
    5000001    1    1    2    0    0 -0.68085223278E+02  0.11466692470E+03 -0.11032003107E+03  0.25553592801E+03  0.18800000000E+03 0.  0.
   -5000001    1    1    2    0    0  0.68085223278E+02 -0.11466692470E+03 -0.65125204749E+03  0.69083813633E+03  0.18800000000E+03 0.  0.
<mgrwt>
<rscale>  0 0.56181121E+03</rscale>
<asrwt>0</asrwt>
<pdfrwt beam="1">  1        1 0.13200142E-01 0.56181121E+03</pdfrwt>
<pdfrwt beam="2">  1       -1 0.12199615E+00 0.56181121E+03</pdfrwt>
<totfact> 0.27790049E+02</totfact>
</mgrwt>
</event>
<event>
 4    1  0.1578814E-005  0.8519273E+03  0.7818608E-02  0.9487754E-01
         -1   -1    0    0    0  501 -0.00000000000E+00  0.00000000000E+00  0.15708820004E+03  0.15708820013E+03  0.50400000000E-02 0.  1.
          1   -1    0    0  501    0  0.00000000000E+00 -0.00000000000E+00 -0.11550519390E+04  0.11550519390E+04  0.50400000000E-02 0. -1.
    5000001    1    1    2    0    0  0.35856249929E+03 -0.14979833239E+02 -0.70161983275E+03  0.81018877492E+03  0.18800000000E+03 0.  0.
   -5000001    1    1    2    0    0 -0.35856249929E+03  0.14979833239E+02 -0.29634390622E+03  0.50195136423E+03  0.18800000000E+03 0.  0.
<mgrwt>
<rscale>  0 0.85192730E+03</rscale>
<asrwt>0</asrwt>
<pdfrwt beam="1">  1        1 0.16500741E+00 0.85192730E+03</pdfrwt>
<pdfrwt beam="2">  1       -1 0.22441172E-01 0.85192730E+03</pdfrwt>
<totfact> 0.22558611E+02</totfact>
</mgrwt>
</event>
<event>
 4    1  0.1578814E-005  0.4674187E+03  0.7818608E-02  0.1022651E+00
          1   -1    0    0  501    0  0.00000000000E+00  0.00000000000E+00  0.22916572814E+03  0.22916572820E+03  0.50400000000E-02 0.  1.
         -1   -1    0    0    0  501 -0.00000000000E+00 -0.00000000000E+00 -0.23834303814E+03  0.23834303819E+03  0.50400000000E-02 0. -1.
    5000001    1    1    2    0    0 -0.64646001645E+02 -0.12282812416E+03 -0.77833739349E+01  0.23381709630E+03  0.18800000000E+03 0.  0.
   -5000001    1    1    2    0    0  0.64646001645E+02  0.12282812416E+03 -0.13939360597E+01  0.23369167009E+03  0.18800000000E+03 0.  0.
<mgrwt>
<rscale>  0 0.46741868E+03</rscale>
<asrwt>0</asrwt>
<pdfrwt beam="1">  1        1 0.32737961E-01 0.46741868E+03</pdfrwt>
<pdfrwt beam="2">  1       -1 0.34049006E-01 0.46741868E+03</pdfrwt>
<totfact> 0.11179408E+03</totfact>
</mgrwt>
</event>
<event>
 4    1  0.1578814E-005  0.3997073E+03  0.7818608E-02  0.1043881E+00
         -1   -1    0    0    0  501 -0.00000000000E+00  0.00000000000E+00  0.44381111514E+03  0.44381111517E+03  0.50400000000E-02 0. -1.
          1   -1    0    0  501    0  0.00000000000E+00 -0.00000000000E+00 -0.89996574693E+02  0.89996574834E+02  0.50400000000E-02 0.  1.
    5000001    1    1    2    0    0  0.64089280083E+02  0.18296116915E+02  0.19354996280E+03  0.27793483376E+03  0.18800000000E+03 0.  0.
   -5000001    1    1    2    0    0 -0.64089280083E+02 -0.18296116915E+02  0.16026457765E+03  0.25587285625E+03  0.18800000000E+03 0.  0.
<mgrwt>
<rscale>  0 0.39970729E+03</rscale>
<asrwt>0</asrwt>
<pdfrwt beam="1">  1        1 0.12856653E-01 0.39970729E+03</pdfrwt>
<pdfrwt beam="2">  1       -1 0.63401588E-01 0.39970729E+03</pdfrwt>
<totfact> 0.11997548E+03</totfact>
</mgrwt>
</event>
<event>
 4    1  0.1578814E-005  0.8211153E+03  0.7818608E-02  0.9529947E-01
          1   -1    0    0  501    0  0.00000000000E+00  0.00000000000E+00  0.18253207658E+03  0.18253207665E+03  0.50400000000E-02 0.  1.
         -1   -1    0    0    0  501 -0.00000000000E+00 -0.00000000000E+00 -0.92344089052E+03  0.92344089054E+03  0.50400000000E-02 0. -1.
    5000001    1    1    2    0    0  0.30192469650E+03  0.83073380858E+02 -0.62299254066E+03  0.72216578061E+03  0.18800000000E+03 0.  0.
   -5000001    1    1    2    0    0 -0.30192469650E+03 -0.83073380858E+02 -0.11791627329E+03  0.38380718658E+03  0.18800000000E+03 0.  0.
<mgrwt>
<rscale>  0 0.82111530E+03</rscale>
<asrwt>0</asrwt>
<pdfrwt beam="1">  1        1 0.26076011E-01 0.82111530E+03</pdfrwt>
<pdfrwt beam="2">  1       -1 0.13192013E+00 0.82111530E+03</pdfrwt>
<totfact> 0.91360755E+01</totfact>
</mgrwt>
</event>
<event>
 4    1  0.1578814E-005  0.6164906E+03  0.7818608E-02  0.9871772E-01
          1   -1    0    0  501    0  0.00000000000E+00  0.00000000000E+00  0.87324235474E+03  0.87324235476E+03  0.50400000000E-02 0.  1.
         -1   -1    0    0    0  501 -0.00000000000E+00 -0.00000000000E+00 -0.10880732282E+03  0.10880732294E+03  0.50400000000E-02 0. -1.
    5000001    1    1    2    0    0 -0.47054952924E+01  0.23053325221E+03  0.51068067534E+03  0.59102155141E+03  0.18800000000E+03 0.  0.
   -5000001    1    1    2    0    0  0.47054952924E+01 -0.23053325221E+03  0.25375435658E+03  0.39102812629E+03  0.18800000000E+03 0.  0.
<mgrwt>
<rscale>  0 0.61649059E+03</rscale>
<asrwt>0</asrwt>
<pdfrwt beam="1">  1        1 0.12474891E+00 0.61649059E+03</pdfrwt>
<pdfrwt beam="2">  1       -1 0.15543903E-01 0.61649059E+03</pdfrwt>
<totfact> 0.67790205E+02</totfact>
</mgrwt>
</event>
<event>
 4    1  0.1578814E-005  0.7217237E+03  0.7818608E-02  0.9680786E-01
         -1   -1    0    0    0  501 -0.00000000000E+00  0.00000000000E+00  0.12348067913E+03  0.12348067924E+03  0.50400000000E-02 0. -1.
          1   -1    0    0  501    0  0.00000000000E+00 -0.00000000000E+00 -0.10545883304E+04  0.10545883305E+04  0.50400000000E-02 0.  1.
    5000001    1    1    2    0    0 -0.27992429813E+03  0.82488056354E+02 -0.62644413863E+03  0.71619700568E+03  0.18800000000E+03 0.  0.
   -5000001    1    1    2    0    0  0.27992429813E+03 -0.82488056354E+02 -0.30466351268E+03  0.46187200401E+03  0.18800000000E+03 0.  0.
<mgrwt>
<rscale>  0 0.72172372E+03</rscale>
<asrwt>0</asrwt>
<pdfrwt beam="1">  1        1 0.15065547E+00 0.72172372E+03</pdfrwt>
<pdfrwt beam="2">  1       -1 0.17640098E-01 0.72172372E+03</pdfrwt>
<totfact> 0.40015575E+02</totfact>
</mgrwt>
</event>
<event>
 4    1  0.1578814E-005  0.6455260E+03  0.7818608E-02  0.9815211E-01
          1   -1    0    0  501    0  0.00000000000E+00  0.00000000000E+00  0.51978008047E+03  0.51978008049E+03  0.50400000000E-02 0.  1.
         -1   -1    0    0    0  501 -0.00000000000E+00 -0.00000000000E+00 -0.20042314699E+03  0.20042314705E+03  0.50400000000E-02 0. -1.
    5000001    1    1    2    0    0  0.75044512533E+02 -0.24866189243E+03  0.11842010775E+03  0.34180657911E+03  0.18800000000E+03 0.  0.
   -5000001    1    1    2    0    0 -0.75044512533E+02  0.24866189243E+03  0.20093682573E+03  0.37839664843E+03  0.18800000000E+03 0.  0.
<mgrwt>
<rscale>  0 0.64552602E+03</rscale>
<asrwt>0</asrwt>
<pdfrwt beam="1">  1        1 0.74254297E-01 0.64552602E+03</pdfrwt>
<pdfrwt beam="2">  1       -1 0.28631878E-01 0.64552602E+03</pdfrwt>
<totfact> 0.51985823E+02</totfact>
</mgrwt>
</event>
<event>
 4    1  0.1578814E-005  0.4717981E+03  0.7818608E-02  0.1021414E+00
          1   -1    0    0  501    0  0.00000000000E+00  0.00000000000E+00  0.64638592841E+03  0.64638592843E+03  0.50400000000E-02 0.  1.
         -1   -1    0    0    0  501 -0.00000000000E+00 -0.00000000000E+00 -0.86091540900E+02  0.86091541048E+02  0.50400000000E-02 0. -1.
    5000001    1    1    2    0    0  0.13604229478E+03 -0.28934561086E+02  0.32824149114E+03  0.40302753169E+03  0.18800000000E+03 0.  0.
   -5000001    1    1    2    0    0 -0.13604229478E+03  0.28934561086E+02  0.23205289637E+03  0.32944993779E+03  0.18800000000E+03 0.  0.
<mgrwt>
<rscale>  0 0.47179810E+03</rscale>
<asrwt>0</asrwt>
<pdfrwt beam="1">  1        1 0.92340848E-01 0.47179810E+03</pdfrwt>
<pdfrwt beam="2">  1       -1 0.12298791E-01 0.47179810E+03</pdfrwt>
<totfact> 0.15540521E+03</totfact>
</mgrwt>
</event>
<event>
 4    1  0.1578814E-005  0.1706903E+04  0.7818608E-02  0.8757437E-01
         -1   -1    0    0    0  501 -0.00000000000E+00  0.00000000000E+00  0.33721747725E+03  0.33721747729E+03  0.50400000000E-02 0. -1.
          1   -1    0    0  501    0  0.00000000000E+00 -0.00000000000E+00 -0.21599695033E+04  0.21599695033E+04  0.50400000000E-02 0.  1.
    5000001    1    1    2    0    0 -0.39635141204E+03 -0.53360956764E+03 -0.17812336566E+03  0.71337616017E+03  0.18800000000E+03 0.  0.
   -5000001    1    1    2    0    0  0.39635141204E+03  0.53360956764E+03 -0.16446286604E+04  0.17838108204E+04  0.18800000000E+03 0.  0.
<mgrwt>
<rscale>  0 0.17069030E+04</rscale>
<asrwt>0</asrwt>
<pdfrwt beam="1">  1        1 0.30856706E+00 0.17069030E+04</pdfrwt>
<pdfrwt beam="2">  1       -1 0.48173927E-01 0.17069030E+04</pdfrwt>
<totfact> 0.12132546E+01</totfact>
</mgrwt>
</event>
<event>
 4    1  0.1578814E-005  0.5622992E+03  0.7818608E-02  0.9986866E-01
          1   -1    0    0  501    0  0.00000000000E+00  0.00000000000E+00  0.24675906792E+03  0.24675906797E+03  0.50400000000E-02 0.  1.
         -1   -1    0    0    0  501 -0.00000000000E+00 -0.00000000000E+00 -0.32033309245E+03  0.32033309249E+03  0.50400000000E-02 0. -1.
    5000001    1    1    2    0    0  0.35530535199E+02 -0.18795929010E+03 -0.12182645879E+03  0.29457902119E+03  0.18800000000E+03 0.  0.
   -5000001    1    1    2    0    0 -0.35530535199E+02  0.18795929010E+03  0.48252434263E+02  0.27251313927E+03  0.18800000000E+03 0.  0.
<mgrwt>
<rscale>  0 0.56229919E+03</rscale>
<asrwt>0</asrwt>
<pdfrwt beam="1">  1        1 0.35251296E-01 0.56229919E+03</pdfrwt>
<pdfrwt beam="2">  1       -1 0.45761870E-01 0.56229919E+03</pdfrwt>
<totfact> 0.59641590E+02</totfact>
</mgrwt>
</event>
<event>
 4    1  0.1578814E-005  0.6301628E+03  0.7818608E-02  0.9844731E-01
         -1   -1    0    0    0  501 -0.00000000000E+00  0.00000000000E+00  0.17908903949E+03  0.17908903956E+03  0.50400000000E-02 0.  1.
          1   -1    0    0  501    0  0.00000000000E+00 -0.00000000000E+00 -0.55434039780E+03  0.55434039783E+03  0.50400000000E-02 0. -1.
    5000001    1    1    2    0    0 -0.12262549194E+03 -0.20751518075E+03 -0.98738027615E+02  0.32123629872E+03  0.18800000000E+03 0.  0.
   -5000001    1    1    2    0    0  0.12262549194E+03  0.20751518075E+03 -0.27651333069E+03  0.41219313867E+03  0.18800000000E+03 0.  0.
<mgrwt>
<rscale>  0 0.63016280E+03</rscale>
<asrwt>0</asrwt>
<pdfrwt beam="1">  1        1 0.79191485E-01 0.63016280E+03</pdfrwt>
<pdfrwt beam="2">  1       -1 0.25584149E-01 0.63016280E+03</pdfrwt>
<totfact> 0.57769073E+02</totfact>
</mgrwt>
</event>
<event>
 4    1  0.1578814E-005  0.6255700E+03  0.7818608E-02  0.9853732E-01
         -1   -1    0    0    0  501 -0.00000000000E+00  0.00000000000E+00  0.31572948049E+02  0.31572948451E+02  0.50400000000E-02 0. -1.
          1   -1    0    0  501    0  0.00000000000E+00 -0.00000000000E+00 -0.30986793481E+04  0.30986793481E+04  0.50400000000E-02 0.  1.
    5000001    1    1    2    0    0  0.15556727376E+03 -0.10314396227E+02 -0.25113256507E+04  0.25231742087E+04  0.18800000000E+03 0.  0.
   -5000001    1    1    2    0    0 -0.15556727376E+03  0.10314396227E+02 -0.55578074930E+03  0.60707808783E+03  0.18800000000E+03 0.  0.
<mgrwt>
<rscale>  0 0.62556996E+03</rscale>
<asrwt>0</asrwt>
<pdfrwt beam="1">  1        1 0.44266828E+00 0.62556996E+03</pdfrwt>
<pdfrwt beam="2">  1       -1 0.45104232E-02 0.62556996E+03</pdfrwt>
<totfact> 0.17042085E+02</totfact>
</mgrwt>
</event>
<event>
 4    1  0.1578814E-005  0.5771976E+03  0.7818608E-02  0.9953877E-01
         -1   -1    0    0    0  501 -0.00000000000E+00  0.00000000000E+00  0.61094057655E+03  0.61094057657E+03  0.50400000000E-02 0.  1.
          1   -1    0    0  501    0  0.00000000000E+00 -0.00000000000E+00 -0.13632957576E+03  0.13632957585E+03  0.50400000000E-02 0. -1.
    5000001    1    1    2    0    0 -0.14515192347E+03 -0.16368101934E+03  0.24922141303E+03  0.38120318689E+03  0.18800000000E+03 0.  0.
   -5000001    1    1    2    0    0  0.14515192347E+03  0.16368101934E+03  0.22538958776E+03  0.36606696553E+03  0.18800000000E+03 0.  0.
<mgrwt>
<rscale>  0 0.57719761E+03</rscale>
<asrwt>0</asrwt>
<pdfrwt beam="1">  1        1 0.19475654E-01 0.57719761E+03</pdfrwt>
<pdfrwt beam="2">  1       -1 0.87277225E-01 0.57719761E+03</pdfrwt>
<totfact> 0.35631481E+02</totfact>
</mgrwt>
</event>
<event>
 4    1  0.1578814E-005  0.4789482E+03  0.7818608E-02  0.1019425E+00
         -1   -1    0    0    0  501 -0.00000000000E+00  0.00000000000E+00  0.99636773061E+02  0.99636773188E+02  0.50400000000E-02 0.  1.
          1   -1    0    0  501    0  0.00000000000E+00 -0.00000000000E+00 -0.57556895960E+03  0.57556895962E+03  0.50400000000E-02 0. -1.
    5000001    1    1    2    0    0  0.16129293810E+02 -0.10825420446E+03 -0.37911693074E+03  0.43709584084E+03  0.18800000000E+03 0.  0.
   -5000001    1    1    2    0    0 -0.16129293810E+02  0.10825420446E+03 -0.96815255801E+02  0.23810989198E+03  0.18800000000E+03 0.  0.
<mgrwt>
<rscale>  0 0.47894816E+03</rscale>
<asrwt>0</asrwt>
<pdfrwt beam="1">  1        1 0.82224135E-01 0.47894816E+03</pdfrwt>
<pdfrwt beam="2">  1       -1 0.14233825E-01 0.47894816E+03</pdfrwt>
<totfact> 0.14472207E+03</totfact>
</mgrwt>
</event>
<event>
 4    1  0.1578814E-005  0.4363747E+03  0.7818608E-02  0.1031865E+00
          1   -1    0    0  501    0  0.00000000000E+00  0.00000000000E+00  0.30995085477E+03  0.30995085481E+03  0.50400000000E-02 0.  1.
         -1   -1    0    0    0  501 -0.00000000000E+00 -0.00000000000E+00 -0.15359119718E+03  0.15359119727E+03  0.50400000000E-02 0. -1.
    5000001    1    1    2    0    0 -0.42685395170E+02 -0.74936487848E+02  0.43992028471E+01  0.20688371893E+03  0.18800000000E+03 0.  0.
   -5000001    1    1    2    0    0  0.42685395170E+02  0.74936487848E+02  0.15196045474E+03  0.25665833315E+03  0.18800000000E+03 0.  0.
<mgrwt>
<rscale>  0 0.43637471E+03</rscale>
<asrwt>0</asrwt>
<pdfrwt beam="1">  1        1 0.44278694E-01 0.43637471E+03</pdfrwt>
<pdfrwt beam="2">  1       -1 0.21941599E-01 0.43637471E+03</pdfrwt>
<totfact> 0.16080082E+03</totfact>
</mgrwt>
</event>
<event>
 4    1  0.1578814E-005  0.6071882E+03  0.7818608E-02  0.9890604E-01
         -1   -1    0    0    0  501 -0.00000000000E+00  0.00000000000E+00  0.11246311360E+03  0.11246311371E+03  0.50400000000E-02 0. -1.
          1   -1    0    0  501    0  0.00000000000E+00 -0.00000000000E+00 -0.81955210220E+03  0.81955210221E+03  0.50400000000E-02 0.  1.
    5000001    1    1    2    0    0  0.12682893380E+03  0.19244225758E+03 -0.26010305838E+03  0.39511669407E+03  0.18800000000E+03 0.  0.
   -5000001    1    1    2    0    0 -0.12682893380E+03 -0.19244225758E+03 -0.44698593022E+03  0.53689852185E+03  0.18800000000E+03 0.  0.
<mgrwt>
<rscale>  0 0.60718821E+03</rscale>
<asrwt>0</asrwt>
<pdfrwt beam="1">  1        1 0.11707887E+00 0.60718821E+03</pdfrwt>
<pdfrwt beam="2">  1       -1 0.16066160E-01 0.60718821E+03</pdfrwt>
<totfact> 0.71008791E+02</totfact>
</mgrwt>
</event>
<event>
 4    1  0.1578814E-005  0.6430850E+03  0.7818608E-02  0.9819842E-01
          1   -1    0    0  501    0  0.00000000000E+00  0.00000000000E+00  0.58683575954E+03  0.58683575956E+03  0.50400000000E-02 0.  1.
         -1   -1    0    0    0  501 -0.00000000000E+00 -0.00000000000E+00 -0.17618145867E+03  0.17618145874E+03  0.50400000000E-02 0. -1.
    5000001    1    1    2    0    0  0.18590182511E+03  0.16384549735E+03  0.30201554404E+03  0.43354610415E+03  0.18800000000E+03 0.  0.
   -5000001    1    1    2    0    0 -0.18590182511E+03 -0.16384549735E+03  0.10863875683E+03  0.32947111416E+03  0.18800000000E+03 0.  0.
<mgrwt>
<rscale>  0 0.64308500E+03</rscale>
<asrwt>0</asrwt>
<pdfrwt beam="1">  1        1 0.83833680E-01 0.64308500E+03</pdfrwt>
<pdfrwt beam="2">  1       -1 0.25168780E-01 0.64308500E+03</pdfrwt>
<totfact> 0.54872116E+02</totfact>
</mgrwt>
</event>
<event>
 4    1  0.1578814E-005  0.4583645E+03  0.7818608E-02  0.1025257E+00
         -1   -1    0    0    0  501 -0.00000000000E+00  0.00000000000E+00  0.22243309197E+02  0.22243309768E+02  0.50400000000E-02 0.  1.
          1   -1    0    0  501    0  0.00000000000E+00 -0.00000000000E+00 -0.23613618056E+04  0.23613618056E+04  0.50400000000E-02 0. -1.
    5000001    1    1    2    0    0  0.36958680812E+02 -0.57433158972E+02 -0.58778306141E+03  0.62088440077E+03  0.18800000000E+03 0.  0.
   -5000001    1    1    2    0    0 -0.36958680812E+02  0.57433158972E+02 -0.17513354350E+04  0.17627207146E+04  0.18800000000E+03 0.  0.
<mgrwt>
<rscale>  0 0.45836449E+03</rscale>
<asrwt>0</asrwt>
<pdfrwt beam="1">  1        1 0.33733724E+00 0.45836449E+03</pdfrwt>
<pdfrwt beam="2">  1       -1 0.31776171E-02 0.45836449E+03</pdfrwt>
<totfact> 0.86025663E+02</totfact>
</mgrwt>
</event>
<event>
 4    1  0.1578814E-005  0.9231003E+03  0.7818608E-02  0.9397157E-01
          1   -1    0    0  501    0  0.00000000000E+00  0.00000000000E+00  0.95201244035E+02  0.95201244168E+02  0.50400000000E-02 0.  1.
         -1   -1    0    0    0  501 -0.00000000000E+00 -0.00000000000E+00 -0.22376653898E+04  0.22376653898E+04  0.50400000000E-02 0. -1.
    5000001    1    1    2    0    0 -0.37919215230E+03  0.15827868309E+03 -0.83354415123E+03  0.94814486337E+03  0.18800000000E+03 0.  0.
   -5000001    1    1    2    0    0  0.37919215230E+03 -0.15827868309E+03 -0.13089199946E+04  0.13847217706E+04  0.18800000000E+03 0.  0.
<mgrwt>
<rscale>  0 0.92310027E+03</rscale>
<asrwt>0</asrwt>
<pdfrwt beam="1">  1        1 0.13600179E-01 0.92310027E+03</pdfrwt>
<pdfrwt beam="2">  1       -1 0.31966645E+00 0.92310027E+03</pdfrwt>
<totfact> 0.11133038E+01</totfact>
</mgrwt>
</event>
<event>
 4    1  0.1578814E-005  0.4139520E+03  0.7818608E-02  0.1039053E+00
         -1   -1    0    0    0  501 -0.00000000000E+00  0.00000000000E+00  0.60843215984E+02  0.60843216192E+02  0.50400000000E-02 0. -1.
          1   -1    0    0  501    0  0.00000000000E+00 -0.00000000000E+00 -0.70408941403E+03  0.70408941405E+03  0.50400000000E-02 0.  1.
    5000001    1    1    2    0    0  0.64599966861E+02 -0.53720525081E+02 -0.36020852881E+03  0.41491352684E+03  0.18800000000E+03 0.  0.
   -5000001    1    1    2    0    0 -0.64599966861E+02  0.53720525081E+02 -0.28303766924E+03  0.35001910340E+03  0.18800000000E+03 0.  0.
<mgrwt>
<rscale>  0 0.41395200E+03</rscale>
<asrwt>0</asrwt>
<pdfrwt beam="1">  1        1 0.10058420E+00 0.41395200E+03</pdfrwt>
<pdfrwt beam="2">  1       -1 0.86918884E-02 0.41395200E+03</pdfrwt>
<totfact> 0.23693902E+03</totfact>
</mgrwt>
</event>
<event>
 4    1  0.1578814E-005  0.4638577E+03  0.7818608E-02  0.1023668E+00
          1   -1    0    0  501    0  0.00000000000E+00  0.00000000000E+00  0.16770907673E+04  0.16770907673E+04  0.50400000000E-02 0.  1.
         -1   -1    0    0    0  501 -0.00000000000E+00 -0.00000000000E+00 -0.32073992184E+02  0.32073992580E+02  0.50400000000E-02 0. -1.
    5000001    1    1    2    0    0 -0.61141872155E+02  0.63711287544E+02  0.12027543051E+04  0.12205569938E+04  0.18800000000E+03 0.  0.
   -5000001    1    1    2    0    0  0.61141872155E+02 -0.63711287544E+02  0.44226247001E+03  0.48860776608E+03  0.18800000000E+03 0.  0.
<mgrwt>
<rscale>  0 0.46385772E+03</rscale>
<asrwt>0</asrwt>
<pdfrwt beam="1">  1        1 0.23958443E+00 0.46385772E+03</pdfrwt>
<pdfrwt beam="2">  1       -1 0.45819983E-02 0.46385772E+03</pdfrwt>
<totfact> 0.13049877E+03</totfact>
</mgrwt>
</event>
<event>
 4    1  0.1578814E-005  0.3825632E+03  0.7818608E-02  0.1049990E+00
          1   -1    0    0  501    0  0.00000000000E+00  0.00000000000E+00  0.11499399364E+03  0.11499399375E+03  0.50400000000E-02 0.  1.
         -1   -1    0    0    0  501 -0.00000000000E+00 -0.00000000000E+00 -0.31817886589E+03  0.31817886593E+03  0.50400000000E-02 0. -1.
    5000001    1    1    2    0    0 -0.28159652069E+02 -0.19270615755E+02 -0.11174119119E+03  0.22134682389E+03  0.18800000000E+03 0.  0.
   -5000001    1    1    2    0    0  0.28159652069E+02  0.19270615755E+02 -0.91443681055E+02  0.21182603580E+03  0.18800000000E+03 0.  0.
<mgrwt>
<rscale>  0 0.38256324E+03</rscale>
<asrwt>0</asrwt>
<pdfrwt beam="1">  1        1 0.16427714E-01 0.38256324E+03</pdfrwt>
<pdfrwt beam="2">  1       -1 0.45454123E-01 0.38256324E+03</pdfrwt>
<totfact> 0.16271477E+03</totfact>
</mgrwt>
</event>
<event>
 4    1  0.1578814E-005  0.5894873E+03  0.7818608E-02  0.9927460E-01
          1   -1    0    0  501    0  0.00000000000E+00  0.00000000000E+00  0.16345134059E+04  0.16345134059E+04  0.50400000000E-02 0.  1.
         -1   -1    0    0    0  501 -0.00000000000E+00 -0.00000000000E+00 -0.53149645607E+02  0.53149645846E+02  0.50400000000E-02 0. -1.
    5000001    1    1    2    0    0  0.79757375533E+02 -0.20481271255E+03  0.95314731825E+03  0.99606390180E+03  0.18800000000E+03 0.  0.
   -5000001    1    1    2    0    0 -0.79757375533E+02  0.20481271255E+03  0.62821644208E+03  0.69159914999E+03  0.18800000000E+03 0.  0.
<mgrwt>
<rscale>  0 0.58948726E+03</rscale>
<asrwt>0</asrwt>
<pdfrwt beam="1">  1        1 0.23350188E+00 0.58948726E+03</pdfrwt>
<pdfrwt beam="2">  1       -1 0.75928076E-02 0.58948726E+03</pdfrwt>
<totfact> 0.63511411E+02</totfact>
</mgrwt>
</event>
<event>
 4    1  0.1578814E-005  0.4320488E+03  0.7818608E-02  0.1033215E+00
          1   -1    0    0  501    0  0.00000000000E+00  0.00000000000E+00  0.71988591147E+03  0.71988591148E+03  0.50400000000E-02 0.  1.
         -1   -1    0    0    0  501 -0.00000000000E+00 -0.00000000000E+00 -0.64824911756E+02  0.64824911952E+02  0.50400000000E-02 0. -1.
    5000001    1    1    2    0    0  0.99417462624E+02  0.50346402400E+01  0.25924893917E+03  0.33535532192E+03  0.18800000000E+03 0.  0.
   -5000001    1    1    2    0    0 -0.99417462624E+02 -0.50346402400E+01  0.39581206054E+03  0.44935550152E+03  0.18800000000E+03 0.  0.
<mgrwt>
<rscale>  0 0.43204880E+03</rscale>
<asrwt>0</asrwt>
<pdfrwt beam="1">  1        1 0.10284085E+00 0.43204880E+03</pdfrwt>
<pdfrwt beam="2">  1       -1 0.92607016E-02 0.43204880E+03</pdfrwt>
<totfact> 0.20791942E+03</totfact>
</mgrwt>
</event>
<event>
 4    1  0.1578814E-005  0.4375066E+03  0.7818608E-02  0.1031515E+00
          1   -1    0    0  501    0  0.00000000000E+00  0.00000000000E+00  0.12757792866E+04  0.12757792866E+04  0.50400000000E-02 0.  1.
         -1   -1    0    0    0  501 -0.00000000000E+00 -0.00000000000E+00 -0.37508840342E+02  0.37508840680E+02  0.50400000000E-02 0. -1.
    5000001    1    1    2    0    0  0.41199841509E+02 -0.90324319700E+02  0.46452023366E+03  0.51086099591E+03  0.18800000000E+03 0.  0.
   -5000001    1    1    2    0    0 -0.41199841509E+02  0.90324319700E+02  0.77375021263E+03  0.80242713140E+03  0.18800000000E+03 0.  0.
<mgrwt>
<rscale>  0 0.43750658E+03</rscale>
<asrwt>0</asrwt>
<pdfrwt beam="1">  1        1 0.18225421E+00 0.43750658E+03</pdfrwt>
<pdfrwt beam="2">  1       -1 0.53584051E-02 0.43750658E+03</pdfrwt>
<totfact> 0.18594276E+03</totfact>
</mgrwt>
</event>
<event>
 4    1  0.1578814E-005  0.5045795E+03  0.7818608E-02  0.1012590E+00
          1   -1    0    0  501    0  0.00000000000E+00  0.00000000000E+00  0.29565005963E+03  0.29565005967E+03  0.50400000000E-02 0. -1.
         -1   -1    0    0    0  501 -0.00000000000E+00 -0.00000000000E+00 -0.21528866207E+03  0.21528866213E+03  0.50400000000E-02 0.  1.
    5000001    1    1    2    0    0  0.12519323664E+03 -0.10059805716E+03 -0.10578805409E+02  0.24748581116E+03  0.18800000000E+03 0.  0.
   -5000001    1    1    2    0    0 -0.12519323664E+03  0.10059805716E+03  0.90940202967E+02  0.26345291063E+03  0.18800000000E+03 0.  0.
<mgrwt>
<rscale>  0 0.50457945E+03</rscale>
<asrwt>0</asrwt>
<pdfrwt beam="1">  1        1 0.42235722E-01 0.50457945E+03</pdfrwt>
<pdfrwt beam="2">  1       -1 0.30755524E-01 0.50457945E+03</pdfrwt>
<totfact> 0.96367734E+02</totfact>
</mgrwt>
</event>
<event>
 4    1  0.1578814E-005  0.5310088E+03  0.7818608E-02  0.1005988E+00
         -1   -1    0    0    0  501 -0.00000000000E+00  0.00000000000E+00  0.16430247046E+04  0.16430247046E+04  0.50400000000E-02 0. -1.
          1   -1    0    0  501    0  0.00000000000E+00 -0.00000000000E+00 -0.42904153412E+02  0.42904153709E+02  0.50400000000E-02 0.  1.
    5000001    1    1    2    0    0  0.18139705972E+03  0.43714672109E+02  0.85797326059E+03  0.89792983118E+03  0.18800000000E+03 0.  0.
   -5000001    1    1    2    0    0 -0.18139705972E+03 -0.43714672109E+02  0.74214729061E+03  0.78799902715E+03  0.18800000000E+03 0.  0.
<mgrwt>
<rscale>  0 0.53100879E+03</rscale>
<asrwt>0</asrwt>
<pdfrwt beam="1">  1        1 0.61291646E-02 0.53100879E+03</pdfrwt>
<pdfrwt beam="2">  1       -1 0.23471782E+00 0.53100879E+03</pdfrwt>
<totfact> 0.12176280E+02</totfact>
</mgrwt>
</event>
<event>
 4    1  0.1578814E-005  0.7978098E+03  0.7818608E-02  0.9563193E-01
          1   -1    0    0  501    0  0.00000000000E+00  0.00000000000E+00  0.32876175058E+04  0.32876175058E+04  0.50400000000E-02 0.  1.
         -1   -1    0    0    0  501 -0.00000000000E+00 -0.00000000000E+00 -0.48401348687E+02  0.48401348949E+02  0.50400000000E-02 0. -1.
    5000001    1    1    2    0    0  0.26481357837E+03  0.81413319735E+02  0.25263875170E+04  0.25484764558E+04  0.18800000000E+03 0.  0.
   -5000001    1    1    2    0    0 -0.26481357837E+03 -0.81413319735E+02  0.71282864009E+03  0.78754239889E+03  0.18800000000E+03 0.  0.
<mgrwt>
<rscale>  0 0.79780981E+03</rscale>
<asrwt>0</asrwt>
<pdfrwt beam="1">  1        1 0.46965976E+00 0.79780981E+03</pdfrwt>
<pdfrwt beam="2">  1       -1 0.69144767E-02 0.79780981E+03</pdfrwt>
<totfact> 0.64852238E+01</totfact>
</mgrwt>
</event>
<event>
 4    1  0.1578814E-005  0.5034746E+03  0.7818608E-02  0.1012876E+00
          1   -1    0    0  501    0  0.00000000000E+00  0.00000000000E+00  0.72275417835E+03  0.72275417837E+03  0.50400000000E-02 0. -1.
         -1   -1    0    0    0  501 -0.00000000000E+00 -0.00000000000E+00 -0.87680817325E+02  0.87680817469E+02  0.50400000000E-02 0.  1.
    5000001    1    1    2    0    0 -0.13662971746E+03  0.76574912129E+02  0.22235711654E+03  0.33063285398E+03  0.18800000000E+03 0.  0.
   -5000001    1    1    2    0    0  0.13662971746E+03 -0.76574912129E+02  0.41271624449E+03  0.47980214185E+03  0.18800000000E+03 0.  0.
<mgrwt>
<rscale>  0 0.50347464E+03</rscale>
<asrwt>0</asrwt>
<pdfrwt beam="1">  1        1 0.10325060E+00 0.50347464E+03</pdfrwt>
<pdfrwt beam="2">  1       -1 0.12525831E-01 0.50347464E+03</pdfrwt>
<totfact> 0.12845470E+03</totfact>
</mgrwt>
</event>
<event>
 4    1  0.1578814E-005  0.3976646E+03  0.7818608E-02  0.1044591E+00
          1   -1    0    0  501    0  0.00000000000E+00  0.00000000000E+00  0.28253028994E+03  0.28253028998E+03  0.50400000000E-02 0. -1.
         -1   -1    0    0    0  501 -0.00000000000E+00 -0.00000000000E+00 -0.13992934092E+03  0.13992934101E+03  0.50400000000E-02 0.  1.
    5000001    1    1    2    0    0 -0.19224056953E+02 -0.56577557046E+02  0.97746267814E+02  0.22015657428E+03  0.18800000000E+03 0.  0.
   -5000001    1    1    2    0    0  0.19224056953E+02  0.56577557046E+02  0.44854681207E+02  0.20230305671E+03  0.18800000000E+03 0.  0.
<mgrwt>
<rscale>  0 0.39766457E+03</rscale>
<asrwt>0</asrwt>
<pdfrwt beam="1">  1        1 0.40361469E-01 0.39766457E+03</pdfrwt>
<pdfrwt beam="2">  1       -1 0.19989906E-01 0.39766457E+03</pdfrwt>
<totfact> 0.21083388E+03</totfact>
</mgrwt>
</event>
<event>
 4    1  0.1578814E-005  0.5376627E+03  0.7818608E-02  0.1004391E+00
         -1   -1    0    0    0  501 -0.00000000000E+00  0.00000000000E+00  0.15117205917E+03  0.15117205925E+03  0.50400000000E-02 0.  1.
          1   -1    0    0  501    0  0.00000000000E+00 -0.00000000000E+00 -0.47806642807E+03  0.47806642810E+03  0.50400000000E-02 0. -1.
    5000001    1    1    2    0    0  0.14089766813E+03 -0.48864837295E+02 -0.21619015154E+02  0.24093838844E+03  0.18800000000E+03 0.  0.
   -5000001    1    1    2    0    0 -0.14089766813E+03  0.48864837295E+02 -0.30527535375E+03  0.38830009891E+03  0.18800000000E+03 0.  0.
<mgrwt>
<rscale>  0 0.53766267E+03</rscale>
<asrwt>0</asrwt>
<pdfrwt beam="1">  1        1 0.68295203E-01 0.53766267E+03</pdfrwt>
<pdfrwt beam="2">  1       -1 0.21596009E-01 0.53766267E+03</pdfrwt>
<totfact> 0.94083138E+02</totfact>
</mgrwt>
</event>
<event>
 4    1  0.1578814E-005  0.1566334E+04  0.7818608E-02  0.8841502E-01
         -1   -1    0    0    0  501 -0.00000000000E+00  0.00000000000E+00  0.98698197519E+03  0.98698197520E+03  0.50400000000E-02 0. -1.
          1   -1    0    0  501    0  0.00000000000E+00 -0.00000000000E+00 -0.62144009043E+03  0.62144009045E+03  0.50400000000E-02 0.  1.
    5000001    1    1    2    0    0 -0.45399198667E+03  0.54430432159E+03 -0.99628314164E+02  0.74003089087E+03  0.18800000000E+03 0.  0.
   -5000001    1    1    2    0    0  0.45399198667E+03 -0.54430432159E+03  0.46517019892E+03  0.86839117478E+03  0.18800000000E+03 0.  0.
<mgrwt>
<rscale>  0 0.15663335E+04</rscale>
<asrwt>0</asrwt>
<pdfrwt beam="1">  1        1 0.88777156E-01 0.15663335E+04</pdfrwt>
<pdfrwt beam="2">  1       -1 0.14099743E+00 0.15663335E+04</pdfrwt>
<totfact> 0.14382767E+01</totfact>
</mgrwt>
</event>
<event>
 4    1  0.1578814E-005  0.4745620E+03  0.7818608E-02  0.1020640E+00
          1   -1    0    0  501    0  0.00000000000E+00  0.00000000000E+00  0.45765496506E+03  0.45765496509E+03  0.50400000000E-02 0.  1.
         -1   -1    0    0    0  501 -0.00000000000E+00 -0.00000000000E+00 -0.12302341388E+03  0.12302341398E+03  0.50400000000E-02 0. -1.
    5000001    1    1    2    0    0 -0.87991091240E+02 -0.21790224331E+02  0.29199468986E+02  0.21074594896E+03  0.18800000000E+03 0.  0.
   -5000001    1    1    2    0    0  0.87991091240E+02  0.21790224331E+02  0.30543208220E+03  0.36993243011E+03  0.18800000000E+03 0.  0.
<mgrwt>
<rscale>  0 0.47456201E+03</rscale>
<asrwt>0</asrwt>
<pdfrwt beam="1">  1        1 0.65379281E-01 0.47456201E+03</pdfrwt>
<pdfrwt beam="2">  1       -1 0.17574773E-01 0.47456201E+03</pdfrwt>
<totfact> 0.14005273E+03</totfact>
</mgrwt>
</event>
<event>
 4    1  0.1578814E-005  0.2113585E+04  0.7818608E-02  0.8555283E-01
         -1   -1    0    0    0  501 -0.00000000000E+00  0.00000000000E+00  0.77308260932E+03  0.77308260933E+03  0.50400000000E-02 0. -1.
          1   -1    0    0  501    0  0.00000000000E+00 -0.00000000000E+00 -0.14446197947E+04  0.14446197948E+04  0.50400000000E-02 0.  1.
    5000001    1    1    2    0    0 -0.10688869856E+02  0.10265018144E+04 -0.51023080196E+03  0.11616796883E+04  0.18800000000E+03 0.  0.
   -5000001    1    1    2    0    0  0.10688869856E+02 -0.10265018144E+04 -0.16130638347E+03  0.10560227158E+04  0.18800000000E+03 0.  0.
<mgrwt>
<rscale>  0 0.21135850E+04</rscale>
<asrwt>0</asrwt>
<pdfrwt beam="1">  1        1 0.20637426E+00 0.21135850E+04</pdfrwt>
<pdfrwt beam="2">  1       -1 0.11044037E+00 0.21135850E+04</pdfrwt>
<totfact> 0.58973151E+00</totfact>
</mgrwt>
</event>
<event>
 4    1  0.1578814E-005  0.4944376E+03  0.7818608E-02  0.1015241E+00
          1   -1    0    0  501    0  0.00000000000E+00  0.00000000000E+00  0.13485052954E+04  0.13485052955E+04  0.50400000000E-02 0.  1.
         -1   -1    0    0    0  501 -0.00000000000E+00 -0.00000000000E+00 -0.45322137880E+02  0.45322138160E+02  0.50400000000E-02 0. -1.
    5000001    1    1    2    0    0 -0.15000200108E+03 -0.55670621696E+02  0.68870471879E+03  0.73161329139E+03  0.18800000000E+03 0.  0.
   -5000001    1    1    2    0    0  0.15000200108E+03  0.55670621696E+02  0.61447843878E+03  0.66221414223E+03  0.18800000000E+03 0.  0.
<mgrwt>
<rscale>  0 0.49443763E+03</rscale>
<asrwt>0</asrwt>
<pdfrwt beam="1">  1        1 0.19264361E+00 0.49443763E+03</pdfrwt>
<pdfrwt beam="2">  1       -1 0.64745912E-02 0.49443763E+03</pdfrwt>
<totfact> 0.12447365E+03</totfact>
</mgrwt>
</event>
<event>
 4    1  0.1578814E-005  0.1060495E+04  0.7818608E-02  0.9244575E-01
         -1   -1    0    0    0  501 -0.00000000000E+00  0.00000000000E+00  0.93981770870E+03  0.93981770871E+03  0.50400000000E-02 0. -1.
          1   -1    0    0  501    0  0.00000000000E+00 -0.00000000000E+00 -0.29916707777E+03  0.29916707781E+03  0.50400000000E-02 0.  1.
    5000001    1    1    2    0    0 -0.44948769881E+03 -0.19873481929E+03  0.24385872112E+03  0.57995327023E+03  0.18800000000E+03 0.  0.
   -5000001    1    1    2    0    0  0.44948769881E+03  0.19873481929E+03  0.39679190981E+03  0.65903151630E+03  0.18800000000E+03 0.  0.
<mgrwt>
<rscale>  0 0.10604952E+04</rscale>
<asrwt>0</asrwt>
<pdfrwt beam="1">  1        1 0.42738154E-01 0.10604952E+04</pdfrwt>
<pdfrwt beam="2">  1       -1 0.13425967E+00 0.10604952E+04</pdfrwt>
<totfact> 0.45257030E+01</totfact>
</mgrwt>
</event>
<event>
 4    1  0.1578814E-005  0.1012584E+04  0.7818608E-02  0.9294849E-01
         -1   -1    0    0    0  501 -0.00000000000E+00  0.00000000000E+00  0.18502020755E+03  0.18502020762E+03  0.50400000000E-02 0. -1.
          1   -1    0    0  501    0  0.00000000000E+00 -0.00000000000E+00 -0.13854260198E+04  0.13854260198E+04  0.50400000000E-02 0.  1.
    5000001    1    1    2    0    0  0.35879595473E+03 -0.30322503354E+03 -0.57299077284E+03  0.76442290904E+03  0.18800000000E+03 0.  0.
   -5000001    1    1    2    0    0 -0.35879595473E+03  0.30322503354E+03 -0.62741503938E+03  0.80602331836E+03  0.18800000000E+03 0.  0.
<mgrwt>
<rscale>  0 0.10125844E+04</rscale>
<asrwt>0</asrwt>
<pdfrwt beam="1">  1        1 0.19791800E+00 0.10125844E+04</pdfrwt>
<pdfrwt beam="2">  1       -1 0.26431459E-01 0.10125844E+04</pdfrwt>
<totfact> 0.11774936E+02</totfact>
</mgrwt>
</event>
<event>
 4    1  0.1578814E-005  0.7583237E+03  0.7818608E-02  0.9622382E-01
         -1   -1    0    0    0  501 -0.00000000000E+00  0.00000000000E+00  0.50090054410E+03  0.50090054412E+03  0.50400000000E-02 0. -1.
          1   -1    0    0  501    0  0.00000000000E+00 -0.00000000000E+00 -0.28701048444E+03  0.28701048448E+03  0.50400000000E-02 0.  1.
    5000001    1    1    2    0    0 -0.22437734989E+03  0.60002875584E+02 -0.13555838169E+03  0.32812438963E+03  0.18800000000E+03 0.  0.
   -5000001    1    1    2    0    0  0.22437734989E+03 -0.60002875584E+02  0.34944844135E+03  0.45978663898E+03  0.18800000000E+03 0.  0.
<mgrwt>
<rscale>  0 0.75832370E+03</rscale>
<asrwt>0</asrwt>
<pdfrwt beam="1">  1        1 0.41001498E-01 0.75832370E+03</pdfrwt>
<pdfrwt beam="2">  1       -1 0.71557220E-01 0.75832370E+03</pdfrwt>
<totfact> 0.20420952E+02</totfact>
</mgrwt>
</event>
<event>
 4    1  0.1578814E-005  0.6381713E+03  0.7818608E-02  0.9829232E-01
          1   -1    0    0  501    0  0.00000000000E+00  0.00000000000E+00  0.62576038182E+03  0.62576038184E+03  0.50400000000E-02 0.  1.
         -1   -1    0    0    0  501 -0.00000000000E+00 -0.00000000000E+00 -0.16270707596E+03  0.16270707604E+03  0.50400000000E-02 0. -1.
    5000001    1    1    2    0    0  0.25542793503E+03 -0.22201990893E+02  0.19802440308E+03  0.37455843684E+03  0.18800000000E+03 0.  0.
   -5000001    1    1    2    0    0 -0.25542793503E+03  0.22201990893E+02  0.26502890278E+03  0.41390902104E+03  0.18800000000E+03 0.  0.
<mgrwt>
<rscale>  0 0.63817127E+03</rscale>
<asrwt>0</asrwt>
<pdfrwt beam="1">  1        1 0.89394342E-01 0.63817127E+03</pdfrwt>
<pdfrwt beam="2">  1       -1 0.23243868E-01 0.63817127E+03</pdfrwt>
<totfact> 0.57369744E+02</totfact>
</mgrwt>
</event>
<event>
 4    1  0.1578814E-005  0.4323708E+03  0.7818608E-02  0.1033114E+00
          1   -1    0    0  501    0  0.00000000000E+00  0.00000000000E+00  0.20039971300E+04  0.20039971300E+04  0.50400000000E-02 0.  1.
         -1   -1    0    0    0  501 -0.00000000000E+00 -0.00000000000E+00 -0.23321454570E+02  0.23321455115E+02  0.50400000000E-02 0. -1.
    5000001    1    1    2    0    0 -0.66708452645E+02  0.73150131452E+01  0.13795005040E+04  0.13938684183E+04  0.18800000000E+03 0.  0.
   -5000001    1    1    2    0    0  0.66708452645E+02 -0.73150131452E+01  0.60117517148E+03  0.63345016685E+03  0.18800000000E+03 0.  0.
<mgrwt>
<rscale>  0 0.43237081E+03</rscale>
<asrwt>0</asrwt>
<pdfrwt beam="1">  1        1 0.28628534E+00 0.43237081E+03</pdfrwt>
<pdfrwt beam="2">  1       -1 0.33316360E-02 0.43237081E+03</pdfrwt>
<totfact> 0.13288141E+03</totfact>
</mgrwt>
</event>
<event>
 4    1  0.1578814E-005  0.4794083E+03  0.7818608E-02  0.1019298E+00
         -1   -1    0    0    0  501 -0.00000000000E+00  0.00000000000E+00  0.40384139956E+03  0.40384139959E+03  0.50400000000E-02 0. -1.
          1   -1    0    0  501    0  0.00000000000E+00 -0.00000000000E+00 -0.14227881412E+03  0.14227881420E+03  0.50400000000E-02 0.  1.
    5000001    1    1    2    0    0  0.31949371540E+02  0.14474097246E+03  0.11714165682E+03  0.26652744551E+03  0.18800000000E+03 0.  0.
   -5000001    1    1    2    0    0 -0.31949371540E+02 -0.14474097246E+03  0.14442092863E+03  0.27959276829E+03  0.18800000000E+03 0.  0.
<mgrwt>
<rscale>  0 0.47940828E+03</rscale>
<asrwt>0</asrwt>
<pdfrwt beam="1">  1        1 0.20325545E-01 0.47940828E+03</pdfrwt>
<pdfrwt beam="2">  1       -1 0.57691629E-01 0.47940828E+03</pdfrwt>
<totfact> 0.78621569E+02</totfact>
</mgrwt>
</event>
<event>
 4    1  0.1578814E-005  0.4833145E+03  0.7818608E-02  0.1018228E+00
          1   -1    0    0  501    0  0.00000000000E+00  0.00000000000E+00  0.14646124616E+04  0.14646124616E+04  0.50400000000E-02 0.  1.
         -1   -1    0    0    0  501 -0.00000000000E+00 -0.00000000000E+00 -0.39872819235E+02  0.39872819554E+02  0.50400000000E-02 0. -1.
    5000001    1    1    2    0    0  0.95123807794E+02 -0.11491029983E+03  0.80048668536E+03  0.83568884715E+03  0.18800000000E+03 0.  0.
   -5000001    1    1    2    0    0 -0.95123807794E+02  0.11491029983E+03  0.62425295701E+03  0.66879643402E+03  0.18800000000E+03 0.  0.
<mgrwt>
<rscale>  0 0.48331451E+03</rscale>
<asrwt>0</asrwt>
<pdfrwt beam="1">  1        1 0.20923039E+00 0.48331451E+03</pdfrwt>
<pdfrwt beam="2">  1       -1 0.56961161E-02 0.48331451E+03</pdfrwt>
<totfact> 0.12746560E+03</totfact>
</mgrwt>
</event>
<event>
 4    1  0.1578814E-005  0.4798592E+03  0.7818608E-02  0.1019174E+00
         -1   -1    0    0    0  501 -0.00000000000E+00  0.00000000000E+00  0.54487291686E+02  0.54487291919E+02  0.50400000000E-02 0. -1.
          1   -1    0    0  501    0  0.00000000000E+00 -0.00000000000E+00 -0.10565073032E+04  0.10565073032E+04  0.50400000000E-02 0.  1.
    5000001    1    1    2    0    0 -0.79270339917E+02 -0.12382954347E+03 -0.55794254704E+03  0.60684547327E+03  0.18800000000E+03 0.  0.
   -5000001    1    1    2    0    0  0.79270339917E+02  0.12382954347E+03 -0.44407746451E+03  0.50414912190E+03  0.18800000000E+03 0.  0.
<mgrwt>
<rscale>  0 0.47985924E+03</rscale>
<asrwt>0</asrwt>
<pdfrwt beam="1">  1        1 0.15092960E+00 0.47985924E+03</pdfrwt>
<pdfrwt beam="2">  1       -1 0.77838994E-02 0.47985924E+03</pdfrwt>
<totfact> 0.14819161E+03</totfact>
</mgrwt>
</event>
<event>
 4    1  0.1578814E-005  0.4991813E+03  0.7818608E-02  0.1013993E+00
          1   -1    0    0  501    0  0.00000000000E+00  0.00000000000E+00  0.12451684769E+03  0.12451684779E+03  0.50400000000E-02 0.  1.
         -1   -1    0    0    0  501 -0.00000000000E+00 -0.00000000000E+00 -0.50029775603E+03  0.50029775606E+03  0.50400000000E-02 0. -1.
    5000001    1    1    2    0    0  0.13909241598E+03  0.12017004143E+01 -0.29703335223E+03  0.37804888123E+03  0.18800000000E+03 0.  0.
   -5000001    1    1    2    0    0 -0.13909241598E+03 -0.12017004143E+01 -0.78747556117E+02  0.24676572262E+03  0.18800000000E+03 0.  0.
<mgrwt>
<rscale>  0 0.49918133E+03</rscale>
<asrwt>0</asrwt>
<pdfrwt beam="1">  1        1 0.17788121E-01 0.49918133E+03</pdfrwt>
<pdfrwt beam="2">  1       -1 0.71471107E-01 0.49918133E+03</pdfrwt>
<totfact> 0.61233256E+02</totfact>
</mgrwt>
</event>
<event>
 4    1  0.1578814E-005  0.4012568E+03  0.7818608E-02  0.1043345E+00
         -1   -1    0    0    0  501 -0.00000000000E+00  0.00000000000E+00  0.12184513140E+02  0.12184514182E+02  0.50400000000E-02 0. -1.
          1   -1    0    0  501    0  0.00000000000E+00 -0.00000000000E+00 -0.33035167580E+04  0.33035167580E+04  0.50400000000E-02 0.  1.
    5000001    1    1    2    0    0  0.61261023216E+02 -0.20430283440E+01 -0.13653641185E+04  0.13796087355E+04  0.18800000000E+03 0.  0.
   -5000001    1    1    2    0    0 -0.61261023216E+02  0.20430283440E+01 -0.19259681264E+04  0.19360925367E+04  0.18800000000E+03 0.  0.
<mgrwt>
<rscale>  0 0.40125675E+03</rscale>
<asrwt>0</asrwt>
<pdfrwt beam="1">  1        1 0.47193039E+00 0.40125675E+03</pdfrwt>
<pdfrwt beam="2">  1       -1 0.17406469E-02 0.40125675E+03</pdfrwt>
<totfact> 0.53465262E+02</totfact>
</mgrwt>
</event>
<event>
 4    1  0.1578814E-005  0.6377450E+03  0.7818608E-02  0.9830050E-01
         -1   -1    0    0    0  501 -0.00000000000E+00  0.00000000000E+00  0.10731783013E+03  0.10731783025E+03  0.50400000000E-02 0. -1.
          1   -1    0    0  501    0  0.00000000000E+00 -0.00000000000E+00 -0.94746307936E+03  0.94746307937E+03  0.50400000000E-02 0.  1.
    5000001    1    1    2    0    0 -0.17670210914E+03 -0.16851716858E+03 -0.28455175478E+03  0.41944650747E+03  0.18800000000E+03 0.  0.
   -5000001    1    1    2    0    0  0.17670210914E+03  0.16851716858E+03 -0.55559349445E+03  0.63533440215E+03  0.18800000000E+03 0.  0.
<mgrwt>
<rscale>  0 0.63774503E+03</rscale>
<asrwt>0</asrwt>
<pdfrwt beam="1">  1        1 0.13535186E+00 0.63774503E+03</pdfrwt>
<pdfrwt beam="2">  1       -1 0.15331119E-01 0.63774503E+03</pdfrwt>
<totfact> 0.60664742E+02</totfact>
</mgrwt>
</event>
<event>
 4    1  0.1578814E-005  0.6337278E+03  0.7818608E-02  0.9837801E-01
         -1   -1    0    0    0  501 -0.00000000000E+00  0.00000000000E+00  0.52940326014E+02  0.52940326254E+02  0.50400000000E-02 0. -1.
          1   -1    0    0  501    0  0.00000000000E+00 -0.00000000000E+00 -0.18965265955E+04  0.18965265955E+04  0.50400000000E-02 0.  1.
    5000001    1    1    2    0    0  0.21719453211E+03 -0.13355259012E+03 -0.90026477476E+03  0.95437436249E+03  0.18800000000E+03 0.  0.
   -5000001    1    1    2    0    0 -0.21719453211E+03  0.13355259012E+03 -0.94332149474E+03  0.99509255929E+03  0.18800000000E+03 0.  0.
<mgrwt>
<rscale>  0 0.63372782E+03</rscale>
<asrwt>0</asrwt>
<pdfrwt beam="1">  1        1 0.27093233E+00 0.63372782E+03</pdfrwt>
<pdfrwt beam="2">  1       -1 0.75629049E-02 0.63372782E+03</pdfrwt>
<totfact> 0.43723885E+02</totfact>
</mgrwt>
</event>
<event>
 4    1  0.1578814E-005  0.4331853E+03  0.7818608E-02  0.1032858E+00
          1   -1    0    0  501    0  0.00000000000E+00  0.00000000000E+00  0.26281485078E+03  0.26281485083E+03  0.50400000000E-02 0.  1.
         -1   -1    0    0    0  501 -0.00000000000E+00 -0.00000000000E+00 -0.17849968486E+03  0.17849968493E+03  0.50400000000E-02 0. -1.
    5000001    1    1    2    0    0 -0.31740537921E+02 -0.10092145010E+03  0.22409087679E+02  0.21688422729E+03  0.18800000000E+03 0.  0.
   -5000001    1    1    2    0    0  0.31740537921E+02  0.10092145010E+03  0.61906078243E+02  0.22443030847E+03  0.18800000000E+03 0.  0.
<mgrwt>
<rscale>  0 0.43318526E+03</rscale>
<asrwt>0</asrwt>
<pdfrwt beam="1">  1        1 0.37544979E-01 0.43318526E+03</pdfrwt>
<pdfrwt beam="2">  1       -1 0.25499955E-01 0.43318526E+03</pdfrwt>
<totfact> 0.15427840E+03</totfact>
</mgrwt>
</event>
<event>
 4    1  0.1578814E-005  0.5558495E+03  0.7818608E-02  0.1000149E+00
         -1   -1    0    0    0  501 -0.00000000000E+00  0.00000000000E+00  0.57223133576E+02  0.57223133798E+02  0.50400000000E-02 0. -1.
          1   -1    0    0  501    0  0.00000000000E+00 -0.00000000000E+00 -0.13498414721E+04  0.13498414721E+04  0.50400000000E-02 0.  1.
    5000001    1    1    2    0    0 -0.27862849994E+02  0.20273650283E+03 -0.63506488566E+03  0.69320259448E+03  0.18800000000E+03 0.  0.
   -5000001    1    1    2    0    0  0.27862849994E+02 -0.20273650283E+03 -0.65755345282E+03  0.71386201139E+03  0.18800000000E+03 0.  0.
<mgrwt>
<rscale>  0 0.55584947E+03</rscale>
<asrwt>0</asrwt>
<pdfrwt beam="1">  1        1 0.19283448E+00 0.55584947E+03</pdfrwt>
<pdfrwt beam="2">  1       -1 0.81747342E-02 0.55584947E+03</pdfrwt>
<totfact> 0.86382787E+02</totfact>
</mgrwt>
</event>
<event>
 4    1  0.1578814E-005  0.4487089E+03  0.7818608E-02  0.1028108E+00
         -1   -1    0    0    0  501 -0.00000000000E+00  0.00000000000E+00  0.10691206652E+03  0.10691206664E+03  0.50400000000E-02 0. -1.
          1   -1    0    0  501    0  0.00000000000E+00 -0.00000000000E+00 -0.47080674055E+03  0.47080674058E+03  0.50400000000E-02 0.  1.
    5000001    1    1    2    0    0 -0.12014694888E+03 -0.19331012533E+02 -0.16458049070E+03  0.27792033983E+03  0.18800000000E+03 0.  0.
   -5000001    1    1    2    0    0  0.12014694888E+03  0.19331012533E+02 -0.19931418334E+03  0.29979846739E+03  0.18800000000E+03 0.  0.
<mgrwt>
<rscale>  0 0.44870891E+03</rscale>
<asrwt>0</asrwt>
<pdfrwt beam="1">  1        1 0.67258105E-01 0.44870891E+03</pdfrwt>
<pdfrwt beam="2">  1       -1 0.15273153E-01 0.44870891E+03</pdfrwt>
<totfact> 0.16933579E+03</totfact>
</mgrwt>
</event>
<event>
 4    1  0.1578814E-005  0.4416918E+03  0.7818608E-02  0.1030229E+00
          1   -1    0    0  501    0  0.00000000000E+00  0.00000000000E+00  0.32736749264E+03  0.32736749268E+03  0.50400000000E-02 0.  1.
         -1   -1    0    0    0  501 -0.00000000000E+00 -0.00000000000E+00 -0.14898520154E+03  0.14898520163E+03  0.50400000000E-02 0. -1.
    5000001    1    1    2    0    0 -0.89018752339E+02  0.54391804530E+02  0.34772533316E+02  0.21779792410E+03  0.18800000000E+03 0.  0.
   -5000001    1    1    2    0    0  0.89018752339E+02 -0.54391804530E+02  0.14360975779E+03  0.25855477021E+03  0.18800000000E+03 0.  0.
<mgrwt>
<rscale>  0 0.44169180E+03</rscale>
<asrwt>0</asrwt>
<pdfrwt beam="1">  1        1 0.46766784E-01 0.44169180E+03</pdfrwt>
<pdfrwt beam="2">  1       -1 0.21283600E-01 0.44169180E+03</pdfrwt>
<totfact> 0.15773605E+03</totfact>
</mgrwt>
</event>
<event>
 4    1  0.1578814E-005  0.5565498E+03  0.7818608E-02  0.9999892E-01
         -1   -1    0    0    0  501 -0.00000000000E+00  0.00000000000E+00  0.31907857420E+03  0.31907857424E+03  0.50400000000E-02 0. -1.
          1   -1    0    0  501    0  0.00000000000E+00 -0.00000000000E+00 -0.24268920958E+03  0.24268920963E+03  0.50400000000E-02 0.  1.
    5000001    1    1    2    0    0 -0.11916715040E+03  0.93681333875E+02 -0.10136193604E+03  0.26190693792E+03  0.18800000000E+03 0.  0.
   -5000001    1    1    2    0    0  0.11916715040E+03 -0.93681333875E+02  0.17775130066E+03  0.29986084596E+03  0.18800000000E+03 0.  0.
<mgrwt>
<rscale>  0 0.55654983E+03</rscale>
<asrwt>0</asrwt>
<pdfrwt beam="1">  1        1 0.34669887E-01 0.55654983E+03</pdfrwt>
<pdfrwt beam="2">  1       -1 0.45582653E-01 0.55654983E+03</pdfrwt>
<totfact> 0.61380806E+02</totfact>
</mgrwt>
</event>
<event>
 4    1  0.1578814E-005  0.4451866E+03  0.7818608E-02  0.1029167E+00
          1   -1    0    0  501    0  0.00000000000E+00  0.00000000000E+00  0.81114082298E+03  0.81114082299E+03  0.50400000000E-02 0.  1.
         -1   -1    0    0    0  501 -0.00000000000E+00 -0.00000000000E+00 -0.61084068518E+02  0.61084068726E+02  0.50400000000E-02 0. -1.
    5000001    1    1    2    0    0  0.87312045932E+02  0.65570262900E+02  0.28145716559E+03  0.35564728145E+03  0.18800000000E+03 0.  0.
   -5000001    1    1    2    0    0 -0.87312045932E+02 -0.65570262900E+02  0.46859958886E+03  0.51657761026E+03  0.18800000000E+03 0.  0.
<mgrwt>
<rscale>  0 0.44518662E+03</rscale>
<asrwt>0</asrwt>
<pdfrwt beam="1">  1        1 0.11587727E+00 0.44518662E+03</pdfrwt>
<pdfrwt beam="2">  1       -1 0.87262951E-02 0.44518662E+03</pdfrwt>
<totfact> 0.19084512E+03</totfact>
</mgrwt>
</event>
<event>
 4    1  0.1578814E-005  0.1061756E+04  0.7818608E-02  0.9243290E-01
         -1   -1    0    0    0  501 -0.00000000000E+00  0.00000000000E+00  0.18784208015E+03  0.18784208022E+03  0.50400000000E-02 0. -1.
          1   -1    0    0  501    0  0.00000000000E+00 -0.00000000000E+00 -0.15003641908E+04  0.15003641908E+04  0.50400000000E-02 0.  1.
    5000001    1    1    2    0    0  0.29025106381E+03 -0.39667084565E+03 -0.54502726513E+03  0.75762270264E+03  0.18800000000E+03 0.  0.
   -5000001    1    1    2    0    0 -0.29025106381E+03  0.39667084565E+03 -0.76749484551E+03  0.93058356837E+03  0.18800000000E+03 0.  0.
<mgrwt>
<rscale>  0 0.10617562E+04</rscale>
<asrwt>0</asrwt>
<pdfrwt beam="1">  1        1 0.21433773E+00 0.10617562E+04</pdfrwt>
<pdfrwt beam="2">  1       -1 0.26834584E-01 0.10617562E+04</pdfrwt>
<totfact> 0.96092259E+01</totfact>
</mgrwt>
</event>
<event>
 4    1  0.1578814E-005  0.7440320E+03  0.7818608E-02  0.9644760E-01
          1   -1    0    0  501    0  0.00000000000E+00  0.00000000000E+00  0.33340925048E+04  0.33340925048E+04  0.50400000000E-02 0.  1.
         -1   -1    0    0    0  501 -0.00000000000E+00 -0.00000000000E+00 -0.41509321390E+02  0.41509321696E+02  0.50400000000E-02 0. -1.
    5000001    1    1    2    0    0 -0.28322996291E+03 -0.11788672226E+03  0.12174299289E+04  0.12694865588E+04  0.18800000000E+03 0.  0.
   -5000001    1    1    2    0    0  0.28322996291E+03  0.11788672226E+03  0.20751532545E+04  0.21061152677E+04  0.18800000000E+03 0.  0.
<mgrwt>
<rscale>  0 0.74403204E+03</rscale>
<asrwt>0</asrwt>
<pdfrwt beam="1">  1        1 0.47629906E+00 0.74403204E+03</pdfrwt>
<pdfrwt beam="2">  1       -1 0.59299015E-02 0.74403204E+03</pdfrwt>
<totfact> 0.77064416E+01</totfact>
</mgrwt>
</event>
<event>
 4    1  0.1578814E-005  0.3941376E+03  0.7818608E-02  0.1045829E+00
         -1   -1    0    0    0  501 -0.00000000000E+00  0.00000000000E+00  0.11909912446E+03  0.11909912456E+03  0.50400000000E-02 0. -1.
          1   -1    0    0  501    0  0.00000000000E+00 -0.00000000000E+00 -0.32608218817E+03  0.32608218820E+03  0.50400000000E-02 0.  1.
    5000001    1    1    2    0    0 -0.22109493172E+02  0.53087513561E+02 -0.11885405258E+03  0.22973332279E+03  0.18800000000E+03 0.  0.
   -5000001    1    1    2    0    0  0.22109493172E+02 -0.53087513561E+02 -0.88129011124E+02  0.21544798998E+03  0.18800000000E+03 0.  0.
<mgrwt>
<rscale>  0 0.39413756E+03</rscale>
<asrwt>0</asrwt>
<pdfrwt beam="1">  1        1 0.46583169E-01 0.39413756E+03</pdfrwt>
<pdfrwt beam="2">  1       -1 0.17014161E-01 0.39413756E+03</pdfrwt>
<totfact> 0.22846960E+03</totfact>
</mgrwt>
</event>
<event>
 4    1  0.1578814E-005  0.7345911E+03  0.7818608E-02  0.9659840E-01
         -1   -1    0    0    0  501 -0.00000000000E+00  0.00000000000E+00  0.57517754557E+02  0.57517754778E+02  0.50400000000E-02 0. -1.
          1   -1    0    0  501    0  0.00000000000E+00 -0.00000000000E+00 -0.23454671682E+04  0.23454671682E+04  0.50400000000E-02 0.  1.
    5000001    1    1    2    0    0 -0.17426949048E+03 -0.25207865718E+03 -0.89812369881E+03  0.96741081401E+03  0.18800000000E+03 0.  0.
   -5000001    1    1    2    0    0  0.17426949048E+03  0.25207865718E+03 -0.13898257148E+04  0.14355741090E+04  0.18800000000E+03 0.  0.
<mgrwt>
<rscale>  0 0.73459106E+03</rscale>
<asrwt>0</asrwt>
<pdfrwt beam="1">  1        1 0.33506668E+00 0.73459106E+03</pdfrwt>
<pdfrwt beam="2">  1       -1 0.82168236E-02 0.73459106E+03</pdfrwt>
<totfact> 0.20077251E+02</totfact>
</mgrwt>
</event>
<event>
 4    1  0.1578814E-005  0.5963274E+03  0.7818608E-02  0.9913055E-01
          1   -1    0    0  501    0  0.00000000000E+00  0.00000000000E+00  0.35026590917E+03  0.35026590920E+03  0.50400000000E-02 0.  1.
         -1   -1    0    0    0  501 -0.00000000000E+00 -0.00000000000E+00 -0.25381175550E+03  0.25381175555E+03  0.50400000000E-02 0. -1.
    5000001    1    1    2    0    0 -0.14443274942E+03 -0.14348088015E+03  0.15970284392E+03  0.31983836610E+03  0.18800000000E+03 0.  0.
   -5000001    1    1    2    0    0  0.14443274942E+03  0.14348088015E+03 -0.63248690254E+02  0.28423929864E+03  0.18800000000E+03 0.  0.
<mgrwt>
<rscale>  0 0.59632744E+03</rscale>
<asrwt>0</asrwt>
<pdfrwt beam="1">  1        1 0.50037986E-01 0.59632744E+03</pdfrwt>
<pdfrwt beam="2">  1       -1 0.36258823E-01 0.59632744E+03</pdfrwt>
<totfact> 0.57938183E+02</totfact>
</mgrwt>
</event>
<event>
 4    1  0.1578814E-005  0.6633364E+03  0.7818608E-02  0.9782071E-01
          1   -1    0    0  501    0  0.00000000000E+00  0.00000000000E+00  0.65423402769E+02  0.65423402963E+02  0.50400000000E-02 0.  1.
         -1   -1    0    0    0  501 -0.00000000000E+00 -0.00000000000E+00 -0.16814137116E+04  0.16814137116E+04  0.50400000000E-02 0. -1.
    5000001    1    1    2    0    0 -0.18167910376E+03  0.12241646494E+03 -0.12380297056E+04  0.12712413774E+04  0.18800000000E+03 0.  0.
   -5000001    1    1    2    0    0  0.18167910376E+03 -0.12241646494E+03 -0.37796060324E+03  0.47559573719E+03  0.18800000000E+03 0.  0.
<mgrwt>
<rscale>  0 0.66333644E+03</rscale>
<asrwt>0</asrwt>
<pdfrwt beam="1">  1        1 0.93462015E-02 0.66333644E+03</pdfrwt>
<pdfrwt beam="2">  1       -1 0.24020193E+00 0.66333644E+03</pdfrwt>
<totfact> 0.61708828E+01</totfact>
</mgrwt>
</event>
<event>
 4    1  0.1578814E-005  0.8684559E+03  0.7818608E-02  0.9465895E-01
          1   -1    0    0  501    0  0.00000000000E+00  0.00000000000E+00  0.94556643664E+03  0.94556643665E+03  0.50400000000E-02 0.  1.
         -1   -1    0    0    0  501 -0.00000000000E+00 -0.00000000000E+00 -0.19940843812E+03  0.19940843819E+03  0.50400000000E-02 0. -1.
    5000001    1    1    2    0    0 -0.45726007155E+02 -0.28145060245E+03  0.72660923224E+03  0.80287625805E+03  0.18800000000E+03 0.  0.
   -5000001    1    1    2    0    0  0.45726007155E+02  0.28145060245E+03  0.19548766270E+02  0.34209861679E+03  0.18800000000E+03 0.  0.
<mgrwt>
<rscale>  0 0.86845593E+03</rscale>
<asrwt>0</asrwt>
<pdfrwt beam="1">  1        1 0.13508092E+00 0.86845593E+03</pdfrwt>
<pdfrwt beam="2">  1       -1 0.28486920E-01 0.86845593E+03</pdfrwt>
<totfact> 0.21328469E+02</totfact>
</mgrwt>
</event>
<event>
 4    1  0.1578814E-005  0.6831645E+03  0.7818608E-02  0.9746464E-01
         -1   -1    0    0    0  501 -0.00000000000E+00  0.00000000000E+00  0.24274646435E+03  0.24274646440E+03  0.50400000000E-02 0. -1.
          1   -1    0    0  501    0  0.00000000000E+00 -0.00000000000E+00 -0.48065967830E+03  0.48065967833E+03  0.50400000000E-02 0.  1.
    5000001    1    1    2    0    0 -0.24276657464E+03  0.82570242169E+02  0.13219914664E+02  0.31823296624E+03  0.18800000000E+03 0.  0.
   -5000001    1    1    2    0    0  0.24276657464E+03 -0.82570242169E+02 -0.25113312862E+03  0.40517317649E+03  0.18800000000E+03 0.  0.
<mgrwt>
<rscale>  0 0.68316451E+03</rscale>
<asrwt>0</asrwt>
<pdfrwt beam="1">  1        1 0.68665668E-01 0.68316451E+03</pdfrwt>
<pdfrwt beam="2">  1       -1 0.34678067E-01 0.68316451E+03</pdfrwt>
<totfact> 0.41265809E+02</totfact>
</mgrwt>
</event>
<event>
 4    1  0.1578814E-005  0.5870928E+03  0.7818608E-02  0.9932552E-01
         -1   -1    0    0    0  501 -0.00000000000E+00  0.00000000000E+00  0.31645907929E+02  0.31645908330E+02  0.50400000000E-02 0. -1.
          1   -1    0    0  501    0  0.00000000000E+00 -0.00000000000E+00 -0.27229264655E+04  0.27229264655E+04  0.50400000000E-02 0.  1.
    5000001    1    1    2    0    0  0.31934451750E+02 -0.14237532320E+03 -0.21519752436E+04  0.21650939912E+04  0.18800000000E+03 0.  0.
   -5000001    1    1    2    0    0 -0.31934451750E+02  0.14237532320E+03 -0.53930531401E+03  0.58947838263E+03  0.18800000000E+03 0.  0.
<mgrwt>
<rscale>  0 0.58709277E+03</rscale>
<asrwt>0</asrwt>
<pdfrwt beam="1">  1        1 0.38898935E+00 0.58709277E+03</pdfrwt>
<pdfrwt beam="2">  1       -1 0.45208457E-02 0.58709277E+03</pdfrwt>
<totfact> 0.29715827E+02</totfact>
</mgrwt>
</event>
<event>
 4    1  0.1578814E-005  0.1009079E+04  0.7818608E-02  0.9298642E-01
         -1   -1    0    0    0  501 -0.00000000000E+00  0.00000000000E+00  0.90254544817E+02  0.90254544958E+02  0.50400000000E-02 0. -1.
          1   -1    0    0  501    0  0.00000000000E+00 -0.00000000000E+00 -0.28204701872E+04  0.28204701872E+04  0.50400000000E-02 0.  1.
    5000001    1    1    2    0    0 -0.41461645972E+03 -0.13963014894E+03 -0.18461672316E+04  0.19065887953E+04  0.18800000000E+03 0.  0.
   -5000001    1    1    2    0    0  0.41461645972E+03  0.13963014894E+03 -0.88404841072E+03  0.10041359368E+04  0.18800000000E+03 0.  0.
<mgrwt>
<rscale>  0 0.10090793E+04</rscale>
<asrwt>0</asrwt>
<pdfrwt beam="1">  1        1 0.40292426E+00 0.10090793E+04</pdfrwt>
<pdfrwt beam="2">  1       -1 0.12893508E-01 0.10090793E+04</pdfrwt>
<totfact> 0.47882043E+01</totfact>
</mgrwt>
</event>
<event>
 4    1  0.1578814E-005  0.7032707E+03  0.7818608E-02  0.9711655E-01
         -1   -1    0    0    0  501 -0.00000000000E+00  0.00000000000E+00  0.75927874190E+03  0.75927874192E+03  0.50400000000E-02 0. -1.
          1   -1    0    0  501    0  0.00000000000E+00 -0.00000000000E+00 -0.16284853517E+03  0.16284853525E+03  0.50400000000E-02 0.  1.
    5000001    1    1    2    0    0  0.24577077044E+03  0.44099030666E+02  0.86972029137E+02  0.32443201131E+03  0.18800000000E+03 0.  0.
   -5000001    1    1    2    0    0 -0.24577077044E+03 -0.44099030666E+02  0.50945817759E+03  0.59769526586E+03  0.18800000000E+03 0.  0.
<mgrwt>
<rscale>  0 0.70327073E+03</rscale>
<asrwt>0</asrwt>
<pdfrwt beam="1">  1        1 0.23264076E-01 0.70327073E+03</pdfrwt>
<pdfrwt beam="2">  1       -1 0.10846839E+00 0.70327073E+03</pdfrwt>
<totfact> 0.17194755E+02</totfact>
</mgrwt>
</event>
<event>
 4    1  0.1578814E-005  0.6054356E+03  0.7818608E-02  0.9894193E-01
          1   -1    0    0  501    0  0.00000000000E+00  0.00000000000E+00  0.82002248109E+03  0.82002248110E+03  0.50400000000E-02 0.  1.
         -1   -1    0    0    0  501 -0.00000000000E+00 -0.00000000000E+00 -0.11175068390E+03  0.11175068402E+03  0.50400000000E-02 0. -1.
    5000001    1    1    2    0    0  0.35258492329E+02 -0.23462664150E+03  0.35241457379E+03  0.46457814628E+03  0.18800000000E+03 0.  0.
   -5000001    1    1    2    0    0 -0.35258492329E+02  0.23462664150E+03  0.35585722340E+03  0.46719501884E+03  0.18800000000E+03 0.  0.
<mgrwt>
<rscale>  0 0.60543562E+03</rscale>
<asrwt>0</asrwt>
<pdfrwt beam="1">  1        1 0.11714606E+00 0.60543562E+03</pdfrwt>
<pdfrwt beam="2">  1       -1 0.15964384E-01 0.60543562E+03</pdfrwt>
<totfact> 0.71687253E+02</totfact>
</mgrwt>
</event>
<event>
 4    1  0.1578814E-005  0.4695428E+03  0.7818608E-02  0.1022049E+00
         -1   -1    0    0    0  501 -0.00000000000E+00  0.00000000000E+00  0.73993674886E+02  0.73993675058E+02  0.50400000000E-02 0. -1.
          1   -1    0    0  501    0  0.00000000000E+00 -0.00000000000E+00 -0.74489632366E+03  0.74489632368E+03  0.50400000000E-02 0.  1.
    5000001    1    1    2    0    0  0.48776908791E+02 -0.12969233273E+03 -0.37724692126E+03  0.44368742105E+03  0.18800000000E+03 0.  0.
   -5000001    1    1    2    0    0 -0.48776908791E+02  0.12969233273E+03 -0.29365572751E+03  0.37520257768E+03  0.18800000000E+03 0.  0.
<mgrwt>
<rscale>  0 0.46954283E+03</rscale>
<asrwt>0</asrwt>
<pdfrwt beam="1">  1        1 0.10641376E+00 0.46954283E+03</pdfrwt>
<pdfrwt beam="2">  1       -1 0.10570525E-01 0.46954283E+03</pdfrwt>
<totfact> 0.16074572E+03</totfact>
</mgrwt>
</event>
<event>
 4    1  0.1578814E-005  0.5025279E+03  0.7818608E-02  0.1013121E+00
          1   -1    0    0  501    0  0.00000000000E+00  0.00000000000E+00  0.61147276605E+02  0.61147276813E+02  0.50400000000E-02 0.  1.
         -1   -1    0    0    0  501 -0.00000000000E+00 -0.00000000000E+00 -0.10324839783E+04  0.10324839783E+04  0.50400000000E-02 0. -1.
    5000001    1    1    2    0    0  0.13405760586E+03 -0.68007336389E+02 -0.32883952837E+03  0.40752407894E+03  0.18800000000E+03 0.  0.
   -5000001    1    1    2    0    0 -0.13405760586E+03  0.68007336389E+02 -0.64249717334E+03  0.68610717621E+03  0.18800000000E+03 0.  0.
<mgrwt>
<rscale>  0 0.50252794E+03</rscale>
<asrwt>0</asrwt>
<pdfrwt beam="1">  1        1 0.87353258E-02 0.50252794E+03</pdfrwt>
<pdfrwt beam="2">  1       -1 0.14749770E+00 0.50252794E+03</pdfrwt>
<totfact> 0.30240382E+02</totfact>
</mgrwt>
</event>
<event>
 4    1  0.1578814E-005  0.5001981E+03  0.7818608E-02  0.1013727E+00
         -1   -1    0    0    0  501 -0.00000000000E+00  0.00000000000E+00  0.76462805462E+02  0.76462805628E+02  0.50400000000E-02 0. -1.
          1   -1    0    0  501    0  0.00000000000E+00 -0.00000000000E+00 -0.81803880952E+03  0.81803880954E+03  0.50400000000E-02 0.  1.
    5000001    1    1    2    0    0  0.64024331673E+02 -0.10900685001E+03 -0.18133058251E+03  0.29018337056E+03  0.18800000000E+03 0.  0.
   -5000001    1    1    2    0    0 -0.64024331673E+02  0.10900685001E+03 -0.56024542155E+03  0.60431824461E+03  0.18800000000E+03 0.  0.
<mgrwt>
<rscale>  0 0.50019813E+03</rscale>
<asrwt>0</asrwt>
<pdfrwt beam="1">  1        1 0.11686268E+00 0.50019813E+03</pdfrwt>
<pdfrwt beam="2">  1       -1 0.10923258E-01 0.50019813E+03</pdfrwt>
<totfact> 0.13247009E+03</totfact>
</mgrwt>
</event>
<event>
 4    1  0.1578814E-005  0.6233757E+03  0.7818608E-02  0.9858061E-01
          1   -1    0    0  501    0  0.00000000000E+00  0.00000000000E+00  0.56116325101E+03  0.56116325104E+03  0.50400000000E-02 0.  1.
         -1   -1    0    0    0  501 -0.00000000000E+00 -0.00000000000E+00 -0.17312133031E+03  0.17312133038E+03  0.50400000000E-02 0. -1.
    5000001    1    1    2    0    0  0.19975891230E+02  0.18471677384E+03 -0.55289988676E+00  0.26431728749E+03  0.18800000000E+03 0.  0.
   -5000001    1    1    2    0    0 -0.19975891230E+02 -0.18471677384E+03  0.38859482059E+03  0.46996729393E+03  0.18800000000E+03 0.  0.
<mgrwt>
<rscale>  0 0.62337574E+03</rscale>
<asrwt>0</asrwt>
<pdfrwt beam="1">  1        1 0.80166179E-01 0.62337574E+03</pdfrwt>
<pdfrwt beam="2">  1       -1 0.24731619E-01 0.62337574E+03</pdfrwt>
<totfact> 0.60183500E+02</totfact>
</mgrwt>
</event>
<event>
 4    1  0.1578814E-005  0.4864464E+03  0.7818608E-02  0.1017378E+00
         -1   -1    0    0    0  501 -0.00000000000E+00  0.00000000000E+00  0.37287581540E+03  0.37287581543E+03  0.50400000000E-02 0. -1.
          1   -1    0    0  501    0  0.00000000000E+00 -0.00000000000E+00 -0.15865207746E+03  0.15865207754E+03  0.50400000000E-02 0.  1.
    5000001    1    1    2    0    0 -0.12019286258E+03  0.95668925950E+02  0.91102959456E+02  0.25931181390E+03  0.18800000000E+03 0.  0.
   -5000001    1    1    2    0    0  0.12019286258E+03 -0.95668925950E+02  0.12312077848E+03  0.27221607906E+03  0.18800000000E+03 0.  0.
<mgrwt>
<rscale>  0 0.48644639E+03</rscale>
<asrwt>0</asrwt>
<pdfrwt beam="1">  1        1 0.22664583E-01 0.48644639E+03</pdfrwt>
<pdfrwt beam="2">  1       -1 0.53267973E-01 0.48644639E+03</pdfrwt>
<totfact> 0.79458134E+02</totfact>
</mgrwt>
</event>
<event>
 4    1  0.1578814E-005  0.7139540E+03  0.7818608E-02  0.9693662E-01
         -1   -1    0    0    0  501 -0.00000000000E+00  0.00000000000E+00  0.85196644135E+02  0.85196644284E+02  0.50400000000E-02 0. -1.
          1   -1    0    0  501    0  0.00000000000E+00 -0.00000000000E+00 -0.14957463469E+04  0.14957463469E+04  0.50400000000E-02 0.  1.
    5000001    1    1    2    0    0 -0.59940016683E+02 -0.29719253490E+03 -0.67620348484E+03  0.76453342720E+03  0.18800000000E+03 0.  0.
   -5000001    1    1    2    0    0  0.59940016683E+02  0.29719253490E+03 -0.73434621794E+03  0.81640956401E+03  0.18800000000E+03 0.  0.
<mgrwt>
<rscale>  0 0.71395397E+03</rscale>
<asrwt>0</asrwt>
<pdfrwt beam="1">  1        1 0.21367803E+00 0.71395397E+03</pdfrwt>
<pdfrwt beam="2">  1       -1 0.12170950E-01 0.71395397E+03</pdfrwt>
<totfact> 0.36720705E+02</totfact>
</mgrwt>
</event>
<event>
 4    1  0.1578814E-005  0.6526283E+03  0.7818608E-02  0.9801860E-01
         -1   -1    0    0    0  501 -0.00000000000E+00  0.00000000000E+00  0.62536478898E+03  0.62536478900E+03  0.50400000000E-02 0. -1.
          1   -1    0    0  501    0  0.00000000000E+00 -0.00000000000E+00 -0.17027008065E+03  0.17027008073E+03  0.50400000000E-02 0.  1.
    5000001    1    1    2    0    0 -0.53387323733E+02 -0.25751319258E+03  0.28170806604E+03  0.42879678772E+03  0.18800000000E+03 0.  0.
   -5000001    1    1    2    0    0  0.53387323733E+02  0.25751319258E+03  0.17338664228E+03  0.36683808201E+03  0.18800000000E+03 0.  0.
<mgrwt>
<rscale>  0 0.65262827E+03</rscale>
<asrwt>0</asrwt>
<pdfrwt beam="1">  1        1 0.24324297E-01 0.65262827E+03</pdfrwt>
<pdfrwt beam="2">  1       -1 0.89337826E-01 0.65262827E+03</pdfrwt>
<totfact> 0.25221146E+02</totfact>
</mgrwt>
</event>
<event>
 4    1  0.1578814E-005  0.8440010E+03  0.7818608E-02  0.9498424E-01
          1   -1    0    0  501    0  0.00000000000E+00  0.00000000000E+00  0.86936904882E+03  0.86936904883E+03  0.50400000000E-02 0.  1.
         -1   -1    0    0    0  501 -0.00000000000E+00 -0.00000000000E+00 -0.20484330224E+03  0.20484330230E+03  0.50400000000E-02 0. -1.
    5000001    1    1    2    0    0 -0.53968273248E+02  0.36117709891E+03  0.45552351199E+03  0.61335727049E+03  0.18800000000E+03 0.  0.
   -5000001    1    1    2    0    0  0.53968273248E+02 -0.36117709891E+03  0.20900223459E+03  0.46085508064E+03  0.18800000000E+03 0.  0.
<mgrwt>
<rscale>  0 0.84400101E+03</rscale>
<asrwt>0</asrwt>
<pdfrwt beam="1">  1        1 0.12419558E+00 0.84400101E+03</pdfrwt>
<pdfrwt beam="2">  1       -1 0.29263328E-01 0.84400101E+03</pdfrwt>
<totfact> 0.23387800E+02</totfact>
</mgrwt>
</event>
<event>
 4    1  0.1578814E-005  0.4430314E+03  0.7818608E-02  0.1029821E+00
          1   -1    0    0  501    0  0.00000000000E+00  0.00000000000E+00  0.16874821221E+03  0.16874821228E+03  0.50400000000E-02 0.  1.
         -1   -1    0    0    0  501 -0.00000000000E+00 -0.00000000000E+00 -0.29078352265E+03  0.29078352269E+03  0.50400000000E-02 0. -1.
    5000001    1    1    2    0    0 -0.88608316652E+02  0.42488354938E+02 -0.12717810992E+03  0.24733573484E+03  0.18800000000E+03 0.  0.
   -5000001    1    1    2    0    0  0.88608316652E+02 -0.42488354938E+02  0.51427994815E+01  0.21219600013E+03  0.18800000000E+03 0.  0.
<mgrwt>
<rscale>  0 0.44303137E+03</rscale>
<asrwt>0</asrwt>
<pdfrwt beam="1">  1        1 0.24106887E-01 0.44303137E+03</pdfrwt>
<pdfrwt beam="2">  1       -1 0.41540503E-01 0.44303137E+03</pdfrwt>
<totfact> 0.11627927E+03</totfact>
</mgrwt>
</event>
<event>
 4    1  0.1578814E-005  0.6167705E+03  0.7818608E-02  0.9871211E-01
          1   -1    0    0  501    0  0.00000000000E+00  0.00000000000E+00  0.29267729993E+04  0.29267729993E+04  0.50400000000E-02 0.  1.
         -1   -1    0    0    0  501 -0.00000000000E+00 -0.00000000000E+00 -0.32493628455E+02  0.32493628846E+02  0.50400000000E-02 0. -1.
    5000001    1    1    2    0    0  0.20416085960E+03 -0.12933935960E+03  0.16232432734E+04  0.16518695624E+04  0.18800000000E+03 0.  0.
   -5000001    1    1    2    0    0 -0.20416085960E+03  0.12933935960E+03  0.12710360974E+04  0.13073970657E+04  0.18800000000E+03 0.  0.
<mgrwt>
<rscale>  0 0.61677054E+03</rscale>
<asrwt>0</asrwt>
<pdfrwt beam="1">  1        1 0.41811036E+00 0.61677054E+03</pdfrwt>
<pdfrwt beam="2">  1       -1 0.46419477E-02 0.61677054E+03</pdfrwt>
<totfact> 0.21100953E+02</totfact>
</mgrwt>
</event>
<event>
 4    1  0.1578814E-005  0.4733345E+03  0.7818608E-02  0.1020983E+00
         -1   -1    0    0    0  501 -0.00000000000E+00  0.00000000000E+00  0.10914676980E+04  0.10914676980E+04  0.50400000000E-02 0. -1.
          1   -1    0    0  501    0  0.00000000000E+00 -0.00000000000E+00 -0.51317492600E+02  0.51317492848E+02  0.50400000000E-02 0.  1.
    5000001    1    1    2    0    0  0.82742705936E+02 -0.10887595919E+03  0.62715422145E+03  0.66885480290E+03  0.18800000000E+03 0.  0.
   -5000001    1    1    2    0    0 -0.82742705936E+02  0.10887595919E+03  0.41299598393E+03  0.47393038794E+03  0.18800000000E+03 0.  0.
<mgrwt>
<rscale>  0 0.47333449E+03</rscale>
<asrwt>0</asrwt>
<pdfrwt beam="1">  1        1 0.73310705E-02 0.47333449E+03</pdfrwt>
<pdfrwt beam="2">  1       -1 0.15592395E+00 0.47333449E+03</pdfrwt>
<totfact> 0.33253115E+02</totfact>
</mgrwt>
</event>
<event>
 4    1  0.1578814E-005  0.6786992E+03  0.7818608E-02  0.9754369E-01
          1   -1    0    0  501    0  0.00000000000E+00  0.00000000000E+00  0.64844482737E+03  0.64844482739E+03  0.50400000000E-02 0. -1.
         -1   -1    0    0    0  501 -0.00000000000E+00 -0.00000000000E+00 -0.17759129255E+03  0.17759129262E+03  0.50400000000E-02 0.  1.
    5000001    1    1    2    0    0  0.21882933827E+03  0.17301902285E+03  0.28975159470E+03  0.44398406299E+03  0.18800000000E+03 0.  0.
   -5000001    1    1    2    0    0 -0.21882933827E+03 -0.17301902285E+03  0.18110194013E+03  0.38205205702E+03  0.18800000000E+03 0.  0.
<mgrwt>
<rscale>  0 0.67869921E+03</rscale>
<asrwt>0</asrwt>
<pdfrwt beam="1">  1        1 0.92634974E-01 0.67869921E+03</pdfrwt>
<pdfrwt beam="2">  1       -1 0.25370185E-01 0.67869921E+03</pdfrwt>
<totfact> 0.46946772E+02</totfact>
</mgrwt>
</event>
<event>
 4    1  0.1578814E-005  0.7221063E+03  0.7818608E-02  0.9680157E-01
         -1   -1    0    0    0  501 -0.00000000000E+00  0.00000000000E+00  0.23435201453E+03  0.23435201458E+03  0.50400000000E-02 0. -1.
          1   -1    0    0  501    0  0.00000000000E+00 -0.00000000000E+00 -0.55625459896E+03  0.55625459898E+03  0.50400000000E-02 0.  1.
    5000001    1    1    2    0    0  0.13805849876E+03  0.18885217663E+02 -0.46198569386E+03  0.51787216749E+03  0.18800000000E+03 0.  0.
   -5000001    1    1    2    0    0 -0.13805849876E+03 -0.18885217663E+02  0.14008310943E+03  0.27273444607E+03  0.18800000000E+03 0.  0.
<mgrwt>
<rscale>  0 0.72210632E+03</rscale>
<asrwt>0</asrwt>
<pdfrwt beam="1">  1        1 0.79464943E-01 0.72210632E+03</pdfrwt>
<pdfrwt beam="2">  1       -1 0.33478859E-01 0.72210632E+03</pdfrwt>
<totfact> 0.35950723E+02</totfact>
</mgrwt>
</event>
<event>
 4    1  0.1578814E-005  0.8350296E+03  0.7818608E-02  0.9510653E-01
         -1   -1    0    0    0  501 -0.00000000000E+00  0.00000000000E+00  0.23637431783E+03  0.23637431789E+03  0.50400000000E-02 0. -1.
          1   -1    0    0  501    0  0.00000000000E+00 -0.00000000000E+00 -0.73746842099E+03  0.73746842101E+03  0.50400000000E-02 0.  1.
    5000001    1    1    2    0    0 -0.24240252130E+03  0.24141873091E+03 -0.77831229275E+02  0.39804985393E+03  0.18800000000E+03 0.  0.
   -5000001    1    1    2    0    0  0.24240252130E+03 -0.24141873091E+03 -0.42326287388E+03  0.57579288496E+03  0.18800000000E+03 0.  0.
<mgrwt>
<rscale>  0 0.83502957E+03</rscale>
<asrwt>0</asrwt>
<pdfrwt beam="1">  1        1 0.10535263E+00 0.83502957E+03</pdfrwt>
<pdfrwt beam="2">  1       -1 0.33767760E-01 0.83502957E+03</pdfrwt>
<totfact> 0.23487760E+02</totfact>
</mgrwt>
</event>
<event>
 4    1  0.1578814E-005  0.5535832E+03  0.7818608E-02  0.1000668E+00
          1   -1    0    0  501    0  0.00000000000E+00  0.00000000000E+00  0.10782433643E+04  0.10782433643E+04  0.50400000000E-02 0.  1.
         -1   -1    0    0    0  501 -0.00000000000E+00 -0.00000000000E+00 -0.71054072348E+02  0.71054072527E+02  0.50400000000E-02 0. -1.
    5000001    1    1    2    0    0 -0.48633983872E+02 -0.17118677938E+03  0.30018492694E+03  0.39639017165E+03  0.18800000000E+03 0.  0.
   -5000001    1    1    2    0    0  0.48633983872E+02  0.17118677938E+03  0.70700436497E+03  0.75290726515E+03  0.18800000000E+03 0.  0.
<mgrwt>
<rscale>  0 0.55358317E+03</rscale>
<asrwt>0</asrwt>
<pdfrwt beam="1">  1        1 0.15403475E+00 0.55358317E+03</pdfrwt>
<pdfrwt beam="2">  1       -1 0.10150583E-01 0.55358317E+03</pdfrwt>
<totfact> 0.94268119E+02</totfact>
</mgrwt>
</event>
<event>
 4    1  0.1578814E-005  0.5177463E+03  0.7818608E-02  0.1009248E+00
         -1   -1    0    0    0  501 -0.00000000000E+00  0.00000000000E+00  0.99631719166E+03  0.99631719168E+03  0.50400000000E-02 0.  1.
          1   -1    0    0  501    0  0.00000000000E+00 -0.00000000000E+00 -0.67263019278E+02  0.67263019467E+02  0.50400000000E-02 0. -1.
    5000001    1    1    2    0    0 -0.11766965945E+03  0.12387482954E+03  0.56683162441E+03  0.62115474125E+03  0.18800000000E+03 0.  0.
   -5000001    1    1    2    0    0  0.11766965945E+03 -0.12387482954E+03  0.36222254798E+03  0.44242546989E+03  0.18800000000E+03 0.  0.
<mgrwt>
<rscale>  0 0.51774628E+03</rscale>
<asrwt>0</asrwt>
<pdfrwt beam="1">  1        1 0.96090035E-02 0.51774628E+03</pdfrwt>
<pdfrwt beam="2">  1       -1 0.14233102E+00 0.51774628E+03</pdfrwt>
<totfact> 0.29105571E+02</totfact>
</mgrwt>
</event>
<event>
 4    1  0.1578814E-005  0.5179635E+03  0.7818608E-02  0.1009194E+00
         -1   -1    0    0    0  501 -0.00000000000E+00  0.00000000000E+00  0.35640175745E+02  0.35640176101E+02  0.50400000000E-02 0. -1.
          1   -1    0    0  501    0  0.00000000000E+00 -0.00000000000E+00 -0.18819080751E+04  0.18819080751E+04  0.50400000000E-02 0.  1.
    5000001    1    1    2    0    0 -0.70205086331E+02 -0.16302267852E+03 -0.97834193548E+03  0.10119298842E+04  0.18800000000E+03 0.  0.
   -5000001    1    1    2    0    0  0.70205086331E+02  0.16302267852E+03 -0.86792596390E+03  0.90561836701E+03  0.18800000000E+03 0.  0.
<mgrwt>
<rscale>  0 0.51796345E+03</rscale>
<asrwt>0</asrwt>
<pdfrwt beam="1">  1        1 0.26884395E+00 0.51796345E+03</pdfrwt>
<pdfrwt beam="2">  1       -1 0.50914549E-02 0.51796345E+03</pdfrwt>
<totfact> 0.82765793E+02</totfact>
</mgrwt>
</event>
<event>
 4    1  0.1578814E-005  0.6084666E+03  0.7818608E-02  0.9887995E-01
          1   -1    0    0  501    0  0.00000000000E+00  0.00000000000E+00  0.60672412751E+03  0.60672412753E+03  0.50400000000E-02 0.  1.
         -1   -1    0    0    0  501 -0.00000000000E+00 -0.00000000000E+00 -0.15255350067E+03  0.15255350076E+03  0.50400000000E-02 0. -1.
    5000001    1    1    2    0    0 -0.68500033570E+02  0.22274522324E+03  0.29435612653E+03  0.41987762301E+03  0.18800000000E+03 0.  0.
   -5000001    1    1    2    0    0  0.68500033570E+02 -0.22274522324E+03  0.15981450030E+03  0.33940000528E+03  0.18800000000E+03 0.  0.
<mgrwt>
<rscale>  0 0.60846656E+03</rscale>
<asrwt>0</asrwt>
<pdfrwt beam="1">  1        1 0.86674877E-01 0.60846656E+03</pdfrwt>
<pdfrwt beam="2">  1       -1 0.21793357E-01 0.60846656E+03</pdfrwt>
<totfact> 0.66833951E+02</totfact>
</mgrwt>
</event>
<event>
 4    1  0.1578814E-005  0.5450347E+03  0.7818608E-02  0.1002650E+00
         -1   -1    0    0    0  501 -0.00000000000E+00  0.00000000000E+00  0.23115664621E+03  0.23115664627E+03  0.50400000000E-02 0. -1.
          1   -1    0    0  501    0  0.00000000000E+00 -0.00000000000E+00 -0.32127864211E+03  0.32127864215E+03  0.50400000000E-02 0.  1.
    5000001    1    1    2    0    0 -0.15753956351E+03 -0.72167785329E+02  0.50531794716E+02  0.26062303350E+03  0.18800000000E+03 0.  0.
   -5000001    1    1    2    0    0  0.15753956351E+03  0.72167785329E+02 -0.14065379061E+03  0.29181225493E+03  0.18800000000E+03 0.  0.
<mgrwt>
<rscale>  0 0.54503465E+03</rscale>
<asrwt>0</asrwt>
<pdfrwt beam="1">  1        1 0.45896949E-01 0.54503465E+03</pdfrwt>
<pdfrwt beam="2">  1       -1 0.33022378E-01 0.54503465E+03</pdfrwt>
<totfact> 0.76480900E+02</totfact>
</mgrwt>
</event>
<event>
 4    1  0.1578814E-005  0.5949393E+03  0.7818608E-02  0.9915961E-01
         -1   -1    0    0    0  501 -0.00000000000E+00  0.00000000000E+00  0.11773261834E+03  0.11773261844E+03  0.50400000000E-02 0. -1.
          1   -1    0    0  501    0  0.00000000000E+00 -0.00000000000E+00 -0.75160312922E+03  0.75160312924E+03  0.50400000000E-02 0.  1.
    5000001    1    1    2    0    0  0.17861992784E+03  0.10693773883E+02 -0.10455661529E+03  0.27981336856E+03  0.18800000000E+03 0.  0.
   -5000001    1    1    2    0    0 -0.17861992784E+03 -0.10693773883E+02 -0.52931389560E+03  0.58952237913E+03  0.18800000000E+03 0.  0.
<mgrwt>
<rscale>  0 0.59493934E+03</rscale>
<asrwt>0</asrwt>
<pdfrwt beam="1">  1        1 0.10737187E+00 0.59493934E+03</pdfrwt>
<pdfrwt beam="2">  1       -1 0.16818946E-01 0.59493934E+03</pdfrwt>
<totfact> 0.75221637E+02</totfact>
</mgrwt>
</event>
<event>
 4    1  0.1578814E-005  0.6854096E+03  0.7818608E-02  0.9742514E-01
         -1   -1    0    0    0  501 -0.00000000000E+00  0.00000000000E+00  0.43682158936E+02  0.43682159227E+02  0.50400000000E-02 0. -1.
          1   -1    0    0  501    0  0.00000000000E+00 -0.00000000000E+00 -0.26886627028E+04  0.26886627028E+04  0.50400000000E-02 0.  1.
    5000001    1    1    2    0    0 -0.44154940591E+02 -0.28024278353E+03 -0.14827885873E+04  0.15213453491E+04  0.18800000000E+03 0.  0.
   -5000001    1    1    2    0    0  0.44154940591E+02  0.28024278353E+03 -0.11621919565E+04  0.12109995129E+04  0.18800000000E+03 0.  0.
<mgrwt>
<rscale>  0 0.68540963E+03</rscale>
<asrwt>0</asrwt>
<pdfrwt beam="1">  1        1 0.38409457E+00 0.68540963E+03</pdfrwt>
<pdfrwt beam="2">  1       -1 0.62403101E-02 0.68540963E+03</pdfrwt>
<totfact> 0.18861838E+02</totfact>
</mgrwt>
</event>
<event>
 4    1  0.1578814E-005  0.5474346E+03  0.7818608E-02  0.1002089E+00
          1   -1    0    0  501    0  0.00000000000E+00  0.00000000000E+00  0.21139409072E+04  0.21139409072E+04  0.50400000000E-02 0. -1.
         -1   -1    0    0    0  501 -0.00000000000E+00 -0.00000000000E+00 -0.35441460895E+02  0.35441461254E+02  0.50400000000E-02 0.  1.
    5000001    1    1    2    0    0 -0.11508712797E+03  0.11536766235E+03  0.14873003982E+04  0.15079659210E+04  0.18800000000E+03 0.  0.
   -5000001    1    1    2    0    0  0.11508712797E+03 -0.11536766235E+03  0.59119904813E+03  0.64141644744E+03  0.18800000000E+03 0.  0.
<mgrwt>
<rscale>  0 0.54743458E+03</rscale>
<asrwt>0</asrwt>
<pdfrwt beam="1">  1        1 0.30199174E+00 0.54743458E+03</pdfrwt>
<pdfrwt beam="2">  1       -1 0.50630628E-02 0.54743458E+03</pdfrwt>
<totfact> 0.59955483E+02</totfact>
</mgrwt>
</event>
<event>
 4    1  0.1578814E-005  0.6516303E+03  0.7818608E-02  0.9803725E-01
         -1   -1    0    0    0  501 -0.00000000000E+00  0.00000000000E+00  0.44232348395E+02  0.44232348682E+02  0.50400000000E-02 0. -1.
          1   -1    0    0  501    0  0.00000000000E+00 -0.00000000000E+00 -0.23999520246E+04  0.23999520246E+04  0.50400000000E-02 0.  1.
    5000001    1    1    2    0    0 -0.26097412183E+03  0.23992301872E+02 -0.10048150758E+04  0.10553105985E+04  0.18800000000E+03 0.  0.
   -5000001    1    1    2    0    0  0.26097412183E+03 -0.23992301872E+02 -0.13509046004E+04  0.13888737747E+04  0.18800000000E+03 0.  0.
<mgrwt>
<rscale>  0 0.65163031E+03</rscale>
<asrwt>0</asrwt>
<pdfrwt beam="1">  1        1 0.34285021E+00 0.65163031E+03</pdfrwt>
<pdfrwt beam="2">  1       -1 0.63189084E-02 0.65163031E+03</pdfrwt>
<totfact> 0.28151341E+02</totfact>
</mgrwt>
</event>
<event>
 4    1  0.1578814E-005  0.5952045E+03  0.7818608E-02  0.9915405E-01
          1   -1    0    0  501    0  0.00000000000E+00  0.00000000000E+00  0.12909231509E+04  0.12909231510E+04  0.50400000000E-02 0.  1.
         -1   -1    0    0    0  501 -0.00000000000E+00 -0.00000000000E+00 -0.68607570106E+02  0.68607570291E+02  0.50400000000E-02 0. -1.
    5000001    1    1    2    0    0  0.21056677652E+03  0.82423075337E+02  0.50670561605E+03  0.58585536787E+03  0.18800000000E+03 0.  0.
   -5000001    1    1    2    0    0 -0.21056677652E+03 -0.82423075337E+02  0.71560996479E+03  0.77367535338E+03  0.18800000000E+03 0.  0.
<mgrwt>
<rscale>  0 0.59520451E+03</rscale>
<asrwt>0</asrwt>
<pdfrwt beam="1">  1        1 0.18441761E+00 0.59520451E+03</pdfrwt>
<pdfrwt beam="2">  1       -1 0.98010806E-02 0.59520451E+03</pdfrwt>
<totfact> 0.70999604E+02</totfact>
</mgrwt>
</event>
<event>
 4    1  0.1578814E-005  0.4637300E+03  0.7818608E-02  0.1023705E+00
         -1   -1    0    0    0  501 -0.00000000000E+00  0.00000000000E+00  0.12222382486E+03  0.12222382497E+03  0.50400000000E-02 0. -1.
          1   -1    0    0  501    0  0.00000000000E+00 -0.00000000000E+00 -0.43986009609E+03  0.43986009612E+03  0.50400000000E-02 0.  1.
    5000001    1    1    2    0    0  0.42167937289E+02  0.93689539541E+02 -0.26628861169E+03  0.34177403276E+03  0.18800000000E+03 0.  0.
   -5000001    1    1    2    0    0 -0.42167937289E+02 -0.93689539541E+02 -0.51347659538E+02  0.22030988833E+03  0.18800000000E+03 0.  0.
<mgrwt>
<rscale>  0 0.46373002E+03</rscale>
<asrwt>0</asrwt>
<pdfrwt beam="1">  1        1 0.62837156E-01 0.46373002E+03</pdfrwt>
<pdfrwt beam="2">  1       -1 0.17460547E-01 0.46373002E+03</pdfrwt>
<totfact> 0.14911390E+03</totfact>
</mgrwt>
</event>
<event>
 4    1  0.1578814E-005  0.7038467E+03  0.7818608E-02  0.9710676E-01
          1   -1    0    0  501    0  0.00000000000E+00  0.00000000000E+00  0.10456955701E+04  0.10456955702E+04  0.50400000000E-02 0.  1.
         -1   -1    0    0    0  501 -0.00000000000E+00 -0.00000000000E+00 -0.11843794898E+03  0.11843794909E+03  0.50400000000E-02 0. -1.
    5000001    1    1    2    0    0  0.18335114798E+03  0.23378060607E+03  0.43827283679E+03  0.56187017602E+03  0.18800000000E+03 0.  0.
   -5000001    1    1    2    0    0 -0.18335114798E+03 -0.23378060607E+03  0.48898478437E+03  0.60226334322E+03  0.18800000000E+03 0.  0.
<mgrwt>
<rscale>  0 0.70384668E+03</rscale>
<asrwt>0</asrwt>
<pdfrwt beam="1">  1        1 0.14938508E+00 0.70384668E+03</pdfrwt>
<pdfrwt beam="2">  1       -1 0.16919707E-01 0.70384668E+03</pdfrwt>
<totfact> 0.43531999E+02</totfact>
</mgrwt>
</event>
<event>
 4    1  0.1578814E-005  0.7894156E+03  0.7818608E-02  0.9575465E-01
         -1   -1    0    0    0  501 -0.00000000000E+00  0.00000000000E+00  0.50677966952E+03  0.50677966955E+03  0.50400000000E-02 0. -1.
          1   -1    0    0  501    0  0.00000000000E+00 -0.00000000000E+00 -0.30742010464E+03  0.30742010469E+03  0.50400000000E-02 0.  1.
    5000001    1    1    2    0    0 -0.27443648752E+03 -0.19461989962E+03  0.11811369345E+02  0.38558500937E+03  0.18800000000E+03 0.  0.
   -5000001    1    1    2    0    0  0.27443648752E+03  0.19461989962E+03  0.18754819553E+03  0.42861476486E+03  0.18800000000E+03 0.  0.
<mgrwt>
<rscale>  0 0.78941563E+03</rscale>
<asrwt>0</asrwt>
<pdfrwt beam="1">  1        1 0.43917158E-01 0.78941563E+03</pdfrwt>
<pdfrwt beam="2">  1       -1 0.72397095E-01 0.78941563E+03</pdfrwt>
<totfact> 0.18213625E+02</totfact>
</mgrwt>
</event>
<event>
 4    1  0.1578814E-005  0.7421514E+03  0.7818608E-02  0.9647745E-01
          1   -1    0    0  501    0  0.00000000000E+00  0.00000000000E+00  0.94497916335E+03  0.94497916337E+03  0.50400000000E-02 0.  1.
         -1   -1    0    0    0  501 -0.00000000000E+00 -0.00000000000E+00 -0.14571451521E+03  0.14571451530E+03  0.50400000000E-02 0. -1.
    5000001    1    1    2    0    0  0.29374415778E+03  0.83185056294E+02  0.54019451998E+03  0.64835137328E+03  0.18800000000E+03 0.  0.
   -5000001    1    1    2    0    0 -0.29374415778E+03 -0.83185056294E+02  0.25907012817E+03  0.44234230538E+03  0.18800000000E+03 0.  0.
<mgrwt>
<rscale>  0 0.74215142E+03</rscale>
<asrwt>0</asrwt>
<pdfrwt beam="1">  1        1 0.13499703E+00 0.74215142E+03</pdfrwt>
<pdfrwt beam="2">  1       -1 0.20816359E-01 0.74215142E+03</pdfrwt>
<totfact> 0.36652746E+02</totfact>
</mgrwt>
</event>
<event>
 4    1  0.1578814E-005  0.6298310E+03  0.7818608E-02  0.9845379E-01
          1   -1    0    0  501    0  0.00000000000E+00  0.00000000000E+00  0.23715159455E+04  0.23715159455E+04  0.50400000000E-02 0.  1.
         -1   -1    0    0    0  501 -0.00000000000E+00 -0.00000000000E+00 -0.41817883723E+02  0.41817884026E+02  0.50400000000E-02 0. -1.
    5000001    1    1    2    0    0  0.61146310253E+02 -0.19031991955E+03  0.57288623516E+03  0.63521900276E+03  0.18800000000E+03 0.  0.
   -5000001    1    1    2    0    0 -0.61146310253E+02  0.19031991955E+03  0.17568118266E+04  0.17781148267E+04  0.18800000000E+03 0.  0.
<mgrwt>
<rscale>  0 0.62983102E+03</rscale>
<asrwt>0</asrwt>
<pdfrwt beam="1">  1        1 0.33878812E+00 0.62983102E+03</pdfrwt>
<pdfrwt beam="2">  1       -1 0.59739811E-02 0.62983102E+03</pdfrwt>
<totfact> 0.32034598E+02</totfact>
</mgrwt>
</event>
<event>
 4    1  0.1578814E-005  0.7807992E+03  0.7818608E-02  0.9588233E-01
         -1   -1    0    0    0  501 -0.00000000000E+00  0.00000000000E+00  0.76415002879E+02  0.76415003045E+02  0.50400000000E-02 0. -1.
          1   -1    0    0  501    0  0.00000000000E+00 -0.00000000000E+00 -0.19945279969E+04  0.19945279969E+04  0.50400000000E-02 0.  1.
    5000001    1    1    2    0    0  0.26401260534E+03 -0.22048567086E+02 -0.15333292981E+04  0.15673645177E+04  0.18800000000E+03 0.  0.
   -5000001    1    1    2    0    0 -0.26401260534E+03  0.22048567086E+02 -0.38478369593E+03  0.50357848221E+03  0.18800000000E+03 0.  0.
<mgrwt>
<rscale>  0 0.78079924E+03</rscale>
<asrwt>0</asrwt>
<pdfrwt beam="1">  1        1 0.28493254E+00 0.78079924E+03</pdfrwt>
<pdfrwt beam="2">  1       -1 0.10916430E-01 0.78079924E+03</pdfrwt>
<totfact> 0.21094834E+02</totfact>
</mgrwt>
</event>
<event>
 4    1  0.1578814E-005  0.6980613E+03  0.7818608E-02  0.9720553E-01
          1   -1    0    0  501    0  0.00000000000E+00  0.00000000000E+00  0.76031696685E+03  0.76031696687E+03  0.50400000000E-02 0.  1.
         -1   -1    0    0    0  501 -0.00000000000E+00 -0.00000000000E+00 -0.16022577773E+03  0.16022577781E+03  0.50400000000E-02 0. -1.
    5000001    1    1    2    0    0 -0.21897075654E+03  0.93110537109E+02  0.52792222461E+03  0.60882151701E+03  0.18800000000E+03 0.  0.
   -5000001    1    1    2    0    0  0.21897075654E+03 -0.93110537109E+02  0.72168964515E+02  0.31172122767E+03  0.18800000000E+03 0.  0.
<mgrwt>
<rscale>  0 0.69806125E+03</rscale>
<asrwt>0</asrwt>
<pdfrwt beam="1">  1        1 0.10861671E+00 0.69806125E+03</pdfrwt>
<pdfrwt beam="2">  1       -1 0.22889396E-01 0.69806125E+03</pdfrwt>
<totfact> 0.44184013E+02</totfact>
</mgrwt>
</event>
<event>
 4    1  0.1578814E-005  0.8842269E+03  0.7818608E-02  0.9445516E-01
          1   -1    0    0  501    0  0.00000000000E+00  0.00000000000E+00  0.12589371593E+04  0.12589371593E+04  0.50400000000E-02 0.  1.
         -1   -1    0    0    0  501 -0.00000000000E+00 -0.00000000000E+00 -0.15526135605E+03  0.15526135613E+03  0.50400000000E-02 0. -1.
    5000001    1    1    2    0    0  0.16051700816E+03 -0.24848467156E+03  0.12087019130E+03  0.37076130469E+03  0.18800000000E+03 0.  0.
   -5000001    1    1    2    0    0 -0.16051700816E+03  0.24848467156E+03  0.98280561196E+03  0.10434372108E+04  0.18800000000E+03 0.  0.
<mgrwt>
<rscale>  0 0.88422687E+03</rscale>
<asrwt>0</asrwt>
<pdfrwt beam="1">  1        1 0.17984816E+00 0.88422687E+03</pdfrwt>
<pdfrwt beam="2">  1       -1 0.22180194E-01 0.88422687E+03</pdfrwt>
<totfact> 0.19466454E+02</totfact>
</mgrwt>
</event>
<event>
 4    1  0.1578814E-005  0.6357638E+03  0.7818608E-02  0.9833865E-01
          1   -1    0    0  501    0  0.00000000000E+00  0.00000000000E+00  0.23476128931E+04  0.23476128931E+04  0.50400000000E-02 0.  1.
         -1   -1    0    0    0  501 -0.00000000000E+00 -0.00000000000E+00 -0.43043256886E+02  0.43043257181E+02  0.50400000000E-02 0. -1.
    5000001    1    1    2    0    0 -0.15509789020E+03 -0.19892781380E+03  0.98090161214E+03  0.10301163057E+04  0.18800000000E+03 0.  0.
   -5000001    1    1    2    0    0  0.15509789020E+03  0.19892781380E+03  0.13236680241E+04  0.13605398446E+04  0.18800000000E+03 0.  0.
<mgrwt>
<rscale>  0 0.63576381E+03</rscale>
<asrwt>0</asrwt>
<pdfrwt beam="1">  1        1 0.33537335E+00 0.63576381E+03</pdfrwt>
<pdfrwt beam="2">  1       -1 0.61490353E-02 0.63576381E+03</pdfrwt>
<totfact> 0.31687598E+02</totfact>
</mgrwt>
</event>
<event>
 4    1  0.1578814E-005  0.6436773E+03  0.7818608E-02  0.9818716E-01
         -1   -1    0    0    0  501 -0.00000000000E+00  0.00000000000E+00  0.34988283872E+03  0.34988283876E+03  0.50400000000E-02 0. -1.
          1   -1    0    0  501    0  0.00000000000E+00 -0.00000000000E+00 -0.29604230514E+03  0.29604230518E+03  0.50400000000E-02 0.  1.
    5000001    1    1    2    0    0 -0.25403327991E+03 -0.35065720361E+02 -0.22988818096E+02  0.31880244322E+03  0.18800000000E+03 0.  0.
   -5000001    1    1    2    0    0  0.25403327991E+03  0.35065720361E+02  0.76829351682E+02  0.32712270072E+03  0.18800000000E+03 0.  0.
<mgrwt>
<rscale>  0 0.64367732E+03</rscale>
<asrwt>0</asrwt>
<pdfrwt beam="1">  1        1 0.42291758E-01 0.64367732E+03</pdfrwt>
<pdfrwt beam="2">  1       -1 0.49983263E-01 0.64367732E+03</pdfrwt>
<totfact> 0.39925817E+02</totfact>
</mgrwt>
</event>
<event>
 4    1  0.1578814E-005  0.4494269E+03  0.7818608E-02  0.1027893E+00
          1   -1    0    0  501    0  0.00000000000E+00  0.00000000000E+00  0.19236680769E+04  0.19236680769E+04  0.50400000000E-02 0.  1.
         -1   -1    0    0    0  501 -0.00000000000E+00 -0.00000000000E+00 -0.26249920216E+02  0.26249920700E+02  0.50400000000E-02 0. -1.
    5000001    1    1    2    0    0 -0.10966470016E+03  0.38226186536E+02  0.77169605631E+03  0.80271189796E+03  0.18800000000E+03 0.  0.
   -5000001    1    1    2    0    0  0.10966470016E+03 -0.38226186536E+02  0.11257221004E+04  0.11472060996E+04  0.18800000000E+03 0.  0.
<mgrwt>
<rscale>  0 0.44942690E+03</rscale>
<asrwt>0</asrwt>
<pdfrwt beam="1">  1        1 0.27480983E+00 0.44942690E+03</pdfrwt>
<pdfrwt beam="2">  1       -1 0.37499872E-02 0.44942690E+03</pdfrwt>
<totfact> 0.12448241E+03</totfact>
</mgrwt>
</event>
<event>
 4    1  0.1578814E-005  0.6898577E+03  0.7818608E-02  0.9734736E-01
         -1   -1    0    0    0  501 -0.00000000000E+00  0.00000000000E+00  0.18206836072E+03  0.18206836078E+03  0.50400000000E-02 0. -1.
          1   -1    0    0  501    0  0.00000000000E+00 -0.00000000000E+00 -0.65346842978E+03  0.65346842980E+03  0.50400000000E-02 0.  1.
    5000001    1    1    2    0    0 -0.20289131791E+03 -0.23959208532E+02 -0.48360015728E+03  0.55763074043E+03  0.18800000000E+03 0.  0.
   -5000001    1    1    2    0    0  0.20289131791E+03  0.23959208532E+02  0.12200088219E+02  0.27790605015E+03  0.18800000000E+03 0.  0.
<mgrwt>
<rscale>  0 0.68985774E+03</rscale>
<asrwt>0</asrwt>
<pdfrwt beam="1">  1        1 0.93352632E-01 0.68985774E+03</pdfrwt>
<pdfrwt beam="2">  1       -1 0.26009766E-01 0.68985774E+03</pdfrwt>
<totfact> 0.44479656E+02</totfact>
</mgrwt>
</event>
<event>
 4    1  0.1578814E-005  0.7836185E+03  0.7818608E-02  0.9584036E-01
         -1   -1    0    0    0  501 -0.00000000000E+00  0.00000000000E+00  0.18431329098E+03  0.18431329105E+03  0.50400000000E-02 0.  1.
          1   -1    0    0  501    0  0.00000000000E+00 -0.00000000000E+00 -0.83289967259E+03  0.83289967261E+03  0.50400000000E-02 0. -1.
    5000001    1    1    2    0    0  0.28690152742E+03 -0.88027893542E+02 -0.10665727907E+03  0.36983938630E+03  0.18800000000E+03 0.  0.
   -5000001    1    1    2    0    0 -0.28690152742E+03  0.88027893542E+02 -0.54192910254E+03  0.64737357736E+03  0.18800000000E+03 0.  0.
<mgrwt>
<rscale>  0 0.78361848E+03</rscale>
<asrwt>0</asrwt>
<pdfrwt beam="1">  1        1 0.11898567E+00 0.78361848E+03</pdfrwt>
<pdfrwt beam="2">  1       -1 0.26330471E-01 0.78361848E+03</pdfrwt>
<totfact> 0.30139986E+02</totfact>
</mgrwt>
</event>
<event>
 4    1  0.1578814E-005  0.4788625E+03  0.7818608E-02  0.1019448E+00
         -1   -1    0    0    0  501 -0.00000000000E+00  0.00000000000E+00  0.79787378723E+02  0.79787378882E+02  0.50400000000E-02 0.  1.
          1   -1    0    0  501    0  0.00000000000E+00 -0.00000000000E+00 -0.71850116897E+03  0.71850116899E+03  0.50400000000E-02 0. -1.
    5000001    1    1    2    0    0 -0.94058559319E+02 -0.10422883426E+03 -0.23988445717E+03  0.33555806542E+03  0.18800000000E+03 0.  0.
   -5000001    1    1    2    0    0  0.94058559319E+02  0.10422883426E+03 -0.39882933308E+03  0.46273048246E+03  0.18800000000E+03 0.  0.
<mgrwt>
<rscale>  0 0.47886251E+03</rscale>
<asrwt>0</asrwt>
<pdfrwt beam="1">  1        1 0.10264302E+00 0.47886251E+03</pdfrwt>
<pdfrwt beam="2">  1       -1 0.11398197E-01 0.47886251E+03</pdfrwt>
<totfact> 0.15052161E+03</totfact>
</mgrwt>
</event>
<event>
 4    1  0.1578814E-005  0.1288334E+04  0.7818608E-02  0.9038868E-01
         -1   -1    0    0    0  501 -0.00000000000E+00  0.00000000000E+00  0.39189308655E+03  0.39189308658E+03  0.50400000000E-02 0. -1.
          1   -1    0    0  501    0  0.00000000000E+00 -0.00000000000E+00 -0.10588374742E+04  0.10588374742E+04  0.50400000000E-02 0.  1.
    5000001    1    1    2    0    0  0.62703791470E+02 -0.60322852803E+03 -0.21120007633E+03  0.66915311756E+03  0.18800000000E+03 0.  0.
   -5000001    1    1    2    0    0 -0.62703791470E+02  0.60322852803E+03 -0.45574431134E+03  0.78157744326E+03  0.18800000000E+03 0.  0.
<mgrwt>
<rscale>  0 0.12883339E+04</rscale>
<asrwt>0</asrwt>
<pdfrwt beam="1">  1        1 0.15126250E+00 0.12883339E+04</pdfrwt>
<pdfrwt beam="2">  1       -1 0.55984727E-01 0.12883339E+04</pdfrwt>
<totfact> 0.49569485E+01</totfact>
</mgrwt>
</event>
<event>
 4    1  0.1578814E-005  0.1429694E+04  0.7818608E-02  0.8932600E-01
          1   -1    0    0  501    0  0.00000000000E+00  0.00000000000E+00  0.15199133284E+04  0.15199133284E+04  0.50400000000E-02 0.  1.
         -1   -1    0    0    0  501 -0.00000000000E+00 -0.00000000000E+00 -0.33620770957E+03  0.33620770961E+03  0.50400000000E-02 0. -1.
    5000001    1    1    2    0    0  0.65016377949E+03 -0.21526292462E+03  0.48628939016E+03  0.86073947154E+03  0.18800000000E+03 0.  0.
   -5000001    1    1    2    0    0 -0.65016377949E+03  0.21526292462E+03  0.69741622866E+03  0.99538156648E+03  0.18800000000E+03 0.  0.
<mgrwt>
<rscale>  0 0.14296945E+04</rscale>
<asrwt>0</asrwt>
<pdfrwt beam="1">  1        1 0.21713047E+00 0.14296945E+04</pdfrwt>
<pdfrwt beam="2">  1       -1 0.48029674E-01 0.14296945E+04</pdfrwt>
<totfact> 0.31834398E+01</totfact>
</mgrwt>
</event>
<event>
 4    1  0.1578814E-005  0.1275019E+04  0.7818608E-02  0.9049614E-01
         -1   -1    0    0    0  501 -0.00000000000E+00  0.00000000000E+00  0.46779361515E+03  0.46779361517E+03  0.50400000000E-02 0. -1.
          1   -1    0    0  501    0  0.00000000000E+00 -0.00000000000E+00 -0.86879791559E+03  0.86879791560E+03  0.50400000000E-02 0.  1.
    5000001    1    1    2    0    0  0.14479271503E+03  0.47598933750E+03 -0.56896342040E+03  0.77884154582E+03  0.18800000000E+03 0.  0.
   -5000001    1    1    2    0    0 -0.14479271503E+03 -0.47598933750E+03  0.16795911996E+03  0.55774998496E+03  0.18800000000E+03 0.  0.
<mgrwt>
<rscale>  0 0.12750186E+04</rscale>
<asrwt>0</asrwt>
<pdfrwt beam="1">  1        1 0.12411399E+00 0.12750186E+04</pdfrwt>
<pdfrwt beam="2">  1       -1 0.66827660E-01 0.12750186E+04</pdfrwt>
<totfact> 0.48791648E+01</totfact>
</mgrwt>
</event>
<event>
 4    1  0.1578814E-005  0.1356368E+04  0.7818608E-02  0.8986021E-01
          1   -1    0    0  501    0  0.00000000000E+00  0.00000000000E+00  0.19986807354E+04  0.19986807355E+04  0.50400000000E-02 0.  1.
         -1   -1    0    0    0  501 -0.00000000000E+00 -0.00000000000E+00 -0.23011863112E+03  0.23011863117E+03  0.50400000000E-02 0. -1.
    5000001    1    1    2    0    0 -0.48683287958E+03  0.30679255324E+03  0.13866355947E+04  0.15130202232E+04  0.18800000000E+03 0.  0.
   -5000001    1    1    2    0    0  0.48683287958E+03 -0.30679255324E+03  0.38192650960E+03  0.71577914339E+03  0.18800000000E+03 0.  0.
<mgrwt>
<rscale>  0 0.13563682E+04</rscale>
<asrwt>0</asrwt>
<pdfrwt beam="1">  1        1 0.28552585E+00 0.13563682E+04</pdfrwt>
<pdfrwt beam="2">  1       -1 0.32874087E-01 0.13563682E+04</pdfrwt>
<totfact> 0.31737347E+01</totfact>
</mgrwt>
</event>
<event>
 4    1  0.1578814E-005  0.4925517E+03  0.7818608E-02  0.1015742E+00
          1   -1    0    0  501    0  0.00000000000E+00  0.00000000000E+00  0.60796719829E+03  0.60796719831E+03  0.50400000000E-02 0.  1.
         -1   -1    0    0    0  501 -0.00000000000E+00 -0.00000000000E+00 -0.99761630233E+02  0.99761630360E+02  0.50400000000E-02 0. -1.
    5000001    1    1    2    0    0  0.19164960231E+02  0.14338870554E+03  0.15900702680E+03  0.28557809991E+03  0.18800000000E+03 0.  0.
   -5000001    1    1    2    0    0 -0.19164960231E+02 -0.14338870554E+03  0.34919854126E+03  0.42215072876E+03  0.18800000000E+03 0.  0.
<mgrwt>
<rscale>  0 0.49255172E+03</rscale>
<asrwt>0</asrwt>
<pdfrwt beam="1">  1        1 0.86852453E-01 0.49255172E+03</pdfrwt>
<pdfrwt beam="2">  1       -1 0.14251662E-01 0.49255172E+03</pdfrwt>
<totfact> 0.13387063E+03</totfact>
</mgrwt>
</event>
<event>
 4    1  0.1578814E-005  0.6970068E+03  0.7818608E-02  0.9722365E-01
         -1   -1    0    0    0  501 -0.00000000000E+00  0.00000000000E+00  0.56564799977E+02  0.56564800201E+02  0.50400000000E-02 0. -1.
          1   -1    0    0  501    0  0.00000000000E+00 -0.00000000000E+00 -0.21471765369E+04  0.21471765369E+04  0.50400000000E-02 0.  1.
    5000001    1    1    2    0    0  0.54622690909E+02  0.28831710493E+03 -0.10438221332E+04  0.11004631012E+04  0.18800000000E+03 0.  0.
   -5000001    1    1    2    0    0 -0.54622690909E+02 -0.28831710493E+03 -0.10467896038E+04  0.11032782359E+04  0.18800000000E+03 0.  0.
<mgrwt>
<rscale>  0 0.69700678E+03</rscale>
<asrwt>0</asrwt>
<pdfrwt beam="1">  1        1 0.30673945E+00 0.69700678E+03</pdfrwt>
<pdfrwt beam="2">  1       -1 0.80806871E-02 0.69700678E+03</pdfrwt>
<totfact> 0.27449045E+02</totfact>
</mgrwt>
</event>
<event>
 4    1  0.1578814E-005  0.9725006E+03  0.7818608E-02  0.9339231E-01
          1   -1    0    0  501    0  0.00000000000E+00  0.00000000000E+00  0.13510144077E+04  0.13510144077E+04  0.50400000000E-02 0.  1.
         -1   -1    0    0    0  501 -0.00000000000E+00 -0.00000000000E+00 -0.17500875156E+03  0.17500875164E+03  0.50400000000E-02 0. -1.
    5000001    1    1    2    0    0  0.39339338389E+03  0.13283782410E+03  0.32220900933E+03  0.55818176940E+03  0.18800000000E+03 0.  0.
   -5000001    1    1    2    0    0 -0.39339338389E+03 -0.13283782410E+03  0.85379664684E+03  0.96784138998E+03  0.18800000000E+03 0.  0.
<mgrwt>
<rscale>  0 0.97250058E+03</rscale>
<asrwt>0</asrwt>
<pdfrwt beam="1">  1        1 0.19300206E+00 0.97250058E+03</pdfrwt>
<pdfrwt beam="2">  1       -1 0.25001250E-01 0.97250058E+03</pdfrwt>
<totfact> 0.13692391E+02</totfact>
</mgrwt>
</event>
<event>
 4    1  0.1578814E-005  0.2101557E+04  0.7818608E-02  0.8560558E-01
          1   -1    0    0  501    0  0.00000000000E+00  0.00000000000E+00  0.17954907451E+04  0.17954907451E+04  0.50400000000E-02 0.  1.
         -1   -1    0    0    0  501 -0.00000000000E+00 -0.00000000000E+00 -0.61494935876E+03  0.61494935878E+03  0.50400000000E-02 0. -1.
    5000001    1    1    2    0    0  0.74872475299E+03  0.71169054142E+03  0.63755763356E+03  0.12283793871E+04  0.18800000000E+03 0.  0.
   -5000001    1    1    2    0    0 -0.74872475299E+03 -0.71169054142E+03  0.54298375281E+03  0.11820607168E+04  0.18800000000E+03 0.  0.
<mgrwt>
<rscale>  0 0.21015574E+04</rscale>
<asrwt>0</asrwt>
<pdfrwt beam="1">  1        1 0.25649868E+00 0.21015574E+04</pdfrwt>
<pdfrwt beam="2">  1       -1 0.87849907E-01 0.21015574E+04</pdfrwt>
<totfact> 0.59043842E+00</totfact>
</mgrwt>
</event>
<event>
 4    1  0.1578814E-005  0.8380458E+03  0.7818608E-02  0.9506523E-01
         -1   -1    0    0    0  501 -0.00000000000E+00  0.00000000000E+00  0.10772278944E+04  0.10772278944E+04  0.50400000000E-02 0.  1.
          1   -1    0    0  501    0  0.00000000000E+00 -0.00000000000E+00 -0.16299259516E+03  0.16299259524E+03  0.50400000000E-02 0. -1.
    5000001    1    1    2    0    0 -0.48738584164E+02 -0.34345792542E+03  0.66586888561E+03  0.77399235716E+03  0.18800000000E+03 0.  0.
   -5000001    1    1    2    0    0  0.48738584164E+02  0.34345792542E+03  0.24836641366E+03  0.46622813252E+03  0.18800000000E+03 0.  0.
<mgrwt>
<rscale>  0 0.83804575E+03</rscale>
<asrwt>0</asrwt>
<pdfrwt beam="1">  1        1 0.23284656E-01 0.83804575E+03</pdfrwt>
<pdfrwt beam="2">  1       -1 0.15388970E+00 0.83804575E+03</pdfrwt>
<totfact> 0.70660530E+01</totfact>
</mgrwt>
</event>
<event>
 4    1  0.1578814E-005  0.1341048E+04  0.7818608E-02  0.8997633E-01
         -1   -1    0    0    0  501 -0.00000000000E+00  0.00000000000E+00  0.14551897280E+04  0.14551897280E+04  0.50400000000E-02 0. -1.
          1   -1    0    0  501    0  0.00000000000E+00 -0.00000000000E+00 -0.30896467568E+03  0.30896467572E+03  0.50400000000E-02 0.  1.
    5000001    1    1    2    0    0  0.45958834924E+03 -0.44057787570E+03  0.44881364943E+03  0.80131642142E+03  0.18800000000E+03 0.  0.
   -5000001    1    1    2    0    0 -0.45958834924E+03  0.44057787570E+03  0.69741140292E+03  0.96283798234E+03  0.18800000000E+03 0.  0.
<mgrwt>
<rscale>  0 0.13410477E+04</rscale>
<asrwt>0</asrwt>
<pdfrwt beam="1">  1        1 0.44137810E-01 0.13410477E+04</pdfrwt>
<pdfrwt beam="2">  1       -1 0.20788425E+00 0.13410477E+04</pdfrwt>
<totfact> 0.12113195E+01</totfact>
</mgrwt>
</event>
<event>
 4    1  0.1578814E-005  0.5830987E+03  0.7818608E-02  0.9941105E-01
          1   -1    0    0  501    0  0.00000000000E+00  0.00000000000E+00  0.12136750166E+04  0.12136750166E+04  0.50400000000E-02 0.  1.
         -1   -1    0    0    0  501 -0.00000000000E+00 -0.00000000000E+00 -0.70036076966E+02  0.70036077147E+02  0.50400000000E-02 0. -1.
    5000001    1    1    2    0    0  0.19565556771E+03  0.93274026216E+02  0.68570261837E+03  0.74331233407E+03  0.18800000000E+03 0.  0.
   -5000001    1    1    2    0    0 -0.19565556771E+03 -0.93274026216E+02  0.45793632130E+03  0.54039875972E+03  0.18800000000E+03 0.  0.
<mgrwt>
<rscale>  0 0.58309875E+03</rscale>
<asrwt>0</asrwt>
<pdfrwt beam="1">  1        1 0.17338213E+00 0.58309875E+03</pdfrwt>
<pdfrwt beam="2">  1       -1 0.10005155E-01 0.58309875E+03</pdfrwt>
<totfact> 0.77531940E+02</totfact>
</mgrwt>
</event>
<event>
 4    1  0.1578814E-005  0.5050448E+03  0.7818608E-02  0.1012470E+00
         -1   -1    0    0    0  501 -0.00000000000E+00  0.00000000000E+00  0.38937015484E+02  0.38937015810E+02  0.50400000000E-02 0.  1.
          1   -1    0    0  501    0  0.00000000000E+00 -0.00000000000E+00 -0.16377106318E+04  0.16377106318E+04  0.50400000000E-02 0. -1.
    5000001    1    1    2    0    0 -0.14231585834E+03  0.81902996936E+02 -0.92630827551E+03  0.95935026228E+03  0.18800000000E+03 0.  0.
   -5000001    1    1    2    0    0  0.14231585834E+03 -0.81902996936E+02 -0.67246534084E+03  0.71729738538E+03  0.18800000000E+03 0.  0.
<mgrwt>
<rscale>  0 0.50504481E+03</rscale>
<asrwt>0</asrwt>
<pdfrwt beam="1">  1        1 0.23395862E+00 0.50504481E+03</pdfrwt>
<pdfrwt beam="2">  1       -1 0.55624318E-02 0.50504481E+03</pdfrwt>
<totfact> 0.10260473E+03</totfact>
</mgrwt>
</event>
<event>
 4    1  0.1578814E-005  0.4894760E+03  0.7818608E-02  0.1016563E+00
         -1   -1    0    0    0  501 -0.00000000000E+00  0.00000000000E+00  0.31112128560E+02  0.31112128968E+02  0.50400000000E-02 0. -1.
          1   -1    0    0  501    0  0.00000000000E+00 -0.00000000000E+00 -0.19251879707E+04  0.19251879708E+04  0.50400000000E-02 0.  1.
    5000001    1    1    2    0    0 -0.12403896943E+03 -0.35471260885E+02 -0.13024726725E+04  0.13222794481E+04  0.18800000000E+03 0.  0.
   -5000001    1    1    2    0    0  0.12403896943E+03  0.35471260885E+02 -0.59160316969E+03  0.63402065162E+03  0.18800000000E+03 0.  0.
<mgrwt>
<rscale>  0 0.48947603E+03</rscale>
<asrwt>0</asrwt>
<pdfrwt beam="1">  1        1 0.27502678E+00 0.48947603E+03</pdfrwt>
<pdfrwt beam="2">  1       -1 0.44445910E-02 0.48947603E+03</pdfrwt>
<totfact> 0.95870161E+02</totfact>
</mgrwt>
</event>
<event>
 4    1  0.1578814E-005  0.5751624E+03  0.7818608E-02  0.9958320E-01
         -1   -1    0    0    0  501 -0.00000000000E+00  0.00000000000E+00  0.22346790902E+03  0.22346790907E+03  0.50400000000E-02 0.  1.
          1   -1    0    0  501    0  0.00000000000E+00 -0.00000000000E+00 -0.37008866451E+03  0.37008866454E+03  0.50400000000E-02 0. -1.
    5000001    1    1    2    0    0  0.64342834797E+02 -0.20464119953E+03 -0.35520721828E+02  0.28744345986E+03  0.18800000000E+03 0.  0.
   -5000001    1    1    2    0    0 -0.64342834797E+02  0.20464119953E+03 -0.11110003366E+03  0.30611311376E+03  0.18800000000E+03 0.  0.
<mgrwt>
<rscale>  0 0.57516238E+03</rscale>
<asrwt>0</asrwt>
<pdfrwt beam="1">  1        1 0.52869809E-01 0.57516238E+03</pdfrwt>
<pdfrwt beam="2">  1       -1 0.31923987E-01 0.57516238E+03</pdfrwt>
<totfact> 0.67567300E+02</totfact>
</mgrwt>
</event>
<event>
 4    1  0.1578814E-005  0.7143244E+03  0.7818608E-02  0.9693044E-01
          1   -1    0    0  501    0  0.00000000000E+00  0.00000000000E+00  0.81106558481E+02  0.81106558637E+02  0.50400000000E-02 0.  1.
         -1   -1    0    0    0  501 -0.00000000000E+00 -0.00000000000E+00 -0.15728054735E+04  0.15728054735E+04  0.50400000000E-02 0. -1.
    5000001    1    1    2    0    0  0.23382877687E+03  0.18642101088E+03 -0.62350445967E+03  0.71661042514E+03  0.18800000000E+03 0.  0.
   -5000001    1    1    2    0    0 -0.23382877687E+03 -0.18642101088E+03 -0.86819445531E+03  0.93730160696E+03  0.18800000000E+03 0.  0.
<mgrwt>
<rscale>  0 0.71432441E+03</rscale>
<asrwt>0</asrwt>
<pdfrwt beam="1">  1        1 0.11586652E-01 0.71432441E+03</pdfrwt>
<pdfrwt beam="2">  1       -1 0.22468648E+00 0.71432441E+03</pdfrwt>
<totfact> 0.57751345E+01</totfact>
</mgrwt>
</event>
<event>
 4    1  0.1578814E-005  0.6281602E+03  0.7818608E-02  0.9848646E-01
          1   -1    0    0  501    0  0.00000000000E+00  0.00000000000E+00  0.22404313884E+04  0.22404313884E+04  0.50400000000E-02 0.  1.
         -1   -1    0    0    0  501 -0.00000000000E+00 -0.00000000000E+00 -0.44030055875E+02  0.44030056163E+02  0.50400000000E-02 0. -1.
    5000001    1    1    2    0    0  0.17359480796E+03 -0.17513571931E+03  0.12798431830E+04  0.13168713873E+04  0.18800000000E+03 0.  0.
   -5000001    1    1    2    0    0 -0.17359480796E+03  0.17513571931E+03  0.91655814945E+03  0.96759005723E+03  0.18800000000E+03 0.  0.
<mgrwt>
<rscale>  0 0.62816023E+03</rscale>
<asrwt>0</asrwt>
<pdfrwt beam="1">  1        1 0.32006163E+00 0.62816023E+03</pdfrwt>
<pdfrwt beam="2">  1       -1 0.62900080E-02 0.62816023E+03</pdfrwt>
<totfact> 0.35673936E+02</totfact>
</mgrwt>
</event>
<event>
 4    1  0.1578814E-005  0.9936727E+03  0.7818608E-02  0.9315512E-01
         -1   -1    0    0    0  501 -0.00000000000E+00  0.00000000000E+00  0.50415504459E+03  0.50415504462E+03  0.50400000000E-02 0. -1.
          1   -1    0    0  501    0  0.00000000000E+00 -0.00000000000E+00 -0.48962392691E+03  0.48962392693E+03  0.50400000000E-02 0.  1.
    5000001    1    1    2    0    0 -0.78719955085E+02 -0.44111010014E+03  0.11084989657E+03  0.49840410446E+03  0.18800000000E+03 0.  0.
   -5000001    1    1    2    0    0  0.78719955085E+02  0.44111010014E+03 -0.96318778881E+02  0.49537486709E+03  0.18800000000E+03 0.  0.
<mgrwt>
<rscale>  0 0.99367273E+03</rscale>
<asrwt>0</asrwt>
<pdfrwt beam="1">  1        1 0.69946275E-01 0.99367273E+03</pdfrwt>
<pdfrwt beam="2">  1       -1 0.72022149E-01 0.99367273E+03</pdfrwt>
<totfact> 0.98588582E+01</totfact>
</mgrwt>
</event>
<event>
 4    1  0.1578814E-005  0.1315414E+04  0.7818608E-02  0.9017430E-01
         -1   -1    0    0    0  501 -0.00000000000E+00  0.00000000000E+00  0.61843832162E+03  0.61843832164E+03  0.50400000000E-02 0. -1.
          1   -1    0    0  501    0  0.00000000000E+00 -0.00000000000E+00 -0.69946911964E+03  0.69946911965E+03  0.50400000000E-02 0.  1.
    5000001    1    1    2    0    0  0.16519581946E+03  0.59357097811E+03 -0.17350111096E+03  0.66713027238E+03  0.18800000000E+03 0.  0.
   -5000001    1    1    2    0    0 -0.16519581946E+03 -0.59357097811E+03  0.92470312951E+02  0.65077716892E+03  0.18800000000E+03 0.  0.
<mgrwt>
<rscale>  0 0.13154140E+04</rscale>
<asrwt>0</asrwt>
<pdfrwt beam="1">  1        1 0.99924159E-01 0.13154140E+04</pdfrwt>
<pdfrwt beam="2">  1       -1 0.88348332E-01 0.13154140E+04</pdfrwt>
<totfact> 0.37737881E+01</totfact>
</mgrwt>
</event>
<event>
 4    1  0.1578814E-005  0.4967122E+03  0.7818608E-02  0.1014641E+00
         -1   -1    0    0    0  501 -0.00000000000E+00  0.00000000000E+00  0.35065701847E+03  0.35065701850E+03  0.50400000000E-02 0. -1.
          1   -1    0    0  501    0  0.00000000000E+00 -0.00000000000E+00 -0.17590053896E+03  0.17590053903E+03  0.50400000000E-02 0.  1.
    5000001    1    1    2    0    0  0.73258469342E+02  0.14088126651E+03  0.12289386549E+03  0.27506587712E+03  0.18800000000E+03 0.  0.
   -5000001    1    1    2    0    0 -0.73258469342E+02 -0.14088126651E+03  0.51862614021E+02  0.25149168041E+03  0.18800000000E+03 0.  0.
<mgrwt>
<rscale>  0 0.49671222E+03</rscale>
<asrwt>0</asrwt>
<pdfrwt beam="1">  1        1 0.25128648E-01 0.49671222E+03</pdfrwt>
<pdfrwt beam="2">  1       -1 0.50093860E-01 0.49671222E+03</pdfrwt>
<totfact> 0.78031936E+02</totfact>
</mgrwt>
</event>
<event>
 4    1  0.1578814E-005  0.1017276E+04  0.7818608E-02  0.9289797E-01
          1   -1    0    0  501    0  0.00000000000E+00  0.00000000000E+00  0.13180553970E+04  0.13180553970E+04  0.50400000000E-02 0.  1.
         -1   -1    0    0    0  501 -0.00000000000E+00 -0.00000000000E+00 -0.19628355916E+03  0.19628355922E+03  0.50400000000E-02 0. -1.
    5000001    1    1    2    0    0 -0.15688489462E+02  0.46890671679E+03  0.64573691441E+03  0.82002426816E+03  0.18800000000E+03 0.  0.
   -5000001    1    1    2    0    0  0.15688489462E+02 -0.46890671679E+03  0.47603492345E+03  0.69431468809E+03  0.18800000000E+03 0.  0.
<mgrwt>
<rscale>  0 0.10172760E+04</rscale>
<asrwt>0</asrwt>
<pdfrwt beam="1">  1        1 0.18829363E+00 0.10172760E+04</pdfrwt>
<pdfrwt beam="2">  1       -1 0.28040508E-01 0.10172760E+04</pdfrwt>
<totfact> 0.11788172E+02</totfact>
</mgrwt>
</event>
<event>
 4    1  0.1578814E-005  0.1092522E+04  0.7818608E-02  0.9212512E-01
          1   -1    0    0  501    0  0.00000000000E+00  0.00000000000E+00  0.24207414799E+04  0.24207414799E+04  0.50400000000E-02 0.  1.
         -1   -1    0    0    0  501 -0.00000000000E+00 -0.00000000000E+00 -0.12326839615E+03  0.12326839625E+03  0.50400000000E-02 0. -1.
    5000001    1    1    2    0    0 -0.34107080626E+03 -0.30230470834E+03  0.60095639511E+03  0.77730947530E+03  0.18800000000E+03 0.  0.
   -5000001    1    1    2    0    0  0.34107080626E+03  0.30230470834E+03  0.16965166887E+04  0.17667004009E+04  0.18800000000E+03 0.  0.
<mgrwt>
<rscale>  0 0.10925217E+04</rscale>
<asrwt>0</asrwt>
<pdfrwt beam="1">  1        1 0.34582021E+00 0.10925217E+04</pdfrwt>
<pdfrwt beam="2">  1       -1 0.17609771E-01 0.10925217E+04</pdfrwt>
<totfact> 0.51250068E+01</totfact>
</mgrwt>
</event>
<event>
 4    1  0.1578814E-005  0.4532621E+03  0.7818608E-02  0.1026754E+00
         -1   -1    0    0    0  501 -0.00000000000E+00  0.00000000000E+00  0.12126872581E+03  0.12126872592E+03  0.50400000000E-02 0. -1.
          1   -1    0    0  501    0  0.00000000000E+00 -0.00000000000E+00 -0.42353559422E+03  0.42353559425E+03  0.50400000000E-02 0.  1.
    5000001    1    1    2    0    0 -0.34491194499E+02 -0.11175311605E+03 -0.92999895846E+02  0.24014866660E+03  0.18800000000E+03 0.  0.
   -5000001    1    1    2    0    0  0.34491194499E+02  0.11175311605E+03 -0.20926697256E+03  0.30465565357E+03  0.18800000000E+03 0.  0.
<mgrwt>
<rscale>  0 0.45326205E+03</rscale>
<asrwt>0</asrwt>
<pdfrwt beam="1">  1        1 0.60505084E-01 0.45326205E+03</pdfrwt>
<pdfrwt beam="2">  1       -1 0.17324104E-01 0.45326205E+03</pdfrwt>
<totfact> 0.15866878E+03</totfact>
</mgrwt>
</event>
<event>
 4    1  0.1578814E-005  0.4146820E+03  0.7818608E-02  0.1038811E+00
          1   -1    0    0  501    0  0.00000000000E+00  0.00000000000E+00  0.31550585629E+04  0.31550585629E+04  0.50400000000E-02 0.  1.
         -1   -1    0    0    0  501 -0.00000000000E+00 -0.00000000000E+00 -0.13625829383E+02  0.13625830315E+02  0.50400000000E-02 0. -1.
    5000001    1    1    2    0    0  0.25473844648E+02  0.81589945073E+02  0.14297245789E+04  0.14445629814E+04  0.18800000000E+03 0.  0.
   -5000001    1    1    2    0    0 -0.25473844648E+02 -0.81589945073E+02  0.17117081546E+04  0.17241214118E+04  0.18800000000E+03 0.  0.
<mgrwt>
<rscale>  0 0.41468200E+03</rscale>
<asrwt>0</asrwt>
<pdfrwt beam="1">  1        1 0.45072237E+00 0.41468200E+03</pdfrwt>
<pdfrwt beam="2">  1       -1 0.19465483E-02 0.41468200E+03</pdfrwt>
<totfact> 0.56642954E+02</totfact>
</mgrwt>
</event>
<event>
 4    1  0.1578814E-005  0.6428144E+03  0.7818608E-02  0.9820357E-01
          1   -1    0    0  501    0  0.00000000000E+00  0.00000000000E+00  0.94129224078E+03  0.94129224080E+03  0.50400000000E-02 0.  1.
         -1   -1    0    0    0  501 -0.00000000000E+00 -0.00000000000E+00 -0.10974551023E+03  0.10974551035E+03  0.50400000000E-02 0. -1.
    5000001    1    1    2    0    0  0.30633978401E+02  0.22555717706E+03  0.62352279547E+03  0.68988343742E+03  0.18800000000E+03 0.  0.
   -5000001    1    1    2    0    0 -0.30633978401E+02 -0.22555717706E+03  0.20802393508E+03  0.36115431372E+03  0.18800000000E+03 0.  0.
<mgrwt>
<rscale>  0 0.64281443E+03</rscale>
<asrwt>0</asrwt>
<pdfrwt beam="1">  1        1 0.13447033E+00 0.64281443E+03</pdfrwt>
<pdfrwt beam="2">  1       -1 0.15677929E-01 0.64281443E+03</pdfrwt>
<totfact> 0.59123617E+02</totfact>
</mgrwt>
</event>
<event>
 4    1  0.1578814E-005  0.6043552E+03  0.7818608E-02  0.9896411E-01
          1   -1    0    0  501    0  0.00000000000E+00  0.00000000000E+00  0.11520010918E+04  0.11520010918E+04  0.50400000000E-02 0. -1.
         -1   -1    0    0    0  501 -0.00000000000E+00 -0.00000000000E+00 -0.79263214816E+02  0.79263214977E+02  0.50400000000E-02 0.  1.
    5000001    1    1    2    0    0  0.13192527903E+02 -0.23377411381E+03  0.46749276375E+03  0.55562385050E+03  0.18800000000E+03 0.  0.
   -5000001    1    1    2    0    0 -0.13192527903E+02  0.23377411381E+03  0.60524511319E+03  0.67564045625E+03  0.18800000000E+03 0.  0.
<mgrwt>
<rscale>  0 0.60435523E+03</rscale>
<asrwt>0</asrwt>
<pdfrwt beam="1">  1        1 0.16457158E+00 0.60435523E+03</pdfrwt>
<pdfrwt beam="2">  1       -1 0.11323317E-01 0.60435523E+03</pdfrwt>
<totfact> 0.70225409E+02</totfact>
</mgrwt>
</event>
<event>
 4    1  0.1578814E-005  0.5136594E+03  0.7818608E-02  0.1010274E+00
         -1   -1    0    0    0  501 -0.00000000000E+00  0.00000000000E+00  0.10098921202E+04  0.10098921203E+04  0.50400000000E-02 0.  1.
          1   -1    0    0  501    0  0.00000000000E+00 -0.00000000000E+00 -0.65315380112E+02  0.65315380306E+02  0.50400000000E-02 0. -1.
    5000001    1    1    2    0    0 -0.12551432878E+03  0.38777879634E+02  0.71423465082E+03  0.75015512203E+03  0.18800000000E+03 0.  0.
   -5000001    1    1    2    0    0  0.12551432878E+03 -0.38777879634E+02  0.23034208930E+03  0.32505237852E+03  0.18800000000E+03 0.  0.
<mgrwt>
<rscale>  0 0.51365937E+03</rscale>
<asrwt>0</asrwt>
<pdfrwt beam="1">  1        1 0.93307683E-02 0.51365937E+03</pdfrwt>
<pdfrwt beam="2">  1       -1 0.14427031E+00 0.51365937E+03</pdfrwt>
<totfact> 0.29257512E+02</totfact>
</mgrwt>
</event>
<event>
 4    1  0.1578814E-005  0.1129801E+04  0.7818608E-02  0.9176623E-01
         -1   -1    0    0    0  501 -0.00000000000E+00  0.00000000000E+00  0.65557848172E+03  0.65557848173E+03  0.50400000000E-02 0. -1.
          1   -1    0    0  501    0  0.00000000000E+00 -0.00000000000E+00 -0.48676509640E+03  0.48676509643E+03  0.50400000000E-02 0.  1.
    5000001    1    1    2    0    0 -0.61731538143E+02 -0.45098908125E+03  0.36418555851E+03  0.61251698363E+03  0.18800000000E+03 0.  0.
   -5000001    1    1    2    0    0  0.61731538143E+02  0.45098908125E+03 -0.19537217320E+03  0.52982659453E+03  0.18800000000E+03 0.  0.
<mgrwt>
<rscale>  0 0.11298013E+04</rscale>
<asrwt>0</asrwt>
<pdfrwt beam="1">  1        1 0.69537871E-01 0.11298013E+04</pdfrwt>
<pdfrwt beam="2">  1       -1 0.93654069E-01 0.11298013E+04</pdfrwt>
<totfact> 0.56042884E+01</totfact>
</mgrwt>
</event>
<event>
 4    1  0.1578814E-005  0.4726990E+03  0.7818608E-02  0.1021161E+00
         -1   -1    0    0    0  501 -0.00000000000E+00  0.00000000000E+00  0.33240726333E+03  0.33240726337E+03  0.50400000000E-02 0. -1.
          1   -1    0    0  501    0  0.00000000000E+00 -0.00000000000E+00 -0.16805013753E+03  0.16805013761E+03  0.50400000000E-02 0.  1.
    5000001    1    1    2    0    0 -0.90204745386E+02 -0.73712946919E+02 -0.60620099548E+01  0.22124927706E+03  0.18800000000E+03 0.  0.
   -5000001    1    1    2    0    0  0.90204745386E+02  0.73712946919E+02  0.17041913575E+03  0.27920812392E+03  0.18800000000E+03 0.  0.
<mgrwt>
<rscale>  0 0.47269900E+03</rscale>
<asrwt>0</asrwt>
<pdfrwt beam="1">  1        1 0.24007163E-01 0.47269900E+03</pdfrwt>
<pdfrwt beam="2">  1       -1 0.47486751E-01 0.47269900E+03</pdfrwt>
<totfact> 0.91492053E+02</totfact>
</mgrwt>
</event>
<event>
 4    1  0.1578814E-005  0.9142723E+03  0.7818608E-02  0.9407914E-01
         -1   -1    0    0    0  501 -0.00000000000E+00  0.00000000000E+00  0.15916341856E+03  0.15916341864E+03  0.50400000000E-02 0.  1.
          1   -1    0    0  501    0  0.00000000000E+00 -0.00000000000E+00 -0.13129490292E+04  0.13129490292E+04  0.50400000000E-02 0. -1.
    5000001    1    1    2    0    0  0.34815688994E+03 -0.12707506800E+03 -0.88353238180E+03  0.97638863298E+03  0.18800000000E+03 0.  0.
   -5000001    1    1    2    0    0 -0.34815688994E+03  0.12707506800E+03 -0.27025322883E+03  0.49572381485E+03  0.18800000000E+03 0.  0.
<mgrwt>
<rscale>  0 0.91427229E+03</rscale>
<asrwt>0</asrwt>
<pdfrwt beam="1">  1        1 0.18756414E+00 0.91427229E+03</pdfrwt>
<pdfrwt beam="2">  1       -1 0.22737632E-01 0.91427229E+03</pdfrwt>
<totfact> 0.17128844E+02</totfact>
</mgrwt>
</event>
<event>
 4    1  0.1578814E-005  0.6228674E+03  0.7818608E-02  0.9859067E-01
          1   -1    0    0  501    0  0.00000000000E+00  0.00000000000E+00  0.67548838873E+03  0.67548838875E+03  0.50400000000E-02 0. -1.
         -1   -1    0    0    0  501 -0.00000000000E+00 -0.00000000000E+00 -0.14358638422E+03  0.14358638430E+03  0.50400000000E-02 0.  1.
    5000001    1    1    2    0    0  0.44224127808E+02 -0.19111848216E+03  0.65806769665E+02  0.27956498106E+03  0.18800000000E+03 0.  0.
   -5000001    1    1    2    0    0 -0.44224127808E+02  0.19111848216E+03  0.46609523485E+03  0.53950979199E+03  0.18800000000E+03 0.  0.
<mgrwt>
<rscale>  0 0.62286735E+03</rscale>
<asrwt>0</asrwt>
<pdfrwt beam="1">  1        1 0.96498342E-01 0.62286735E+03</pdfrwt>
<pdfrwt beam="2">  1       -1 0.20512340E-01 0.62286735E+03</pdfrwt>
<totfact> 0.63418608E+02</totfact>
</mgrwt>
</event>
<event>
 4    1  0.1578814E-005  0.1918836E+04  0.7818608E-02  0.8645537E-01
          1   -1    0    0  501    0  0.00000000000E+00  0.00000000000E+00  0.19869761009E+04  0.19869761009E+04  0.50400000000E-02 0.  1.
         -1   -1    0    0    0  501 -0.00000000000E+00 -0.00000000000E+00 -0.46325831672E+03  0.46325831675E+03  0.50400000000E-02 0. -1.
    5000001    1    1    2    0    0 -0.41931649970E+03 -0.71629929446E+03  0.13275123075E+04  0.15768779067E+04  0.18800000000E+03 0.  0.
   -5000001    1    1    2    0    0  0.41931649970E+03  0.71629929446E+03  0.19620547673E+03  0.87335651098E+03  0.18800000000E+03 0.  0.
<mgrwt>
<rscale>  0 0.19188363E+04</rscale>
<asrwt>0</asrwt>
<pdfrwt beam="1">  1        1 0.28385372E+00 0.19188363E+04</pdfrwt>
<pdfrwt beam="2">  1       -1 0.66179762E-01 0.19188363E+04</pdfrwt>
<totfact> 0.82340089E+00</totfact>
</mgrwt>
</event>
<event>
 4    1  0.1578814E-005  0.4254600E+03  0.7818608E-02  0.1035304E+00
          1   -1    0    0  501    0  0.00000000000E+00  0.00000000000E+00  0.57826275472E+03  0.57826275474E+03  0.50400000000E-02 0.  1.
         -1   -1    0    0    0  501 -0.00000000000E+00 -0.00000000000E+00 -0.78258642923E+02  0.78258643085E+02  0.50400000000E-02 0. -1.
    5000001    1    1    2    0    0 -0.96854796712E+02  0.22161010503E+02  0.25952634271E+03  0.33551435826E+03  0.18800000000E+03 0.  0.
   -5000001    1    1    2    0    0  0.96854796712E+02 -0.22161010503E+02  0.24047776908E+03  0.32100703957E+03  0.18800000000E+03 0.  0.
<mgrwt>
<rscale>  0 0.42546003E+03</rscale>
<asrwt>0</asrwt>
<pdfrwt beam="1">  1        1 0.82608965E-01 0.42546003E+03</pdfrwt>
<pdfrwt beam="2">  1       -1 0.11179806E-01 0.42546003E+03</pdfrwt>
<totfact> 0.21098308E+03</totfact>
</mgrwt>
</event>
<event>
 4    1  0.1578814E-005  0.6927499E+03  0.7818608E-02  0.9729712E-01
         -1   -1    0    0    0  501 -0.00000000000E+00  0.00000000000E+00  0.11750698119E+03  0.11750698130E+03  0.50400000000E-02 0.  1.
          1   -1    0    0  501    0  0.00000000000E+00 -0.00000000000E+00 -0.10210083903E+04  0.10210083904E+04  0.50400000000E-02 0. -1.
    5000001    1    1    2    0    0 -0.28968597564E+03 -0.14094632960E+02 -0.41445471993E+03  0.53966039139E+03  0.18800000000E+03 0.  0.
   -5000001    1    1    2    0    0  0.28968597564E+03  0.14094632960E+02 -0.48904668922E+03  0.59885498027E+03  0.18800000000E+03 0.  0.
<mgrwt>
<rscale>  0 0.69274992E+03</rscale>
<asrwt>0</asrwt>
<pdfrwt beam="1">  1        1 0.14585834E+00 0.69274992E+03</pdfrwt>
<pdfrwt beam="2">  1       -1 0.16786712E-01 0.69274992E+03</pdfrwt>
<totfact> 0.45994537E+02</totfact>
</mgrwt>
</event>
<event>
 4    1  0.1578814E-005  0.4625012E+03  0.7818608E-02  0.1024058E+00
         -1   -1    0    0    0  501 -0.00000000000E+00  0.00000000000E+00  0.14906512230E+03  0.14906512238E+03  0.50400000000E-02 0. -1.
          1   -1    0    0  501    0  0.00000000000E+00 -0.00000000000E+00 -0.35874822590E+03  0.35874822594E+03  0.50400000000E-02 0.  1.
    5000001    1    1    2    0    0 -0.83639609814E+02  0.10057402634E+03 -0.69738563402E+02  0.23941216830E+03  0.18800000000E+03 0.  0.
   -5000001    1    1    2    0    0  0.83639609814E+02 -0.10057402634E+03 -0.13994454020E+03  0.26840118002E+03  0.18800000000E+03 0.  0.
<mgrwt>
<rscale>  0 0.46250124E+03</rscale>
<asrwt>0</asrwt>
<pdfrwt beam="1">  1        1 0.51249746E-01 0.46250124E+03</pdfrwt>
<pdfrwt beam="2">  1       -1 0.21295018E-01 0.46250124E+03</pdfrwt>
<totfact> 0.14016846E+03</totfact>
</mgrwt>
</event>
<event>
 4    1  0.1578814E-005  0.4804372E+03  0.7818608E-02  0.1019015E+00
          1   -1    0    0  501    0  0.00000000000E+00  0.00000000000E+00  0.45669592119E+03  0.45669592122E+03  0.50400000000E-02 0. -1.
         -1   -1    0    0    0  501 -0.00000000000E+00 -0.00000000000E+00 -0.12635317077E+03  0.12635317087E+03  0.50400000000E-02 0.  1.
    5000001    1    1    2    0    0 -0.18172832163E+02  0.10167728996E+03  0.29639781171E+03  0.36587454941E+03  0.18800000000E+03 0.  0.
   -5000001    1    1    2    0    0  0.18172832163E+02 -0.10167728996E+03  0.33944938716E+02  0.21717454268E+03  0.18800000000E+03 0.  0.
<mgrwt>
<rscale>  0 0.48043721E+03</rscale>
<asrwt>0</asrwt>
<pdfrwt beam="1">  1        1 0.65242276E-01 0.48043721E+03</pdfrwt>
<pdfrwt beam="2">  1       -1 0.18050453E-01 0.48043721E+03</pdfrwt>
<totfact> 0.13445080E+03</totfact>
</mgrwt>
</event>
<event>
 4    1  0.1578814E-005  0.7837857E+03  0.7818608E-02  0.9583788E-01
         -1   -1    0    0    0  501 -0.00000000000E+00  0.00000000000E+00  0.11111254323E+04  0.11111254323E+04  0.50400000000E-02 0.  1.
          1   -1    0    0  501    0  0.00000000000E+00 -0.00000000000E+00 -0.13822021877E+03  0.13822021887E+03  0.50400000000E-02 0. -1.
    5000001    1    1    2    0    0 -0.21011588949E+03  0.20386501504E+03  0.19897562663E+03  0.40080535347E+03  0.18800000000E+03 0.  0.
   -5000001    1    1    2    0    0  0.21011588949E+03 -0.20386501504E+03  0.77392958687E+03  0.84854029769E+03  0.18800000000E+03 0.  0.
<mgrwt>
<rscale>  0 0.78378569E+03</rscale>
<asrwt>0</asrwt>
<pdfrwt beam="1">  1        1 0.19745746E-01 0.78378569E+03</pdfrwt>
<pdfrwt beam="2">  1       -1 0.15873220E+00 0.78378569E+03</pdfrwt>
<totfact> 0.80974529E+01</totfact>
</mgrwt>
</event>
<event>
 4    1  0.1578814E-005  0.5204014E+03  0.7818608E-02  0.1008587E+00
          1   -1    0    0  501    0  0.00000000000E+00  0.00000000000E+00  0.93115432672E+03  0.93115432673E+03  0.50400000000E-02 0.  1.
         -1   -1    0    0    0  501 -0.00000000000E+00 -0.00000000000E+00 -0.72710173541E+02  0.72710173715E+02  0.50400000000E-02 0. -1.
    5000001    1    1    2    0    0  0.10666255308E+03  0.84040626473E+02  0.65681915277E+03  0.69655949248E+03  0.18800000000E+03 0.  0.
   -5000001    1    1    2    0    0 -0.10666255308E+03 -0.84040626473E+02  0.20162500041E+03  0.30730500796E+03  0.18800000000E+03 0.  0.
<mgrwt>
<rscale>  0 0.52040136E+03</rscale>
<asrwt>0</asrwt>
<pdfrwt beam="1">  1        1 0.13302204E+00 0.52040136E+03</pdfrwt>
<pdfrwt beam="2">  1       -1 0.10387168E-01 0.52040136E+03</pdfrwt>
<totfact> 0.11674189E+03</totfact>
</mgrwt>
</event>
<event>
 4    1  0.1578814E-005  0.6091549E+03  0.7818608E-02  0.9886592E-01
         -1   -1    0    0    0  501 -0.00000000000E+00  0.00000000000E+00  0.96013308660E+02  0.96013308792E+02  0.50400000000E-02 0. -1.
          1   -1    0    0  501    0  0.00000000000E+00 -0.00000000000E+00 -0.96619343539E+03  0.96619343541E+03  0.50400000000E-02 0.  1.
    5000001    1    1    2    0    0  0.18215858788E+03  0.71953140344E+02 -0.67585494099E+03  0.72834257517E+03  0.18800000000E+03 0.  0.
   -5000001    1    1    2    0    0 -0.18215858788E+03 -0.71953140344E+02 -0.19432518574E+03  0.33386416902E+03  0.18800000000E+03 0.  0.
<mgrwt>
<rscale>  0 0.60915492E+03</rscale>
<asrwt>0</asrwt>
<pdfrwt beam="1">  1        1 0.13802763E+00 0.60915492E+03</pdfrwt>
<pdfrwt beam="2">  1       -1 0.13716188E-01 0.60915492E+03</pdfrwt>
<totfact> 0.70368784E+02</totfact>
</mgrwt>
</event>
<event>
 4    1  0.1578814E-005  0.4139394E+03  0.7818608E-02  0.1039057E+00
          1   -1    0    0  501    0  0.00000000000E+00  0.00000000000E+00  0.44537746222E+02  0.44537746507E+02  0.50400000000E-02 0.  1.
         -1   -1    0    0    0  501 -0.00000000000E+00 -0.00000000000E+00 -0.96180102553E+03  0.96180102554E+03  0.50400000000E-02 0. -1.
    5000001    1    1    2    0    0  0.70051582401E+02 -0.48818500331E+02 -0.49318271940E+03  0.53466219698E+03  0.18800000000E+03 0.  0.
   -5000001    1    1    2    0    0 -0.70051582401E+02  0.48818500331E+02 -0.42408055991E+03  0.47167657506E+03  0.18800000000E+03 0.  0.
<mgrwt>
<rscale>  0 0.41393937E+03</rscale>
<asrwt>0</asrwt>
<pdfrwt beam="1">  1        1 0.63625358E-02 0.41393937E+03</pdfrwt>
<pdfrwt beam="2">  1       -1 0.13740013E+00 0.41393937E+03</pdfrwt>
<totfact> 0.56529124E+02</totfact>
</mgrwt>
</event>
<event>
 4    1  0.1578814E-005  0.8299586E+03  0.7818608E-02  0.9517638E-01
          1   -1    0    0  501    0  0.00000000000E+00  0.00000000000E+00  0.30654000317E+04  0.30654000317E+04  0.50400000000E-02 0.  1.
         -1   -1    0    0    0  501 -0.00000000000E+00 -0.00000000000E+00 -0.56177921321E+02  0.56177921547E+02  0.50400000000E-02 0. -1.
    5000001    1    1    2    0    0 -0.19681332984E+03 -0.29442322700E+03  0.11022712365E+04  0.11729306895E+04  0.18800000000E+03 0.  0.
   -5000001    1    1    2    0    0  0.19681332984E+03  0.29442322700E+03  0.19069508739E+04  0.19486472638E+04  0.18800000000E+03 0.  0.
<mgrwt>
<rscale>  0 0.82995856E+03</rscale>
<asrwt>0</asrwt>
<pdfrwt beam="1">  1        1 0.43791428E+00 0.82995856E+03</pdfrwt>
<pdfrwt beam="2">  1       -1 0.80254175E-02 0.82995856E+03</pdfrwt>
<totfact> 0.71876969E+01</totfact>
</mgrwt>
</event>
<event>
 4    1  0.1578814E-005  0.4940422E+03  0.7818608E-02  0.1015346E+00
          1   -1    0    0  501    0  0.00000000000E+00  0.00000000000E+00  0.10319219839E+04  0.10319219839E+04  0.50400000000E-02 0.  1.
         -1   -1    0    0    0  501 -0.00000000000E+00 -0.00000000000E+00 -0.59131817964E+02  0.59131818179E+02  0.50400000000E-02 0. -1.
    5000001    1    1    2    0    0  0.31392482983E+02 -0.73255090593E+01  0.83302785298E+03  0.85458677436E+03  0.18800000000E+03 0.  0.
   -5000001    1    1    2    0    0 -0.31392482983E+02  0.73255090593E+01  0.13976231290E+03  0.23646702768E+03  0.18800000000E+03 0.  0.
<mgrwt>
<rscale>  0 0.49404220E+03</rscale>
<asrwt>0</asrwt>
<pdfrwt beam="1">  1        1 0.14741741E+00 0.49404220E+03</pdfrwt>
<pdfrwt beam="2">  1       -1 0.84474034E-02 0.49404220E+03</pdfrwt>
<totfact> 0.13590725E+03</totfact>
</mgrwt>
</event>
<event>
 4    1  0.1578814E-005  0.5320970E+03  0.7818608E-02  0.1005725E+00
          1   -1    0    0  501    0  0.00000000000E+00  0.00000000000E+00  0.22935894723E+04  0.22935894724E+04  0.50400000000E-02 0.  1.
         -1   -1    0    0    0  501 -0.00000000000E+00 -0.00000000000E+00 -0.30860710198E+02  0.30860710609E+02  0.50400000000E-02 0. -1.
    5000001    1    1    2    0    0 -0.12617174821E+03 -0.79364508275E+02  0.62908966534E+03  0.67328734004E+03  0.18800000000E+03 0.  0.
   -5000001    1    1    2    0    0  0.12617174821E+03  0.79364508275E+02  0.16336390968E+04  0.16511628429E+04  0.18800000000E+03 0.  0.
<mgrwt>
<rscale>  0 0.53209699E+03</rscale>
<asrwt>0</asrwt>
<pdfrwt beam="1">  1        1 0.32765567E+00 0.53209699E+03</pdfrwt>
<pdfrwt beam="2">  1       -1 0.44086726E-02 0.53209699E+03</pdfrwt>
<totfact> 0.57448069E+02</totfact>
</mgrwt>
</event>
<event>
 4    1  0.1578814E-005  0.6561845E+03  0.7818608E-02  0.9795243E-01
          1   -1    0    0  501    0  0.00000000000E+00  0.00000000000E+00  0.98502186999E+03  0.98502187000E+03  0.50400000000E-02 0.  1.
         -1   -1    0    0    0  501 -0.00000000000E+00 -0.00000000000E+00 -0.10928136626E+03  0.10928136637E+03  0.50400000000E-02 0. -1.
    5000001    1    1    2    0    0  0.25829204569E+03 -0.35423169809E+02  0.54761998637E+03  0.63498128421E+03  0.18800000000E+03 0.  0.
   -5000001    1    1    2    0    0 -0.25829204569E+03  0.35423169809E+02  0.32812051736E+03  0.45932195217E+03  0.18800000000E+03 0.  0.
<mgrwt>
<rscale>  0 0.65618453E+03</rscale>
<asrwt>0</asrwt>
<pdfrwt beam="1">  1        1 0.14071742E+00 0.65618453E+03</pdfrwt>
<pdfrwt beam="2">  1       -1 0.15611622E-01 0.65618453E+03</pdfrwt>
<totfact> 0.55146060E+02</totfact>
</mgrwt>
</event>
<event>
 4    1  0.1578814E-005  0.4784725E+03  0.7818608E-02  0.1019556E+00
         -1   -1    0    0    0  501 -0.00000000000E+00  0.00000000000E+00  0.89611645641E+02  0.89611645783E+02  0.50400000000E-02 0. -1.
          1   -1    0    0  501    0  0.00000000000E+00 -0.00000000000E+00 -0.63868920907E+03  0.63868920909E+03  0.50400000000E-02 0.  1.
    5000001    1    1    2    0    0  0.14793646793E+03 -0.71291987811E+00 -0.27768939922E+03  0.36652572794E+03  0.18800000000E+03 0.  0.
   -5000001    1    1    2    0    0 -0.14793646793E+03  0.71291987811E+00 -0.27138816421E+03  0.36177512694E+03  0.18800000000E+03 0.  0.
<mgrwt>
<rscale>  0 0.47847253E+03</rscale>
<asrwt>0</asrwt>
<pdfrwt beam="1">  1        1 0.91241313E-01 0.47847253E+03</pdfrwt>
<pdfrwt beam="2">  1       -1 0.12801664E-01 0.47847253E+03</pdfrwt>
<totfact> 0.14830370E+03</totfact>
</mgrwt>
</event>
<event>
 4    1  0.1578814E-005  0.6668280E+03  0.7818608E-02  0.9775705E-01
          1   -1    0    0  501    0  0.00000000000E+00  0.00000000000E+00  0.16612294795E+03  0.16612294802E+03  0.50400000000E-02 0. -1.
         -1   -1    0    0    0  501 -0.00000000000E+00 -0.00000000000E+00 -0.66917249586E+03  0.66917249588E+03  0.50400000000E-02 0.  1.
    5000001    1    1    2    0    0 -0.14771590390E+03  0.22966658557E+03 -0.20716329524E+03  0.39093140023E+03  0.18800000000E+03 0.  0.
   -5000001    1    1    2    0    0  0.14771590390E+03 -0.22966658557E+03 -0.29588625268E+03  0.44436404368E+03  0.18800000000E+03 0.  0.
<mgrwt>
<rscale>  0 0.66682804E+03</rscale>
<asrwt>0</asrwt>
<pdfrwt beam="1">  1        1 0.23731850E-01 0.66682804E+03</pdfrwt>
<pdfrwt beam="2">  1       -1 0.95596070E-01 0.66682804E+03</pdfrwt>
<totfact> 0.22411136E+02</totfact>
</mgrwt>
</event>
<event>
 4    1  0.1578814E-005  0.5235926E+03  0.7818608E-02  0.1007798E+00
         -1   -1    0    0    0  501 -0.00000000000E+00  0.00000000000E+00  0.39637628581E+02  0.39637628902E+02  0.50400000000E-02 0. -1.
          1   -1    0    0  501    0  0.00000000000E+00 -0.00000000000E+00 -0.17290971372E+04  0.17290971372E+04  0.50400000000E-02 0.  1.
    5000001    1    1    2    0    0 -0.54049123237E+02 -0.17398680833E+03 -0.84733152383E+03  0.88685254044E+03  0.18800000000E+03 0.  0.
   -5000001    1    1    2    0    0  0.54049123237E+02  0.17398680833E+03 -0.84212798474E+03  0.88188222563E+03  0.18800000000E+03 0.  0.
<mgrwt>
<rscale>  0 0.52359263E+03</rscale>
<asrwt>0</asrwt>
<pdfrwt beam="1">  1        1 0.24701383E+00 0.52359263E+03</pdfrwt>
<pdfrwt beam="2">  1       -1 0.56625195E-02 0.52359263E+03</pdfrwt>
<totfact> 0.87460219E+02</totfact>
</mgrwt>
</event>
<event>
 4    1  0.1578814E-005  0.1215539E+04  0.7818608E-02  0.9099363E-01
         -1   -1    0    0    0  501 -0.00000000000E+00  0.00000000000E+00  0.61489482574E+03  0.61489482576E+03  0.50400000000E-02 0. -1.
          1   -1    0    0  501    0  0.00000000000E+00 -0.00000000000E+00 -0.60072674756E+03  0.60072674758E+03  0.50400000000E-02 0.  1.
    5000001    1    1    2    0    0 -0.48343774044E+03  0.30688801806E+03 -0.71327053602E+02  0.60689690482E+03  0.18800000000E+03 0.  0.
   -5000001    1    1    2    0    0  0.48343774044E+03 -0.30688801806E+03  0.85495131784E+02  0.60872466852E+03  0.18800000000E+03 0.  0.
<mgrwt>
<rscale>  0 0.12155390E+04</rscale>
<asrwt>0</asrwt>
<pdfrwt beam="1">  1        1 0.85818107E-01 0.12155390E+04</pdfrwt>
<pdfrwt beam="2">  1       -1 0.87842118E-01 0.12155390E+04</pdfrwt>
<totfact> 0.47988046E+01</totfact>
</mgrwt>
</event>
<event>
 4    1  0.1578814E-005  0.6205663E+03  0.7818608E-02  0.9863633E-01
         -1   -1    0    0    0  501 -0.00000000000E+00  0.00000000000E+00  0.64952686854E+03  0.64952686856E+03  0.50400000000E-02 0. -1.
          1   -1    0    0  501    0  0.00000000000E+00 -0.00000000000E+00 -0.14822423581E+03  0.14822423590E+03  0.50400000000E-02 0.  1.
    5000001    1    1    2    0    0  0.22180478931E+03 -0.17380510951E+02  0.11320164090E+03  0.31250289314E+03  0.18800000000E+03 0.  0.
   -5000001    1    1    2    0    0 -0.22180478931E+03  0.17380510951E+02  0.38810099183E+03  0.48524821131E+03  0.18800000000E+03 0.  0.
<mgrwt>
<rscale>  0 0.62056627E+03</rscale>
<asrwt>0</asrwt>
<pdfrwt beam="1">  1        1 0.21174891E-01 0.62056627E+03</pdfrwt>
<pdfrwt beam="2">  1       -1 0.92789553E-01 0.62056627E+03</pdfrwt>
<totfact> 0.27865098E+02</totfact>
</mgrwt>
</event>
<event>
 4    1  0.1578814E-005  0.5266478E+03  0.7818608E-02  0.1007048E+00
          1   -1    0    0  501    0  0.00000000000E+00  0.00000000000E+00  0.73545310866E+03  0.73545310868E+03  0.50400000000E-02 0.  1.
         -1   -1    0    0    0  501 -0.00000000000E+00 -0.00000000000E+00 -0.94281297756E+02  0.94281297890E+02  0.50400000000E-02 0. -1.
    5000001    1    1    2    0    0 -0.15461653748E+03 -0.32519329548E+02  0.47031404218E+03  0.53056863715E+03  0.18800000000E+03 0.  0.
   -5000001    1    1    2    0    0  0.15461653748E+03  0.32519329548E+02  0.17085776873E+03  0.29916576942E+03  0.18800000000E+03 0.  0.
<mgrwt>
<rscale>  0 0.52664779E+03</rscale>
<asrwt>0</asrwt>
<pdfrwt beam="1">  1        1 0.10506473E+00 0.52664779E+03</pdfrwt>
<pdfrwt beam="2">  1       -1 0.13468757E-01 0.52664779E+03</pdfrwt>
<totfact> 0.11145243E+03</totfact>
</mgrwt>
</event>
<event>
 4    1  0.1578814E-005  0.1105898E+04  0.7818608E-02  0.9199463E-01
         -1   -1    0    0    0  501 -0.00000000000E+00  0.00000000000E+00  0.34387589412E+03  0.34387589416E+03  0.50400000000E-02 0.  1.
          1   -1    0    0  501    0  0.00000000000E+00 -0.00000000000E+00 -0.88913586680E+03  0.88913586682E+03  0.50400000000E-02 0. -1.
    5000001    1    1    2    0    0  0.38267350630E+03 -0.27495749111E+03 -0.27424453315E+02  0.50807158451E+03  0.18800000000E+03 0.  0.
   -5000001    1    1    2    0    0 -0.38267350630E+03  0.27495749111E+03 -0.51783551936E+03  0.72494017647E+03  0.18800000000E+03 0.  0.
<mgrwt>
<rscale>  0 0.11058976E+04</rscale>
<asrwt>0</asrwt>
<pdfrwt beam="1">  1        1 0.12701941E+00 0.11058976E+04</pdfrwt>
<pdfrwt beam="2">  1       -1 0.49125128E-01 0.11058976E+04</pdfrwt>
<totfact> 0.86881054E+01</totfact>
</mgrwt>
</event>
<event>
 4    1  0.1578814E-005  0.7978198E+03  0.7818608E-02  0.9563178E-01
          1   -1    0    0  501    0  0.00000000000E+00  0.00000000000E+00  0.23883503819E+04  0.23883503819E+04  0.50400000000E-02 0.  1.
         -1   -1    0    0    0  501 -0.00000000000E+00 -0.00000000000E+00 -0.66627202889E+02  0.66627203079E+02  0.50400000000E-02 0. -1.
    5000001    1    1    2    0    0 -0.22063719203E+03  0.27180472848E+03  0.12686273720E+04  0.13294051264E+04  0.18800000000E+03 0.  0.
   -5000001    1    1    2    0    0  0.22063719203E+03 -0.27180472848E+03  0.10530958070E+04  0.11255724586E+04  0.18800000000E+03 0.  0.
<mgrwt>
<rscale>  0 0.79781979E+03</rscale>
<asrwt>0</asrwt>
<pdfrwt beam="1">  1        1 0.34119293E+00 0.79781979E+03</pdfrwt>
<pdfrwt beam="2">  1       -1 0.95181714E-02 0.79781979E+03</pdfrwt>
<totfact> 0.14895129E+02</totfact>
</mgrwt>
</event>
<event>
 4    1  0.1578814E-005  0.4831992E+03  0.7818608E-02  0.1018260E+00
         -1   -1    0    0    0  501 -0.00000000000E+00  0.00000000000E+00  0.37006797662E+03  0.37006797665E+03  0.50400000000E-02 0. -1.
          1   -1    0    0  501    0  0.00000000000E+00 -0.00000000000E+00 -0.15772877116E+03  0.15772877125E+03  0.50400000000E-02 0.  1.
    5000001    1    1    2    0    0  0.13283054205E+03  0.70448658733E+02  0.83800161614E+02  0.25489886917E+03  0.18800000000E+03 0.  0.
   -5000001    1    1    2    0    0 -0.13283054205E+03 -0.70448658733E+02  0.12853904384E+03  0.27289787872E+03  0.18800000000E+03 0.  0.
<mgrwt>
<rscale>  0 0.48319920E+03</rscale>
<asrwt>0</asrwt>
<pdfrwt beam="1">  1        1 0.22532682E-01 0.48319920E+03</pdfrwt>
<pdfrwt beam="2">  1       -1 0.52866854E-01 0.48319920E+03</pdfrwt>
<totfact> 0.81223669E+02</totfact>
</mgrwt>
</event>
<event>
 4    1  0.1578814E-005  0.9622582E+03  0.7818608E-02  0.9350936E-01
          1   -1    0    0  501    0  0.00000000000E+00  0.00000000000E+00  0.58470948577E+03  0.58470948579E+03  0.50400000000E-02 0.  1.
         -1   -1    0    0    0  501 -0.00000000000E+00 -0.00000000000E+00 -0.39589785944E+03  0.39589785947E+03  0.50400000000E-02 0. -1.
    5000001    1    1    2    0    0 -0.41118257208E+03  0.15987213166E+03  0.13401899458E+03  0.49793101628E+03  0.18800000000E+03 0.  0.
   -5000001    1    1    2    0    0  0.41118257208E+03 -0.15987213166E+03  0.54792631752E+02  0.48267632898E+03  0.18800000000E+03 0.  0.
<mgrwt>
<rscale>  0 0.96225825E+03</rscale>
<asrwt>0</asrwt>
<pdfrwt beam="1">  1        1 0.83529926E-01 0.96225825E+03</pdfrwt>
<pdfrwt beam="2">  1       -1 0.56556837E-01 0.96225825E+03</pdfrwt>
<totfact> 0.12559072E+02</totfact>
</mgrwt>
</event>
<event>
 4    1  0.1578814E-005  0.7483858E+03  0.7818608E-02  0.9637886E-01
         -1   -1    0    0    0  501 -0.00000000000E+00  0.00000000000E+00  0.53074539289E+03  0.53074539292E+03  0.50400000000E-02 0. -1.
          1   -1    0    0  501    0  0.00000000000E+00 -0.00000000000E+00 -0.26381823775E+03  0.26381823779E+03  0.50400000000E-02 0.  1.
    5000001    1    1    2    0    0 -0.89745111471E+02 -0.28513301393E+03  0.20467798840E+01  0.35313341667E+03  0.18800000000E+03 0.  0.
   -5000001    1    1    2    0    0  0.89745111471E+02  0.28513301393E+03  0.26488037526E+03  0.44143021404E+03  0.18800000000E+03 0.  0.
<mgrwt>
<rscale>  0 0.74838577E+03</rscale>
<asrwt>0</asrwt>
<pdfrwt beam="1">  1        1 0.37688320E-01 0.74838577E+03</pdfrwt>
<pdfrwt beam="2">  1       -1 0.75820769E-01 0.74838577E+03</pdfrwt>
<totfact> 0.20205648E+02</totfact>
</mgrwt>
</event>
<event>
 4    1  0.1578814E-005  0.8888970E+03  0.7818608E-02  0.9439568E-01
         -1   -1    0    0    0  501 -0.00000000000E+00  0.00000000000E+00  0.90510264238E+02  0.90510264378E+02  0.50400000000E-02 0.  1.
          1   -1    0    0  501    0  0.00000000000E+00 -0.00000000000E+00 -0.21824537342E+04  0.21824537342E+04  0.50400000000E-02 0. -1.
    5000001    1    1    2    0    0 -0.30978915861E+03  0.23775440079E+03 -0.12977349789E+04  0.13681946329E+04  0.18800000000E+03 0.  0.
   -5000001    1    1    2    0    0  0.30978915861E+03 -0.23775440079E+03 -0.79420849102E+03  0.90476936570E+03  0.18800000000E+03 0.  0.
<mgrwt>
<rscale>  0 0.88889699E+03</rscale>
<asrwt>0</asrwt>
<pdfrwt beam="1">  1        1 0.31177907E+00 0.88889699E+03</pdfrwt>
<pdfrwt beam="2">  1       -1 0.12930039E-01 0.88889699E+03</pdfrwt>
<totfact> 0.12178840E+02</totfact>
</mgrwt>
</event>
<event>
 4    1  0.1578814E-005  0.7019485E+03  0.7818608E-02  0.9713906E-01
          1   -1    0    0  501    0  0.00000000000E+00  0.00000000000E+00  0.17189595380E+04  0.17189595380E+04  0.50400000000E-02 0.  1.
         -1   -1    0    0    0  501 -0.00000000000E+00 -0.00000000000E+00 -0.71661334755E+02  0.71661334932E+02  0.50400000000E-02 0. -1.
    5000001    1    1    2    0    0  0.75807618504E+02  0.23559476647E+03  0.40770492304E+03  0.51265874935E+03  0.18800000000E+03 0.  0.
   -5000001    1    1    2    0    0 -0.75807618504E+02 -0.23559476647E+03  0.12395932802E+04  0.12779621236E+04  0.18800000000E+03 0.  0.
<mgrwt>
<rscale>  0 0.70194853E+03</rscale>
<asrwt>0</asrwt>
<pdfrwt beam="1">  1        1 0.24556564E+00 0.70194853E+03</pdfrwt>
<pdfrwt beam="2">  1       -1 0.10237334E-01 0.70194853E+03</pdfrwt>
<totfact> 0.34914026E+02</totfact>
</mgrwt>
</event>
<event>
 4    1  0.1578814E-005  0.6679894E+03  0.7818608E-02  0.9773597E-01
         -1   -1    0    0    0  501 -0.00000000000E+00  0.00000000000E+00  0.26741581275E+03  0.26741581280E+03  0.50400000000E-02 0. -1.
          1   -1    0    0  501    0  0.00000000000E+00 -0.00000000000E+00 -0.41714980842E+03  0.41714980845E+03  0.50400000000E-02 0.  1.
    5000001    1    1    2    0    0 -0.21108383276E+03 -0.11676142528E+03 -0.21243231063E+03  0.37237226197E+03  0.18800000000E+03 0.  0.
   -5000001    1    1    2    0    0  0.21108383276E+03  0.11676142528E+03  0.62698314956E+02  0.31219335929E+03  0.18800000000E+03 0.  0.
<mgrwt>
<rscale>  0 0.66798939E+03</rscale>
<asrwt>0</asrwt>
<pdfrwt beam="1">  1        1 0.59592829E-01 0.66798939E+03</pdfrwt>
<pdfrwt beam="2">  1       -1 0.38202259E-01 0.66798939E+03</pdfrwt>
<totfact> 0.41922687E+02</totfact>
</mgrwt>
</event>
<event>
 4    1  0.1578814E-005  0.7162849E+03  0.7818608E-02  0.9689781E-01
          1   -1    0    0  501    0  0.00000000000E+00  0.00000000000E+00  0.22978344918E+04  0.22978344918E+04  0.50400000000E-02 0.  1.
         -1   -1    0    0    0  501 -0.00000000000E+00 -0.00000000000E+00 -0.55820392763E+02  0.55820392990E+02  0.50400000000E-02 0. -1.
    5000001    1    1    2    0    0  0.13946607479E+03 -0.18736985724E+03  0.47740467681E+03  0.56375302648E+03  0.18800000000E+03 0.  0.
   -5000001    1    1    2    0    0 -0.13946607479E+03  0.18736985724E+03  0.17646094223E+04  0.17899018584E+04  0.18800000000E+03 0.  0.
<mgrwt>
<rscale>  0 0.71628493E+03</rscale>
<asrwt>0</asrwt>
<pdfrwt beam="1">  1        1 0.32826206E+00 0.71628493E+03</pdfrwt>
<pdfrwt beam="2">  1       -1 0.79743420E-02 0.71628493E+03</pdfrwt>
<totfact> 0.22562103E+02</totfact>
</mgrwt>
</event>
<event>
 4    1  0.1578814E-005  0.6669478E+03  0.7818608E-02  0.9775487E-01
          1   -1    0    0  501    0  0.00000000000E+00  0.00000000000E+00  0.31729609500E+03  0.31729609504E+03  0.50400000000E-02 0.  1.
         -1   -1    0    0    0  501 -0.00000000000E+00 -0.00000000000E+00 -0.35047652944E+03  0.35047652948E+03  0.50400000000E-02 0. -1.
    5000001    1    1    2    0    0  0.78493678303E+02  0.19393974338E+03  0.16275963302E+03  0.32497473708E+03  0.18800000000E+03 0.  0.
   -5000001    1    1    2    0    0 -0.78493678303E+02 -0.19393974338E+03 -0.19594006747E+03  0.34279788744E+03  0.18800000000E+03 0.  0.
<mgrwt>
<rscale>  0 0.66694778E+03</rscale>
<asrwt>0</asrwt>
<pdfrwt beam="1">  1        1 0.45328014E-01 0.66694778E+03</pdfrwt>
<pdfrwt beam="2">  1       -1 0.50068075E-01 0.66694778E+03</pdfrwt>
<totfact> 0.36364321E+02</totfact>
</mgrwt>
</event>
<event>
 4    1  0.1578814E-005  0.5772351E+03  0.7818608E-02  0.9953795E-01
          1   -1    0    0  501    0  0.00000000000E+00  0.00000000000E+00  0.54137435981E+03  0.54137435984E+03  0.50400000000E-02 0.  1.
         -1   -1    0    0    0  501 -0.00000000000E+00 -0.00000000000E+00 -0.15386781563E+03  0.15386781572E+03  0.50400000000E-02 0. -1.
    5000001    1    1    2    0    0 -0.25607147090E+02 -0.21742111888E+03  0.18733223191E+03  0.34404219804E+03  0.18800000000E+03 0.  0.
   -5000001    1    1    2    0    0  0.25607147090E+02  0.21742111888E+03  0.20017431227E+03  0.35119997752E+03  0.18800000000E+03 0.  0.
<mgrwt>
<rscale>  0 0.57723510E+03</rscale>
<asrwt>0</asrwt>
<pdfrwt beam="1">  1        1 0.77339193E-01 0.57723510E+03</pdfrwt>
<pdfrwt beam="2">  1       -1 0.21981117E-01 0.57723510E+03</pdfrwt>
<totfact> 0.77197788E+02</totfact>
</mgrwt>
</event>
<event>
 4    1  0.1578814E-005  0.3947239E+03  0.7818608E-02  0.1045622E+00
         -1   -1    0    0    0  501 -0.00000000000E+00  0.00000000000E+00  0.93320060307E+02  0.93320060443E+02  0.50400000000E-02 0.  1.
          1   -1    0    0  501    0  0.00000000000E+00 -0.00000000000E+00 -0.41739940296E+03  0.41739940299E+03  0.50400000000E-02 0. -1.
    5000001    1    1    2    0    0 -0.39030653508E+02 -0.45402205445E+02 -0.15583649208E+03  0.25142347631E+03  0.18800000000E+03 0.  0.
   -5000001    1    1    2    0    0  0.39030653508E+02  0.45402205445E+02 -0.16824285057E+03  0.25929598713E+03  0.18800000000E+03 0.  0.
<mgrwt>
<rscale>  0 0.39472389E+03</rscale>
<asrwt>0</asrwt>
<pdfrwt beam="1">  1        1 0.59628485E-01 0.39472389E+03</pdfrwt>
<pdfrwt beam="2">  1       -1 0.13331437E-01 0.39472389E+03</pdfrwt>
<totfact> 0.24609686E+03</totfact>
</mgrwt>
</event>
<event>
 4    1  0.1578814E-005  0.5729435E+03  0.7818608E-02  0.9963186E-01
          1   -1    0    0  501    0  0.00000000000E+00  0.00000000000E+00  0.12333432961E+04  0.12333432961E+04  0.50400000000E-02 0.  1.
         -1   -1    0    0    0  501 -0.00000000000E+00 -0.00000000000E+00 -0.66539522353E+02  0.66539522544E+02  0.50400000000E-02 0. -1.
    5000001    1    1    2    0    0  0.11503861637E+03  0.16687024107E+03  0.75382507144E+03  0.80291705608E+03  0.18800000000E+03 0.  0.
   -5000001    1    1    2    0    0 -0.11503861637E+03 -0.16687024107E+03  0.41297870231E+03  0.49696576257E+03  0.18800000000E+03 0.  0.
<mgrwt>
<rscale>  0 0.57294354E+03</rscale>
<asrwt>0</asrwt>
<pdfrwt beam="1">  1        1 0.17619189E+00 0.57294354E+03</pdfrwt>
<pdfrwt beam="2">  1       -1 0.95056465E-02 0.57294354E+03</pdfrwt>
<totfact> 0.81527883E+02</totfact>
</mgrwt>
</event>
<event>
 4    1  0.1578814E-005  0.5725099E+03  0.7818608E-02  0.9964140E-01
         -1   -1    0    0    0  501 -0.00000000000E+00  0.00000000000E+00  0.11520970388E+03  0.11520970399E+03  0.50400000000E-02 0. -1.
          1   -1    0    0  501    0  0.00000000000E+00 -0.00000000000E+00 -0.71124122863E+03  0.71124122865E+03  0.50400000000E-02 0.  1.
    5000001    1    1    2    0    0 -0.17341854394E+03 -0.35521077172E+02 -0.11967854373E+03  0.28460971897E+03  0.18800000000E+03 0.  0.
   -5000001    1    1    2    0    0  0.17341854394E+03  0.35521077172E+02 -0.47635298102E+03  0.54184121367E+03  0.18800000000E+03 0.  0.
<mgrwt>
<rscale>  0 0.57250988E+03</rscale>
<asrwt>0</asrwt>
<pdfrwt beam="1">  1        1 0.10160589E+00 0.57250988E+03</pdfrwt>
<pdfrwt beam="2">  1       -1 0.16458530E-01 0.57250988E+03</pdfrwt>
<totfact> 0.84629545E+02</totfact>
</mgrwt>
</event>
<event>
 4    1  0.1578814E-005  0.5150501E+03  0.7818608E-02  0.1009924E+00
          1   -1    0    0  501    0  0.00000000000E+00  0.00000000000E+00  0.34749271991E+03  0.34749271995E+03  0.50400000000E-02 0.  1.
         -1   -1    0    0    0  501 -0.00000000000E+00 -0.00000000000E+00 -0.19085044558E+03  0.19085044565E+03  0.50400000000E-02 0. -1.
    5000001    1    1    2    0    0  0.77135641318E+02 -0.67514158624E+02 -0.71212060045E+02  0.22566175190E+03  0.18800000000E+03 0.  0.
   -5000001    1    1    2    0    0 -0.77135641318E+02  0.67514158624E+02  0.22785433437E+03  0.31268141369E+03  0.18800000000E+03 0.  0.
<mgrwt>
<rscale>  0 0.51505006E+03</rscale>
<asrwt>0</asrwt>
<pdfrwt beam="1">  1        1 0.49641817E-01 0.51505006E+03</pdfrwt>
<pdfrwt beam="2">  1       -1 0.27264349E-01 0.51505006E+03</pdfrwt>
<totfact> 0.96358793E+02</totfact>
</mgrwt>
</event>
<event>
 4    1  0.1578814E-005  0.6017500E+03  0.7818608E-02  0.9901782E-01
          1   -1    0    0  501    0  0.00000000000E+00  0.00000000000E+00  0.62975394713E+03  0.62975394715E+03  0.50400000000E-02 0. -1.
         -1   -1    0    0    0  501 -0.00000000000E+00 -0.00000000000E+00 -0.14374785122E+03  0.14374785131E+03  0.50400000000E-02 0.  1.
    5000001    1    1    2    0    0  0.14187873855E+03 -0.15578155053E+03  0.37649078160E+03  0.47062381641E+03  0.18800000000E+03 0.  0.
   -5000001    1    1    2    0    0 -0.14187873855E+03  0.15578155053E+03  0.10951531431E+03  0.30287798205E+03  0.18800000000E+03 0.  0.
<mgrwt>
<rscale>  0 0.60175004E+03</rscale>
<asrwt>0</asrwt>
<pdfrwt beam="1">  1        1 0.89964851E-01 0.60175004E+03</pdfrwt>
<pdfrwt beam="2">  1       -1 0.20535407E-01 0.60175004E+03</pdfrwt>
<totfact> 0.70033810E+02</totfact>
</mgrwt>
</event>
<event>
 4    1  0.1578814E-005  0.7953619E+03  0.7818608E-02  0.9566755E-01
         -1   -1    0    0    0  501 -0.00000000000E+00  0.00000000000E+00  0.12038428777E+03  0.12038428788E+03  0.50400000000E-02 0. -1.
          1   -1    0    0  501    0  0.00000000000E+00 -0.00000000000E+00 -0.13137109090E+04  0.13137109090E+04  0.50400000000E-02 0.  1.
    5000001    1    1    2    0    0 -0.10515295617E+02  0.33029855301E+03 -0.80692387666E+03  0.89200776246E+03  0.18800000000E+03 0.  0.
   -5000001    1    1    2    0    0  0.10515295617E+02 -0.33029855301E+03 -0.38640274460E+03  0.54208743446E+03  0.18800000000E+03 0.  0.
<mgrwt>
<rscale>  0 0.79536194E+03</rscale>
<asrwt>0</asrwt>
<pdfrwt beam="1">  1        1 0.18767298E+00 0.79536194E+03</pdfrwt>
<pdfrwt beam="2">  1       -1 0.17197756E-01 0.79536194E+03</pdfrwt>
<totfact> 0.27458625E+02</totfact>
</mgrwt>
</event>
<event>
 4    1  0.1578814E-005  0.4627896E+03  0.7818608E-02  0.1023975E+00
          1   -1    0    0  501    0  0.00000000000E+00  0.00000000000E+00  0.50793851290E+03  0.50793851292E+03  0.50400000000E-02 0.  1.
         -1   -1    0    0    0  501 -0.00000000000E+00 -0.00000000000E+00 -0.10541344479E+03  0.10541344491E+03  0.50400000000E-02 0. -1.
    5000001    1    1    2    0    0  0.86069165842E+02 -0.10367465696E+03  0.20997480786E+03  0.31239359107E+03  0.18800000000E+03 0.  0.
   -5000001    1    1    2    0    0 -0.86069165842E+02  0.10367465696E+03  0.19255026025E+03  0.30095836677E+03  0.18800000000E+03 0.  0.
<mgrwt>
<rscale>  0 0.46278958E+03</rscale>
<asrwt>0</asrwt>
<pdfrwt beam="1">  1        1 0.72562645E-01 0.46278958E+03</pdfrwt>
<pdfrwt beam="2">  1       -1 0.15059064E-01 0.46278958E+03</pdfrwt>
<totfact> 0.15661127E+03</totfact>
</mgrwt>
</event>
<event>
 4    1  0.1578814E-005  0.4498963E+03  0.7818608E-02  0.1027753E+00
         -1   -1    0    0    0  501 -0.00000000000E+00  0.00000000000E+00  0.48462811586E+02  0.48462811849E+02  0.50400000000E-02 0.  1.
          1   -1    0    0  501    0  0.00000000000E+00 -0.00000000000E+00 -0.10441338702E+04  0.10441338703E+04  0.50400000000E-02 0. -1.
    5000001    1    1    2    0    0 -0.91507780758E+02 -0.81399180365E+02 -0.45881490544E+03  0.51073928570E+03  0.18800000000E+03 0.  0.
   -5000001    1    1    2    0    0  0.91507780758E+02  0.81399180365E+02 -0.53685615322E+03  0.58185739641E+03  0.18800000000E+03 0.  0.
<mgrwt>
<rscale>  0 0.44989627E+03</rscale>
<asrwt>0</asrwt>
<pdfrwt beam="1">  1        1 0.14916197E+00 0.44989627E+03</pdfrwt>
<pdfrwt beam="2">  1       -1 0.69232595E-02 0.44989627E+03</pdfrwt>
<totfact> 0.18131564E+03</totfact>
</mgrwt>
</event>
<event>
 4    1  0.1578814E-005  0.8452840E+03  0.7818608E-02  0.9496688E-01
          1   -1    0    0  501    0  0.00000000000E+00  0.00000000000E+00  0.51035738844E+03  0.51035738847E+03  0.50400000000E-02 0.  1.
         -1   -1    0    0    0  501 -0.00000000000E+00 -0.00000000000E+00 -0.35000233714E+03  0.35000233718E+03  0.50400000000E-02 0. -1.
    5000001    1    1    2    0    0  0.20938657739E+03  0.23120410646E+03  0.29844133180E+03  0.47086017687E+03  0.18800000000E+03 0.  0.
   -5000001    1    1    2    0    0 -0.20938657739E+03 -0.23120410646E+03 -0.13808628050E+03  0.38949954877E+03  0.18800000000E+03 0.  0.
<mgrwt>
<rscale>  0 0.84528404E+03</rscale>
<asrwt>0</asrwt>
<pdfrwt beam="1">  1        1 0.72908198E-01 0.84528404E+03</pdfrwt>
<pdfrwt beam="2">  1       -1 0.50000334E-01 0.84528404E+03</pdfrwt>
<totfact> 0.19328657E+02</totfact>
</mgrwt>
</event>
<event>
 4    1  0.1578814E-005  0.6575059E+03  0.7818608E-02  0.9792796E-01
         -1   -1    0    0    0  501 -0.00000000000E+00  0.00000000000E+00  0.16520658343E+03  0.16520658350E+03  0.50400000000E-02 0. -1.
          1   -1    0    0  501    0  0.00000000000E+00 -0.00000000000E+00 -0.65420212031E+03  0.65420212033E+03  0.50400000000E-02 0.  1.
    5000001    1    1    2    0    0 -0.16801369473E+03  0.20122044310E+03 -0.32347650014E+03  0.45683620093E+03  0.18800000000E+03 0.  0.
   -5000001    1    1    2    0    0  0.16801369473E+03 -0.20122044310E+03 -0.16551903675E+03  0.36257250291E+03  0.18800000000E+03 0.  0.
<mgrwt>
<rscale>  0 0.65750589E+03</rscale>
<asrwt>0</asrwt>
<pdfrwt beam="1">  1        1 0.93457445E-01 0.65750589E+03</pdfrwt>
<pdfrwt beam="2">  1       -1 0.23600941E-01 0.65750589E+03</pdfrwt>
<totfact> 0.52441544E+02</totfact>
</mgrwt>
</event>
<event>
 4    1  0.1578814E-005  0.4851505E+03  0.7818608E-02  0.1017729E+00
         -1   -1    0    0    0  501 -0.00000000000E+00  0.00000000000E+00  0.19756381652E+03  0.19756381658E+03  0.50400000000E-02 0. -1.
          1   -1    0    0  501    0  0.00000000000E+00 -0.00000000000E+00 -0.29784175703E+03  0.29784175707E+03  0.50400000000E-02 0.  1.
    5000001    1    1    2    0    0 -0.10508809524E+03 -0.89906327600E+02 -0.11765849523E+03  0.26136980890E+03  0.18800000000E+03 0.  0.
   -5000001    1    1    2    0    0  0.10508809524E+03  0.89906327600E+02  0.17380554713E+02  0.23403576476E+03  0.18800000000E+03 0.  0.
<mgrwt>
<rscale>  0 0.48515051E+03</rscale>
<asrwt>0</asrwt>
<pdfrwt beam="1">  1        1 0.42548822E-01 0.48515051E+03</pdfrwt>
<pdfrwt beam="2">  1       -1 0.28223403E-01 0.48515051E+03</pdfrwt>
<totfact> 0.11070772E+03</totfact>
</mgrwt>
</event>
<event>
 4    1  0.1578814E-005  0.5497256E+03  0.7818608E-02  0.1001557E+00
         -1   -1    0    0    0  501 -0.00000000000E+00  0.00000000000E+00  0.75415428244E+03  0.75415428246E+03  0.50400000000E-02 0. -1.
          1   -1    0    0  501    0  0.00000000000E+00 -0.00000000000E+00 -0.10017783805E+03  0.10017783818E+03  0.50400000000E-02 0.  1.
    5000001    1    1    2    0    0  0.92704108922E+01  0.17898124807E+03  0.46673099699E+03  0.53413673459E+03  0.18800000000E+03 0.  0.
   -5000001    1    1    2    0    0 -0.92704108922E+01 -0.17898124807E+03  0.18724544739E+03  0.32019538605E+03  0.18800000000E+03 0.  0.
<mgrwt>
<rscale>  0 0.54972555E+03</rscale>
<asrwt>0</asrwt>
<pdfrwt beam="1">  1        1 0.14311119E-01 0.54972555E+03</pdfrwt>
<pdfrwt beam="2">  1       -1 0.10773633E+00 0.54972555E+03</pdfrwt>
<totfact> 0.33512540E+02</totfact>
</mgrwt>
</event>
<event>
 4    1  0.1578814E-005  0.7517008E+03  0.7818608E-02  0.9632686E-01
         -1   -1    0    0    0  501 -0.00000000000E+00  0.00000000000E+00  0.13810793309E+03  0.13810793318E+03  0.50400000000E-02 0. -1.
          1   -1    0    0  501    0  0.00000000000E+00 -0.00000000000E+00 -0.10228486315E+04  0.10228486315E+04  0.50400000000E-02 0.  1.
    5000001    1    1    2    0    0  0.31486771913E+03  0.69129063058E+02 -0.37331812871E+03  0.52785503041E+03  0.18800000000E+03 0.  0.
   -5000001    1    1    2    0    0 -0.31486771913E+03 -0.69129063058E+02 -0.51142256971E+03  0.63310153429E+03  0.18800000000E+03 0.  0.
<mgrwt>
<rscale>  0 0.75170077E+03</rscale>
<asrwt>0</asrwt>
<pdfrwt beam="1">  1        1 0.14612123E+00 0.75170077E+03</pdfrwt>
<pdfrwt beam="2">  1       -1 0.19729705E-01 0.75170077E+03</pdfrwt>
<totfact> 0.35020896E+02</totfact>
</mgrwt>
</event>
<event>
 4    1  0.1578814E-005  0.5664322E+03  0.7818608E-02  0.9977605E-01
          1   -1    0    0  501    0  0.00000000000E+00  0.00000000000E+00  0.59465228217E+03  0.59465228219E+03  0.50400000000E-02 0.  1.
         -1   -1    0    0    0  501 -0.00000000000E+00 -0.00000000000E+00 -0.13488781977E+03  0.13488781987E+03  0.50400000000E-02 0. -1.
    5000001    1    1    2    0    0 -0.18166431304E+03  0.65320759653E+02  0.11761092240E+03  0.29401539644E+03  0.18800000000E+03 0.  0.
   -5000001    1    1    2    0    0  0.18166431304E+03 -0.65320759653E+02  0.34215354000E+03  0.43552470562E+03  0.18800000000E+03 0.  0.
<mgrwt>
<rscale>  0 0.56643217E+03</rscale>
<asrwt>0</asrwt>
<pdfrwt beam="1">  1        1 0.84950325E-01 0.56643217E+03</pdfrwt>
<pdfrwt beam="2">  1       -1 0.19269689E-01 0.56643217E+03</pdfrwt>
<totfact> 0.84424984E+02</totfact>
</mgrwt>
</event>
<event>
 4    1  0.1578814E-005  0.5242345E+03  0.7818608E-02  0.1007640E+00
          1   -1    0    0  501    0  0.00000000000E+00  0.00000000000E+00  0.13266889208E+04  0.13266889208E+04  0.50400000000E-02 0.  1.
         -1   -1    0    0    0  501 -0.00000000000E+00 -0.00000000000E+00 -0.51787161159E+02  0.51787161404E+02  0.50400000000E-02 0. -1.
    5000001    1    1    2    0    0 -0.45222892547E+02  0.17002405186E+03  0.50841314022E+03  0.56989578817E+03  0.18800000000E+03 0.  0.
   -5000001    1    1    2    0    0  0.45222892547E+02 -0.17002405186E+03  0.76648861943E+03  0.80858029405E+03  0.18800000000E+03 0.  0.
<mgrwt>
<rscale>  0 0.52423450E+03</rscale>
<asrwt>0</asrwt>
<pdfrwt beam="1">  1        1 0.18952696E+00 0.52423450E+03</pdfrwt>
<pdfrwt beam="2">  1       -1 0.73981671E-02 0.52423450E+03</pdfrwt>
<totfact> 0.10460960E+03</totfact>
</mgrwt>
</event>
<event>
 4    1  0.1578814E-005  0.1454905E+04  0.7818608E-02  0.8915007E-01
         -1   -1    0    0    0  501 -0.00000000000E+00  0.00000000000E+00  0.19373151263E+04  0.19373151263E+04  0.50400000000E-02 0. -1.
          1   -1    0    0  501    0  0.00000000000E+00 -0.00000000000E+00 -0.27315477626E+03  0.27315477631E+03  0.50400000000E-02 0.  1.
    5000001    1    1    2    0    0 -0.53490504744E+03 -0.45422111353E+03  0.77517853782E+03  0.10623963457E+04  0.18800000000E+03 0.  0.
   -5000001    1    1    2    0    0  0.53490504744E+03  0.45422111353E+03  0.88898181223E+03  0.11480735570E+04  0.18800000000E+03 0.  0.
<mgrwt>
<rscale>  0 0.14549046E+04</rscale>
<asrwt>0</asrwt>
<pdfrwt beam="1">  1        1 0.39022111E-01 0.14549046E+04</pdfrwt>
<pdfrwt beam="2">  1       -1 0.27675930E+00 0.14549046E+04</pdfrwt>
<totfact> 0.49652464E+00</totfact>
</mgrwt>
</event>
<event>
 4    1  0.1578814E-005  0.4432563E+03  0.7818608E-02  0.1029752E+00
         -1   -1    0    0    0  501 -0.00000000000E+00  0.00000000000E+00  0.89824534975E+02  0.89824535116E+02  0.50400000000E-02 0. -1.
          1   -1    0    0  501    0  0.00000000000E+00 -0.00000000000E+00 -0.54683320484E+03  0.54683320487E+03  0.50400000000E-02 0.  1.
    5000001    1    1    2    0    0  0.34210085313E+02  0.36409658611E+02 -0.75963096375E+02  0.20883099671E+03  0.18800000000E+03 0.  0.
   -5000001    1    1    2    0    0 -0.34210085313E+02 -0.36409658611E+02 -0.38104557349E+03  0.42782674327E+03  0.18800000000E+03 0.  0.
<mgrwt>
<rscale>  0 0.44325631E+03</rscale>
<asrwt>0</asrwt>
<pdfrwt beam="1">  1        1 0.78119028E-01 0.44325631E+03</pdfrwt>
<pdfrwt beam="2">  1       -1 0.12832077E-01 0.44325631E+03</pdfrwt>
<totfact> 0.18312825E+03</totfact>
</mgrwt>
</event>
<event>
 4    1  0.1578814E-005  0.7712971E+03  0.7818608E-02  0.9602519E-01
          1   -1    0    0  501    0  0.00000000000E+00  0.00000000000E+00  0.19704293432E+04  0.19704293433E+04  0.50400000000E-02 0. -1.
         -1   -1    0    0    0  501 -0.00000000000E+00 -0.00000000000E+00 -0.75478368740E+02  0.75478368908E+02  0.50400000000E-02 0.  1.
    5000001    1    1    2    0    0  0.72930458482E+02 -0.29858021581E+03  0.13122552539E+04  0.13608184480E+04  0.18800000000E+03 0.  0.
   -5000001    1    1    2    0    0 -0.72930458482E+02  0.29858021581E+03  0.58269572060E+03  0.68508926415E+03  0.18800000000E+03 0.  0.
<mgrwt>
<rscale>  0 0.77129707E+03</rscale>
<asrwt>0</asrwt>
<pdfrwt beam="1">  1        1 0.28148987E+00 0.77129707E+03</pdfrwt>
<pdfrwt beam="2">  1       -1 0.10782626E-01 0.77129707E+03</pdfrwt>
<totfact> 0.22284804E+02</totfact>
</mgrwt>
</event>
<event>
 4    1  0.1578814E-005  0.5359947E+03  0.7818608E-02  0.1004789E+00
          1   -1    0    0  501    0  0.00000000000E+00  0.00000000000E+00  0.14977502062E+04  0.14977502062E+04  0.50400000000E-02 0. -1.
         -1   -1    0    0    0  501 -0.00000000000E+00 -0.00000000000E+00 -0.47953640825E+02  0.47953641090E+02  0.50400000000E-02 0.  1.
    5000001    1    1    2    0    0  0.16624530459E+03 -0.87027593620E+02  0.62223839736E+03  0.67656184233E+03  0.18800000000E+03 0.  0.
   -5000001    1    1    2    0    0 -0.16624530459E+03  0.87027593620E+02  0.82755816799E+03  0.86914200494E+03  0.18800000000E+03 0.  0.
<mgrwt>
<rscale>  0 0.53599469E+03</rscale>
<asrwt>0</asrwt>
<pdfrwt beam="1">  1        1 0.21396427E+00 0.53599469E+03</pdfrwt>
<pdfrwt beam="2">  1       -1 0.68505216E-02 0.53599469E+03</pdfrwt>
<totfact> 0.91214890E+02</totfact>
</mgrwt>
</event>
<event>
 4    1  0.1578814E-005  0.5155723E+03  0.7818608E-02  0.1009792E+00
          1   -1    0    0  501    0  0.00000000000E+00  0.00000000000E+00  0.92680771629E+03  0.92680771630E+03  0.50400000000E-02 0.  1.
         -1   -1    0    0    0  501 -0.00000000000E+00 -0.00000000000E+00 -0.71701704116E+02  0.71701704293E+02  0.50400000000E-02 0. -1.
    5000001    1    1    2    0    0  0.15262498114E+03  0.49466556155E+02  0.56945344493E+03  0.62077576546E+03  0.18800000000E+03 0.  0.
   -5000001    1    1    2    0    0 -0.15262498114E+03 -0.49466556155E+02  0.28565256724E+03  0.37773365513E+03  0.18800000000E+03 0.  0.
<mgrwt>
<rscale>  0 0.51557228E+03</rscale>
<asrwt>0</asrwt>
<pdfrwt beam="1">  1        1 0.13240109E+00 0.51557228E+03</pdfrwt>
<pdfrwt beam="2">  1       -1 0.10243101E-01 0.51557228E+03</pdfrwt>
<totfact> 0.12026532E+03</totfact>
</mgrwt>
</event>
<event>
 4    1  0.1578814E-005  0.5731579E+03  0.7818608E-02  0.9962715E-01
         -1   -1    0    0    0  501 -0.00000000000E+00  0.00000000000E+00  0.23881214190E+02  0.23881214722E+02  0.50400000000E-02 0. -1.
          1   -1    0    0  501    0  0.00000000000E+00 -0.00000000000E+00 -0.34389993223E+04  0.34389993223E+04  0.50400000000E-02 0.  1.
    5000001    1    1    2    0    0  0.19525255979E+03  0.88129006951E+02 -0.18881253709E+04  0.19095160906E+04  0.18800000000E+03 0.  0.
   -5000001    1    1    2    0    0 -0.19525255979E+03 -0.88129006951E+02 -0.15269927372E+04  0.15533644464E+04  0.18800000000E+03 0.  0.
<mgrwt>
<rscale>  0 0.57315785E+03</rscale>
<asrwt>0</asrwt>
<pdfrwt beam="1">  1        1 0.49128530E+00 0.57315785E+03</pdfrwt>
<pdfrwt beam="2">  1       -1 0.34116043E-02 0.57315785E+03</pdfrwt>
<totfact> 0.15547694E+02</totfact>
</mgrwt>
</event>
<event>
 4    1  0.1578814E-005  0.5181584E+03  0.7818608E-02  0.1009145E+00
          1   -1    0    0  501    0  0.00000000000E+00  0.00000000000E+00  0.38861863760E+03  0.38861863763E+03  0.50400000000E-02 0. -1.
         -1   -1    0    0    0  501 -0.00000000000E+00 -0.00000000000E+00 -0.17271952804E+03  0.17271952812E+03  0.50400000000E-02 0.  1.
    5000001    1    1    2    0    0 -0.10685689702E+03  0.35315775891E+02 -0.41818767287E+02  0.22306593143E+03  0.18800000000E+03 0.  0.
   -5000001    1    1    2    0    0  0.10685689702E+03 -0.35315775891E+02  0.25771787684E+03  0.33827223432E+03  0.18800000000E+03 0.  0.
<mgrwt>
<rscale>  0 0.51815838E+03</rscale>
<asrwt>0</asrwt>
<pdfrwt beam="1">  1        1 0.55516949E-01 0.51815838E+03</pdfrwt>
<pdfrwt beam="2">  1       -1 0.24674218E-01 0.51815838E+03</pdfrwt>
<totfact> 0.98781782E+02</totfact>
</mgrwt>
</event>
<event>
 4    1  0.1578814E-005  0.5781311E+03  0.7818608E-02  0.9951845E-01
         -1   -1    0    0    0  501 -0.00000000000E+00  0.00000000000E+00  0.31619976034E+03  0.31619976038E+03  0.50400000000E-02 0.  1.
          1   -1    0    0  501    0  0.00000000000E+00 -0.00000000000E+00 -0.26425983068E+03  0.26425983073E+03  0.50400000000E-02 0. -1.
    5000001    1    1    2    0    0 -0.56828154827E+02 -0.21027224467E+03  0.53849392314E+02  0.29272446620E+03  0.18800000000E+03 0.  0.
   -5000001    1    1    2    0    0  0.56828154827E+02  0.21027224467E+03 -0.19094626524E+01  0.28773512491E+03  0.18800000000E+03 0.  0.
<mgrwt>
<rscale>  0 0.57813111E+03</rscale>
<asrwt>0</asrwt>
<pdfrwt beam="1">  1        1 0.37751404E-01 0.57813111E+03</pdfrwt>
<pdfrwt beam="2">  1       -1 0.45171394E-01 0.57813111E+03</pdfrwt>
<totfact> 0.55923397E+02</totfact>
</mgrwt>
</event>
<event>
 4    1  0.1578814E-005  0.5079145E+03  0.7818608E-02  0.1011734E+00
         -1   -1    0    0    0  501 -0.00000000000E+00  0.00000000000E+00  0.70108313759E+02  0.70108313940E+02  0.50400000000E-02 0. -1.
          1   -1    0    0  501    0  0.00000000000E+00 -0.00000000000E+00 -0.91992357040E+03  0.91992357041E+03  0.50400000000E-02 0.  1.
    5000001    1    1    2    0    0  0.15625151233E+03  0.35385607447E+01 -0.29094666029E+03  0.38002765117E+03  0.18800000000E+03 0.  0.
   -5000001    1    1    2    0    0 -0.15625151233E+03 -0.35385607447E+01 -0.55886859635E+03  0.61000423318E+03  0.18800000000E+03 0.  0.
<mgrwt>
<rscale>  0 0.50791452E+03</rscale>
<asrwt>0</asrwt>
<pdfrwt beam="1">  1        1 0.13141765E+00 0.50791452E+03</pdfrwt>
<pdfrwt beam="2">  1       -1 0.10015474E-01 0.50791452E+03</pdfrwt>
<totfact> 0.12613179E+03</totfact>
</mgrwt>
</event>
<event>
 4    1  0.1578814E-005  0.1266257E+04  0.7818608E-02  0.9056760E-01
          1   -1    0    0  501    0  0.00000000000E+00  0.00000000000E+00  0.38397756913E+04  0.38397756913E+04  0.50400000000E-02 0.  1.
         -1   -1    0    0    0  501 -0.00000000000E+00 -0.00000000000E+00 -0.10439452648E+03  0.10439452660E+03  0.50400000000E-02 0. -1.
    5000001    1    1    2    0    0 -0.44928260748E+03  0.40451555855E+03  0.18538071044E+04  0.19589365684E+04  0.18800000000E+03 0.  0.
   -5000001    1    1    2    0    0  0.44928260748E+03 -0.40451555855E+03  0.18815740604E+04  0.19852336496E+04  0.18800000000E+03 0.  0.
<mgrwt>
<rscale>  0 0.12662568E+04</rscale>
<asrwt>0</asrwt>
<pdfrwt beam="1">  1        1 0.54853934E+00 0.12662568E+04</pdfrwt>
<pdfrwt beam="2">  1       -1 0.14913505E-01 0.12662568E+04</pdfrwt>
<totfact> 0.74150504E+00</totfact>
</mgrwt>
</event>
<event>
 4    1  0.1578814E-005  0.9232496E+03  0.7818608E-02  0.9396976E-01
         -1   -1    0    0    0  501 -0.00000000000E+00  0.00000000000E+00  0.31156110295E+03  0.31156110299E+03  0.50400000000E-02 0. -1.
          1   -1    0    0  501    0  0.00000000000E+00 -0.00000000000E+00 -0.68396683845E+03  0.68396683847E+03  0.50400000000E-02 0.  1.
    5000001    1    1    2    0    0  0.35061193323E+03 -0.17997569498E+03 -0.24699090906E+02  0.43734885801E+03  0.18800000000E+03 0.  0.
   -5000001    1    1    2    0    0 -0.35061193323E+03  0.17997569498E+03 -0.34770664460E+03  0.55817908346E+03  0.18800000000E+03 0.  0.
<mgrwt>
<rscale>  0 0.92324961E+03</rscale>
<asrwt>0</asrwt>
<pdfrwt beam="1">  1        1 0.97709547E-01 0.92324961E+03</pdfrwt>
<pdfrwt beam="2">  1       -1 0.44508729E-01 0.92324961E+03</pdfrwt>
<totfact> 0.15845068E+02</totfact>
</mgrwt>
</event>
<event>
 4    1  0.1578814E-005  0.7050943E+03  0.7818608E-02  0.9708560E-01
         -1   -1    0    0    0  501 -0.00000000000E+00  0.00000000000E+00  0.31470401800E+03  0.31470401804E+03  0.50400000000E-02 0. -1.
          1   -1    0    0  501    0  0.00000000000E+00 -0.00000000000E+00 -0.39494094998E+03  0.39494095001E+03  0.50400000000E-02 0.  1.
    5000001    1    1    2    0    0 -0.25684305902E+03 -0.14847829780E+03 -0.70833322550E+02  0.35829529926E+03  0.18800000000E+03 0.  0.
   -5000001    1    1    2    0    0  0.25684305902E+03  0.14847829780E+03 -0.94036094320E+01  0.35134966879E+03  0.18800000000E+03 0.  0.
<mgrwt>
<rscale>  0 0.70509433E+03</rscale>
<asrwt>0</asrwt>
<pdfrwt beam="1">  1        1 0.56420136E-01 0.70509433E+03</pdfrwt>
<pdfrwt beam="2">  1       -1 0.44957717E-01 0.70509433E+03</pdfrwt>
<totfact> 0.33414820E+02</totfact>
</mgrwt>
</event>
<event>
 4    1  0.1578814E-005  0.5814102E+03  0.7818608E-02  0.9944743E-01
         -1   -1    0    0    0  501 -0.00000000000E+00  0.00000000000E+00  0.44052496941E+02  0.44052497230E+02  0.50400000000E-02 0. -1.
          1   -1    0    0  501    0  0.00000000000E+00 -0.00000000000E+00 -0.19183804853E+04  0.19183804853E+04  0.50400000000E-02 0.  1.
    5000001    1    1    2    0    0 -0.20606273707E+03  0.60376586681E+02 -0.75050458233E+03  0.80293730261E+03  0.18800000000E+03 0.  0.
   -5000001    1    1    2    0    0  0.20606273707E+03 -0.60376586681E+02 -0.11238234061E+04  0.11594956800E+04  0.18800000000E+03 0.  0.
<mgrwt>
<rscale>  0 0.58141018E+03</rscale>
<asrwt>0</asrwt>
<pdfrwt beam="1">  1        1 0.27405430E+00 0.58141018E+03</pdfrwt>
<pdfrwt beam="2">  1       -1 0.62932151E-02 0.58141018E+03</pdfrwt>
<totfact> 0.56547215E+02</totfact>
</mgrwt>
</event>
<event>
 4    1  0.1578814E-005  0.8266609E+03  0.7818608E-02  0.9522209E-01
         -1   -1    0    0    0  501 -0.00000000000E+00  0.00000000000E+00  0.16951695496E+03  0.16951695504E+03  0.50400000000E-02 0. -1.
          1   -1    0    0  501    0  0.00000000000E+00 -0.00000000000E+00 -0.10078170720E+04  0.10078170720E+04  0.50400000000E-02 0.  1.
    5000001    1    1    2    0    0 -0.36762910719E+03  0.16900472107E+02 -0.43030029886E+03  0.59660634727E+03  0.18800000000E+03 0.  0.
   -5000001    1    1    2    0    0  0.36762910719E+03 -0.16900472107E+02 -0.40799981813E+03  0.58072767973E+03  0.18800000000E+03 0.  0.
<mgrwt>
<rscale>  0 0.82666095E+03</rscale>
<asrwt>0</asrwt>
<pdfrwt beam="1">  1        1 0.14397386E+00 0.82666095E+03</pdfrwt>
<pdfrwt beam="2">  1       -1 0.24216708E-01 0.82666095E+03</pdfrwt>
<totfact> 0.25355370E+02</totfact>
</mgrwt>
</event>
<event>
 4    1  0.1578814E-005  0.7438044E+03  0.7818608E-02  0.9645121E-01
          1   -1    0    0  501    0  0.00000000000E+00  0.00000000000E+00  0.40405755521E+03  0.40405755524E+03  0.50400000000E-02 0. -1.
         -1   -1    0    0    0  501 -0.00000000000E+00 -0.00000000000E+00 -0.34230580964E+03  0.34230580968E+03  0.50400000000E-02 0.  1.
    5000001    1    1    2    0    0 -0.20784064906E+02  0.31836302719E+03 -0.35971478211E+01  0.37032949370E+03  0.18800000000E+03 0.  0.
   -5000001    1    1    2    0    0  0.20784064906E+02 -0.31836302719E+03  0.65348893389E+02  0.37603387121E+03  0.18800000000E+03 0.  0.
<mgrwt>
<rscale>  0 0.74380441E+03</rscale>
<asrwt>0</asrwt>
<pdfrwt beam="1">  1        1 0.57722508E-01 0.74380441E+03</pdfrwt>
<pdfrwt beam="2">  1       -1 0.48900830E-01 0.74380441E+03</pdfrwt>
<totfact> 0.27670939E+02</totfact>
</mgrwt>
</event>
<event>
 4    1  0.1578814E-005  0.5756940E+03  0.7818608E-02  0.9957157E-01
         -1   -1    0    0    0  501 -0.00000000000E+00  0.00000000000E+00  0.14711343720E+03  0.14711343729E+03  0.50400000000E-02 0. -1.
          1   -1    0    0  501    0  0.00000000000E+00 -0.00000000000E+00 -0.56321087026E+03  0.56321087028E+03  0.50400000000E-02 0.  1.
    5000001    1    1    2    0    0 -0.93130258614E+02 -0.18668914272E+03 -0.28594613604E+03  0.40079330558E+03  0.18800000000E+03 0.  0.
   -5000001    1    1    2    0    0  0.93130258614E+02  0.18668914272E+03 -0.13015129702E+03  0.30953100199E+03  0.18800000000E+03 0.  0.
<mgrwt>
<rscale>  0 0.57569397E+03</rscale>
<asrwt>0</asrwt>
<pdfrwt beam="1">  1        1 0.80458694E-01 0.57569397E+03</pdfrwt>
<pdfrwt beam="2">  1       -1 0.21016206E-01 0.57569397E+03</pdfrwt>
<totfact> 0.78814721E+02</totfact>
</mgrwt>
</event>
<event>
 4    1  0.1578814E-005  0.6171151E+03  0.7818608E-02  0.9870520E-01
         -1   -1    0    0    0  501 -0.00000000000E+00  0.00000000000E+00  0.19436759801E+04  0.19436759801E+04  0.50400000000E-02 0. -1.
          1   -1    0    0  501    0  0.00000000000E+00 -0.00000000000E+00 -0.48983350582E+02  0.48983350842E+02  0.50400000000E-02 0.  1.
    5000001    1    1    2    0    0  0.23468712529E+03 -0.23252609873E+02  0.73696491266E+03  0.79629141220E+03  0.18800000000E+03 0.  0.
   -5000001    1    1    2    0    0 -0.23468712529E+03  0.23252609873E+02  0.11577277168E+04  0.11963679187E+04  0.18800000000E+03 0.  0.
<mgrwt>
<rscale>  0 0.61711510E+03</rscale>
<asrwt>0</asrwt>
<pdfrwt beam="1">  1        1 0.69976214E-02 0.61711510E+03</pdfrwt>
<pdfrwt beam="2">  1       -1 0.27766800E+00 0.61711510E+03</pdfrwt>
<totfact> 0.53323686E+01</totfact>
</mgrwt>
</event>
<event>
 4    1  0.1578814E-005  0.5454563E+03  0.7818608E-02  0.1002551E+00
         -1   -1    0    0    0  501 -0.00000000000E+00  0.00000000000E+00  0.97201924686E+02  0.97201924817E+02  0.50400000000E-02 0. -1.
          1   -1    0    0  501    0  0.00000000000E+00 -0.00000000000E+00 -0.76521785615E+03  0.76521785617E+03  0.50400000000E-02 0.  1.
    5000001    1    1    2    0    0  0.86405184048E+02  0.10645334172E+03 -0.10907781967E+03  0.25698276311E+03  0.18800000000E+03 0.  0.
   -5000001    1    1    2    0    0 -0.86405184048E+02 -0.10645334172E+03 -0.55893811179E+03  0.60543701787E+03  0.18800000000E+03 0.  0.
<mgrwt>
<rscale>  0 0.54545632E+03</rscale>
<asrwt>0</asrwt>
<pdfrwt beam="1">  1        1 0.10931683E+00 0.54545632E+03</pdfrwt>
<pdfrwt beam="2">  1       -1 0.13885990E-01 0.54545632E+03</pdfrwt>
<totfact> 0.99986996E+02</totfact>
</mgrwt>
</event>
<event>
 4    1  0.1578814E-005  0.1116714E+04  0.7818608E-02  0.9189053E-01
         -1   -1    0    0    0  501 -0.00000000000E+00  0.00000000000E+00  0.22025943468E+03  0.22025943474E+03  0.50400000000E-02 0. -1.
          1   -1    0    0  501    0  0.00000000000E+00 -0.00000000000E+00 -0.14154335493E+04  0.14154335493E+04  0.50400000000E-02 0.  1.
    5000001    1    1    2    0    0  0.31188286278E+03 -0.16929224101E+03 -0.29374988109E+02  0.40266322515E+03  0.18800000000E+03 0.  0.
   -5000001    1    1    2    0    0 -0.31188286278E+03  0.16929224101E+03 -0.11657991265E+04  0.12330297589E+04  0.18800000000E+03 0.  0.
<mgrwt>
<rscale>  0 0.11167141E+04</rscale>
<asrwt>0</asrwt>
<pdfrwt beam="1">  1        1 0.20220479E+00 0.11167141E+04</pdfrwt>
<pdfrwt beam="2">  1       -1 0.31465634E-01 0.11167141E+04</pdfrwt>
<totfact> 0.82427241E+01</totfact>
</mgrwt>
</event>
<event>
 4    1  0.1578814E-005  0.6275921E+03  0.7818608E-02  0.9849759E-01
         -1   -1    0    0    0  501 -0.00000000000E+00  0.00000000000E+00  0.77689758755E+02  0.77689758919E+02  0.50400000000E-02 0. -1.
          1   -1    0    0  501    0  0.00000000000E+00 -0.00000000000E+00 -0.12674508914E+04  0.12674508914E+04  0.50400000000E-02 0.  1.
    5000001    1    1    2    0    0  0.16512313991E+03 -0.18930192384E+03 -0.58458264625E+03  0.66346193561E+03  0.18800000000E+03 0.  0.
   -5000001    1    1    2    0    0 -0.16512313991E+03  0.18930192384E+03 -0.60517848637E+03  0.68167871470E+03  0.18800000000E+03 0.  0.
<mgrwt>
<rscale>  0 0.62759208E+03</rscale>
<asrwt>0</asrwt>
<pdfrwt beam="1">  1        1 0.18106440E+00 0.62759208E+03</pdfrwt>
<pdfrwt beam="2">  1       -1 0.11098538E-01 0.62759208E+03</pdfrwt>
<totfact> 0.60386419E+02</totfact>
</mgrwt>
</event>
<event>
 4    1  0.1578814E-005  0.8296866E+03  0.7818608E-02  0.9518014E-01
          1   -1    0    0  501    0  0.00000000000E+00  0.00000000000E+00  0.14222568410E+04  0.14222568410E+04  0.50400000000E-02 0.  1.
         -1   -1    0    0    0  501 -0.00000000000E+00 -0.00000000000E+00 -0.12100133097E+03  0.12100133108E+03  0.50400000000E-02 0. -1.
    5000001    1    1    2    0    0 -0.31509358353E+02 -0.31699152618E+03  0.99997309542E+03  0.10661925993E+04  0.18800000000E+03 0.  0.
   -5000001    1    1    2    0    0  0.31509358353E+02  0.31699152618E+03  0.30128241456E+03  0.47706557270E+03  0.18800000000E+03 0.  0.
<mgrwt>
<rscale>  0 0.82968662E+03</rscale>
<asrwt>0</asrwt>
<pdfrwt beam="1">  1        1 0.20317954E+00 0.82968662E+03</pdfrwt>
<pdfrwt beam="2">  1       -1 0.17285905E-01 0.82968662E+03</pdfrwt>
<totfact> 0.23026361E+02</totfact>
</mgrwt>
</event>
<event>
 4    1  0.1578814E-005  0.9107340E+03  0.7818608E-02  0.9412262E-01
          1   -1    0    0  501    0  0.00000000000E+00  0.00000000000E+00  0.24285702016E+03  0.24285702021E+03  0.50400000000E-02 0.  1.
         -1   -1    0    0    0  501 -0.00000000000E+00 -0.00000000000E+00 -0.85383196995E+03  0.85383196996E+03  0.50400000000E-02 0. -1.
    5000001    1    1    2    0    0  0.29979054383E+03 -0.24073132199E+03 -0.49277214936E+03  0.65268241185E+03  0.18800000000E+03 0.  0.
   -5000001    1    1    2    0    0 -0.29979054383E+03  0.24073132199E+03 -0.11820280043E+03  0.44400657832E+03  0.18800000000E+03 0.  0.
<mgrwt>
<rscale>  0 0.91073396E+03</rscale>
<asrwt>0</asrwt>
<pdfrwt beam="1">  1        1 0.34693860E-01 0.91073396E+03</pdfrwt>
<pdfrwt beam="2">  1       -1 0.12197599E+00 0.91073396E+03</pdfrwt>
<totfact> 0.76206188E+01</totfact>
</mgrwt>
</event>
<event>
 4    1  0.1578814E-005  0.5451090E+03  0.7818608E-02  0.1002632E+00
          1   -1    0    0  501    0  0.00000000000E+00  0.00000000000E+00  0.36828826683E+04  0.36828826683E+04  0.50400000000E-02 0. -1.
         -1   -1    0    0    0  501 -0.00000000000E+00 -0.00000000000E+00 -0.20170596796E+02  0.20170597426E+02  0.50400000000E-02 0.  1.
    5000001    1    1    2    0    0  0.12377137644E+03  0.12123779702E+03  0.11896205252E+04  0.12167822118E+04  0.18800000000E+03 0.  0.
   -5000001    1    1    2    0    0 -0.12377137644E+03 -0.12123779702E+03  0.24730915463E+04  0.24862710539E+04  0.18800000000E+03 0.  0.
<mgrwt>
<rscale>  0 0.54510895E+03</rscale>
<asrwt>0</asrwt>
<pdfrwt beam="1">  1        1 0.52612636E+00 0.54510895E+03</pdfrwt>
<pdfrwt beam="2">  1       -1 0.28815124E-02 0.54510895E+03</pdfrwt>
<totfact> 0.13653401E+02</totfact>
</mgrwt>
</event>
<event>
 4    1  0.1578814E-005  0.4788213E+03  0.7818608E-02  0.1019460E+00
          1   -1    0    0  501    0  0.00000000000E+00  0.00000000000E+00  0.89336620372E+03  0.89336620373E+03  0.50400000000E-02 0.  1.
         -1   -1    0    0    0  501 -0.00000000000E+00 -0.00000000000E+00 -0.64158963652E+02  0.64158963850E+02  0.50400000000E-02 0. -1.
    5000001    1    1    2    0    0 -0.51496133514E+02  0.10576774472E+03  0.23423966926E+03  0.32256920226E+03  0.18800000000E+03 0.  0.
   -5000001    1    1    2    0    0  0.51496133514E+02 -0.10576774472E+03  0.59496757080E+03  0.63495596532E+03  0.18800000000E+03 0.  0.
<mgrwt>
<rscale>  0 0.47882126E+03</rscale>
<asrwt>0</asrwt>
<pdfrwt beam="1">  1        1 0.12762374E+00 0.47882126E+03</pdfrwt>
<pdfrwt beam="2">  1       -1 0.91655663E-02 0.47882126E+03</pdfrwt>
<totfact> 0.15199941E+03</totfact>
</mgrwt>
</event>
<event>
 4    1  0.1578814E-005  0.7234611E+03  0.7818608E-02  0.9677931E-01
         -1   -1    0    0    0  501 -0.00000000000E+00  0.00000000000E+00  0.37019620007E+03  0.37019620011E+03  0.50400000000E-02 0.  1.
          1   -1    0    0  501    0  0.00000000000E+00 -0.00000000000E+00 -0.35345853723E+03  0.35345853727E+03  0.50400000000E-02 0. -1.
    5000001    1    1    2    0    0  0.12332941076E+03  0.26629498275E+03  0.10525468001E+03  0.36406827528E+03  0.18800000000E+03 0.  0.
   -5000001    1    1    2    0    0 -0.12332941076E+03 -0.26629498275E+03 -0.88517017173E+02  0.35958646210E+03  0.18800000000E+03 0.  0.
<mgrwt>
<rscale>  0 0.72346115E+03</rscale>
<asrwt>0</asrwt>
<pdfrwt beam="1">  1        1 0.50494077E-01 0.72346115E+03</pdfrwt>
<pdfrwt beam="2">  1       -1 0.52885172E-01 0.72346115E+03</pdfrwt>
<totfact> 0.28431575E+02</totfact>
</mgrwt>
</event>
<event>
 4    1  0.1578814E-005  0.8467439E+03  0.7818608E-02  0.9494718E-01
         -1   -1    0    0    0  501 -0.00000000000E+00  0.00000000000E+00  0.59973481230E+03  0.59973481232E+03  0.50400000000E-02 0.  1.
          1   -1    0    0  501    0  0.00000000000E+00 -0.00000000000E+00 -0.29887175449E+03  0.29887175453E+03  0.50400000000E-02 0. -1.
    5000001    1    1    2    0    0 -0.18909040985E+03  0.32473851283E+03  0.20546845530E+03  0.46773023308E+03  0.18800000000E+03 0.  0.
   -5000001    1    1    2    0    0  0.18909040985E+03 -0.32473851283E+03  0.95394602511E+02  0.43087633377E+03  0.18800000000E+03 0.  0.
<mgrwt>
<rscale>  0 0.84674387E+03</rscale>
<asrwt>0</asrwt>
<pdfrwt beam="1">  1        1 0.42695966E-01 0.84674387E+03</pdfrwt>
<pdfrwt beam="2">  1       -1 0.85676400E-01 0.84674387E+03</pdfrwt>
<totfact> 0.13191842E+02</totfact>
</mgrwt>
</event>
<event>
 4    1  0.1578814E-005  0.6153373E+03  0.7818608E-02  0.9874087E-01
          1   -1    0    0  501    0  0.00000000000E+00  0.00000000000E+00  0.15953889999E+03  0.15953890007E+03  0.50400000000E-02 0.  1.
         -1   -1    0    0    0  501 -0.00000000000E+00 -0.00000000000E+00 -0.59333484689E+03  0.59333484691E+03  0.50400000000E-02 0. -1.
    5000001    1    1    2    0    0  0.55558852858E+02  0.42618072149E+02 -0.50230185817E+03  0.54088283660E+03  0.18800000000E+03 0.  0.
   -5000001    1    1    2    0    0 -0.55558852858E+02 -0.42618072149E+02  0.68505911275E+02  0.21199091038E+03  0.18800000000E+03 0.  0.
<mgrwt>
<rscale>  0 0.61533727E+03</rscale>
<asrwt>0</asrwt>
<pdfrwt beam="1">  1        1 0.22791272E-01 0.61533727E+03</pdfrwt>
<pdfrwt beam="2">  1       -1 0.84762120E-01 0.61533727E+03</pdfrwt>
<totfact> 0.30825746E+02</totfact>
</mgrwt>
</event>
<event>
 4    1  0.1578814E-005  0.5712947E+03  0.7818608E-02  0.9966818E-01
          1   -1    0    0  501    0  0.00000000000E+00  0.00000000000E+00  0.59098377454E+03  0.59098377456E+03  0.50400000000E-02 0. -1.
         -1   -1    0    0    0  501 -0.00000000000E+00 -0.00000000000E+00 -0.13806540561E+03  0.13806540570E+03  0.50400000000E-02 0.  1.
    5000001    1    1    2    0    0 -0.54673766638E+02  0.16574433045E+03  0.38681614935E+03  0.46414559917E+03  0.18800000000E+03 0.  0.
   -5000001    1    1    2    0    0  0.54673766638E+02 -0.16574433045E+03  0.66102219582E+02  0.26490358108E+03  0.18800000000E+03 0.  0.
<mgrwt>
<rscale>  0 0.57129472E+03</rscale>
<asrwt>0</asrwt>
<pdfrwt beam="1">  1        1 0.84426254E-01 0.57129472E+03</pdfrwt>
<pdfrwt beam="2">  1       -1 0.19723629E-01 0.57129472E+03</pdfrwt>
<totfact> 0.81933123E+02</totfact>
</mgrwt>
</event>
<event>
 4    1  0.1578814E-005  0.4752177E+03  0.7818608E-02  0.1020458E+00
          1   -1    0    0  501    0  0.00000000000E+00  0.00000000000E+00  0.54207804850E+03  0.54207804853E+03  0.50400000000E-02 0.  1.
         -1   -1    0    0    0  501 -0.00000000000E+00 -0.00000000000E+00 -0.10415100573E+03  0.10415100585E+03  0.50400000000E-02 0. -1.
    5000001    1    1    2    0    0 -0.49575406902E+02  0.13459736386E+03  0.25055801120E+03  0.34452501840E+03  0.18800000000E+03 0.  0.
   -5000001    1    1    2    0    0  0.49575406902E+02 -0.13459736386E+03  0.18736903158E+03  0.30170403598E+03  0.18800000000E+03 0.  0.
<mgrwt>
<rscale>  0 0.47521774E+03</rscale>
<asrwt>0</asrwt>
<pdfrwt beam="1">  1        1 0.77439721E-01 0.47521774E+03</pdfrwt>
<pdfrwt beam="2">  1       -1 0.14878715E-01 0.47521774E+03</pdfrwt>
<totfact> 0.14627910E+03</totfact>
</mgrwt>
</event>
<event>
 4    1  0.1578814E-005  0.7600207E+03  0.7818608E-02  0.9619759E-01
         -1   -1    0    0    0  501 -0.00000000000E+00  0.00000000000E+00  0.96967729674E+02  0.96967729805E+02  0.50400000000E-02 0. -1.
          1   -1    0    0  501    0  0.00000000000E+00 -0.00000000000E+00 -0.14892364591E+04  0.14892364592E+04  0.50400000000E-02 0.  1.
    5000001    1    1    2    0    0 -0.18553836390E+03  0.24882998966E+03 -0.93154654692E+03  0.99973187271E+03  0.18800000000E+03 0.  0.
   -5000001    1    1    2    0    0  0.18553836390E+03 -0.24882998966E+03 -0.46072218255E+03  0.58647231625E+03  0.18800000000E+03 0.  0.
<mgrwt>
<rscale>  0 0.76002073E+03</rscale>
<asrwt>0</asrwt>
<pdfrwt beam="1">  1        1 0.21274805E+00 0.76002073E+03</pdfrwt>
<pdfrwt beam="2">  1       -1 0.13852534E-01 0.76002073E+03</pdfrwt>
<totfact> 0.30022399E+02</totfact>
</mgrwt>
</event>
<event>
 4    1  0.1578814E-005  0.5497063E+03  0.7818608E-02  0.1001562E+00
          1   -1    0    0  501    0  0.00000000000E+00  0.00000000000E+00  0.56405731987E+03  0.56405731990E+03  0.50400000000E-02 0.  1.
         -1   -1    0    0    0  501 -0.00000000000E+00 -0.00000000000E+00 -0.13393008323E+03  0.13393008333E+03  0.50400000000E-02 0. -1.
    5000001    1    1    2    0    0  0.11029537810E+03  0.49201405641E+02  0.41828011119E+03  0.47422368157E+03  0.18800000000E+03 0.  0.
   -5000001    1    1    2    0    0 -0.11029537810E+03 -0.49201405641E+02  0.11847125455E+02  0.22376372165E+03  0.18800000000E+03 0.  0.
<mgrwt>
<rscale>  0 0.54970626E+03</rscale>
<asrwt>0</asrwt>
<pdfrwt beam="1">  1        1 0.80579618E-01 0.54970626E+03</pdfrwt>
<pdfrwt beam="2">  1       -1 0.19132869E-01 0.54970626E+03</pdfrwt>
<totfact> 0.91934692E+02</totfact>
</mgrwt>
</event>
<event>
 4    1  0.1578814E-005  0.4918122E+03  0.7818608E-02  0.1015938E+00
         -1   -1    0    0    0  501 -0.00000000000E+00  0.00000000000E+00  0.43563492529E+03  0.43563492532E+03  0.50400000000E-02 0. -1.
          1   -1    0    0  501    0  0.00000000000E+00 -0.00000000000E+00 -0.13880845952E+03  0.13880845962E+03  0.50400000000E-02 0.  1.
    5000001    1    1    2    0    0 -0.11130022918E+03 -0.76308316849E+02  0.51284537486E+02  0.23703333947E+03  0.18800000000E+03 0.  0.
   -5000001    1    1    2    0    0  0.11130022918E+03  0.76308316849E+02  0.24554192828E+03  0.33741004547E+03  0.18800000000E+03 0.  0.
<mgrwt>
<rscale>  0 0.49181221E+03</rscale>
<asrwt>0</asrwt>
<pdfrwt beam="1">  1        1 0.19829780E-01 0.49181221E+03</pdfrwt>
<pdfrwt beam="2">  1       -1 0.62233561E-01 0.49181221E+03</pdfrwt>
<totfact> 0.70034784E+02</totfact>
</mgrwt>
</event>
<event>
 4    1  0.1578814E-005  0.6817172E+03  0.7818608E-02  0.9749019E-01
          1   -1    0    0  501    0  0.00000000000E+00  0.00000000000E+00  0.71006371410E+03  0.71006371412E+03  0.50400000000E-02 0.  1.
         -1   -1    0    0    0  501 -0.00000000000E+00 -0.00000000000E+00 -0.16362559473E+03  0.16362559481E+03  0.50400000000E-02 0. -1.
    5000001    1    1    2    0    0  0.78002592616E+02  0.25671681359E+03  0.15263499972E+03  0.36142685287E+03  0.18800000000E+03 0.  0.
   -5000001    1    1    2    0    0 -0.78002592616E+02 -0.25671681359E+03  0.39380311965E+03  0.51226245605E+03  0.18800000000E+03 0.  0.
<mgrwt>
<rscale>  0 0.68171724E+03</rscale>
<asrwt>0</asrwt>
<pdfrwt beam="1">  1        1 0.10143767E+00 0.68171724E+03</pdfrwt>
<pdfrwt beam="2">  1       -1 0.23375085E-01 0.68171724E+03</pdfrwt>
<totfact> 0.47264288E+02</totfact>
</mgrwt>
</event>
<event>
 4    1  0.1578814E-005  0.3959077E+03  0.7818608E-02  0.1045206E+00
         -1   -1    0    0    0  501 -0.00000000000E+00  0.00000000000E+00  0.22368731205E+03  0.22368731211E+03  0.50400000000E-02 0. -1.
          1   -1    0    0  501    0  0.00000000000E+00 -0.00000000000E+00 -0.17518078294E+03  0.17518078302E+03  0.50400000000E-02 0.  1.
    5000001    1    1    2    0    0  0.22680215983E+02  0.40521823190E+02  0.65612743118E+02  0.20446379242E+03  0.18800000000E+03 0.  0.
   -5000001    1    1    2    0    0 -0.22680215983E+02 -0.40521823190E+02 -0.17106214010E+02  0.19440430270E+03  0.18800000000E+03 0.  0.
<mgrwt>
<rscale>  0 0.39590766E+03</rscale>
<asrwt>0</asrwt>
<pdfrwt beam="1">  1        1 0.25025826E-01 0.39590766E+03</pdfrwt>
<pdfrwt beam="2">  1       -1 0.31955330E-01 0.39590766E+03</pdfrwt>
<totfact> 0.17609672E+03</totfact>
</mgrwt>
</event>
<event>
 4    1  0.1578814E-005  0.7595214E+03  0.7818608E-02  0.9620530E-01
         -1   -1    0    0    0  501 -0.00000000000E+00  0.00000000000E+00  0.28834224541E+03  0.28834224546E+03  0.50400000000E-02 0.  1.
          1   -1    0    0  501    0  0.00000000000E+00 -0.00000000000E+00 -0.50016318465E+03  0.50016318468E+03  0.50400000000E-02 0. -1.
    5000001    1    1    2    0    0 -0.23203490741E+03 -0.18601989956E+02 -0.34868911843E+03  0.45947179848E+03  0.18800000000E+03 0.  0.
   -5000001    1    1    2    0    0  0.23203490741E+03  0.18601989956E+02  0.13686817919E+03  0.32903363166E+03  0.18800000000E+03 0.  0.
<mgrwt>
<rscale>  0 0.75952136E+03</rscale>
<asrwt>0</asrwt>
<pdfrwt beam="1">  1        1 0.71451883E-01 0.75952136E+03</pdfrwt>
<pdfrwt beam="2">  1       -1 0.41191750E-01 0.75952136E+03</pdfrwt>
<totfact> 0.28605301E+02</totfact>
</mgrwt>
</event>
<event>
 4    1  0.1578814E-005  0.5402823E+03  0.7818608E-02  0.1003769E+00
          1   -1    0    0  501    0  0.00000000000E+00  0.00000000000E+00  0.13800919416E+04  0.13800919416E+04  0.50400000000E-02 0.  1.
         -1   -1    0    0    0  501 -0.00000000000E+00 -0.00000000000E+00 -0.52877816668E+02  0.52877816908E+02  0.50400000000E-02 0. -1.
    5000001    1    1    2    0    0  0.14787863846E+03  0.57165736450E+02  0.36711991901E+03  0.44187899709E+03  0.18800000000E+03 0.  0.
   -5000001    1    1    2    0    0 -0.14787863846E+03 -0.57165736450E+02  0.96009420593E+03  0.99109076143E+03  0.18800000000E+03 0.  0.
<mgrwt>
<rscale>  0 0.54028233E+03</rscale>
<asrwt>0</asrwt>
<pdfrwt beam="1">  1        1 0.19715597E+00 0.54028233E+03</pdfrwt>
<pdfrwt beam="2">  1       -1 0.75539747E-02 0.54028233E+03</pdfrwt>
<totfact> 0.93374432E+02</totfact>
</mgrwt>
</event>
<event>
 4    1  0.1578814E-005  0.6110053E+03  0.7818608E-02  0.9882833E-01
          1   -1    0    0  501    0  0.00000000000E+00  0.00000000000E+00  0.13911244199E+04  0.13911244199E+04  0.50400000000E-02 0.  1.
         -1   -1    0    0    0  501 -0.00000000000E+00 -0.00000000000E+00 -0.67090946362E+02  0.67090946551E+02  0.50400000000E-02 0. -1.
    5000001    1    1    2    0    0 -0.17675678098E+03 -0.10854511101E+03  0.95395023835E+03  0.99417808164E+03  0.18800000000E+03 0.  0.
   -5000001    1    1    2    0    0  0.17675678098E+03  0.10854511101E+03  0.37008323520E+03  0.46403728484E+03  0.18800000000E+03 0.  0.
<mgrwt>
<rscale>  0 0.61100525E+03</rscale>
<asrwt>0</asrwt>
<pdfrwt beam="1">  1        1 0.19873207E+00 0.61100525E+03</pdfrwt>
<pdfrwt beam="2">  1       -1 0.95844205E-02 0.61100525E+03</pdfrwt>
<totfact> 0.63100833E+02</totfact>
</mgrwt>
</event>
<event>
 4    1  0.1578814E-005  0.6102441E+03  0.7818608E-02  0.9884378E-01
          1   -1    0    0  501    0  0.00000000000E+00  0.00000000000E+00  0.19505744707E+04  0.19505744707E+04  0.50400000000E-02 0. -1.
         -1   -1    0    0    0  501 -0.00000000000E+00 -0.00000000000E+00 -0.47729256374E+02  0.47729256640E+02  0.50400000000E-02 0.  1.
    5000001    1    1    2    0    0 -0.28254034049E+02 -0.22379395398E+03  0.12229071642E+04  0.12576676653E+04  0.18800000000E+03 0.  0.
   -5000001    1    1    2    0    0  0.28254034049E+02  0.22379395398E+03  0.67993805012E+03  0.74063606196E+03  0.18800000000E+03 0.  0.
<mgrwt>
<rscale>  0 0.61024411E+03</rscale>
<asrwt>0</asrwt>
<pdfrwt beam="1">  1        1 0.27865355E+00 0.61024411E+03</pdfrwt>
<pdfrwt beam="2">  1       -1 0.68184639E-02 0.61024411E+03</pdfrwt>
<totfact> 0.47624884E+02</totfact>
</mgrwt>
</event>
<event>
 4    1  0.1578814E-005  0.4412931E+03  0.7818608E-02  0.1030351E+00
         -1   -1    0    0    0  501 -0.00000000000E+00  0.00000000000E+00  0.45020291430E+02  0.45020291712E+02  0.50400000000E-02 0. -1.
          1   -1    0    0  501    0  0.00000000000E+00 -0.00000000000E+00 -0.10813991411E+04  0.10813991412E+04  0.50400000000E-02 0.  1.
    5000001    1    1    2    0    0 -0.16818309752E+02 -0.11420193566E+03 -0.52838906020E+03  0.57259404170E+03  0.18800000000E+03 0.  0.
   -5000001    1    1    2    0    0  0.16818309752E+02  0.11420193566E+03 -0.50798978951E+03  0.55382539116E+03  0.18800000000E+03 0.  0.
<mgrwt>
<rscale>  0 0.44129312E+03</rscale>
<asrwt>0</asrwt>
<pdfrwt beam="1">  1        1 0.15448558E+00 0.44129312E+03</pdfrwt>
<pdfrwt beam="2">  1       -1 0.64314709E-02 0.44129312E+03</pdfrwt>
<totfact> 0.19102529E+03</totfact>
</mgrwt>
</event>
<event>
 4    1  0.1578814E-005  0.9264596E+03  0.7818608E-02  0.9393097E-01
          1   -1    0    0  501    0  0.00000000000E+00  0.00000000000E+00  0.10798543214E+04  0.10798543214E+04  0.50400000000E-02 0. -1.
         -1   -1    0    0    0  501 -0.00000000000E+00 -0.00000000000E+00 -0.19871370077E+03  0.19871370084E+03  0.50400000000E-02 0.  1.
    5000001    1    1    2    0    0 -0.10429318167E+03  0.40344294264E+03  0.33734627863E+03  0.56814592089E+03  0.18800000000E+03 0.  0.
   -5000001    1    1    2    0    0  0.10429318167E+03 -0.40344294264E+03  0.54379434197E+03  0.71042210134E+03  0.18800000000E+03 0.  0.
<mgrwt>
<rscale>  0 0.92645960E+03</rscale>
<asrwt>0</asrwt>
<pdfrwt beam="1">  1        1 0.15426490E+00 0.92645960E+03</pdfrwt>
<pdfrwt beam="2">  1       -1 0.28387672E-01 0.92645960E+03</pdfrwt>
<totfact> 0.16992997E+02</totfact>
</mgrwt>
</event>
<event>
 4    1  0.1578814E-005  0.5421401E+03  0.7818608E-02  0.1003330E+00
         -1   -1    0    0    0  501 -0.00000000000E+00  0.00000000000E+00  0.53925365388E+02  0.53925365623E+02  0.50400000000E-02 0. -1.
          1   -1    0    0  501    0  0.00000000000E+00 -0.00000000000E+00 -0.13626051765E+04  0.13626051765E+04  0.50400000000E-02 0.  1.
    5000001    1    1    2    0    0  0.11379818668E+03  0.15825572873E+03 -0.68526430299E+03  0.73683517012E+03  0.18800000000E+03 0.  0.
   -5000001    1    1    2    0    0 -0.11379818668E+03 -0.15825572873E+03 -0.62341550808E+03  0.67969537198E+03  0.18800000000E+03 0.  0.
<mgrwt>
<rscale>  0 0.54214014E+03</rscale>
<asrwt>0</asrwt>
<pdfrwt beam="1">  1        1 0.19465786E+00 0.54214014E+03</pdfrwt>
<pdfrwt beam="2">  1       -1 0.77036245E-02 0.54214014E+03</pdfrwt>
<totfact> 0.92983032E+02</totfact>
</mgrwt>
</event>
<event>
 4    1  0.1578814E-005  0.4443608E+03  0.7818608E-02  0.1029417E+00
         -1   -1    0    0    0  501 -0.00000000000E+00  0.00000000000E+00  0.76549456162E+02  0.76549456328E+02  0.50400000000E-02 0. -1.
          1   -1    0    0  501    0  0.00000000000E+00 -0.00000000000E+00 -0.64486581146E+03  0.64486581148E+03  0.50400000000E-02 0.  1.
    5000001    1    1    2    0    0  0.69251405397E+02  0.93079399570E+02 -0.24571897331E+03  0.33042600627E+03  0.18800000000E+03 0.  0.
   -5000001    1    1    2    0    0 -0.69251405397E+02 -0.93079399570E+02 -0.32259738199E+03  0.39098926154E+03  0.18800000000E+03 0.  0.
<mgrwt>
<rscale>  0 0.44436079E+03</rscale>
<asrwt>0</asrwt>
<pdfrwt beam="1">  1        1 0.92123685E-01 0.44436079E+03</pdfrwt>
<pdfrwt beam="2">  1       -1 0.10935637E-01 0.44436079E+03</pdfrwt>
<totfact> 0.18772557E+03</totfact>
</mgrwt>
</event>
<event>
 4    1  0.1578814E-005  0.7247271E+03  0.7818608E-02  0.9675856E-01
          1   -1    0    0  501    0  0.00000000000E+00  0.00000000000E+00  0.22857744017E+03  0.22857744023E+03  0.50400000000E-02 0. -1.
         -1   -1    0    0    0  501 -0.00000000000E+00 -0.00000000000E+00 -0.57445457583E+03  0.57445457586E+03  0.50400000000E-02 0.  1.
    5000001    1    1    2    0    0  0.97353620250E+02 -0.23552181520E+03 -0.36807796290E+03  0.48556527839E+03  0.18800000000E+03 0.  0.
   -5000001    1    1    2    0    0 -0.97353620250E+02  0.23552181520E+03  0.22200827237E+02  0.31746673769E+03  0.18800000000E+03 0.  0.
<mgrwt>
<rscale>  0 0.72472714E+03</rscale>
<asrwt>0</asrwt>
<pdfrwt beam="1">  1        1 0.32653920E-01 0.72472714E+03</pdfrwt>
<pdfrwt beam="2">  1       -1 0.82064939E-01 0.72472714E+03</pdfrwt>
<totfact> 0.20601155E+02</totfact>
</mgrwt>
</event>
<event>
 4    1  0.1578814E-005  0.4261696E+03  0.7818608E-02  0.1035077E+00
          1   -1    0    0  501    0  0.00000000000E+00  0.00000000000E+00  0.93099751464E+03  0.93099751466E+03  0.50400000000E-02 0.  1.
         -1   -1    0    0    0  501 -0.00000000000E+00 -0.00000000000E+00 -0.48770407255E+02  0.48770407516E+02  0.50400000000E-02 0. -1.
    5000001    1    1    2    0    0 -0.89093426611E+02 -0.18919029194E+02  0.53771463273E+03  0.57686791780E+03  0.18800000000E+03 0.  0.
   -5000001    1    1    2    0    0  0.89093426611E+02  0.18919029194E+02  0.34451247466E+03  0.40290000438E+03  0.18800000000E+03 0.  0.
<mgrwt>
<rscale>  0 0.42616958E+03</rscale>
<asrwt>0</asrwt>
<pdfrwt beam="1">  1        1 0.13299965E+00 0.42616958E+03</pdfrwt>
<pdfrwt beam="2">  1       -1 0.69672009E-02 0.42616958E+03</pdfrwt>
<totfact> 0.21755480E+03</totfact>
</mgrwt>
</event>
<event>
 4    1  0.1578814E-005  0.7350048E+03  0.7818608E-02  0.9659174E-01
          1   -1    0    0  501    0  0.00000000000E+00  0.00000000000E+00  0.23771601558E+04  0.23771601558E+04  0.50400000000E-02 0.  1.
         -1   -1    0    0    0  501 -0.00000000000E+00 -0.00000000000E+00 -0.56814849282E+02  0.56814849506E+02  0.50400000000E-02 0. -1.
    5000001    1    1    2    0    0 -0.26354599515E+03 -0.57782361111E+02  0.17034893308E+04  0.17349395358E+04  0.18800000000E+03 0.  0.
   -5000001    1    1    2    0    0  0.26354599515E+03  0.57782361111E+02  0.61685597566E+03  0.69903546943E+03  0.18800000000E+03 0.  0.
<mgrwt>
<rscale>  0 0.73500475E+03</rscale>
<asrwt>0</asrwt>
<pdfrwt beam="1">  1        1 0.33959428E+00 0.73500475E+03</pdfrwt>
<pdfrwt beam="2">  1       -1 0.81164077E-02 0.73500475E+03</pdfrwt>
<totfact> 0.19557513E+02</totfact>
</mgrwt>
</event>
<event>
 4    1  0.1578814E-005  0.8646800E+03  0.7818608E-02  0.9470843E-01
          1   -1    0    0  501    0  0.00000000000E+00  0.00000000000E+00  0.14687889086E+04  0.14687889086E+04  0.50400000000E-02 0.  1.
         -1   -1    0    0    0  501 -0.00000000000E+00 -0.00000000000E+00 -0.12725987324E+03  0.12725987334E+03  0.50400000000E-02 0. -1.
    5000001    1    1    2    0    0 -0.15182574578E+03 -0.12362759755E+03  0.12919035762E+04  0.13201112416E+04  0.18800000000E+03 0.  0.
   -5000001    1    1    2    0    0  0.15182574578E+03  0.12362759755E+03  0.49625459107E+02  0.27593754031E+03  0.18800000000E+03 0.  0.
<mgrwt>
<rscale>  0 0.86468003E+03</rscale>
<asrwt>0</asrwt>
<pdfrwt beam="1">  1        1 0.20982699E+00 0.86468003E+03</pdfrwt>
<pdfrwt beam="2">  1       -1 0.18179982E-01 0.86468003E+03</pdfrwt>
<totfact> 0.19710231E+02</totfact>
</mgrwt>
</event>
<event>
 4    1  0.1578814E-005  0.7738205E+03  0.7818608E-02  0.9598703E-01
          1   -1    0    0  501    0  0.00000000000E+00  0.00000000000E+00  0.87225931008E+03  0.87225931009E+03  0.50400000000E-02 0.  1.
         -1   -1    0    0    0  501 -0.00000000000E+00 -0.00000000000E+00 -0.17162277051E+03  0.17162277059E+03  0.50400000000E-02 0. -1.
    5000001    1    1    2    0    0  0.10764738406E+03 -0.29134063658E+03  0.53074252237E+03  0.64303884087E+03  0.18800000000E+03 0.  0.
   -5000001    1    1    2    0    0 -0.10764738406E+03  0.29134063658E+03  0.16989401720E+03  0.40084323981E+03  0.18800000000E+03 0.  0.
<mgrwt>
<rscale>  0 0.77382055E+03</rscale>
<asrwt>0</asrwt>
<pdfrwt beam="1">  1        1 0.12460847E+00 0.77382055E+03</pdfrwt>
<pdfrwt beam="2">  1       -1 0.24517539E-01 0.77382055E+03</pdfrwt>
<totfact> 0.31652510E+02</totfact>
</mgrwt>
</event>
<event>
 4    1  0.1578814E-005  0.5463280E+03  0.7818608E-02  0.1002347E+00
         -1   -1    0    0    0  501 -0.00000000000E+00  0.00000000000E+00  0.66110125723E+02  0.66110125915E+02  0.50400000000E-02 0. -1.
          1   -1    0    0  501    0  0.00000000000E+00 -0.00000000000E+00 -0.11287010726E+04  0.11287010726E+04  0.50400000000E-02 0.  1.
    5000001    1    1    2    0    0 -0.14785114819E+03 -0.29847776144E+02 -0.81242063464E+03  0.84742087498E+03  0.18800000000E+03 0.  0.
   -5000001    1    1    2    0    0  0.14785114819E+03  0.29847776144E+02 -0.25017031220E+03  0.34739032351E+03  0.18800000000E+03 0.  0.
<mgrwt>
<rscale>  0 0.54632800E+03</rscale>
<asrwt>0</asrwt>
<pdfrwt beam="1">  1        1 0.16124300E+00 0.54632800E+03</pdfrwt>
<pdfrwt beam="2">  1       -1 0.94443044E-02 0.54632800E+03</pdfrwt>
<totfact> 0.97299081E+02</totfact>
</mgrwt>
</event>
<event>
 4    1  0.1578814E-005  0.5058521E+03  0.7818608E-02  0.1012263E+00
         -1   -1    0    0    0  501 -0.00000000000E+00  0.00000000000E+00  0.76216829324E+02  0.76216829490E+02  0.50400000000E-02 0. -1.
          1   -1    0    0  501    0  0.00000000000E+00 -0.00000000000E+00 -0.83933683570E+03  0.83933683572E+03  0.50400000000E-02 0.  1.
    5000001    1    1    2    0    0 -0.95559435101E+02  0.13808533690E+03 -0.34409736065E+03  0.42655147346E+03  0.18800000000E+03 0.  0.
   -5000001    1    1    2    0    0  0.95559435101E+02 -0.13808533690E+03 -0.41902264573E+03  0.48900219175E+03  0.18800000000E+03 0.  0.
<mgrwt>
<rscale>  0 0.50585212E+03</rscale>
<asrwt>0</asrwt>
<pdfrwt beam="1">  1        1 0.11990526E+00 0.50585212E+03</pdfrwt>
<pdfrwt beam="2">  1       -1 0.10888119E-01 0.50585212E+03</pdfrwt>
<totfact> 0.12793836E+03</totfact>
</mgrwt>
</event>
<event>
 4    1  0.1578814E-005  0.4798295E+03  0.7818608E-02  0.1019182E+00
         -1   -1    0    0    0  501 -0.00000000000E+00  0.00000000000E+00  0.11004987672E+03  0.11004987684E+03  0.50400000000E-02 0. -1.
          1   -1    0    0  501    0  0.00000000000E+00 -0.00000000000E+00 -0.52302718698E+03  0.52302718700E+03  0.50400000000E-02 0.  1.
    5000001    1    1    2    0    0 -0.59804021225E+02  0.11447441625E+03 -0.30463987598E+03  0.38056585103E+03  0.18800000000E+03 0.  0.
   -5000001    1    1    2    0    0  0.59804021225E+02 -0.11447441625E+03 -0.10833743428E+03  0.25251121282E+03  0.18800000000E+03 0.  0.
<mgrwt>
<rscale>  0 0.47982946E+03</rscale>
<asrwt>0</asrwt>
<pdfrwt beam="1">  1        1 0.74718168E-01 0.47982946E+03</pdfrwt>
<pdfrwt beam="2">  1       -1 0.15721411E-01 0.47982946E+03</pdfrwt>
<totfact> 0.14047885E+03</totfact>
</mgrwt>
</event>
<event>
 4    1  0.1578814E-005  0.5733346E+03  0.7818608E-02  0.9962327E-01
         -1   -1    0    0    0  501 -0.00000000000E+00  0.00000000000E+00  0.36904274985E+03  0.36904274988E+03  0.50400000000E-02 0.  1.
          1   -1    0    0  501    0  0.00000000000E+00 -0.00000000000E+00 -0.22267921095E+03  0.22267921101E+03  0.50400000000E-02 0. -1.
    5000001    1    1    2    0    0 -0.59011831023E+02 -0.18759164433E+03  0.16641797451E+03  0.31892313096E+03  0.18800000000E+03 0.  0.
   -5000001    1    1    2    0    0  0.59011831023E+02  0.18759164433E+03 -0.20054435608E+02  0.27279882993E+03  0.18800000000E+03 0.  0.
<mgrwt>
<rscale>  0 0.57333463E+03</rscale>
<asrwt>0</asrwt>
<pdfrwt beam="1">  1        1 0.31811316E-01 0.57333463E+03</pdfrwt>
<pdfrwt beam="2">  1       -1 0.52720392E-01 0.57333463E+03</pdfrwt>
<totfact> 0.52174166E+02</totfact>
</mgrwt>
</event>
<event>
 4    1  0.1578814E-005  0.9877292E+03  0.7818608E-02  0.9322107E-01
          1   -1    0    0  501    0  0.00000000000E+00  0.00000000000E+00  0.98872592618E+03  0.98872592619E+03  0.50400000000E-02 0. -1.
         -1   -1    0    0    0  501 -0.00000000000E+00 -0.00000000000E+00 -0.24668336652E+03  0.24668336657E+03  0.50400000000E-02 0.  1.
    5000001    1    1    2    0    0 -0.17314944271E+03 -0.42163275765E+03  0.33557101447E+03  0.59641161758E+03  0.18800000000E+03 0.  0.
   -5000001    1    1    2    0    0  0.17314944271E+03  0.42163275765E+03  0.40647154519E+03  0.63899767518E+03  0.18800000000E+03 0.  0.
<mgrwt>
<rscale>  0 0.98772919E+03</rscale>
<asrwt>0</asrwt>
<pdfrwt beam="1">  1        1 0.14124656E+00 0.98772919E+03</pdfrwt>
<pdfrwt beam="2">  1       -1 0.35240481E-01 0.98772919E+03</pdfrwt>
<totfact> 0.13502883E+02</totfact>
</mgrwt>
</event>
<event>
 4    1  0.1578814E-005  0.4607466E+03  0.7818608E-02  0.1024565E+00
          1   -1    0    0  501    0  0.00000000000E+00  0.00000000000E+00  0.41336969709E+02  0.41336970016E+02  0.50400000000E-02 0.  1.
         -1   -1    0    0    0  501 -0.00000000000E+00 -0.00000000000E+00 -0.12838836988E+04  0.12838836988E+04  0.50400000000E-02 0. -1.
    5000001    1    1    2    0    0 -0.11702264048E+03  0.37587405371E+02 -0.47402893641E+03  0.52455175530E+03  0.18800000000E+03 0.  0.
   -5000001    1    1    2    0    0  0.11702264048E+03 -0.37587405371E+02 -0.76851779265E+03  0.80066891350E+03  0.18800000000E+03 0.  0.
<mgrwt>
<rscale>  0 0.46074662E+03</rscale>
<asrwt>0</asrwt>
<pdfrwt beam="1">  1        1 0.59052822E-02 0.46074662E+03</pdfrwt>
<pdfrwt beam="2">  1       -1 0.18341193E+00 0.46074662E+03</pdfrwt>
<totfact> 0.28410237E+02</totfact>
</mgrwt>
</event>
<event>
 4    1  0.1578814E-005  0.4506674E+03  0.7818608E-02  0.1027523E+00
         -1   -1    0    0    0  501 -0.00000000000E+00  0.00000000000E+00  0.46755179026E+02  0.46755179298E+02  0.50400000000E-02 0.  1.
          1   -1    0    0  501    0  0.00000000000E+00 -0.00000000000E+00 -0.10859818338E+04  0.10859818338E+04  0.50400000000E-02 0. -1.
    5000001    1    1    2    0    0 -0.70414401303E+02  0.83976735992E+02 -0.37260254792E+03  0.43149384563E+03  0.18800000000E+03 0.  0.
   -5000001    1    1    2    0    0  0.70414401303E+02 -0.83976735992E+02 -0.66662410682E+03  0.70124316745E+03  0.18800000000E+03 0.  0.
<mgrwt>
<rscale>  0 0.45066739E+03</rscale>
<asrwt>0</asrwt>
<pdfrwt beam="1">  1        1 0.15514025E+00 0.45066739E+03</pdfrwt>
<pdfrwt beam="2">  1       -1 0.66793120E-02 0.45066739E+03</pdfrwt>
<totfact> 0.17889913E+03</totfact>
</mgrwt>
</event>
<event>
 4    1  0.1578814E-005  0.5029642E+03  0.7818608E-02  0.1013008E+00
         -1   -1    0    0    0  501 -0.00000000000E+00  0.00000000000E+00  0.36623063773E+03  0.36623063776E+03  0.50400000000E-02 0. -1.
          1   -1    0    0  501    0  0.00000000000E+00 -0.00000000000E+00 -0.17268695152E+03  0.17268695159E+03  0.50400000000E-02 0.  1.
    5000001    1    1    2    0    0  0.16388101497E+03  0.31109464397E+02  0.87525586654E+02  0.26613814864E+03  0.18800000000E+03 0.  0.
   -5000001    1    1    2    0    0 -0.16388101497E+03 -0.31109464397E+02  0.10601809955E+03  0.27277944071E+03  0.18800000000E+03 0.  0.
<mgrwt>
<rscale>  0 0.50296422E+03</rscale>
<asrwt>0</asrwt>
<pdfrwt beam="1">  1        1 0.24669564E-01 0.50296422E+03</pdfrwt>
<pdfrwt beam="2">  1       -1 0.52318663E-01 0.50296422E+03</pdfrwt>
<totfact> 0.73625125E+02</totfact>
</mgrwt>
</event>
<event>
 4    1  0.1578814E-005  0.7946360E+03  0.7818608E-02  0.9567814E-01
          1   -1    0    0  501    0  0.00000000000E+00  0.00000000000E+00  0.40756424961E+04  0.40756424961E+04  0.50400000000E-02 0.  1.
         -1   -1    0    0    0  501 -0.00000000000E+00 -0.00000000000E+00 -0.38732930100E+02  0.38732930428E+02  0.50400000000E-02 0. -1.
    5000001    1    1    2    0    0 -0.29640686079E+03  0.10255528828E+03  0.12139456437E+04  0.12678259502E+04  0.18800000000E+03 0.  0.
   -5000001    1    1    2    0    0  0.29640686079E+03 -0.10255528828E+03  0.28229639223E+04  0.28465494763E+04  0.18800000000E+03 0.  0.
<mgrwt>
<rscale>  0 0.79463596E+03</rscale>
<asrwt>0</asrwt>
<pdfrwt beam="1">  1        1 0.58223427E+00 0.79463596E+03</pdfrwt>
<pdfrwt beam="2">  1       -1 0.55332793E-02 0.79463596E+03</pdfrwt>
<totfact> 0.25208637E+01</totfact>
</mgrwt>
</event>
<event>
 4    1  0.1578814E-005  0.5871326E+03  0.7818608E-02  0.9932467E-01
         -1   -1    0    0    0  501 -0.00000000000E+00  0.00000000000E+00  0.25322485885E+03  0.25322485890E+03  0.50400000000E-02 0. -1.
          1   -1    0    0  501    0  0.00000000000E+00 -0.00000000000E+00 -0.34033454563E+03  0.34033454567E+03  0.50400000000E-02 0.  1.
    5000001    1    1    2    0    0 -0.87149967838E+02  0.17044331327E+03  0.76875647822E+02  0.27910554484E+03  0.18800000000E+03 0.  0.
   -5000001    1    1    2    0    0  0.87149967838E+02 -0.17044331327E+03 -0.16398533461E+03  0.31445385973E+03  0.18800000000E+03 0.  0.
<mgrwt>
<rscale>  0 0.58713258E+03</rscale>
<asrwt>0</asrwt>
<pdfrwt beam="1">  1        1 0.48619220E-01 0.58713258E+03</pdfrwt>
<pdfrwt beam="2">  1       -1 0.36174980E-01 0.58713258E+03</pdfrwt>
<totfact> 0.60394423E+02</totfact>
</mgrwt>
</event>
<event>
 4    1  0.1578814E-005  0.5894703E+03  0.7818608E-02  0.9927496E-01
         -1   -1    0    0    0  501 -0.00000000000E+00  0.00000000000E+00  0.62297825182E+02  0.62297825386E+02  0.50400000000E-02 0.  1.
          1   -1    0    0  501    0  0.00000000000E+00 -0.00000000000E+00 -0.13944114393E+04  0.13944114393E+04  0.50400000000E-02 0. -1.
    5000001    1    1    2    0    0 -0.20057221517E+03  0.10484160060E+03 -0.70913159013E+03  0.76774513143E+03  0.18800000000E+03 0.  0.
   -5000001    1    1    2    0    0  0.20057221517E+03 -0.10484160060E+03 -0.62298202401E+03  0.68896413329E+03  0.18800000000E+03 0.  0.
<mgrwt>
<rscale>  0 0.58947027E+03</rscale>
<asrwt>0</asrwt>
<pdfrwt beam="1">  1        1 0.19920162E+00 0.58947027E+03</pdfrwt>
<pdfrwt beam="2">  1       -1 0.88996902E-02 0.58947027E+03</pdfrwt>
<totfact> 0.70617390E+02</totfact>
</mgrwt>
</event>
<event>
 4    1  0.1578814E-005  0.1050849E+04  0.7818608E-02  0.9254468E-01
          1   -1    0    0  501    0  0.00000000000E+00  0.00000000000E+00  0.11936379512E+04  0.11936379512E+04  0.50400000000E-02 0.  1.
         -1   -1    0    0    0  501 -0.00000000000E+00 -0.00000000000E+00 -0.23128511441E+03  0.23128511447E+03  0.50400000000E-02 0. -1.
    5000001    1    1    2    0    0 -0.32087666907E+03  0.35256687579E+03  0.32385160835E+03  0.60620879479E+03  0.18800000000E+03 0.  0.
   -5000001    1    1    2    0    0  0.32087666907E+03 -0.35256687579E+03  0.63850122846E+03  0.81871427091E+03  0.18800000000E+03 0.  0.
<mgrwt>
<rscale>  0 0.10508486E+04</rscale>
<asrwt>0</asrwt>
<pdfrwt beam="1">  1        1 0.17051970E+00 0.10508486E+04</pdfrwt>
<pdfrwt beam="2">  1       -1 0.33040731E-01 0.10508486E+04</pdfrwt>
<totfact> 0.10729601E+02</totfact>
</mgrwt>
</event>
<event>
 4    1  0.1578814E-005  0.6769169E+03  0.7818608E-02  0.9757542E-01
         -1   -1    0    0    0  501 -0.00000000000E+00  0.00000000000E+00  0.41930049392E+02  0.41930049695E+02  0.50400000000E-02 0. -1.
          1   -1    0    0  501    0  0.00000000000E+00 -0.00000000000E+00 -0.27320295958E+04  0.27320295958E+04  0.50400000000E-02 0.  1.
    5000001    1    1    2    0    0 -0.18556375264E+03  0.20472253856E+03 -0.11257084716E+04  0.11742694696E+04  0.18800000000E+03 0.  0.
   -5000001    1    1    2    0    0  0.18556375264E+03 -0.20472253856E+03 -0.15643910747E+04  0.15996901759E+04  0.18800000000E+03 0.  0.
<mgrwt>
<rscale>  0 0.67691694E+03</rscale>
<asrwt>0</asrwt>
<pdfrwt beam="1">  1        1 0.39028983E+00 0.67691694E+03</pdfrwt>
<pdfrwt beam="2">  1       -1 0.59900088E-02 0.67691694E+03</pdfrwt>
<totfact> 0.18878078E+02</totfact>
</mgrwt>
</event>
<event>
 4    1  0.1578814E-005  0.8881687E+03  0.7818608E-02  0.9440493E-01
          1   -1    0    0  501    0  0.00000000000E+00  0.00000000000E+00  0.77764690501E+03  0.77764690503E+03  0.50400000000E-02 0.  1.
         -1   -1    0    0    0  501 -0.00000000000E+00 -0.00000000000E+00 -0.25359954832E+03  0.25359954837E+03  0.50400000000E-02 0. -1.
    5000001    1    1    2    0    0  0.29416976441E+03 -0.23012981364E+03  0.88358462853E+02  0.42737196840E+03  0.18800000000E+03 0.  0.
   -5000001    1    1    2    0    0 -0.29416976441E+03  0.23012981364E+03  0.43568889384E+03  0.60387448500E+03  0.18800000000E+03 0.  0.
<mgrwt>
<rscale>  0 0.88816869E+03</rscale>
<asrwt>0</asrwt>
<pdfrwt beam="1">  1        1 0.11109242E+00 0.88816869E+03</pdfrwt>
<pdfrwt beam="2">  1       -1 0.36228507E-01 0.88816869E+03</pdfrwt>
<totfact> 0.19062179E+02</totfact>
</mgrwt>
</event>
<event>
 4    1  0.1578814E-005  0.4754993E+03  0.7818608E-02  0.1020379E+00
          1   -1    0    0  501    0  0.00000000000E+00  0.00000000000E+00  0.44590151515E+02  0.44590151800E+02  0.50400000000E-02 0.  1.
         -1   -1    0    0    0  501 -0.00000000000E+00 -0.00000000000E+00 -0.12676543550E+04  0.12676543551E+04  0.50400000000E-02 0. -1.
    5000001    1    1    2    0    0 -0.94734853866E+02 -0.17491323207E+02 -0.31047899701E+03  0.37552875590E+03  0.18800000000E+03 0.  0.
   -5000001    1    1    2    0    0  0.94734853866E+02  0.17491323207E+02 -0.91258520652E+03  0.93671575095E+03  0.18800000000E+03 0.  0.
<mgrwt>
<rscale>  0 0.47549932E+03</rscale>
<asrwt>0</asrwt>
<pdfrwt beam="1">  1        1 0.63700225E-02 0.47549932E+03</pdfrwt>
<pdfrwt beam="2">  1       -1 0.18109346E+00 0.47549932E+03</pdfrwt>
<totfact> 0.26514576E+02</totfact>
</mgrwt>
</event>
<event>
 4    1  0.1578814E-005  0.4608711E+03  0.7818608E-02  0.1024529E+00
          1   -1    0    0  501    0  0.00000000000E+00  0.00000000000E+00  0.49219566928E+02  0.49219567186E+02  0.50400000000E-02 0.  1.
         -1   -1    0    0    0  501 -0.00000000000E+00 -0.00000000000E+00 -0.10788500273E+04  0.10788500273E+04  0.50400000000E-02 0. -1.
    5000001    1    1    2    0    0 -0.68050065442E+02 -0.11291698767E+03 -0.46738597951E+03  0.52074438197E+03  0.18800000000E+03 0.  0.
   -5000001    1    1    2    0    0  0.68050065442E+02  0.11291698767E+03 -0.56224448087E+03  0.60732521254E+03  0.18800000000E+03 0.  0.
<mgrwt>
<rscale>  0 0.46087105E+03</rscale>
<asrwt>0</asrwt>
<pdfrwt beam="1">  1        1 0.70313674E-02 0.46087105E+03</pdfrwt>
<pdfrwt beam="2">  1       -1 0.15412142E+00 0.46087105E+03</pdfrwt>
<totfact> 0.36377277E+02</totfact>
</mgrwt>
</event>
<event>
 4    1  0.1578814E-005  0.1018539E+04  0.7818608E-02  0.9288442E-01
          1   -1    0    0  501    0  0.00000000000E+00  0.00000000000E+00  0.30912532881E+04  0.30912532881E+04  0.50400000000E-02 0.  1.
         -1   -1    0    0    0  501 -0.00000000000E+00 -0.00000000000E+00 -0.83899805179E+02  0.83899805331E+02  0.50400000000E-02 0. -1.
    5000001    1    1    2    0    0 -0.29432231062E+03  0.28262237895E+03  0.75609180956E+03  0.87949977606E+03  0.18800000000E+03 0.  0.
   -5000001    1    1    2    0    0  0.29432231062E+03 -0.28262237895E+03  0.22512616733E+04  0.22956533173E+04  0.18800000000E+03 0.  0.
<mgrwt>
<rscale>  0 0.10185392E+04</rscale>
<asrwt>0</asrwt>
<pdfrwt beam="1">  1        1 0.44160760E+00 0.10185392E+04</pdfrwt>
<pdfrwt beam="2">  1       -1 0.11985687E-01 0.10185392E+04</pdfrwt>
<totfact> 0.35847304E+01</totfact>
</mgrwt>
</event>
<event>
 4    1  0.1578814E-005  0.5355442E+03  0.7818608E-02  0.1004896E+00
         -1   -1    0    0    0  501 -0.00000000000E+00  0.00000000000E+00  0.64612271903E+02  0.64612272100E+02  0.50400000000E-02 0. -1.
          1   -1    0    0  501    0  0.00000000000E+00 -0.00000000000E+00 -0.11097258543E+04  0.11097258543E+04  0.50400000000E-02 0.  1.
    5000001    1    1    2    0    0 -0.16969067072E+02  0.15866093664E+03 -0.75145618401E+03  0.79088029343E+03  0.18800000000E+03 0.  0.
   -5000001    1    1    2    0    0  0.16969067072E+02 -0.15866093664E+03 -0.29365739842E+03  0.38345783301E+03  0.18800000000E+03 0.  0.
<mgrwt>
<rscale>  0 0.53554424E+03</rscale>
<asrwt>0</asrwt>
<pdfrwt beam="1">  1        1 0.15853225E+00 0.53554424E+03</pdfrwt>
<pdfrwt beam="2">  1       -1 0.92303253E-02 0.53554424E+03</pdfrwt>
<totfact> 0.10403296E+03</totfact>
</mgrwt>
</event>
<event>
 4    1  0.1578814E-005  0.5351690E+03  0.7818608E-02  0.1004986E+00
         -1   -1    0    0    0  501 -0.00000000000E+00  0.00000000000E+00  0.81115002646E+02  0.81115002803E+02  0.50400000000E-02 0. -1.
          1   -1    0    0  501    0  0.00000000000E+00 -0.00000000000E+00 -0.88271548103E+03  0.88271548104E+03  0.50400000000E-02 0.  1.
    5000001    1    1    2    0    0  0.55650855877E+02  0.18162881764E+03 -0.37722018041E+03  0.46230413114E+03  0.18800000000E+03 0.  0.
   -5000001    1    1    2    0    0 -0.55650855877E+02 -0.18162881764E+03 -0.42438029797E+03  0.50152635271E+03  0.18800000000E+03 0.  0.
<mgrwt>
<rscale>  0 0.53516902E+03</rscale>
<asrwt>0</asrwt>
<pdfrwt beam="1">  1        1 0.12610221E+00 0.53516902E+03</pdfrwt>
<pdfrwt beam="2">  1       -1 0.11587858E-01 0.53516902E+03</pdfrwt>
<totfact> 0.10701219E+03</totfact>
</mgrwt>
</event>
<event>
 4    1  0.1578814E-005  0.7564922E+03  0.7818608E-02  0.9625220E-01
         -1   -1    0    0    0  501 -0.00000000000E+00  0.00000000000E+00  0.94282831036E+03  0.94282831037E+03  0.50400000000E-02 0. -1.
          1   -1    0    0  501    0  0.00000000000E+00 -0.00000000000E+00 -0.15174565841E+03  0.15174565850E+03  0.50400000000E-02 0.  1.
    5000001    1    1    2    0    0 -0.14753298094E+03  0.27034520507E+03  0.55971009915E+03  0.66593686297E+03  0.18800000000E+03 0.  0.
   -5000001    1    1    2    0    0  0.14753298094E+03 -0.27034520507E+03  0.23137255280E+03  0.42863710590E+03  0.18800000000E+03 0.  0.
<mgrwt>
<rscale>  0 0.75649218E+03</rscale>
<asrwt>0</asrwt>
<pdfrwt beam="1">  1        1 0.21677952E-01 0.75649218E+03</pdfrwt>
<pdfrwt beam="2">  1       -1 0.13468976E+00 0.75649218E+03</pdfrwt>
<totfact> 0.11087299E+02</totfact>
</mgrwt>
</event>
<event>
 4    1  0.1578814E-005  0.5011741E+03  0.7818608E-02  0.1013473E+00
         -1   -1    0    0    0  501 -0.00000000000E+00  0.00000000000E+00  0.17628777604E+03  0.17628777612E+03  0.50400000000E-02 0. -1.
          1   -1    0    0  501    0  0.00000000000E+00 -0.00000000000E+00 -0.35620097642E+03  0.35620097645E+03  0.50400000000E-02 0.  1.
    5000001    1    1    2    0    0 -0.13952284449E+03  0.58826057523E+02 -0.18503179485E+02  0.24210224458E+03  0.18800000000E+03 0.  0.
   -5000001    1    1    2    0    0  0.13952284449E+03 -0.58826057523E+02 -0.16141002089E+03  0.29038650799E+03  0.18800000000E+03 0.  0.
<mgrwt>
<rscale>  0 0.50117413E+03</rscale>
<asrwt>0</asrwt>
<pdfrwt beam="1">  1        1 0.50885854E-01 0.50117413E+03</pdfrwt>
<pdfrwt beam="2">  1       -1 0.25183968E-01 0.50117413E+03</pdfrwt>
<totfact> 0.10682387E+03</totfact>
</mgrwt>
</event>
<event>
 4    1  0.1578814E-005  0.4681883E+03  0.7818608E-02  0.1022433E+00
         -1   -1    0    0    0  501 -0.00000000000E+00  0.00000000000E+00  0.54179321604E+03  0.54179321607E+03  0.50400000000E-02 0.  1.
          1   -1    0    0  501    0  0.00000000000E+00 -0.00000000000E+00 -0.10114573091E+03  0.10114573103E+03  0.50400000000E-02 0. -1.
    5000001    1    1    2    0    0  0.93884880239E+02  0.10168592671E+03  0.19647217048E+03  0.30512245444E+03  0.18800000000E+03 0.  0.
   -5000001    1    1    2    0    0 -0.93884880239E+02 -0.10168592671E+03  0.24417531465E+03  0.33781649266E+03  0.18800000000E+03 0.  0.
<mgrwt>
<rscale>  0 0.46818830E+03</rscale>
<asrwt>0</asrwt>
<pdfrwt beam="1">  1        1 0.14449390E-01 0.46818830E+03</pdfrwt>
<pdfrwt beam="2">  1       -1 0.77399031E-01 0.46818830E+03</pdfrwt>
<totfact> 0.68535224E+02</totfact>
</mgrwt>
</event>
<event>
 4    1  0.1578814E-005  0.5556744E+03  0.7818608E-02  0.1000189E+00
          1   -1    0    0  501    0  0.00000000000E+00  0.00000000000E+00  0.10394606389E+04  0.10394606389E+04  0.50400000000E-02 0.  1.
         -1   -1    0    0    0  501 -0.00000000000E+00 -0.00000000000E+00 -0.74263045238E+02  0.74263045409E+02  0.50400000000E-02 0. -1.
    5000001    1    1    2    0    0 -0.17770856812E+03  0.33012399831E+02  0.29057138357E+03  0.39044318751E+03  0.18800000000E+03 0.  0.
   -5000001    1    1    2    0    0  0.17770856812E+03 -0.33012399831E+02  0.67462621012E+03  0.72328049684E+03  0.18800000000E+03 0.  0.
<mgrwt>
<rscale>  0 0.55567441E+03</rscale>
<asrwt>0</asrwt>
<pdfrwt beam="1">  1        1 0.14849438E+00 0.55567441E+03</pdfrwt>
<pdfrwt beam="2">  1       -1 0.10609006E-01 0.55567441E+03</pdfrwt>
<totfact> 0.93740900E+02</totfact>
</mgrwt>
</event>
<event>
 4    1  0.1578814E-005  0.5461824E+03  0.7818608E-02  0.1002381E+00
         -1   -1    0    0    0  501 -0.00000000000E+00  0.00000000000E+00  0.59617867378E+02  0.59617867591E+02  0.50400000000E-02 0.  1.
          1   -1    0    0  501    0  0.00000000000E+00 -0.00000000000E+00 -0.12509471707E+04  0.12509471707E+04  0.50400000000E-02 0. -1.
    5000001    1    1    2    0    0  0.79872416477E+02  0.14143867364E+03 -0.86767005754E+03  0.90254076366E+03  0.18800000000E+03 0.  0.
   -5000001    1    1    2    0    0 -0.79872416477E+02 -0.14143867364E+03 -0.32365924576E+03  0.40802427462E+03  0.18800000000E+03 0.  0.
<mgrwt>
<rscale>  0 0.54618240E+03</rscale>
<asrwt>0</asrwt>
<pdfrwt beam="1">  1        1 0.17870672E+00 0.54618240E+03</pdfrwt>
<pdfrwt beam="2">  1       -1 0.85168390E-02 0.54618240E+03</pdfrwt>
<totfact> 0.94315321E+02</totfact>
</mgrwt>
</event>
<event>
 4    1  0.1578814E-005  0.6045830E+03  0.7818608E-02  0.9895943E-01
         -1   -1    0    0    0  501 -0.00000000000E+00  0.00000000000E+00  0.58278694017E+03  0.58278694019E+03  0.50400000000E-02 0. -1.
          1   -1    0    0  501    0  0.00000000000E+00 -0.00000000000E+00 -0.15679855363E+03  0.15679855371E+03  0.50400000000E-02 0.  1.
    5000001    1    1    2    0    0  0.14000615962E+03 -0.18835649876E+03  0.17516569655E+03  0.34800419050E+03  0.18800000000E+03 0.  0.
   -5000001    1    1    2    0    0 -0.14000615962E+03  0.18835649876E+03  0.25082269000E+03  0.39158130340E+03  0.18800000000E+03 0.  0.
<mgrwt>
<rscale>  0 0.60458299E+03</rscale>
<asrwt>0</asrwt>
<pdfrwt beam="1">  1        1 0.22399793E-01 0.60458299E+03</pdfrwt>
<pdfrwt beam="2">  1       -1 0.83255279E-01 0.60458299E+03</pdfrwt>
<totfact> 0.32782679E+02</totfact>
</mgrwt>
</event>
<event>
 4    1  0.1578814E-005  0.6497544E+03  0.7818608E-02  0.9807240E-01
         -1   -1    0    0    0  501 -0.00000000000E+00  0.00000000000E+00  0.11426614450E+03  0.11426614461E+03  0.50400000000E-02 0. -1.
          1   -1    0    0  501    0  0.00000000000E+00 -0.00000000000E+00 -0.92367852504E+03  0.92367852505E+03  0.50400000000E-02 0.  1.
    5000001    1    1    2    0    0  0.14562024337E+02  0.23163243886E+03 -0.60887613237E+03  0.67818860493E+03  0.18800000000E+03 0.  0.
   -5000001    1    1    2    0    0 -0.14562024337E+02 -0.23163243886E+03 -0.20053624816E+03  0.35975606474E+03  0.18800000000E+03 0.  0.
<mgrwt>
<rscale>  0 0.64975437E+03</rscale>
<asrwt>0</asrwt>
<pdfrwt beam="1">  1        1 0.13195407E+00 0.64975437E+03</pdfrwt>
<pdfrwt beam="2">  1       -1 0.16323736E-01 0.64975437E+03</pdfrwt>
<totfact> 0.57093088E+02</totfact>
</mgrwt>
</event>
<event>
 4    1  0.1578814E-005  0.5492255E+03  0.7818608E-02  0.1001673E+00
          1   -1    0    0  501    0  0.00000000000E+00  0.00000000000E+00  0.85614458927E+02  0.85614459075E+02  0.50400000000E-02 0.  1.
         -1   -1    0    0    0  501 -0.00000000000E+00 -0.00000000000E+00 -0.88083435351E+03  0.88083435352E+03  0.50400000000E-02 0. -1.
    5000001    1    1    2    0    0  0.38486009864E+02 -0.17696952653E+03 -0.24758666753E+03  0.35978124495E+03  0.18800000000E+03 0.  0.
   -5000001    1    1    2    0    0 -0.38486009864E+02  0.17696952653E+03 -0.54763322705E+03  0.60666756765E+03  0.18800000000E+03 0.  0.
<mgrwt>
<rscale>  0 0.54922548E+03</rscale>
<asrwt>0</asrwt>
<pdfrwt beam="1">  1        1 0.12230638E-01 0.54922548E+03</pdfrwt>
<pdfrwt beam="2">  1       -1 0.12583347E+00 0.54922548E+03</pdfrwt>
<totfact> 0.28570489E+02</totfact>
</mgrwt>
</event>
<event>
 4    1  0.1578814E-005  0.4263975E+03  0.7818608E-02  0.1035004E+00
          1   -1    0    0  501    0  0.00000000000E+00  0.00000000000E+00  0.15717350522E+04  0.15717350522E+04  0.50400000000E-02 0.  1.
         -1   -1    0    0    0  501 -0.00000000000E+00 -0.00000000000E+00 -0.28919445579E+02  0.28919446018E+02  0.50400000000E-02 0. -1.
    5000001    1    1    2    0    0  0.52821274347E+02  0.79017413668E+02  0.64827821080E+03  0.68164688607E+03  0.18800000000E+03 0.  0.
   -5000001    1    1    2    0    0 -0.52821274347E+02 -0.79017413668E+02  0.89453739586E+03  0.91900761220E+03  0.18800000000E+03 0.  0.
<mgrwt>
<rscale>  0 0.42639750E+03</rscale>
<asrwt>0</asrwt>
<pdfrwt beam="1">  1        1 0.22453358E+00 0.42639750E+03</pdfrwt>
<pdfrwt beam="2">  1       -1 0.41313495E-02 0.42639750E+03</pdfrwt>
<totfact> 0.17785807E+03</totfact>
</mgrwt>
</event>
<event>
 4    1  0.1578814E-005  0.5081908E+03  0.7818608E-02  0.1011663E+00
          1   -1    0    0  501    0  0.00000000000E+00  0.00000000000E+00  0.51390735332E+03  0.51390735335E+03  0.50400000000E-02 0.  1.
         -1   -1    0    0    0  501 -0.00000000000E+00 -0.00000000000E+00 -0.12563446280E+03  0.12563446290E+03  0.50400000000E-02 0. -1.
    5000001    1    1    2    0    0 -0.13613760031E+03 -0.88260492273E+02  0.26187328057E+03  0.36089468795E+03  0.18800000000E+03 0.  0.
   -5000001    1    1    2    0    0  0.13613760031E+03  0.88260492273E+02  0.12639960995E+03  0.27864712830E+03  0.18800000000E+03 0.  0.
<mgrwt>
<rscale>  0 0.50819081E+03</rscale>
<asrwt>0</asrwt>
<pdfrwt beam="1">  1        1 0.73415334E-01 0.50819081E+03</pdfrwt>
<pdfrwt beam="2">  1       -1 0.17947781E-01 0.50819081E+03</pdfrwt>
<totfact> 0.11596362E+03</totfact>
</mgrwt>
</event>
<event>
 4    1  0.1578814E-005  0.4442299E+03  0.7818608E-02  0.1029457E+00
         -1   -1    0    0    0  501 -0.00000000000E+00  0.00000000000E+00  0.16052185687E+03  0.16052185695E+03  0.50400000000E-02 0.  1.
          1   -1    0    0  501    0  0.00000000000E+00 -0.00000000000E+00 -0.30734161060E+03  0.30734161064E+03  0.50400000000E-02 0. -1.
    5000001    1    1    2    0    0  0.89942877927E+02  0.30122950183E+02  0.10174996166E+01  0.21057575531E+03  0.18800000000E+03 0.  0.
   -5000001    1    1    2    0    0 -0.89942877927E+02 -0.30122950183E+02 -0.14783725334E+03  0.25728771229E+03  0.18800000000E+03 0.  0.
<mgrwt>
<rscale>  0 0.44422988E+03</rscale>
<asrwt>0</asrwt>
<pdfrwt beam="1">  1        1 0.43905944E-01 0.44422988E+03</pdfrwt>
<pdfrwt beam="2">  1       -1 0.22931694E-01 0.44422988E+03</pdfrwt>
<totfact> 0.15104201E+03</totfact>
</mgrwt>
</event>
<event>
 4    1  0.1578814E-005  0.5180500E+03  0.7818608E-02  0.1009172E+00
         -1   -1    0    0    0  501 -0.00000000000E+00  0.00000000000E+00  0.50606845822E+02  0.50606846073E+02  0.50400000000E-02 0. -1.
          1   -1    0    0  501    0  0.00000000000E+00 -0.00000000000E+00 -0.13257879879E+04  0.13257879879E+04  0.50400000000E-02 0.  1.
    5000001    1    1    2    0    0  0.10204415812E+03 -0.33316465527E+02 -0.10154554938E+04  0.10382759060E+04  0.18800000000E+03 0.  0.
   -5000001    1    1    2    0    0 -0.10204415812E+03  0.33316465527E+02 -0.25972564822E+03  0.33811892793E+03  0.18800000000E+03 0.  0.
<mgrwt>
<rscale>  0 0.51804999E+03</rscale>
<asrwt>0</asrwt>
<pdfrwt beam="1">  1        1 0.18939826E+00 0.51804999E+03</pdfrwt>
<pdfrwt beam="2">  1       -1 0.72295503E-02 0.51804999E+03</pdfrwt>
<totfact> 0.10858380E+03</totfact>
</mgrwt>
</event>
<event>
 4    1  0.1578814E-005  0.4145948E+03  0.7818608E-02  0.1038840E+00
         -1   -1    0    0    0  501 -0.00000000000E+00  0.00000000000E+00  0.18467381438E+03  0.18467381445E+03  0.50400000000E-02 0. -1.
          1   -1    0    0  501    0  0.00000000000E+00 -0.00000000000E+00 -0.23269249793E+03  0.23269249798E+03  0.50400000000E-02 0.  1.
    5000001    1    1    2    0    0  0.19893906233E+01 -0.80886667111E+02  0.90982053959E+01  0.20487407824E+03  0.18800000000E+03 0.  0.
   -5000001    1    1    2    0    0 -0.19893906233E+01  0.80886667111E+02 -0.57116888940E+02  0.21249223420E+03  0.18800000000E+03 0.  0.
<mgrwt>
<rscale>  0 0.41459480E+03</rscale>
<asrwt>0</asrwt>
<pdfrwt beam="1">  1        1 0.33241785E-01 0.41459480E+03</pdfrwt>
<pdfrwt beam="2">  1       -1 0.26381974E-01 0.41459480E+03</pdfrwt>
<totfact> 0.17005945E+03</totfact>
</mgrwt>
</event>
<event>
 4    1  0.1578814E-005  0.4765396E+03  0.7818608E-02  0.1020091E+00
         -1   -1    0    0    0  501 -0.00000000000E+00  0.00000000000E+00  0.34760562139E+02  0.34760562504E+02  0.50400000000E-02 0. -1.
          1   -1    0    0  501    0  0.00000000000E+00 -0.00000000000E+00 -0.16332442827E+04  0.16332442828E+04  0.50400000000E-02 0.  1.
    5000001    1    1    2    0    0 -0.54904933928E+01 -0.10075994208E+03 -0.11704291528E+04  0.11897189219E+04  0.18800000000E+03 0.  0.
   -5000001    1    1    2    0    0  0.54904933928E+01  0.10075994208E+03 -0.42805456781E+03  0.47828592335E+03  0.18800000000E+03 0.  0.
<mgrwt>
<rscale>  0 0.47653957E+03</rscale>
<asrwt>0</asrwt>
<pdfrwt beam="1">  1        1 0.23332056E+00 0.47653957E+03</pdfrwt>
<pdfrwt beam="2">  1       -1 0.49657957E-02 0.47653957E+03</pdfrwt>
<totfact> 0.12294111E+03</totfact>
</mgrwt>
</event>
<event>
 4    1  0.1578814E-005  0.4105602E+03  0.7818608E-02  0.1040183E+00
         -1   -1    0    0    0  501 -0.00000000000E+00  0.00000000000E+00  0.62028172751E+02  0.62028172955E+02  0.50400000000E-02 0. -1.
          1   -1    0    0  501    0  0.00000000000E+00 -0.00000000000E+00 -0.67936730464E+03  0.67936730466E+03  0.50400000000E-02 0.  1.
    5000001    1    1    2    0    0  0.79918605864E+02 -0.19924445517E+02 -0.31491087541E+03  0.37589470140E+03  0.18800000000E+03 0.  0.
   -5000001    1    1    2    0    0 -0.79918605864E+02  0.19924445517E+02 -0.30242825648E+03  0.36550077621E+03  0.18800000000E+03 0.  0.
<mgrwt>
<rscale>  0 0.41056017E+03</rscale>
<asrwt>0</asrwt>
<pdfrwt beam="1">  1        1 0.97052468E-01 0.41056017E+03</pdfrwt>
<pdfrwt beam="2">  1       -1 0.88611679E-02 0.41056017E+03</pdfrwt>
<totfact> 0.24208214E+03</totfact>
</mgrwt>
</event>
<event>
 4    1  0.1578814E-005  0.5880821E+03  0.7818608E-02  0.9930445E-01
          1   -1    0    0  501    0  0.00000000000E+00  0.00000000000E+00  0.25114167348E+04  0.25114167348E+04  0.50400000000E-02 0.  1.
         -1   -1    0    0    0  501 -0.00000000000E+00 -0.00000000000E+00 -0.34426840200E+02  0.34426840569E+02  0.50400000000E-02 0. -1.
    5000001    1    1    2    0    0  0.33538757815E+02 -0.14705160332E+03  0.19676189139E+04  0.19823262125E+04  0.18800000000E+03 0.  0.
   -5000001    1    1    2    0    0 -0.33538757815E+02  0.14705160332E+03  0.50937098070E+03  0.56351736291E+03  0.18800000000E+03 0.  0.
<mgrwt>
<rscale>  0 0.58808211E+03</rscale>
<asrwt>0</asrwt>
<pdfrwt beam="1">  1        1 0.35877389E+00 0.58808211E+03</pdfrwt>
<pdfrwt beam="2">  1       -1 0.49181190E-02 0.58808211E+03</pdfrwt>
<totfact> 0.35465839E+02</totfact>
</mgrwt>
</event>
<event>
 4    1  0.1578814E-005  0.8076010E+03  0.7818608E-02  0.9549080E-01
         -1   -1    0    0    0  501 -0.00000000000E+00  0.00000000000E+00  0.67623783447E+03  0.67623783449E+03  0.50400000000E-02 0. -1.
          1   -1    0    0  501    0  0.00000000000E+00 -0.00000000000E+00 -0.24112053603E+03  0.24112053608E+03  0.50400000000E-02 0.  1.
    5000001    1    1    2    0    0 -0.33997605393E+03 -0.50200293696E+02  0.10622228013E+03  0.40587061920E+03  0.18800000000E+03 0.  0.
   -5000001    1    1    2    0    0  0.33997605393E+03  0.50200293696E+02  0.32889501831E+03  0.51148775137E+03  0.18800000000E+03 0.  0.
<mgrwt>
<rscale>  0 0.80760096E+03</rscale>
<asrwt>0</asrwt>
<pdfrwt beam="1">  1        1 0.34445790E-01 0.80760096E+03</pdfrwt>
<pdfrwt beam="2">  1       -1 0.96605407E-01 0.80760096E+03</pdfrwt>
<totfact> 0.13389240E+02</totfact>
</mgrwt>
</event>
<event>
 4    1  0.1578814E-005  0.9157401E+03  0.7818608E-02  0.9406117E-01
          1   -1    0    0  501    0  0.00000000000E+00  0.00000000000E+00  0.23994828667E+03  0.23994828672E+03  0.50400000000E-02 0.  1.
         -1   -1    0    0    0  501 -0.00000000000E+00 -0.00000000000E+00 -0.87370900543E+03  0.87370900545E+03  0.50400000000E-02 0. -1.
    5000001    1    1    2    0    0 -0.29086196342E+03 -0.11521901025E+03 -0.65307958640E+03  0.74815309146E+03  0.18800000000E+03 0.  0.
   -5000001    1    1    2    0    0  0.29086196342E+03  0.11521901025E+03  0.19318867639E+02  0.36550420070E+03  0.18800000000E+03 0.  0.
<mgrwt>
<rscale>  0 0.91574009E+03</rscale>
<asrwt>0</asrwt>
<pdfrwt beam="1">  1        1 0.34278327E-01 0.91574009E+03</pdfrwt>
<pdfrwt beam="2">  1       -1 0.12481557E+00 0.91574009E+03</pdfrwt>
<totfact> 0.73102204E+01</totfact>
</mgrwt>
</event>
<event>
 4    1  0.1578814E-005  0.1851065E+04  0.7818608E-02  0.8679605E-01
          1   -1    0    0  501    0  0.00000000000E+00  0.00000000000E+00  0.26785842897E+04  0.26785842897E+04  0.50400000000E-02 0.  1.
         -1   -1    0    0    0  501 -0.00000000000E+00 -0.00000000000E+00 -0.31979964935E+03  0.31979964939E+03  0.50400000000E-02 0. -1.
    5000001    1    1    2    0    0  0.46097586362E+03  0.65644057733E+03  0.18625117020E+04  0.20365919617E+04  0.18800000000E+03 0.  0.
   -5000001    1    1    2    0    0 -0.46097586362E+03 -0.65644057733E+03  0.49627293834E+03  0.96179197737E+03  0.18800000000E+03 0.  0.
<mgrwt>
<rscale>  0 0.18510649E+04</rscale>
<asrwt>0</asrwt>
<pdfrwt beam="1">  1        1 0.38265490E+00 0.18510649E+04</pdfrwt>
<pdfrwt beam="2">  1       -1 0.45685664E-01 0.18510649E+04</pdfrwt>
<totfact> 0.62055403E+00</totfact>
</mgrwt>
</event>
<event>
 4    1  0.1578814E-005  0.5529806E+03  0.7818608E-02  0.1000806E+00
          1   -1    0    0  501    0  0.00000000000E+00  0.00000000000E+00  0.18653137961E+04  0.18653137961E+04  0.50400000000E-02 0. -1.
         -1   -1    0    0    0  501 -0.00000000000E+00 -0.00000000000E+00 -0.40983385460E+02  0.40983385770E+02  0.50400000000E-02 0.  1.
    5000001    1    1    2    0    0  0.92804375297E+02 -0.11535448079E+03  0.13896344653E+04  0.14100876766E+04  0.18800000000E+03 0.  0.
   -5000001    1    1    2    0    0 -0.92804375297E+02  0.11535448079E+03  0.43469594531E+03  0.49620950534E+03  0.18800000000E+03 0.  0.
<mgrwt>
<rscale>  0 0.55298056E+03</rscale>
<asrwt>0</asrwt>
<pdfrwt beam="1">  1        1 0.26647348E+00 0.55298056E+03</pdfrwt>
<pdfrwt beam="2">  1       -1 0.58547676E-02 0.55298056E+03</pdfrwt>
<totfact> 0.68281836E+02</totfact>
</mgrwt>
</event>
<event>
 4    1  0.1578814E-005  0.5729630E+03  0.7818608E-02  0.9963143E-01
         -1   -1    0    0    0  501 -0.00000000000E+00  0.00000000000E+00  0.49083887564E+02  0.49083887823E+02  0.50400000000E-02 0. -1.
          1   -1    0    0  501    0  0.00000000000E+00 -0.00000000000E+00 -0.16720690986E+04  0.16720690987E+04  0.50400000000E-02 0.  1.
    5000001    1    1    2    0    0 -0.16544176216E+03 -0.13911541928E+03 -0.81717262974E+03  0.86593255127E+03  0.18800000000E+03 0.  0.
   -5000001    1    1    2    0    0  0.16544176216E+03  0.13911541928E+03 -0.80581258134E+03  0.85522043521E+03  0.18800000000E+03 0.  0.
<mgrwt>
<rscale>  0 0.57296301E+03</rscale>
<asrwt>0</asrwt>
<pdfrwt beam="1">  1        1 0.23886698E+00 0.57296301E+03</pdfrwt>
<pdfrwt beam="2">  1       -1 0.70119850E-02 0.57296301E+03</pdfrwt>
<totfact> 0.68121260E+02</totfact>
</mgrwt>
</event>
<event>
 4    1  0.1578814E-005  0.5011940E+03  0.7818608E-02  0.1013468E+00
         -1   -1    0    0    0  501 -0.00000000000E+00  0.00000000000E+00  0.10742030090E+03  0.10742030102E+03  0.50400000000E-02 0.  1.
          1   -1    0    0  501    0  0.00000000000E+00 -0.00000000000E+00 -0.58460877636E+03  0.58460877638E+03  0.50400000000E-02 0. -1.
    5000001    1    1    2    0    0  0.95047952034E+02  0.31122169536E+02 -0.42100184398E+03  0.47179365750E+03  0.18800000000E+03 0.  0.
   -5000001    1    1    2    0    0 -0.95047952034E+02 -0.31122169536E+02 -0.56186631479E+02  0.22023541990E+03  0.18800000000E+03 0.  0.
<mgrwt>
<rscale>  0 0.50119398E+03</rscale>
<asrwt>0</asrwt>
<pdfrwt beam="1">  1        1 0.83515537E-01 0.50119398E+03</pdfrwt>
<pdfrwt beam="2">  1       -1 0.15345758E-01 0.50119398E+03</pdfrwt>
<totfact> 0.12548005E+03</totfact>
</mgrwt>
</event>
<event>
 4    1  0.1578814E-005  0.4292229E+03  0.7818608E-02  0.1034106E+00
          1   -1    0    0  501    0  0.00000000000E+00  0.00000000000E+00  0.19914182266E+03  0.19914182272E+03  0.50400000000E-02 0.  1.
         -1   -1    0    0    0  501 -0.00000000000E+00 -0.00000000000E+00 -0.23128275165E+03  0.23128275171E+03  0.50400000000E-02 0. -1.
    5000001    1    1    2    0    0 -0.29742375264E+02  0.70547088231E+02 -0.85925871118E+02  0.22042857317E+03  0.18800000000E+03 0.  0.
   -5000001    1    1    2    0    0  0.29742375264E+02 -0.70547088231E+02  0.53784942124E+02  0.20999600126E+03  0.18800000000E+03 0.  0.
<mgrwt>
<rscale>  0 0.42922287E+03</rscale>
<asrwt>0</asrwt>
<pdfrwt beam="1">  1        1 0.28448832E-01 0.42922287E+03</pdfrwt>
<pdfrwt beam="2">  1       -1 0.33040393E-01 0.42922287E+03</pdfrwt>
<totfact> 0.14101856E+03</totfact>
</mgrwt>
</event>
<event>
 4    1  0.1578814E-005  0.6243457E+03  0.7818608E-02  0.9856145E-01
          1   -1    0    0  501    0  0.00000000000E+00  0.00000000000E+00  0.85246646803E+03  0.85246646804E+03  0.50400000000E-02 0.  1.
         -1   -1    0    0    0  501 -0.00000000000E+00 -0.00000000000E+00 -0.11431755211E+03  0.11431755222E+03  0.50400000000E-02 0. -1.
    5000001    1    1    2    0    0  0.17114665589E+03 -0.12206843751E+03  0.57633893166E+03  0.64164043311E+03  0.18800000000E+03 0.  0.
   -5000001    1    1    2    0    0 -0.17114665589E+03  0.12206843751E+03  0.16180998426E+03  0.32514358715E+03  0.18800000000E+03 0.  0.
<mgrwt>
<rscale>  0 0.62434567E+03</rscale>
<asrwt>0</asrwt>
<pdfrwt beam="1">  1        1 0.12178092E+00 0.62434567E+03</pdfrwt>
<pdfrwt beam="2">  1       -1 0.16331079E-01 0.62434567E+03</pdfrwt>
<totfact> 0.64971840E+02</totfact>
</mgrwt>
</event>
<event>
 4    1  0.1578814E-005  0.5301330E+03  0.7818608E-02  0.1006200E+00
          1   -1    0    0  501    0  0.00000000000E+00  0.00000000000E+00  0.10045684296E+04  0.10045684296E+04  0.50400000000E-02 0.  1.
         -1   -1    0    0    0  501 -0.00000000000E+00 -0.00000000000E+00 -0.69940730080E+02  0.69940730262E+02  0.50400000000E-02 0. -1.
    5000001    1    1    2    0    0 -0.48959116754E+02 -0.16878963010E+03  0.59597306568E+03  0.64916471666E+03  0.18800000000E+03 0.  0.
   -5000001    1    1    2    0    0  0.48959116754E+02  0.16878963010E+03  0.33865463381E+03  0.42534444318E+03  0.18800000000E+03 0.  0.
<mgrwt>
<rscale>  0 0.53013300E+03</rscale>
<asrwt>0</asrwt>
<pdfrwt beam="1">  1        1 0.14350977E+00 0.53013300E+03</pdfrwt>
<pdfrwt beam="2">  1       -1 0.99915331E-02 0.53013300E+03</pdfrwt>
<totfact> 0.10933403E+03</totfact>
</mgrwt>
</event>
<event>
 4    1  0.1578814E-005  0.1564162E+04  0.7818608E-02  0.8842872E-01
         -1   -1    0    0    0  501 -0.00000000000E+00  0.00000000000E+00  0.35523192694E+03  0.35523192697E+03  0.50400000000E-02 0. -1.
          1   -1    0    0  501    0  0.00000000000E+00 -0.00000000000E+00 -0.17218343186E+04  0.17218343186E+04  0.50400000000E-02 0.  1.
    5000001    1    1    2    0    0 -0.51789464546E+03  0.51389202718E+03 -0.40473539390E+03  0.85525120197E+03  0.18800000000E+03 0.  0.
   -5000001    1    1    2    0    0  0.51789464546E+03 -0.51389202718E+03 -0.96186699773E+03  0.12218150436E+04  0.18800000000E+03 0.  0.
<mgrwt>
<rscale>  0 0.15641618E+04</rscale>
<asrwt>0</asrwt>
<pdfrwt beam="1">  1        1 0.24597633E+00 0.15641618E+04</pdfrwt>
<pdfrwt beam="2">  1       -1 0.50747419E-01 0.15641618E+04</pdfrwt>
<totfact> 0.21031565E+01</totfact>
</mgrwt>
</event>
<event>
 4    1  0.1578814E-005  0.5353723E+03  0.7818608E-02  0.1004938E+00
         -1   -1    0    0    0  501 -0.00000000000E+00  0.00000000000E+00  0.25563804511E+03  0.25563804516E+03  0.50400000000E-02 0. -1.
          1   -1    0    0  501    0  0.00000000000E+00 -0.00000000000E+00 -0.28030205749E+03  0.28030205753E+03  0.50400000000E-02 0.  1.
    5000001    1    1    2    0    0 -0.62358068076E+02 -0.15927984904E+03 -0.96404834974E+02  0.27183909059E+03  0.18800000000E+03 0.  0.
   -5000001    1    1    2    0    0  0.62358068076E+02  0.15927984904E+03  0.71740822596E+02  0.26410101210E+03  0.18800000000E+03 0.  0.
<mgrwt>
<rscale>  0 0.53537228E+03</rscale>
<asrwt>0</asrwt>
<pdfrwt beam="1">  1        1 0.40043151E-01 0.53537228E+03</pdfrwt>
<pdfrwt beam="2">  1       -1 0.36519721E-01 0.53537228E+03</pdfrwt>
<totfact> 0.76283750E+02</totfact>
</mgrwt>
</event>
<event>
 4    1  0.1578814E-005  0.6623986E+03  0.7818608E-02  0.9783788E-01
          1   -1    0    0  501    0  0.00000000000E+00  0.00000000000E+00  0.49705590068E+03  0.49705590071E+03  0.50400000000E-02 0.  1.
         -1   -1    0    0    0  501 -0.00000000000E+00 -0.00000000000E+00 -0.22068542017E+03  0.22068542023E+03  0.50400000000E-02 0. -1.
    5000001    1    1    2    0    0 -0.77244672666E+02  0.24192337359E+03  0.24575350170E+03  0.40029044673E+03  0.18800000000E+03 0.  0.
   -5000001    1    1    2    0    0  0.77244672666E+02 -0.24192337359E+03  0.30616978808E+02  0.31745087421E+03  0.18800000000E+03 0.  0.
<mgrwt>
<rscale>  0 0.66239864E+03</rscale>
<asrwt>0</asrwt>
<pdfrwt beam="1">  1        1 0.71007986E-01 0.66239864E+03</pdfrwt>
<pdfrwt beam="2">  1       -1 0.31526489E-01 0.66239864E+03</pdfrwt>
<totfact> 0.46688557E+02</totfact>
</mgrwt>
</event>
<event>
 4    1  0.1578814E-005  0.6494124E+03  0.7818608E-02  0.9807882E-01
         -1   -1    0    0    0  501 -0.00000000000E+00  0.00000000000E+00  0.50952645427E+03  0.50952645430E+03  0.50400000000E-02 0. -1.
          1   -1    0    0  501    0  0.00000000000E+00 -0.00000000000E+00 -0.20692570354E+03  0.20692570360E+03  0.50400000000E-02 0.  1.
    5000001    1    1    2    0    0  0.13348808624E+03 -0.75743815106E+02 -0.86685649504E+02  0.25771029573E+03  0.18800000000E+03 0.  0.
   -5000001    1    1    2    0    0 -0.13348808624E+03  0.75743815106E+02  0.38928640024E+03  0.45874186217E+03  0.18800000000E+03 0.  0.
<mgrwt>
<rscale>  0 0.64941241E+03</rscale>
<asrwt>0</asrwt>
<pdfrwt beam="1">  1        1 0.29560815E-01 0.64941241E+03</pdfrwt>
<pdfrwt beam="2">  1       -1 0.72789493E-01 0.64941241E+03</pdfrwt>
<totfact> 0.30230702E+02</totfact>
</mgrwt>
</event>
<event>
 4    1  0.1578814E-005  0.7797657E+03  0.7818608E-02  0.9589776E-01
         -1   -1    0    0    0  501 -0.00000000000E+00  0.00000000000E+00  0.20390074642E+03  0.20390074648E+03  0.50400000000E-02 0. -1.
          1   -1    0    0  501    0  0.00000000000E+00 -0.00000000000E+00 -0.74550316864E+03  0.74550316865E+03  0.50400000000E-02 0.  1.
    5000001    1    1    2    0    0 -0.20963789729E+03  0.26956263699E+03 -0.27963070284E+03  0.47973888024E+03  0.18800000000E+03 0.  0.
   -5000001    1    1    2    0    0  0.20963789729E+03 -0.26956263699E+03 -0.26197171938E+03  0.46966503489E+03  0.18800000000E+03 0.  0.
<mgrwt>
<rscale>  0 0.77976574E+03</rscale>
<asrwt>0</asrwt>
<pdfrwt beam="1">  1        1 0.10650045E+00 0.77976574E+03</pdfrwt>
<pdfrwt beam="2">  1       -1 0.29128678E-01 0.77976574E+03</pdfrwt>
<totfact> 0.30030283E+02</totfact>
</mgrwt>
</event>
<event>
 4    1  0.1578814E-005  0.5482269E+03  0.7818608E-02  0.1001905E+00
          1   -1    0    0  501    0  0.00000000000E+00  0.00000000000E+00  0.49065001531E+03  0.49065001533E+03  0.50400000000E-02 0. -1.
         -1   -1    0    0    0  501 -0.00000000000E+00 -0.00000000000E+00 -0.15314008779E+03  0.15314008787E+03  0.50400000000E-02 0.  1.
    5000001    1    1    2    0    0 -0.13521387040E+03 -0.14660833733E+03  0.17365216386E+03  0.32446243132E+03  0.18800000000E+03 0.  0.
   -5000001    1    1    2    0    0  0.13521387040E+03  0.14660833733E+03  0.16385776366E+03  0.31932767189E+03  0.18800000000E+03 0.  0.
<mgrwt>
<rscale>  0 0.54822691E+03</rscale>
<asrwt>0</asrwt>
<pdfrwt beam="1">  1        1 0.70092861E-01 0.54822691E+03</pdfrwt>
<pdfrwt beam="2">  1       -1 0.21877155E-01 0.54822691E+03</pdfrwt>
<totfact> 0.88921992E+02</totfact>
</mgrwt>
</event>
<event>
 4    1  0.1578814E-005  0.7386934E+03  0.7818608E-02  0.9653258E-01
         -1   -1    0    0    0  501 -0.00000000000E+00  0.00000000000E+00  0.19776058891E+03  0.19776058897E+03  0.50400000000E-02 0. -1.
          1   -1    0    0  501    0  0.00000000000E+00 -0.00000000000E+00 -0.68980873802E+03  0.68980873803E+03  0.50400000000E-02 0.  1.
    5000001    1    1    2    0    0 -0.85017518960E+02  0.30583870685E+03 -0.22494778426E+03  0.43210044987E+03  0.18800000000E+03 0.  0.
   -5000001    1    1    2    0    0  0.85017518960E+02 -0.30583870685E+03 -0.26710036485E+03  0.45546887714E+03  0.18800000000E+03 0.  0.
<mgrwt>
<rscale>  0 0.73869339E+03</rscale>
<asrwt>0</asrwt>
<pdfrwt beam="1">  1        1 0.98544104E-01 0.73869339E+03</pdfrwt>
<pdfrwt beam="2">  1       -1 0.28251513E-01 0.73869339E+03</pdfrwt>
<totfact> 0.35601888E+02</totfact>
</mgrwt>
</event>
<event>
 4    1  0.1578814E-005  0.6179224E+03  0.7818608E-02  0.9868905E-01
         -1   -1    0    0    0  501 -0.00000000000E+00  0.00000000000E+00  0.35347591788E+03  0.35347591792E+03  0.50400000000E-02 0. -1.
          1   -1    0    0  501    0  0.00000000000E+00 -0.00000000000E+00 -0.27005240907E+03  0.27005240911E+03  0.50400000000E-02 0.  1.
    5000001    1    1    2    0    0 -0.90379258353E+01  0.20365320827E+03  0.17917061444E+03  0.33015514901E+03  0.18800000000E+03 0.  0.
   -5000001    1    1    2    0    0  0.90379258353E+01 -0.20365320827E+03 -0.95747105623E+02  0.29337317801E+03  0.18800000000E+03 0.  0.
<mgrwt>
<rscale>  0 0.61792240E+03</rscale>
<asrwt>0</asrwt>
<pdfrwt beam="1">  1        1 0.38578916E-01 0.61792240E+03</pdfrwt>
<pdfrwt beam="2">  1       -1 0.50496560E-01 0.61792240E+03</pdfrwt>
<totfact> 0.44116528E+02</totfact>
</mgrwt>
</event>
<event>
 4    1  0.1578814E-005  0.6907136E+03  0.7818608E-02  0.9733246E-01
         -1   -1    0    0    0  501 -0.00000000000E+00  0.00000000000E+00  0.48662906196E+02  0.48662906457E+02  0.50400000000E-02 0. -1.
          1   -1    0    0  501    0  0.00000000000E+00 -0.00000000000E+00 -0.24509700526E+04  0.24509700526E+04  0.50400000000E-02 0.  1.
    5000001    1    1    2    0    0  0.49241150557E+02 -0.27765847869E+03 -0.14414342995E+04  0.14807416255E+04  0.18800000000E+03 0.  0.
   -5000001    1    1    2    0    0 -0.49241150557E+02  0.27765847869E+03 -0.96087284690E+03  0.10188913336E+04  0.18800000000E+03 0.  0.
<mgrwt>
<rscale>  0 0.69071362E+03</rscale>
<asrwt>0</asrwt>
<pdfrwt beam="1">  1        1 0.35013850E+00 0.69071362E+03</pdfrwt>
<pdfrwt beam="2">  1       -1 0.69518453E-02 0.69071362E+03</pdfrwt>
<totfact> 0.22487244E+02</totfact>
</mgrwt>
</event>
<event>
 4    1  0.1578814E-005  0.5487335E+03  0.7818608E-02  0.1001788E+00
          1   -1    0    0  501    0  0.00000000000E+00  0.00000000000E+00  0.94217415925E+03  0.94217415926E+03  0.50400000000E-02 0. -1.
         -1   -1    0    0    0  501 -0.00000000000E+00 -0.00000000000E+00 -0.79897226416E+02  0.79897226575E+02  0.50400000000E-02 0.  1.
    5000001    1    1    2    0    0  0.29132175052E+02  0.16505943159E+03  0.63380965727E+03  0.68202051378E+03  0.18800000000E+03 0.  0.
   -5000001    1    1    2    0    0 -0.29132175052E+02 -0.16505943159E+03  0.22846727557E+03  0.34005087205E+03  0.18800000000E+03 0.  0.
<mgrwt>
<rscale>  0 0.54873346E+03</rscale>
<asrwt>0</asrwt>
<pdfrwt beam="1">  1        1 0.13459631E+00 0.54873346E+03</pdfrwt>
<pdfrwt beam="2">  1       -1 0.11413890E-01 0.54873346E+03</pdfrwt>
<totfact> 0.98589445E+02</totfact>
</mgrwt>
</event>
<event>
 4    1  0.1578814E-005  0.4588295E+03  0.7818608E-02  0.1025121E+00
         -1   -1    0    0    0  501 -0.00000000000E+00  0.00000000000E+00  0.67358982846E+02  0.67358983035E+02  0.50400000000E-02 0. -1.
          1   -1    0    0  501    0  0.00000000000E+00 -0.00000000000E+00 -0.78135279496E+03  0.78135279497E+03  0.50400000000E-02 0.  1.
    5000001    1    1    2    0    0  0.33425565063E+02  0.10313995148E+02 -0.59143530289E+03  0.62158134174E+03  0.18800000000E+03 0.  0.
   -5000001    1    1    2    0    0 -0.33425565063E+02 -0.10313995148E+02 -0.12255850922E+03  0.22713043626E+03  0.18800000000E+03 0.  0.
<mgrwt>
<rscale>  0 0.45882951E+03</rscale>
<asrwt>0</asrwt>
<pdfrwt beam="1">  1        1 0.11162182E+00 0.45882951E+03</pdfrwt>
<pdfrwt beam="2">  1       -1 0.96227123E-02 0.45882951E+03</pdfrwt>
<totfact> 0.17342712E+03</totfact>
</mgrwt>
</event>
<event>
 4    1  0.1578814E-005  0.4354546E+03  0.7818608E-02  0.1032151E+00
         -1   -1    0    0    0  501 -0.00000000000E+00  0.00000000000E+00  0.24154829834E+03  0.24154829839E+03  0.50400000000E-02 0.  1.
          1   -1    0    0  501    0  0.00000000000E+00 -0.00000000000E+00 -0.19625549436E+03  0.19625549443E+03  0.50400000000E-02 0. -1.
    5000001    1    1    2    0    0  0.75008865282E+01  0.79974626817E+02  0.97943533305E+02  0.22669172890E+03  0.18800000000E+03 0.  0.
   -5000001    1    1    2    0    0 -0.75008865282E+01 -0.79974626817E+02 -0.52650729332E+02  0.21111206392E+03  0.18800000000E+03 0.  0.
<mgrwt>
<rscale>  0 0.43545462E+03</rscale>
<asrwt>0</asrwt>
<pdfrwt beam="1">  1        1 0.28036499E-01 0.43545462E+03</pdfrwt>
<pdfrwt beam="2">  1       -1 0.34506900E-01 0.43545462E+03</pdfrwt>
<totfact> 0.13318073E+03</totfact>
</mgrwt>
</event>
<event>
 4    1  0.1578814E-005  0.5929785E+03  0.7818608E-02  0.9920081E-01
          1   -1    0    0  501    0  0.00000000000E+00  0.00000000000E+00  0.26929606886E+04  0.26929606886E+04  0.50400000000E-02 0. -1.
         -1   -1    0    0    0  501 -0.00000000000E+00 -0.00000000000E+00 -0.32642839587E+02  0.32642839977E+02  0.50400000000E-02 0.  1.
    5000001    1    1    2    0    0 -0.22479614179E+03  0.84870499347E+01  0.11268440886E+04  0.11643568763E+04  0.18800000000E+03 0.  0.
   -5000001    1    1    2    0    0  0.22479614179E+03 -0.84870499347E+01  0.15334737604E+04  0.15612466523E+04  0.18800000000E+03 0.  0.
<mgrwt>
<rscale>  0 0.59297853E+03</rscale>
<asrwt>0</asrwt>
<pdfrwt beam="1">  1        1 0.38470880E+00 0.59297853E+03</pdfrwt>
<pdfrwt beam="2">  1       -1 0.46632613E-02 0.59297853E+03</pdfrwt>
<totfact> 0.29586827E+02</totfact>
</mgrwt>
</event>
<event>
 4    1  0.1578814E-005  0.7185546E+03  0.7818608E-02  0.9686017E-01
         -1   -1    0    0    0  501 -0.00000000000E+00  0.00000000000E+00  0.22594886685E+03  0.22594886690E+03  0.50400000000E-02 0.  1.
          1   -1    0    0  501    0  0.00000000000E+00 -0.00000000000E+00 -0.57128043823E+03  0.57128043825E+03  0.50400000000E-02 0. -1.
    5000001    1    1    2    0    0 -0.29787913512E+03  0.57746965487E+01 -0.94442067810E+02  0.36473090139E+03  0.18800000000E+03 0.  0.
   -5000001    1    1    2    0    0  0.29787913512E+03 -0.57746965487E+01 -0.25088950357E+03  0.43249840377E+03  0.18800000000E+03 0.  0.
<mgrwt>
<rscale>  0 0.71855457E+03</rscale>
<asrwt>0</asrwt>
<pdfrwt beam="1">  1        1 0.81611491E-01 0.71855457E+03</pdfrwt>
<pdfrwt beam="2">  1       -1 0.32278410E-01 0.71855457E+03</pdfrwt>
<totfact> 0.36955747E+02</totfact>
</mgrwt>
</event>
<event>
 4    1  0.1578814E-005  0.7447810E+03  0.7818608E-02  0.9643574E-01
          1   -1    0    0  501    0  0.00000000000E+00  0.00000000000E+00  0.16241638546E+04  0.16241638546E+04  0.50400000000E-02 0.  1.
         -1   -1    0    0    0  501 -0.00000000000E+00 -0.00000000000E+00 -0.85382197642E+02  0.85382197790E+02  0.50400000000E-02 0. -1.
    5000001    1    1    2    0    0 -0.10633758257E+03 -0.29601127989E+03  0.61712783705E+03  0.71771939263E+03  0.18800000000E+03 0.  0.
   -5000001    1    1    2    0    0  0.10633758257E+03  0.29601127989E+03  0.92165381992E+03  0.99182665979E+03  0.18800000000E+03 0.  0.
<mgrwt>
<rscale>  0 0.74478099E+03</rscale>
<asrwt>0</asrwt>
<pdfrwt beam="1">  1        1 0.23202338E+00 0.74478099E+03</pdfrwt>
<pdfrwt beam="2">  1       -1 0.12197458E-01 0.74478099E+03</pdfrwt>
<totfact> 0.30228408E+02</totfact>
</mgrwt>
</event>
<event>
 4    1  0.1578814E-005  0.7638113E+03  0.7818608E-02  0.9613928E-01
          1   -1    0    0  501    0  0.00000000000E+00  0.00000000000E+00  0.17878410364E+04  0.17878410364E+04  0.50400000000E-02 0. -1.
         -1   -1    0    0    0  501 -0.00000000000E+00 -0.00000000000E+00 -0.81579916660E+02  0.81579916816E+02  0.50400000000E-02 0.  1.
    5000001    1    1    2    0    0  0.21344210328E+03  0.17008269647E+03  0.13176528476E+04  0.13586900610E+04  0.18800000000E+03 0.  0.
   -5000001    1    1    2    0    0 -0.21344210328E+03 -0.17008269647E+03  0.38860827215E+03  0.51073089222E+03  0.18800000000E+03 0.  0.
<mgrwt>
<rscale>  0 0.76381129E+03</rscale>
<asrwt>0</asrwt>
<pdfrwt beam="1">  1        1 0.25540591E+00 0.76381129E+03</pdfrwt>
<pdfrwt beam="2">  1       -1 0.11654272E-01 0.76381129E+03</pdfrwt>
<totfact> 0.25605125E+02</totfact>
</mgrwt>
</event>
<event>
 4    1  0.1578814E-005  0.4898003E+03  0.7818608E-02  0.1016476E+00
         -1   -1    0    0    0  501 -0.00000000000E+00  0.00000000000E+00  0.35196128172E+03  0.35196128175E+03  0.50400000000E-02 0. -1.
          1   -1    0    0  501    0  0.00000000000E+00 -0.00000000000E+00 -0.17040533125E+03  0.17040533133E+03  0.50400000000E-02 0.  1.
    5000001    1    1    2    0    0 -0.14727688455E+03 -0.46153071569E+02  0.12115872776E+03  0.27174256945E+03  0.18800000000E+03 0.  0.
   -5000001    1    1    2    0    0  0.14727688455E+03  0.46153071569E+02  0.60397222702E+02  0.25062404363E+03  0.18800000000E+03 0.  0.
<mgrwt>
<rscale>  0 0.48980028E+03</rscale>
<asrwt>0</asrwt>
<pdfrwt beam="1">  1        1 0.24343619E-01 0.48980028E+03</pdfrwt>
<pdfrwt beam="2">  1       -1 0.50280182E-01 0.48980028E+03</pdfrwt>
<totfact> 0.80750821E+02</totfact>
</mgrwt>
</event>
<event>
 4    1  0.1578814E-005  0.4850152E+03  0.7818608E-02  0.1017766E+00
         -1   -1    0    0    0  501 -0.00000000000E+00  0.00000000000E+00  0.51828576653E+02  0.51828576898E+02  0.50400000000E-02 0. -1.
          1   -1    0    0  501    0  0.00000000000E+00 -0.00000000000E+00 -0.11347007727E+04  0.11347007727E+04  0.50400000000E-02 0.  1.
    5000001    1    1    2    0    0 -0.12843310267E+03  0.45418104970E+02 -0.37004900812E+03  0.43685024268E+03  0.18800000000E+03 0.  0.
   -5000001    1    1    2    0    0  0.12843310267E+03 -0.45418104970E+02 -0.71282318796E+03  0.74967910697E+03  0.18800000000E+03 0.  0.
<mgrwt>
<rscale>  0 0.48501516E+03</rscale>
<asrwt>0</asrwt>
<pdfrwt beam="1">  1        1 0.16210010E+00 0.48501516E+03</pdfrwt>
<pdfrwt beam="2">  1       -1 0.74040831E-02 0.48501516E+03</pdfrwt>
<totfact> 0.14102149E+03</totfact>
</mgrwt>
</event>
<event>
 4    1  0.1578814E-005  0.7311652E+03  0.7818608E-02  0.9665372E-01
          1   -1    0    0  501    0  0.00000000000E+00  0.00000000000E+00  0.84924901601E+03  0.84924901603E+03  0.50400000000E-02 0.  1.
         -1   -1    0    0    0  501 -0.00000000000E+00 -0.00000000000E+00 -0.15737507000E+03  0.15737507008E+03  0.50400000000E-02 0. -1.
    5000001    1    1    2    0    0  0.12427647958E+03 -0.19899052144E+03  0.59572630851E+02  0.30648779641E+03  0.18800000000E+03 0.  0.
   -5000001    1    1    2    0    0 -0.12427647958E+03  0.19899052144E+03  0.63230131516E+03  0.70013628970E+03  0.18800000000E+03 0.  0.
<mgrwt>
<rscale>  0 0.73116516E+03</rscale>
<asrwt>0</asrwt>
<pdfrwt beam="1">  1        1 0.12132129E+00 0.73116516E+03</pdfrwt>
<pdfrwt beam="2">  1       -1 0.22482153E-01 0.73116516E+03</pdfrwt>
<totfact> 0.38326056E+02</totfact>
</mgrwt>
</event>
<event>
 4    1  0.1578814E-005  0.4979914E+03  0.7818608E-02  0.1014305E+00
          1   -1    0    0  501    0  0.00000000000E+00  0.00000000000E+00  0.19140209422E+03  0.19140209428E+03  0.50400000000E-02 0.  1.
         -1   -1    0    0    0  501 -0.00000000000E+00 -0.00000000000E+00 -0.32391948604E+03  0.32391948608E+03  0.50400000000E-02 0. -1.
    5000001    1    1    2    0    0  0.12825144764E+03 -0.92258674884E+02 -0.23658462446E+02  0.24670593782E+03  0.18800000000E+03 0.  0.
   -5000001    1    1    2    0    0 -0.12825144764E+03  0.92258674884E+02 -0.10885892938E+03  0.26861564254E+03  0.18800000000E+03 0.  0.
<mgrwt>
<rscale>  0 0.49799144E+03</rscale>
<asrwt>0</asrwt>
<pdfrwt beam="1">  1        1 0.27343156E-01 0.49799144E+03</pdfrwt>
<pdfrwt beam="2">  1       -1 0.46274212E-01 0.49799144E+03</pdfrwt>
<totfact> 0.81098468E+02</totfact>
</mgrwt>
</event>
<event>
 4    1  0.1578814E-005  0.7776080E+03  0.7818608E-02  0.9593006E-01
         -1   -1    0    0    0  501 -0.00000000000E+00  0.00000000000E+00  0.11984290674E+03  0.11984290685E+03  0.50400000000E-02 0. -1.
          1   -1    0    0  501    0  0.00000000000E+00 -0.00000000000E+00 -0.12613893135E+04  0.12613893135E+04  0.50400000000E-02 0.  1.
    5000001    1    1    2    0    0 -0.23613797596E+03 -0.75705425709E+02 -0.98480551653E+03  0.10328012203E+04  0.18800000000E+03 0.  0.
   -5000001    1    1    2    0    0  0.23613797596E+03  0.75705425709E+02 -0.15674089026E+03  0.34843100013E+03  0.18800000000E+03 0.  0.
<mgrwt>
<rscale>  0 0.77760803E+03</rscale>
<asrwt>0</asrwt>
<pdfrwt beam="1">  1        1 0.18019847E+00 0.77760803E+03</pdfrwt>
<pdfrwt beam="2">  1       -1 0.17120416E-01 0.77760803E+03</pdfrwt>
<totfact> 0.30033271E+02</totfact>
</mgrwt>
</event>
<event>
 4    1  0.1578814E-005  0.4497932E+03  0.7818608E-02  0.1027784E+00
         -1   -1    0    0    0  501 -0.00000000000E+00  0.00000000000E+00  0.45427147234E+02  0.45427147514E+02  0.50400000000E-02 0. -1.
          1   -1    0    0  501    0  0.00000000000E+00 -0.00000000000E+00 -0.11133974738E+04  0.11133974738E+04  0.50400000000E-02 0.  1.
    5000001    1    1    2    0    0  0.90741496125E+02  0.12276969387E+02 -0.74721183790E+03  0.77592156421E+03  0.18800000000E+03 0.  0.
   -5000001    1    1    2    0    0 -0.90741496125E+02 -0.12276969387E+02 -0.32075848862E+03  0.38290305707E+03  0.18800000000E+03 0.  0.
<mgrwt>
<rscale>  0 0.44979316E+03</rscale>
<asrwt>0</asrwt>
<pdfrwt beam="1">  1        1 0.15905677E+00 0.44979316E+03</pdfrwt>
<pdfrwt beam="2">  1       -1 0.64895931E-02 0.44979316E+03</pdfrwt>
<totfact> 0.17888868E+03</totfact>
</mgrwt>
</event>
<event>
 4    1  0.1578814E-005  0.5643440E+03  0.7818608E-02  0.9982273E-01
          1   -1    0    0  501    0  0.00000000000E+00  0.00000000000E+00  0.42016878608E+04  0.42016878609E+04  0.50400000000E-02 0.  1.
         -1   -1    0    0    0  501 -0.00000000000E+00 -0.00000000000E+00 -0.18949770975E+02  0.18949771645E+02  0.50400000000E-02 0. -1.
    5000001    1    1    2    0    0  0.13219324529E+03  0.14501146454E+03  0.15230931486E+04  0.15471457974E+04  0.18800000000E+03 0.  0.
   -5000001    1    1    2    0    0 -0.13219324529E+03 -0.14501146454E+03  0.26596449412E+04  0.26734918351E+04  0.18800000000E+03 0.  0.
<mgrwt>
<rscale>  0 0.56434395E+03</rscale>
<asrwt>0</asrwt>
<pdfrwt beam="1">  1        1 0.60024105E+00 0.56434395E+03</pdfrwt>
<pdfrwt beam="2">  1       -1 0.27071105E-02 0.56434395E+03</pdfrwt>
<totfact> 0.61955438E+01</totfact>
</mgrwt>
</event>
<event>
 4    1  0.1578814E-005  0.1075382E+04  0.7818608E-02  0.9229524E-01
         -1   -1    0    0    0  501 -0.00000000000E+00  0.00000000000E+00  0.13943420551E+04  0.13943420551E+04  0.50400000000E-02 0. -1.
          1   -1    0    0  501    0  0.00000000000E+00 -0.00000000000E+00 -0.20734631285E+03  0.20734631291E+03  0.50400000000E-02 0.  1.
    5000001    1    1    2    0    0  0.48877296064E+03 -0.73877290614E+02  0.73798494794E+03  0.90792215773E+03  0.18800000000E+03 0.  0.
   -5000001    1    1    2    0    0 -0.48877296064E+03  0.73877290614E+02  0.44901079430E+03  0.69376621028E+03  0.18800000000E+03 0.  0.
<mgrwt>
<rscale>  0 0.10753821E+04</rscale>
<asrwt>0</asrwt>
<pdfrwt beam="1">  1        1 0.29620901E-01 0.10753821E+04</pdfrwt>
<pdfrwt beam="2">  1       -1 0.19919173E+00 0.10753821E+04</pdfrwt>
<totfact> 0.23822937E+01</totfact>
</mgrwt>
</event>
<event>
 4    1  0.1578814E-005  0.4153857E+03  0.7818608E-02  0.1038579E+00
         -1   -1    0    0    0  501 -0.00000000000E+00  0.00000000000E+00  0.82617341417E+02  0.82617341571E+02  0.50400000000E-02 0. -1.
          1   -1    0    0  501    0  0.00000000000E+00 -0.00000000000E+00 -0.52212197053E+03  0.52212197055E+03  0.50400000000E-02 0.  1.
    5000001    1    1    2    0    0  0.70230185865E+02  0.27928687313E+02 -0.15335472581E+03  0.25411407381E+03  0.18800000000E+03 0.  0.
   -5000001    1    1    2    0    0 -0.70230185865E+02 -0.27928687313E+02 -0.28614990330E+03  0.35062523831E+03  0.18800000000E+03 0.  0.
<mgrwt>
<rscale>  0 0.41538574E+03</rscale>
<asrwt>0</asrwt>
<pdfrwt beam="1">  1        1 0.74588851E-01 0.41538574E+03</pdfrwt>
<pdfrwt beam="2">  1       -1 0.11802478E-01 0.41538574E+03</pdfrwt>
<totfact> 0.22243325E+03</totfact>
</mgrwt>
</event>
<event>
 4    1  0.1578814E-005  0.3871934E+03  0.7818608E-02  0.1048307E+00
         -1   -1    0    0    0  501 -0.00000000000E+00  0.00000000000E+00  0.39723241691E+03  0.39723241694E+03  0.50400000000E-02 0. -1.
          1   -1    0    0  501    0  0.00000000000E+00 -0.00000000000E+00 -0.94352022862E+02  0.94352022997E+02  0.50400000000E-02 0.  1.
    5000001    1    1    2    0    0  0.39116798661E+02 -0.24377925299E+02  0.15570331516E+03  0.24841885905E+03  0.18800000000E+03 0.  0.
   -5000001    1    1    2    0    0 -0.39116798661E+02  0.24377925299E+02  0.14717707889E+03  0.24316558089E+03  0.18800000000E+03 0.  0.
<mgrwt>
<rscale>  0 0.38719340E+03</rscale>
<asrwt>0</asrwt>
<pdfrwt beam="1">  1        1 0.13478861E-01 0.38719340E+03</pdfrwt>
<pdfrwt beam="2">  1       -1 0.56747488E-01 0.38719340E+03</pdfrwt>
<totfact> 0.13965853E+03</totfact>
</mgrwt>
</event>
<event>
 4    1  0.1578814E-005  0.7569320E+03  0.7818608E-02  0.9624537E-01
          1   -1    0    0  501    0  0.00000000000E+00  0.00000000000E+00  0.43282233312E+04  0.43282233312E+04  0.50400000000E-02 0.  1.
         -1   -1    0    0    0  501 -0.00000000000E+00 -0.00000000000E+00 -0.33093603319E+02  0.33093603702E+02  0.50400000000E-02 0. -1.
    5000001    1    1    2    0    0 -0.26126440511E+03  0.13937526099E+03  0.29666366470E+04  0.29873000432E+04  0.18800000000E+03 0.  0.
   -5000001    1    1    2    0    0  0.26126440511E+03 -0.13937526099E+03  0.13284930808E+04  0.13740168916E+04  0.18800000000E+03 0.  0.
<mgrwt>
<rscale>  0 0.75693198E+03</rscale>
<asrwt>0</asrwt>
<pdfrwt beam="1">  1        1 0.61831767E+00 0.75693198E+03</pdfrwt>
<pdfrwt beam="2">  1       -1 0.47276572E-02 0.75693198E+03</pdfrwt>
<totfact> 0.20488111E+01</totfact>
</mgrwt>
</event>
<event>
 4    1  0.1578814E-005  0.5520210E+03  0.7818608E-02  0.1001027E+00
         -1   -1    0    0    0  501 -0.00000000000E+00  0.00000000000E+00  0.13000970671E+04  0.13000970671E+04  0.50400000000E-02 0.  1.
          1   -1    0    0  501    0  0.00000000000E+00 -0.00000000000E+00 -0.58597004876E+02  0.58597005093E+02  0.50400000000E-02 0. -1.
    5000001    1    1    2    0    0 -0.15488911425E+03 -0.85521978416E+02  0.86106689615E+03  0.89893539599E+03  0.18800000000E+03 0.  0.
   -5000001    1    1    2    0    0  0.15488911425E+03  0.85521978416E+02  0.38043316602E+03  0.45975867617E+03  0.18800000000E+03 0.  0.
<mgrwt>
<rscale>  0 0.55202099E+03</rscale>
<asrwt>0</asrwt>
<pdfrwt beam="1">  1        1 0.83710012E-02 0.55202099E+03</pdfrwt>
<pdfrwt beam="2">  1       -1 0.18572814E+00 0.55202099E+03</pdfrwt>
<totfact> 0.16759775E+02</totfact>
</mgrwt>
</event>
<event>
 4    1  0.1578814E-005  0.4647340E+03  0.7818608E-02  0.1023417E+00
          1   -1    0    0  501    0  0.00000000000E+00  0.00000000000E+00  0.24634330671E+04  0.24634330671E+04  0.50400000000E-02 0.  1.
         -1   -1    0    0    0  501 -0.00000000000E+00 -0.00000000000E+00 -0.21918367520E+02  0.21918368099E+02  0.50400000000E-02 0. -1.
    5000001    1    1    2    0    0 -0.12879834181E+03  0.34738082979E+02  0.13771031828E+04  0.13962639161E+04  0.18800000000E+03 0.  0.
   -5000001    1    1    2    0    0  0.12879834181E+03 -0.34738082979E+02  0.10644115168E+04  0.10890875192E+04  0.18800000000E+03 0.  0.
<mgrwt>
<rscale>  0 0.46473404E+03</rscale>
<asrwt>0</asrwt>
<pdfrwt beam="1">  1        1 0.35191879E+00 0.46473404E+03</pdfrwt>
<pdfrwt beam="2">  1       -1 0.31311974E-02 0.46473404E+03</pdfrwt>
<totfact> 0.76039800E+02</totfact>
</mgrwt>
</event>
<event>
 4    1  0.1578814E-005  0.9481494E+03  0.7818608E-02  0.9367316E-01
          1   -1    0    0  501    0  0.00000000000E+00  0.00000000000E+00  0.55647227302E+03  0.55647227304E+03  0.50400000000E-02 0.  1.
         -1   -1    0    0    0  501 -0.00000000000E+00 -0.00000000000E+00 -0.40387786165E+03  0.40387786169E+03  0.50400000000E-02 0. -1.
    5000001    1    1    2    0    0  0.21158596928E+03 -0.27131316981E+03  0.34622864126E+03  0.52306570384E+03  0.18800000000E+03 0.  0.
   -5000001    1    1    2    0    0 -0.21158596928E+03  0.27131316981E+03 -0.19363422990E+03  0.43728443089E+03  0.18800000000E+03 0.  0.
<mgrwt>
<rscale>  0 0.94814942E+03</rscale>
<asrwt>0</asrwt>
<pdfrwt beam="1">  1        1 0.79496039E-01 0.94814942E+03</pdfrwt>
<pdfrwt beam="2">  1       -1 0.57696837E-01 0.94814942E+03</pdfrwt>
<totfact> 0.12954440E+02</totfact>
</mgrwt>
</event>
<event>
 4    1  0.1578814E-005  0.5503703E+03  0.7818608E-02  0.1001408E+00
         -1   -1    0    0    0  501 -0.00000000000E+00  0.00000000000E+00  0.86493463292E+02  0.86493463439E+02  0.50400000000E-02 0.  1.
          1   -1    0    0  501    0  0.00000000000E+00 -0.00000000000E+00 -0.87552117349E+03  0.87552117350E+03  0.50400000000E-02 0. -1.
    5000001    1    1    2    0    0 -0.55486366565E+02  0.18376479506E+03 -0.29059408239E+03  0.39577412435E+03  0.18800000000E+03 0.  0.
   -5000001    1    1    2    0    0  0.55486366565E+02 -0.18376479506E+03 -0.49843362780E+03  0.56624051259E+03  0.18800000000E+03 0.  0.
<mgrwt>
<rscale>  0 0.55037027E+03</rscale>
<asrwt>0</asrwt>
<pdfrwt beam="1">  1        1 0.12507445E+00 0.55037027E+03</pdfrwt>
<pdfrwt beam="2">  1       -1 0.12356210E-01 0.55037027E+03</pdfrwt>
<totfact> 0.97857839E+02</totfact>
</mgrwt>
</event>
<event>
 4    1  0.1578814E-005  0.4304827E+03  0.7818608E-02  0.1033708E+00
         -1   -1    0    0    0  501 -0.00000000000E+00  0.00000000000E+00  0.36985620052E+03  0.36985620056E+03  0.50400000000E-02 0.  1.
          1   -1    0    0  501    0  0.00000000000E+00 -0.00000000000E+00 -0.12526173299E+03  0.12526173309E+03  0.50400000000E-02 0. -1.
    5000001    1    1    2    0    0  0.72872150649E+02  0.52116086412E+02  0.59739522483E+02  0.21665467304E+03  0.18800000000E+03 0.  0.
   -5000001    1    1    2    0    0 -0.72872150649E+02 -0.52116086412E+02  0.18485494505E+03  0.27846326061E+03  0.18800000000E+03 0.  0.
<mgrwt>
<rscale>  0 0.43048265E+03</rscale>
<asrwt>0</asrwt>
<pdfrwt beam="1">  1        1 0.17894533E-01 0.43048265E+03</pdfrwt>
<pdfrwt beam="2">  1       -1 0.52836600E-01 0.43048265E+03</pdfrwt>
<totfact> 0.10995114E+03</totfact>
</mgrwt>
</event>
<event>
 4    1  0.1578814E-005  0.6490706E+03  0.7818608E-02  0.9808525E-01
         -1   -1    0    0    0  501 -0.00000000000E+00  0.00000000000E+00  0.15940186510E+03  0.15940186518E+03  0.50400000000E-02 0.  1.
          1   -1    0    0  501    0  0.00000000000E+00 -0.00000000000E+00 -0.66073977390E+03  0.66073977392E+03  0.50400000000E-02 0. -1.
    5000001    1    1    2    0    0  0.20607096668E+03 -0.13792014832E+03 -0.36710848450E+03  0.48124822079E+03  0.18800000000E+03 0.  0.
   -5000001    1    1    2    0    0 -0.20607096668E+03  0.13792014832E+03 -0.13422942430E+03  0.33889341830E+03  0.18800000000E+03 0.  0.
<mgrwt>
<rscale>  0 0.64907057E+03</rscale>
<asrwt>0</asrwt>
<pdfrwt beam="1">  1        1 0.94391395E-01 0.64907057E+03</pdfrwt>
<pdfrwt beam="2">  1       -1 0.22771695E-01 0.64907057E+03</pdfrwt>
<totfact> 0.54925521E+02</totfact>
</mgrwt>
</event>
<event>
 4    1  0.1578814E-005  0.7154540E+03  0.7818608E-02  0.9691163E-01
         -1   -1    0    0    0  501 -0.00000000000E+00  0.00000000000E+00  0.20303014513E+03  0.20303014519E+03  0.50400000000E-02 0. -1.
          1   -1    0    0  501    0  0.00000000000E+00 -0.00000000000E+00 -0.63029370503E+03  0.63029370505E+03  0.50400000000E-02 0.  1.
    5000001    1    1    2    0    0 -0.13561824826E+03  0.27238869397E+03 -0.20657446483E+03  0.41304348364E+03  0.18800000000E+03 0.  0.
   -5000001    1    1    2    0    0  0.13561824826E+03 -0.27238869397E+03 -0.22068909507E+03  0.42028036660E+03  0.18800000000E+03 0.  0.
<mgrwt>
<rscale>  0 0.71545404E+03</rscale>
<asrwt>0</asrwt>
<pdfrwt beam="1">  1        1 0.90041957E-01 0.71545404E+03</pdfrwt>
<pdfrwt beam="2">  1       -1 0.29004307E-01 0.71545404E+03</pdfrwt>
<totfact> 0.38791225E+02</totfact>
</mgrwt>
</event>
<event>
 4    1  0.1578814E-005  0.4825332E+03  0.7818608E-02  0.1018441E+00
         -1   -1    0    0    0  501 -0.00000000000E+00  0.00000000000E+00  0.77328629033E+02  0.77328629197E+02  0.50400000000E-02 0. -1.
          1   -1    0    0  501    0  0.00000000000E+00 -0.00000000000E+00 -0.75275572926E+03  0.75275572928E+03  0.50400000000E-02 0.  1.
    5000001    1    1    2    0    0  0.90837182243E+02  0.11435001622E+03 -0.27024392039E+03  0.36014316097E+03  0.18800000000E+03 0.  0.
   -5000001    1    1    2    0    0 -0.90837182243E+02 -0.11435001622E+03 -0.40518317984E+03  0.46994119751E+03  0.18800000000E+03 0.  0.
<mgrwt>
<rscale>  0 0.48253318E+03</rscale>
<asrwt>0</asrwt>
<pdfrwt beam="1">  1        1 0.10753653E+00 0.48253318E+03</pdfrwt>
<pdfrwt beam="2">  1       -1 0.11046947E-01 0.48253318E+03</pdfrwt>
<totfact> 0.14762808E+03</totfact>
</mgrwt>
</event>
<event>
 4    1  0.1578814E-005  0.6440904E+03  0.7818608E-02  0.9817932E-01
         -1   -1    0    0    0  501 -0.00000000000E+00  0.00000000000E+00  0.38322748625E+02  0.38322748956E+02  0.50400000000E-02 0. -1.
          1   -1    0    0  501    0  0.00000000000E+00 -0.00000000000E+00 -0.27063070421E+04  0.27063070421E+04  0.50400000000E-02 0.  1.
    5000001    1    1    2    0    0  0.13897415382E+03 -0.22006004200E+03 -0.14408541645E+04  0.14761927249E+04  0.18800000000E+03 0.  0.
   -5000001    1    1    2    0    0 -0.13897415382E+03  0.22006004200E+03 -0.12271301289E+04  0.12684370662E+04  0.18800000000E+03 0.  0.
<mgrwt>
<rscale>  0 0.64409044E+03</rscale>
<asrwt>0</asrwt>
<pdfrwt beam="1">  1        1 0.38661517E+00 0.64409044E+03</pdfrwt>
<pdfrwt beam="2">  1       -1 0.54746801E-02 0.64409044E+03</pdfrwt>
<totfact> 0.22585693E+02</totfact>
</mgrwt>
</event>
<event>
 4    1  0.1578814E-005  0.9739551E+03  0.7818608E-02  0.9337581E-01
          1   -1    0    0  501    0  0.00000000000E+00  0.00000000000E+00  0.35761763555E+03  0.35761763558E+03  0.50400000000E-02 0.  1.
         -1   -1    0    0    0  501 -0.00000000000E+00 -0.00000000000E+00 -0.66313039751E+03  0.66313039753E+03  0.50400000000E-02 0. -1.
    5000001    1    1    2    0    0  0.35352796882E+03 -0.14955278265E+03 -0.39732389320E+03  0.58357376196E+03  0.18800000000E+03 0.  0.
   -5000001    1    1    2    0    0 -0.35352796882E+03  0.14955278265E+03  0.91811131238E+02  0.43717427115E+03  0.18800000000E+03 0.  0.
<mgrwt>
<rscale>  0 0.97395508E+03</rscale>
<asrwt>0</asrwt>
<pdfrwt beam="1">  1        1 0.51088234E-01 0.97395508E+03</pdfrwt>
<pdfrwt beam="2">  1       -1 0.94732913E-01 0.97395508E+03</pdfrwt>
<totfact> 0.83082886E+01</totfact>
</mgrwt>
</event>
<event>
 4    1  0.1578814E-005  0.7109515E+03  0.7818608E-02  0.9698685E-01
         -1   -1    0    0    0  501 -0.00000000000E+00  0.00000000000E+00  0.33904189509E+03  0.33904189513E+03  0.50400000000E-02 0. -1.
          1   -1    0    0  501    0  0.00000000000E+00 -0.00000000000E+00 -0.37270614600E+03  0.37270614603E+03  0.50400000000E-02 0.  1.
    5000001    1    1    2    0    0 -0.14595172674E+03  0.25503582233E+03  0.51609821565E+02  0.35263685413E+03  0.18800000000E+03 0.  0.
   -5000001    1    1    2    0    0  0.14595172674E+03 -0.25503582233E+03 -0.85274072476E+02  0.35911118703E+03  0.18800000000E+03 0.  0.
<mgrwt>
<rscale>  0 0.71095147E+03</rscale>
<asrwt>0</asrwt>
<pdfrwt beam="1">  1        1 0.53243735E-01 0.71095147E+03</pdfrwt>
<pdfrwt beam="2">  1       -1 0.48434557E-01 0.71095147E+03</pdfrwt>
<totfact> 0.31361212E+02</totfact>
</mgrwt>
</event>
<event>
 4    1  0.1578814E-005  0.5328464E+03  0.7818608E-02  0.1005544E+00
         -1   -1    0    0    0  501 -0.00000000000E+00  0.00000000000E+00  0.58039985283E+03  0.58039985285E+03  0.50400000000E-02 0. -1.
          1   -1    0    0  501    0  0.00000000000E+00 -0.00000000000E+00 -0.12229726405E+03  0.12229726415E+03  0.50400000000E-02 0.  1.
    5000001    1    1    2    0    0  0.13757862296E+03  0.10856433288E+03  0.32158306626E+03  0.41167190865E+03  0.18800000000E+03 0.  0.
   -5000001    1    1    2    0    0 -0.13757862296E+03 -0.10856433288E+03  0.13651952252E+03  0.29102520835E+03  0.18800000000E+03 0.  0.
<mgrwt>
<rscale>  0 0.53284637E+03</rscale>
<asrwt>0</asrwt>
<pdfrwt beam="1">  1        1 0.17471038E-01 0.53284637E+03</pdfrwt>
<pdfrwt beam="2">  1       -1 0.82914266E-01 0.53284637E+03</pdfrwt>
<totfact> 0.45987605E+02</totfact>
</mgrwt>
</event>
<event>
 4    1  0.1578814E-005  0.6367783E+03  0.7818608E-02  0.9831910E-01
          1   -1    0    0  501    0  0.00000000000E+00  0.00000000000E+00  0.13167168102E+04  0.13167168102E+04  0.50400000000E-02 0.  1.
         -1   -1    0    0    0  501 -0.00000000000E+00 -0.00000000000E+00 -0.76988199033E+02  0.76988199198E+02  0.50400000000E-02 0. -1.
    5000001    1    1    2    0    0 -0.18715462436E+03  0.30685418891E+02  0.24039962532E+03  0.35931104659E+03  0.18800000000E+03 0.  0.
   -5000001    1    1    2    0    0  0.18715462436E+03 -0.30685418891E+02  0.99932898586E+03  0.10343939628E+04  0.18800000000E+03 0.  0.
<mgrwt>
<rscale>  0 0.63677832E+03</rscale>
<asrwt>0</asrwt>
<pdfrwt beam="1">  1        1 0.18810240E+00 0.63677832E+03</pdfrwt>
<pdfrwt beam="2">  1       -1 0.10998315E-01 0.63677832E+03</pdfrwt>
<totfact> 0.56760473E+02</totfact>
</mgrwt>
</event>
<event>
 4    1  0.1578814E-005  0.5352189E+03  0.7818608E-02  0.1004974E+00
          1   -1    0    0  501    0  0.00000000000E+00  0.00000000000E+00  0.33103612454E+04  0.33103612454E+04  0.50400000000E-02 0. -1.
         -1   -1    0    0    0  501 -0.00000000000E+00 -0.00000000000E+00 -0.21633532377E+02  0.21633532964E+02  0.50400000000E-02 0.  1.
    5000001    1    1    2    0    0  0.17637656918E+03 -0.64633984700E+02  0.18397053225E+04  0.18588022810E+04  0.18800000000E+03 0.  0.
   -5000001    1    1    2    0    0 -0.17637656918E+03  0.64633984700E+02  0.14490223906E+04  0.14731924974E+04  0.18800000000E+03 0.  0.
<mgrwt>
<rscale>  0 0.53521886E+03</rscale>
<asrwt>0</asrwt>
<pdfrwt beam="1">  1        1 0.47290900E+00 0.53521886E+03</pdfrwt>
<pdfrwt beam="2">  1       -1 0.30905031E-02 0.53521886E+03</pdfrwt>
<totfact> 0.22134891E+02</totfact>
</mgrwt>
</event>
<event>
 4    1  0.1578814E-005  0.7723374E+03  0.7818608E-02  0.9600944E-01
          1   -1    0    0  501    0  0.00000000000E+00  0.00000000000E+00  0.25346681421E+03  0.25346681426E+03  0.50400000000E-02 0.  1.
         -1   -1    0    0    0  501 -0.00000000000E+00 -0.00000000000E+00 -0.58834631792E+03  0.58834631794E+03  0.50400000000E-02 0. -1.
    5000001    1    1    2    0    0  0.27821791019E+03 -0.12121632113E+03 -0.32793972735E+03  0.48475464602E+03  0.18800000000E+03 0.  0.
   -5000001    1    1    2    0    0 -0.27821791019E+03  0.12121632113E+03 -0.69397763599E+01  0.35705848618E+03  0.18800000000E+03 0.  0.
<mgrwt>
<rscale>  0 0.77233741E+03</rscale>
<asrwt>0</asrwt>
<pdfrwt beam="1">  1        1 0.36209545E-01 0.77233741E+03</pdfrwt>
<pdfrwt beam="2">  1       -1 0.84049473E-01 0.77233741E+03</pdfrwt>
<totfact> 0.17083549E+02</totfact>
</mgrwt>
</event>
<event>
 4    1  0.1578814E-005  0.7232848E+03  0.7818608E-02  0.9678220E-01
         -1   -1    0    0    0  501 -0.00000000000E+00  0.00000000000E+00  0.37813378762E+03  0.37813378766E+03  0.50400000000E-02 0. -1.
          1   -1    0    0  501    0  0.00000000000E+00 -0.00000000000E+00 -0.34587021908E+03  0.34587021912E+03  0.50400000000E-02 0.  1.
    5000001    1    1    2    0    0 -0.14740185356E+03  0.23480770613E+03 -0.12030948301E+03  0.35592181303E+03  0.18800000000E+03 0.  0.
   -5000001    1    1    2    0    0  0.14740185356E+03 -0.23480770613E+03  0.15257305155E+03  0.36808219374E+03  0.18800000000E+03 0.  0.
<mgrwt>
<rscale>  0 0.72328477E+03</rscale>
<asrwt>0</asrwt>
<pdfrwt beam="1">  1        1 0.49410031E-01 0.72328477E+03</pdfrwt>
<pdfrwt beam="2">  1       -1 0.54019113E-01 0.72328477E+03</pdfrwt>
<totfact> 0.28079828E+02</totfact>
</mgrwt>
</event>
<event>
 4    1  0.1578814E-005  0.5187158E+03  0.7818608E-02  0.1009006E+00
         -1   -1    0    0    0  501 -0.00000000000E+00  0.00000000000E+00  0.24010521921E+02  0.24010522450E+02  0.50400000000E-02 0. -1.
          1   -1    0    0  501    0  0.00000000000E+00 -0.00000000000E+00 -0.28015432056E+04  0.28015432056E+04  0.50400000000E-02 0.  1.
    5000001    1    1    2    0    0 -0.16334426375E+03 -0.71966489499E+02 -0.14316546683E+04  0.14549362919E+04  0.18800000000E+03 0.  0.
   -5000001    1    1    2    0    0  0.16334426375E+03  0.71966489499E+02 -0.13458780154E+04  0.13706174362E+04  0.18800000000E+03 0.  0.
<mgrwt>
<rscale>  0 0.51871578E+03</rscale>
<asrwt>0</asrwt>
<pdfrwt beam="1">  1        1 0.40022025E+00 0.51871578E+03</pdfrwt>
<pdfrwt beam="2">  1       -1 0.34300764E-02 0.51871578E+03</pdfrwt>
<totfact> 0.40546129E+02</totfact>
</mgrwt>
</event>
<event>
 4    1  0.1578814E-005  0.7125517E+03  0.7818608E-02  0.9696005E-01
          1   -1    0    0  501    0  0.00000000000E+00  0.00000000000E+00  0.11615291129E+03  0.11615291140E+03  0.50400000000E-02 0.  1.
         -1   -1    0    0    0  501 -0.00000000000E+00 -0.00000000000E+00 -0.10928049685E+04  0.10928049685E+04  0.50400000000E-02 0. -1.
    5000001    1    1    2    0    0 -0.28107074007E+03  0.58967107344E+02 -0.32638077072E+03  0.47365207501E+03  0.18800000000E+03 0.  0.
   -5000001    1    1    2    0    0  0.28107074007E+03 -0.58967107344E+02 -0.65027128654E+03  0.73530580493E+03  0.18800000000E+03 0.  0.
<mgrwt>
<rscale>  0 0.71255169E+03</rscale>
<asrwt>0</asrwt>
<pdfrwt beam="1">  1        1 0.16593274E-01 0.71255169E+03</pdfrwt>
<pdfrwt beam="2">  1       -1 0.15611499E+00 0.71255169E+03</pdfrwt>
<totfact> 0.10735031E+02</totfact>
</mgrwt>
</event>
<event>
 4    1  0.1578814E-005  0.4899315E+03  0.7818608E-02  0.1016441E+00
          1   -1    0    0  501    0  0.00000000000E+00  0.00000000000E+00  0.35383238414E+04  0.35383238414E+04  0.50400000000E-02 0.  1.
         -1   -1    0    0    0  501 -0.00000000000E+00 -0.00000000000E+00 -0.16959502854E+02  0.16959503602E+02  0.50400000000E-02 0. -1.
    5000001    1    1    2    0    0  0.12789217524E+03 -0.12221128803E+02  0.24161368992E+04  0.24268430688E+04  0.18800000000E+03 0.  0.
   -5000001    1    1    2    0    0 -0.12789217524E+03  0.12221128803E+02  0.11052274393E+04  0.11284402762E+04  0.18800000000E+03 0.  0.
<mgrwt>
<rscale>  0 0.48993148E+03</rscale>
<asrwt>0</asrwt>
<pdfrwt beam="1">  1        1 0.50547547E+00 0.48993148E+03</pdfrwt>
<pdfrwt beam="2">  1       -1 0.24227831E-02 0.48993148E+03</pdfrwt>
<totfact> 0.22475527E+02</totfact>
</mgrwt>
</event>
<event>
 4    1  0.1578814E-005  0.6427444E+03  0.7818608E-02  0.9820490E-01
          1   -1    0    0  501    0  0.00000000000E+00  0.00000000000E+00  0.26618730432E+04  0.26618730432E+04  0.50400000000E-02 0. -1.
         -1   -1    0    0    0  501 -0.00000000000E+00 -0.00000000000E+00 -0.38799785584E+02  0.38799785912E+02  0.50400000000E-02 0.  1.
    5000001    1    1    2    0    0 -0.51295497153E+02  0.15165106228E+03  0.44728761081E+03  0.51092022812E+03  0.18800000000E+03 0.  0.
   -5000001    1    1    2    0    0  0.51295497153E+02 -0.15165106228E+03  0.21757856468E+04  0.21897526010E+04  0.18800000000E+03 0.  0.
<mgrwt>
<rscale>  0 0.64274444E+03</rscale>
<asrwt>0</asrwt>
<pdfrwt beam="1">  1        1 0.38026768E+00 0.64274444E+03</pdfrwt>
<pdfrwt beam="2">  1       -1 0.55428250E-02 0.64274444E+03</pdfrwt>
<totfact> 0.23641892E+02</totfact>
</mgrwt>
</event>
<event>
 4    1  0.1578814E-005  0.4451215E+03  0.7818608E-02  0.1029187E+00
          1   -1    0    0  501    0  0.00000000000E+00  0.00000000000E+00  0.24201964748E+02  0.24201965273E+02  0.50400000000E-02 0.  1.
         -1   -1    0    0    0  501 -0.00000000000E+00 -0.00000000000E+00 -0.20466638092E+04  0.20466638092E+04  0.50400000000E-02 0. -1.
    5000001    1    1    2    0    0 -0.98808799287E+02  0.65742850394E+02 -0.10586723928E+04  0.10817654720E+04  0.18800000000E+03 0.  0.
   -5000001    1    1    2    0    0  0.98808799287E+02 -0.65742850394E+02 -0.96378945168E+03  0.98910030248E+03  0.18800000000E+03 0.  0.
<mgrwt>
<rscale>  0 0.44512149E+03</rscale>
<asrwt>0</asrwt>
<pdfrwt beam="1">  1        1 0.34574249E-02 0.44512149E+03</pdfrwt>
<pdfrwt beam="2">  1       -1 0.29238044E+00 0.44512149E+03</pdfrwt>
<totfact> 0.11824107E+02</totfact>
</mgrwt>
</event>
<event>
 4    1  0.1578814E-005  0.4020041E+03  0.7818608E-02  0.1043088E+00
          1   -1    0    0  501    0  0.00000000000E+00  0.00000000000E+00  0.95109888121E+03  0.95109888122E+03  0.50400000000E-02 0.  1.
         -1   -1    0    0    0  501 -0.00000000000E+00 -0.00000000000E+00 -0.42479093017E+02  0.42479093316E+02  0.50400000000E-02 0. -1.
    5000001    1    1    2    0    0 -0.70982402603E+02  0.19592070532E+01  0.44458624452E+03  0.48789678088E+03  0.18800000000E+03 0.  0.
   -5000001    1    1    2    0    0  0.70982402603E+02 -0.19592070532E+01  0.46403354367E+03  0.50568119366E+03  0.18800000000E+03 0.  0.
<mgrwt>
<rscale>  0 0.40200407E+03</rscale>
<asrwt>0</asrwt>
<pdfrwt beam="1">  1        1 0.13587127E+00 0.40200407E+03</pdfrwt>
<pdfrwt beam="2">  1       -1 0.60684417E-02 0.40200407E+03</pdfrwt>
<totfact> 0.25955981E+03</totfact>
</mgrwt>
</event>
<event>
 4    1  0.1578814E-005  0.1016616E+04  0.7818608E-02  0.9290507E-01
         -1   -1    0    0    0  501 -0.00000000000E+00  0.00000000000E+00  0.24053015120E+03  0.24053015125E+03  0.50400000000E-02 0. -1.
          1   -1    0    0  501    0  0.00000000000E+00 -0.00000000000E+00 -0.10741970805E+04  0.10741970805E+04  0.50400000000E-02 0.  1.
    5000001    1    1    2    0    0  0.42007082573E+03 -0.70170006584E+02 -0.68076032573E+03  0.82471931561E+03  0.18800000000E+03 0.  0.
   -5000001    1    1    2    0    0 -0.42007082573E+03  0.70170006584E+02 -0.15290660355E+03  0.49000791613E+03  0.18800000000E+03 0.  0.
<mgrwt>
<rscale>  0 0.10166155E+04</rscale>
<asrwt>0</asrwt>
<pdfrwt beam="1">  1        1 0.15345672E+00 0.10166155E+04</pdfrwt>
<pdfrwt beam="2">  1       -1 0.34361451E-01 0.10166155E+04</pdfrwt>
<totfact> 0.12192582E+02</totfact>
</mgrwt>
</event>
<event>
 4    1  0.1578814E-005  0.4774421E+03  0.7818608E-02  0.1019841E+00
         -1   -1    0    0    0  501 -0.00000000000E+00  0.00000000000E+00  0.29031565219E+03  0.29031565224E+03  0.50400000000E-02 0. -1.
          1   -1    0    0  501    0  0.00000000000E+00 -0.00000000000E+00 -0.19629575392E+03  0.19629575398E+03  0.50400000000E-02 0.  1.
    5000001    1    1    2    0    0  0.11093170998E+03 -0.46730767724E+02  0.13321639666E+03  0.25996195351E+03  0.18800000000E+03 0.  0.
   -5000001    1    1    2    0    0 -0.11093170998E+03  0.46730767724E+02 -0.39196498388E+02  0.22664945272E+03  0.18800000000E+03 0.  0.
<mgrwt>
<rscale>  0 0.47744206E+03</rscale>
<asrwt>0</asrwt>
<pdfrwt beam="1">  1        1 0.28042251E-01 0.47744206E+03</pdfrwt>
<pdfrwt beam="2">  1       -1 0.41473665E-01 0.47744206E+03</pdfrwt>
<totfact> 0.95942472E+02</totfact>
</mgrwt>
</event>
<event>
 4    1  0.1578814E-005  0.4519678E+03  0.7818608E-02  0.1027137E+00
         -1   -1    0    0    0  501 -0.00000000000E+00  0.00000000000E+00  0.34299152126E+02  0.34299152496E+02  0.50400000000E-02 0.  1.
          1   -1    0    0  501    0  0.00000000000E+00 -0.00000000000E+00 -0.14889207133E+04  0.14889207133E+04  0.50400000000E-02 0. -1.
    5000001    1    1    2    0    0  0.86993387374E+02 -0.81660315080E+02 -0.85733491508E+03  0.88577842213E+03  0.18800000000E+03 0.  0.
   -5000001    1    1    2    0    0 -0.86993387374E+02  0.81660315080E+02 -0.59728664610E+03  0.63744144368E+03  0.18800000000E+03 0.  0.
<mgrwt>
<rscale>  0 0.45196778E+03</rscale>
<asrwt>0</asrwt>
<pdfrwt beam="1">  1        1 0.21270292E+00 0.45196778E+03</pdfrwt>
<pdfrwt beam="2">  1       -1 0.48998798E-02 0.45196778E+03</pdfrwt>
<totfact> 0.15487661E+03</totfact>
</mgrwt>
</event>
<event>
 4    1  0.1578814E-005  0.5201803E+03  0.7818608E-02  0.1008642E+00
         -1   -1    0    0    0  501 -0.00000000000E+00  0.00000000000E+00  0.16595275943E+03  0.16595275950E+03  0.50400000000E-02 0. -1.
          1   -1    0    0  501    0  0.00000000000E+00 -0.00000000000E+00 -0.40762729085E+03  0.40762729088E+03  0.50400000000E-02 0.  1.
    5000001    1    1    2    0    0 -0.15291697303E+03  0.94233297112E+02 -0.11391957221E+03  0.28387529632E+03  0.18800000000E+03 0.  0.
   -5000001    1    1    2    0    0  0.15291697303E+03 -0.94233297112E+02 -0.12775495920E+03  0.28970475406E+03  0.18800000000E+03 0.  0.
<mgrwt>
<rscale>  0 0.52018025E+03</rscale>
<asrwt>0</asrwt>
<pdfrwt beam="1">  1        1 0.58232470E-01 0.52018025E+03</pdfrwt>
<pdfrwt beam="2">  1       -1 0.23707537E-01 0.52018025E+03</pdfrwt>
<totfact> 0.99295236E+02</totfact>
</mgrwt>
</event>
<event>
 4    1  0.1578814E-005  0.7029410E+03  0.7818608E-02  0.9712216E-01
         -1   -1    0    0    0  501 -0.00000000000E+00  0.00000000000E+00  0.18555037429E+03  0.18555037436E+03  0.50400000000E-02 0. -1.
          1   -1    0    0  501    0  0.00000000000E+00 -0.00000000000E+00 -0.66575719421E+03  0.66575719423E+03  0.50400000000E-02 0.  1.
    5000001    1    1    2    0    0 -0.27656172583E+03  0.34252042580E+01 -0.37104069111E+03  0.49951307759E+03  0.18800000000E+03 0.  0.
   -5000001    1    1    2    0    0  0.27656172583E+03 -0.34252042580E+01 -0.10916612881E+03  0.35179449100E+03  0.18800000000E+03 0.  0.
<mgrwt>
<rscale>  0 0.70294096E+03</rscale>
<asrwt>0</asrwt>
<pdfrwt beam="1">  1        1 0.95108170E-01 0.70294096E+03</pdfrwt>
<pdfrwt beam="2">  1       -1 0.26507197E-01 0.70294096E+03</pdfrwt>
<totfact> 0.41897758E+02</totfact>
</mgrwt>
</event>
<event>
 4    1  0.1578814E-005  0.5124299E+03  0.7818608E-02  0.1010585E+00
          1   -1    0    0  501    0  0.00000000000E+00  0.00000000000E+00  0.20936133972E+04  0.20936133972E+04  0.50400000000E-02 0.  1.
         -1   -1    0    0    0  501 -0.00000000000E+00 -0.00000000000E+00 -0.31355406466E+02  0.31355406871E+02  0.50400000000E-02 0. -1.
    5000001    1    1    2    0    0 -0.14921102114E+03  0.88431013548E+02  0.96988375865E+03  0.10030465983E+04  0.18800000000E+03 0.  0.
   -5000001    1    1    2    0    0  0.14921102114E+03 -0.88431013548E+02  0.10923742321E+04  0.11219222058E+04  0.18800000000E+03 0.  0.
<mgrwt>
<rscale>  0 0.51242990E+03</rscale>
<asrwt>0</asrwt>
<pdfrwt beam="1">  1        1 0.29908769E+00 0.51242990E+03</pdfrwt>
<pdfrwt beam="2">  1       -1 0.44793429E-02 0.51242990E+03</pdfrwt>
<totfact> 0.74546439E+02</totfact>
</mgrwt>
</event>
<event>
 4    1  0.1578814E-005  0.4585765E+03  0.7818608E-02  0.1025195E+00
          1   -1    0    0  501    0  0.00000000000E+00  0.00000000000E+00  0.89311173299E+03  0.89311173300E+03  0.50400000000E-02 0.  1.
         -1   -1    0    0    0  501 -0.00000000000E+00 -0.00000000000E+00 -0.58865099308E+02  0.58865099524E+02  0.50400000000E-02 0. -1.
    5000001    1    1    2    0    0  0.13051567983E+03 -0.95961568264E+01  0.43815925209E+03  0.49442285455E+03  0.18800000000E+03 0.  0.
   -5000001    1    1    2    0    0 -0.13051567983E+03  0.95961568264E+01  0.39608738159E+03  0.45755397798E+03  0.18800000000E+03 0.  0.
<mgrwt>
<rscale>  0 0.45857654E+03</rscale>
<asrwt>0</asrwt>
<pdfrwt beam="1">  1        1 0.12758739E+00 0.45857654E+03</pdfrwt>
<pdfrwt beam="2">  1       -1 0.84092997E-02 0.45857654E+03</pdfrwt>
<totfact> 0.17392232E+03</totfact>
</mgrwt>
</event>
<event>
 4    1  0.1578814E-005  0.6212100E+03  0.7818608E-02  0.9862354E-01
          1   -1    0    0  501    0  0.00000000000E+00  0.00000000000E+00  0.36363368949E+02  0.36363369298E+02  0.50400000000E-02 0.  1.
         -1   -1    0    0    0  501 -0.00000000000E+00 -0.00000000000E+00 -0.26530945783E+04  0.26530945784E+04  0.50400000000E-02 0. -1.
    5000001    1    1    2    0    0 -0.19623512637E+03 -0.14649264947E+03 -0.14560183908E+04  0.14883890202E+04  0.18800000000E+03 0.  0.
   -5000001    1    1    2    0    0  0.19623512637E+03  0.14649264947E+03 -0.11607128186E+04  0.12010689274E+04  0.18800000000E+03 0.  0.
<mgrwt>
<rscale>  0 0.62120997E+03</rscale>
<asrwt>0</asrwt>
<pdfrwt beam="1">  1        1 0.51947687E-02 0.62120997E+03</pdfrwt>
<pdfrwt beam="2">  1       -1 0.37901339E+00 0.62120997E+03</pdfrwt>
<totfact> 0.17950018E+01</totfact>
</mgrwt>
</event>
<event>
 4    1  0.1578814E-005  0.4134344E+03  0.7818608E-02  0.1039225E+00
          1   -1    0    0  501    0  0.00000000000E+00  0.00000000000E+00  0.58271115796E+02  0.58271116014E+02  0.50400000000E-02 0.  1.
         -1   -1    0    0    0  501 -0.00000000000E+00 -0.00000000000E+00 -0.73333086911E+03  0.73333086913E+03  0.50400000000E-02 0. -1.
    5000001    1    1    2    0    0  0.12885565120E+02  0.83275286103E+02 -0.36997804543E+03  0.42347203587E+03  0.18800000000E+03 0.  0.
   -5000001    1    1    2    0    0 -0.12885565120E+02 -0.83275286103E+02 -0.30508170788E+03  0.36812994927E+03  0.18800000000E+03 0.  0.
<mgrwt>
<rscale>  0 0.41343444E+03</rscale>
<asrwt>0</asrwt>
<pdfrwt beam="1">  1        1 0.83244456E-02 0.41343444E+03</pdfrwt>
<pdfrwt beam="2">  1       -1 0.10476155E+00 0.41343444E+03</pdfrwt>
<totfact> 0.74911512E+02</totfact>
</mgrwt>
</event>
<event>
 4    1  0.1578814E-005  0.3996125E+03  0.7818608E-02  0.1043914E+00
         -1   -1    0    0    0  501 -0.00000000000E+00  0.00000000000E+00  0.65737408879E+02  0.65737409073E+02  0.50400000000E-02 0.  1.
          1   -1    0    0  501    0  0.00000000000E+00 -0.00000000000E+00 -0.60730326602E+03  0.60730326604E+03  0.50400000000E-02 0. -1.
    5000001    1    1    2    0    0 -0.20340011011E+02  0.63973304601E+02 -0.28509826005E+03  0.34803924726E+03  0.18800000000E+03 0.  0.
   -5000001    1    1    2    0    0  0.20340011011E+02 -0.63973304601E+02 -0.25646759709E+03  0.32500142786E+03  0.18800000000E+03 0.  0.
<mgrwt>
<rscale>  0 0.39961253E+03</rscale>
<asrwt>0</asrwt>
<pdfrwt beam="1">  1        1 0.86757606E-01 0.39961253E+03</pdfrwt>
<pdfrwt beam="2">  1       -1 0.93910588E-02 0.39961253E+03</pdfrwt>
<totfact> 0.25893565E+03</totfact>
</mgrwt>
</event>
<event>
 4    1  0.1578814E-005  0.5939121E+03  0.7818608E-02  0.9918118E-01
         -1   -1    0    0    0  501 -0.00000000000E+00  0.00000000000E+00  0.60501031175E+03  0.60501031177E+03  0.50400000000E-02 0.  1.
          1   -1    0    0  501    0  0.00000000000E+00 -0.00000000000E+00 -0.14575438015E+03  0.14575438024E+03  0.50400000000E-02 0. -1.
    5000001    1    1    2    0    0 -0.67108406232E+02 -0.21073011716E+03  0.30885574436E+03  0.42384736792E+03  0.18800000000E+03 0.  0.
   -5000001    1    1    2    0    0  0.67108406232E+02  0.21073011716E+03  0.15040018724E+03  0.32691732409E+03  0.18800000000E+03 0.  0.
<mgrwt>
<rscale>  0 0.59391212E+03</rscale>
<asrwt>0</asrwt>
<pdfrwt beam="1">  1        1 0.20822054E-01 0.59391212E+03</pdfrwt>
<pdfrwt beam="2">  1       -1 0.86430044E-01 0.59391212E+03</pdfrwt>
<totfact> 0.33305367E+02</totfact>
</mgrwt>
</event>
<event>
 4    1  0.1578814E-005  0.5505153E+03  0.7818608E-02  0.1001375E+00
         -1   -1    0    0    0  501 -0.00000000000E+00  0.00000000000E+00  0.12666426376E+03  0.12666426386E+03  0.50400000000E-02 0.  1.
          1   -1    0    0  501    0  0.00000000000E+00 -0.00000000000E+00 -0.59817013632E+03  0.59817013634E+03  0.50400000000E-02 0. -1.
    5000001    1    1    2    0    0 -0.17109419848E+03 -0.79499932349E+01 -0.37438501442E+03  0.45259757641E+03  0.18800000000E+03 0.  0.
   -5000001    1    1    2    0    0  0.17109419848E+03  0.79499932349E+01 -0.97120858136E+02  0.27223682380E+03  0.18800000000E+03 0.  0.
<mgrwt>
<rscale>  0 0.55051532E+03</rscale>
<asrwt>0</asrwt>
<pdfrwt beam="1">  1        1 0.85452875E-01 0.55051532E+03</pdfrwt>
<pdfrwt beam="2">  1       -1 0.18094895E-01 0.55051532E+03</pdfrwt>
<totfact> 0.92892688E+02</totfact>
</mgrwt>
</event>
<event>
 4    1  0.1578814E-005  0.5172581E+03  0.7818608E-02  0.1009370E+00
          1   -1    0    0  501    0  0.00000000000E+00  0.00000000000E+00  0.23129754418E+03  0.23129754424E+03  0.50400000000E-02 0.  1.
         -1   -1    0    0    0  501 -0.00000000000E+00 -0.00000000000E+00 -0.28919020955E+03  0.28919020959E+03  0.50400000000E-02 0. -1.
    5000001    1    1    2    0    0  0.14847023321E+03  0.44469891347E+02  0.58336276939E+02  0.25053563138E+03  0.18800000000E+03 0.  0.
   -5000001    1    1    2    0    0 -0.14847023321E+03 -0.44469891347E+02 -0.11622894230E+03  0.26995212245E+03  0.18800000000E+03 0.  0.
<mgrwt>
<rscale>  0 0.51725810E+03</rscale>
<asrwt>0</asrwt>
<pdfrwt beam="1">  1        1 0.33042506E-01 0.51725810E+03</pdfrwt>
<pdfrwt beam="2">  1       -1 0.41312887E-01 0.51725810E+03</pdfrwt>
<totfact> 0.78227266E+02</totfact>
</mgrwt>
</event>
<event>
 4    1  0.1578814E-005  0.5755263E+03  0.7818608E-02  0.9957524E-01
         -1   -1    0    0    0  501 -0.00000000000E+00  0.00000000000E+00  0.64282288554E+03  0.64282288556E+03  0.50400000000E-02 0. -1.
          1   -1    0    0  501    0  0.00000000000E+00 -0.00000000000E+00 -0.12881874490E+03  0.12881874500E+03  0.50400000000E-02 0.  1.
    5000001    1    1    2    0    0  0.15528309573E+03  0.10354524502E+03  0.40767597053E+03  0.48618736567E+03  0.18800000000E+03 0.  0.
   -5000001    1    1    2    0    0 -0.15528309573E+03 -0.10354524502E+03  0.10632817011E+03  0.28545426489E+03  0.18800000000E+03 0.  0.
<mgrwt>
<rscale>  0 0.57552632E+03</rscale>
<asrwt>0</asrwt>
<pdfrwt beam="1">  1        1 0.18402678E-01 0.57552632E+03</pdfrwt>
<pdfrwt beam="2">  1       -1 0.91831840E-01 0.57552632E+03</pdfrwt>
<totfact> 0.34366885E+02</totfact>
</mgrwt>
</event>
<event>
 4    1  0.1578814E-005  0.4756502E+03  0.7818608E-02  0.1020338E+00
          1   -1    0    0  501    0  0.00000000000E+00  0.00000000000E+00  0.96049795327E+02  0.96049795459E+02  0.50400000000E-02 0.  1.
         -1   -1    0    0    0  501 -0.00000000000E+00 -0.00000000000E+00 -0.58886924578E+03  0.58886924580E+03  0.50400000000E-02 0. -1.
    5000001    1    1    2    0    0 -0.14883283514E+02  0.14185014242E+03 -0.28897510379E+03  0.37308656588E+03  0.18800000000E+03 0.  0.
   -5000001    1    1    2    0    0  0.14883283514E+02 -0.14185014242E+03 -0.20384434666E+03  0.31183247538E+03  0.18800000000E+03 0.  0.
<mgrwt>
<rscale>  0 0.47565017E+03</rscale>
<asrwt>0</asrwt>
<pdfrwt beam="1">  1        1 0.13721400E-01 0.47565017E+03</pdfrwt>
<pdfrwt beam="2">  1       -1 0.84124176E-01 0.47565017E+03</pdfrwt>
<totfact> 0.61617410E+02</totfact>
</mgrwt>
</event>
<event>
 4    1  0.1578814E-005  0.6169435E+03  0.7818608E-02  0.9870864E-01
          1   -1    0    0  501    0  0.00000000000E+00  0.00000000000E+00  0.50990416903E+03  0.50990416906E+03  0.50400000000E-02 0.  1.
         -1   -1    0    0    0  501 -0.00000000000E+00 -0.00000000000E+00 -0.18661316831E+03  0.18661316838E+03  0.50400000000E-02 0. -1.
    5000001    1    1    2    0    0  0.19537406846E+03  0.10366377572E+03  0.27948008405E+03  0.40295201005E+03  0.18800000000E+03 0.  0.
   -5000001    1    1    2    0    0 -0.19537406846E+03 -0.10366377572E+03  0.43810916667E+02  0.29356532739E+03  0.18800000000E+03 0.  0.
<mgrwt>
<rscale>  0 0.61694354E+03</rscale>
<asrwt>0</asrwt>
<pdfrwt beam="1">  1        1 0.72843452E-01 0.61694354E+03</pdfrwt>
<pdfrwt beam="2">  1       -1 0.26659024E-01 0.61694354E+03</pdfrwt>
<totfact> 0.60372170E+02</totfact>
</mgrwt>
</event>
<event>
 4    1  0.1578814E-005  0.8239099E+03  0.7818608E-02  0.9526039E-01
          1   -1    0    0  501    0  0.00000000000E+00  0.00000000000E+00  0.34805527564E+03  0.34805527568E+03  0.50400000000E-02 0.  1.
         -1   -1    0    0    0  501 -0.00000000000E+00 -0.00000000000E+00 -0.48758596979E+03  0.48758596982E+03  0.50400000000E-02 0. -1.
    5000001    1    1    2    0    0  0.30609486077E+02  0.35965902495E+03 -0.50499716084E+01  0.40701481187E+03  0.18800000000E+03 0.  0.
   -5000001    1    1    2    0    0 -0.30609486077E+02 -0.35965902495E+03 -0.13448072254E+03  0.42862643363E+03  0.18800000000E+03 0.  0.
<mgrwt>
<rscale>  0 0.82390987E+03</rscale>
<asrwt>0</asrwt>
<pdfrwt beam="1">  1        1 0.49722183E-01 0.82390987E+03</pdfrwt>
<pdfrwt beam="2">  1       -1 0.69655138E-01 0.82390987E+03</pdfrwt>
<totfact> 0.16753069E+02</totfact>
</mgrwt>
</event>
<event>
 4    1  0.1578814E-005  0.5785451E+03  0.7818608E-02  0.9950946E-01
         -1   -1    0    0    0  501 -0.00000000000E+00  0.00000000000E+00  0.10274498483E+03  0.10274498496E+03  0.50400000000E-02 0.  1.
          1   -1    0    0  501    0  0.00000000000E+00 -0.00000000000E+00 -0.81442998163E+03  0.81442998164E+03  0.50400000000E-02 0. -1.
    5000001    1    1    2    0    0  0.17802557681E+03  0.16278575258E+02 -0.15296890370E+03  0.30116703590E+03  0.18800000000E+03 0.  0.
   -5000001    1    1    2    0    0 -0.17802557681E+03 -0.16278575258E+02 -0.55871609309E+03  0.61600793070E+03  0.18800000000E+03 0.  0.
<mgrwt>
<rscale>  0 0.57854506E+03</rscale>
<asrwt>0</asrwt>
<pdfrwt beam="1">  1        1 0.11634714E+00 0.57854506E+03</pdfrwt>
<pdfrwt beam="2">  1       -1 0.14677855E-01 0.57854506E+03</pdfrwt>
<totfact> 0.83087849E+02</totfact>
</mgrwt>
</event>
<event>
 4    1  0.1578814E-005  0.4326648E+03  0.7818608E-02  0.1033021E+00
         -1   -1    0    0    0  501 -0.00000000000E+00  0.00000000000E+00  0.37887852832E+02  0.37887853167E+02  0.50400000000E-02 0. -1.
          1   -1    0    0  501    0  0.00000000000E+00 -0.00000000000E+00 -0.12352164717E+04  0.12352164717E+04  0.50400000000E-02 0.  1.
    5000001    1    1    2    0    0  0.26969810183E+02 -0.10300130000E+03 -0.56655740687E+03  0.60635627624E+03  0.18800000000E+03 0.  0.
   -5000001    1    1    2    0    0 -0.26969810183E+02  0.10300130000E+03 -0.63077121196E+03  0.66674804859E+03  0.18800000000E+03 0.  0.
<mgrwt>
<rscale>  0 0.43266477E+03</rscale>
<asrwt>0</asrwt>
<pdfrwt beam="1">  1        1 0.17645947E+00 0.43266477E+03</pdfrwt>
<pdfrwt beam="2">  1       -1 0.54125512E-02 0.43266477E+03</pdfrwt>
<totfact> 0.19490627E+03</totfact>
</mgrwt>
</event>
<event>
 4    1  0.1578814E-005  0.1420516E+04  0.7818608E-02  0.8939100E-01
         -1   -1    0    0    0  501 -0.00000000000E+00  0.00000000000E+00  0.60705273769E+03  0.60705273771E+03  0.50400000000E-02 0. -1.
          1   -1    0    0  501    0  0.00000000000E+00 -0.00000000000E+00 -0.83100922161E+03  0.83100922163E+03  0.50400000000E-02 0.  1.
    5000001    1    1    2    0    0 -0.65924718693E+03  0.18373562986E+03 -0.13982781608E+03  0.72336813125E+03  0.18800000000E+03 0.  0.
   -5000001    1    1    2    0    0  0.65924718693E+03 -0.18373562986E+03 -0.84128667836E+02  0.71469382809E+03  0.18800000000E+03 0.  0.
<mgrwt>
<rscale>  0 0.14205160E+04</rscale>
<asrwt>0</asrwt>
<pdfrwt beam="1">  1        1 0.11871560E+00 0.14205160E+04</pdfrwt>
<pdfrwt beam="2">  1       -1 0.86721821E-01 0.14205160E+04</pdfrwt>
<totfact> 0.29958707E+01</totfact>
</mgrwt>
</event>
<event>
 4    1  0.1578814E-005  0.7165092E+03  0.7818608E-02  0.9689408E-01
          1   -1    0    0  501    0  0.00000000000E+00  0.00000000000E+00  0.11716092090E+04  0.11716092091E+04  0.50400000000E-02 0.  1.
         -1   -1    0    0    0  501 -0.00000000000E+00 -0.00000000000E+00 -0.10954708397E+03  0.10954708409E+03  0.50400000000E-02 0. -1.
    5000001    1    1    2    0    0 -0.22489994739E+03 -0.20427077993E+03  0.57819752820E+03  0.67967854128E+03  0.18800000000E+03 0.  0.
   -5000001    1    1    2    0    0  0.22489994739E+03  0.20427077993E+03  0.48386459687E+03  0.60147775185E+03  0.18800000000E+03 0.  0.
<mgrwt>
<rscale>  0 0.71650924E+03</rscale>
<asrwt>0</asrwt>
<pdfrwt beam="1">  1        1 0.16737275E+00 0.71650924E+03</pdfrwt>
<pdfrwt beam="2">  1       -1 0.15649583E-01 0.71650924E+03</pdfrwt>
<totfact> 0.40225575E+02</totfact>
</mgrwt>
</event>
<event>
 4    1  0.1578814E-005  0.8160077E+03  0.7818608E-02  0.9537131E-01
         -1   -1    0    0    0  501 -0.00000000000E+00  0.00000000000E+00  0.18062133820E+03  0.18062133827E+03  0.50400000000E-02 0. -1.
          1   -1    0    0  501    0  0.00000000000E+00 -0.00000000000E+00 -0.92163616113E+03  0.92163616114E+03  0.50400000000E-02 0.  1.
    5000001    1    1    2    0    0 -0.21909945692E+03 -0.28610216627E+03 -0.32248040087E+03  0.51884162373E+03  0.18800000000E+03 0.  0.
   -5000001    1    1    2    0    0  0.21909945692E+03  0.28610216627E+03 -0.41853442205E+03  0.58341587569E+03  0.18800000000E+03 0.  0.
<mgrwt>
<rscale>  0 0.81600774E+03</rscale>
<asrwt>0</asrwt>
<pdfrwt beam="1">  1        1 0.13166231E+00 0.81600774E+03</pdfrwt>
<pdfrwt beam="2">  1       -1 0.25803049E-01 0.81600774E+03</pdfrwt>
<totfact> 0.26468152E+02</totfact>
</mgrwt>
</event>
<event>
 4    1  0.1578814E-005  0.7496711E+03  0.7818608E-02  0.9635866E-01
          1   -1    0    0  501    0  0.00000000000E+00  0.00000000000E+00  0.56763833157E+03  0.56763833159E+03  0.50400000000E-02 0.  1.
         -1   -1    0    0    0  501 -0.00000000000E+00 -0.00000000000E+00 -0.24751973448E+03  0.24751973453E+03  0.50400000000E-02 0. -1.
    5000001    1    1    2    0    0  0.89260303044E+02  0.29567994803E+03  0.52616504976E+02  0.36538545396E+03  0.18800000000E+03 0.  0.
   -5000001    1    1    2    0    0 -0.89260303044E+02 -0.29567994803E+03  0.26750209212E+03  0.44977261217E+03  0.18800000000E+03 0.  0.
<mgrwt>
<rscale>  0 0.74967110E+03</rscale>
<asrwt>0</asrwt>
<pdfrwt beam="1">  1        1 0.81091190E-01 0.74967110E+03</pdfrwt>
<pdfrwt beam="2">  1       -1 0.35359962E-01 0.74967110E+03</pdfrwt>
<totfact> 0.31687530E+02</totfact>
</mgrwt>
</event>
<event>
 4    1  0.1578814E-005  0.1164709E+04  0.7818608E-02  0.9144320E-01
          1   -1    0    0  501    0  0.00000000000E+00  0.00000000000E+00  0.22374882368E+04  0.22374882368E+04  0.50400000000E-02 0.  1.
         -1   -1    0    0    0  501 -0.00000000000E+00 -0.00000000000E+00 -0.15157031603E+03  0.15157031611E+03  0.50400000000E-02 0. -1.
    5000001    1    1    2    0    0 -0.15012955412E+03 -0.39304805660E+03  0.17732781100E+04  0.18321803714E+04  0.18800000000E+03 0.  0.
   -5000001    1    1    2    0    0  0.15012955412E+03  0.39304805660E+03  0.31263981081E+03  0.55687818158E+03  0.18800000000E+03 0.  0.
<mgrwt>
<rscale>  0 0.11647091E+04</rscale>
<asrwt>0</asrwt>
<pdfrwt beam="1">  1        1 0.31964118E+00 0.11647091E+04</pdfrwt>
<pdfrwt beam="2">  1       -1 0.21652902E-01 0.11647091E+04</pdfrwt>
<totfact> 0.46999848E+01</totfact>
</mgrwt>
</event>
<event>
 4    1  0.1578814E-005  0.5860539E+03  0.7818608E-02  0.9934770E-01
         -1   -1    0    0    0  501 -0.00000000000E+00  0.00000000000E+00  0.13185280000E+03  0.13185280010E+03  0.50400000000E-02 0. -1.
          1   -1    0    0  501    0  0.00000000000E+00 -0.00000000000E+00 -0.65121708453E+03  0.65121708455E+03  0.50400000000E-02 0.  1.
    5000001    1    1    2    0    0 -0.20655877679E+03  0.63337780036E+02 -0.17685452437E+03  0.33660024575E+03  0.18800000000E+03 0.  0.
   -5000001    1    1    2    0    0  0.20655877679E+03 -0.63337780036E+02 -0.34250976017E+03  0.44646963890E+03  0.18800000000E+03 0.  0.
<mgrwt>
<rscale>  0 0.58605391E+03</rscale>
<asrwt>0</asrwt>
<pdfrwt beam="1">  1        1 0.93031010E-01 0.58605391E+03</pdfrwt>
<pdfrwt beam="2">  1       -1 0.18836115E-01 0.58605391E+03</pdfrwt>
<totfact> 0.77066399E+02</totfact>
</mgrwt>
</event>
<event>
 4    1  0.1578814E-005  0.6744317E+03  0.7818608E-02  0.9761985E-01
          1   -1    0    0  501    0  0.00000000000E+00  0.00000000000E+00  0.90979691122E+03  0.90979691124E+03  0.50400000000E-02 0.  1.
         -1   -1    0    0    0  501 -0.00000000000E+00 -0.00000000000E+00 -0.12498891434E+03  0.12498891444E+03  0.50400000000E-02 0. -1.
    5000001    1    1    2    0    0  0.24025958987E+03  0.86314122887E+02  0.21615396514E+03  0.38372038645E+03  0.18800000000E+03 0.  0.
   -5000001    1    1    2    0    0 -0.24025958987E+03 -0.86314122887E+02  0.56865403174E+03  0.65106543922E+03  0.18800000000E+03 0.  0.
<mgrwt>
<rscale>  0 0.67443170E+03</rscale>
<asrwt>0</asrwt>
<pdfrwt beam="1">  1        1 0.12997098E+00 0.67443170E+03</pdfrwt>
<pdfrwt beam="2">  1       -1 0.17855561E-01 0.67443170E+03</pdfrwt>
<totfact> 0.50473439E+02</totfact>
</mgrwt>
</event>
<event>
 4    1  0.1578814E-005  0.7802989E+03  0.7818608E-02  0.9588980E-01
          1   -1    0    0  501    0  0.00000000000E+00  0.00000000000E+00  0.70386684669E+02  0.70386684849E+02  0.50400000000E-02 0.  1.
         -1   -1    0    0    0  501 -0.00000000000E+00 -0.00000000000E+00 -0.21625763712E+04  0.21625763712E+04  0.50400000000E-02 0. -1.
    5000001    1    1    2    0    0  0.31726598635E+03 -0.13290254205E+02 -0.68368584397E+03  0.77691998957E+03  0.18800000000E+03 0.  0.
   -5000001    1    1    2    0    0 -0.31726598635E+03  0.13290254205E+02 -0.14085038426E+04  0.14560430665E+04  0.18800000000E+03 0.  0.
<mgrwt>
<rscale>  0 0.78029887E+03</rscale>
<asrwt>0</asrwt>
<pdfrwt beam="1">  1        1 0.10055242E-01 0.78029887E+03</pdfrwt>
<pdfrwt beam="2">  1       -1 0.30893944E+00 0.78029887E+03</pdfrwt>
<totfact> 0.20028099E+01</totfact>
</mgrwt>
</event>
<event>
 4    1  0.1578814E-005  0.4284686E+03  0.7818608E-02  0.1034345E+00
         -1   -1    0    0    0  501 -0.00000000000E+00  0.00000000000E+00  0.24268733749E+03  0.24268733754E+03  0.50400000000E-02 0.  1.
          1   -1    0    0  501    0  0.00000000000E+00 -0.00000000000E+00 -0.18911712454E+03  0.18911712461E+03  0.50400000000E-02 0. -1.
    5000001    1    1    2    0    0 -0.61677311611E+01 -0.91237524072E+02 -0.20376726064E+02  0.21005127391E+03  0.18800000000E+03 0.  0.
   -5000001    1    1    2    0    0  0.61677311611E+01  0.91237524072E+02  0.73946939009E+02  0.22175318824E+03  0.18800000000E+03 0.  0.
<mgrwt>
<rscale>  0 0.42846858E+03</rscale>
<asrwt>0</asrwt>
<pdfrwt beam="1">  1        1 0.27016732E-01 0.42846858E+03</pdfrwt>
<pdfrwt beam="2">  1       -1 0.34669620E-01 0.42846858E+03</pdfrwt>
<totfact> 0.13851380E+03</totfact>
</mgrwt>
</event>
<event>
 4    1  0.1578814E-005  0.5570415E+03  0.7818608E-02  0.9998771E-01
          1   -1    0    0  501    0  0.00000000000E+00  0.00000000000E+00  0.48555938791E+03  0.48555938794E+03  0.50400000000E-02 0. -1.
         -1   -1    0    0    0  501 -0.00000000000E+00 -0.00000000000E+00 -0.15976172980E+03  0.15976172988E+03  0.50400000000E-02 0.  1.
    5000001    1    1    2    0    0 -0.12138735320E+03 -0.10034561395E+03  0.31582546830E+03  0.39986730072E+03  0.18800000000E+03 0.  0.
   -5000001    1    1    2    0    0  0.12138735320E+03  0.10034561395E+03  0.99721898148E+01  0.24545381710E+03  0.18800000000E+03 0.  0.
<mgrwt>
<rscale>  0 0.55704150E+03</rscale>
<asrwt>0</asrwt>
<pdfrwt beam="1">  1        1 0.69365626E-01 0.55704150E+03</pdfrwt>
<pdfrwt beam="2">  1       -1 0.22823105E-01 0.55704150E+03</pdfrwt>
<totfact> 0.83991770E+02</totfact>
</mgrwt>
</event>
<event>
 4    1  0.1578814E-005  0.6502419E+03  0.7818608E-02  0.9806325E-01
          1   -1    0    0  501    0  0.00000000000E+00  0.00000000000E+00  0.31093288493E+03  0.31093288497E+03  0.50400000000E-02 0.  1.
         -1   -1    0    0    0  501 -0.00000000000E+00 -0.00000000000E+00 -0.33995642828E+03  0.33995642832E+03  0.50400000000E-02 0. -1.
    5000001    1    1    2    0    0 -0.12791373299E+03  0.19148177916E+03 -0.14629556924E+03  0.33132097491E+03  0.18800000000E+03 0.  0.
   -5000001    1    1    2    0    0  0.12791373299E+03 -0.19148177916E+03  0.11727202589E+03  0.31956833838E+03  0.18800000000E+03 0.  0.
<mgrwt>
<rscale>  0 0.65024190E+03</rscale>
<asrwt>0</asrwt>
<pdfrwt beam="1">  1        1 0.44418984E-01 0.65024190E+03</pdfrwt>
<pdfrwt beam="2">  1       -1 0.48565204E-01 0.65024190E+03</pdfrwt>
<totfact> 0.39555508E+02</totfact>
</mgrwt>
</event>
<event>
 4    1  0.1578814E-005  0.6791824E+03  0.7818608E-02  0.9753511E-01
          1   -1    0    0  501    0  0.00000000000E+00  0.00000000000E+00  0.28858269555E+03  0.28858269559E+03  0.50400000000E-02 0.  1.
         -1   -1    0    0    0  501 -0.00000000000E+00 -0.00000000000E+00 -0.39961573172E+03  0.39961573175E+03  0.50400000000E-02 0. -1.
    5000001    1    1    2    0    0  0.22362167568E+02  0.85894521391E+02  0.21656286447E+03  0.30020228115E+03  0.18800000000E+03 0.  0.
   -5000001    1    1    2    0    0 -0.22362167568E+02 -0.85894521391E+02 -0.32759590063E+03  0.38799614619E+03  0.18800000000E+03 0.  0.
<mgrwt>
<rscale>  0 0.67918241E+03</rscale>
<asrwt>0</asrwt>
<pdfrwt beam="1">  1        1 0.41226099E-01 0.67918241E+03</pdfrwt>
<pdfrwt beam="2">  1       -1 0.57087962E-01 0.67918241E+03</pdfrwt>
<totfact> 0.31953454E+02</totfact>
</mgrwt>
</event>
<event>
 4    1  0.1578814E-005  0.4022146E+03  0.7818608E-02  0.1043016E+00
         -1   -1    0    0    0  501 -0.00000000000E+00  0.00000000000E+00  0.14277528145E+03  0.14277528154E+03  0.50400000000E-02 0.  1.
          1   -1    0    0  501    0  0.00000000000E+00 -0.00000000000E+00 -0.28327140090E+03  0.28327140095E+03  0.50400000000E-02 0. -1.
    5000001    1    1    2    0    0 -0.47439729064E+02  0.53215049283E+02 -0.74715122216E+02  0.21449643086E+03  0.18800000000E+03 0.  0.
   -5000001    1    1    2    0    0  0.47439729064E+02 -0.53215049283E+02 -0.65780997240E+02  0.21155025162E+03  0.18800000000E+03 0.  0.
<mgrwt>
<rscale>  0 0.40221464E+03</rscale>
<asrwt>0</asrwt>
<pdfrwt beam="1">  1        1 0.40467343E-01 0.40221464E+03</pdfrwt>
<pdfrwt beam="2">  1       -1 0.20396469E-01 0.40221464E+03</pdfrwt>
<totfact> 0.20332060E+03</totfact>
</mgrwt>
</event>
<event>
 4    1  0.1578814E-005  0.4724826E+03  0.7818608E-02  0.1021222E+00
          1   -1    0    0  501    0  0.00000000000E+00  0.00000000000E+00  0.13480269366E+03  0.13480269375E+03  0.50400000000E-02 0.  1.
         -1   -1    0    0    0  501 -0.00000000000E+00 -0.00000000000E+00 -0.41401212709E+03  0.41401212712E+03  0.50400000000E-02 0. -1.
    5000001    1    1    2    0    0 -0.41684216626E+01  0.13947190481E+03 -0.17626577566E+03  0.29305871705E+03  0.18800000000E+03 0.  0.
   -5000001    1    1    2    0    0  0.41684216626E+01 -0.13947190481E+03 -0.10294365778E+03  0.25575610383E+03  0.18800000000E+03 0.  0.
<mgrwt>
<rscale>  0 0.47248259E+03</rscale>
<asrwt>0</asrwt>
<pdfrwt beam="1">  1        1 0.19257528E-01 0.47248259E+03</pdfrwt>
<pdfrwt beam="2">  1       -1 0.59144589E-01 0.47248259E+03</pdfrwt>
<totfact> 0.80418704E+02</totfact>
</mgrwt>
</event>
<event>
 4    1  0.1578814E-005  0.6250883E+03  0.7818608E-02  0.9854681E-01
         -1   -1    0    0    0  501 -0.00000000000E+00  0.00000000000E+00  0.15648860012E+03  0.15648860020E+03  0.50400000000E-02 0. -1.
          1   -1    0    0  501    0  0.00000000000E+00 -0.00000000000E+00 -0.62422347302E+03  0.62422347304E+03  0.50400000000E-02 0.  1.
    5000001    1    1    2    0    0  0.23311599961E+03  0.83535810059E+02 -0.27372787702E+03  0.41423695091E+03  0.18800000000E+03 0.  0.
   -5000001    1    1    2    0    0 -0.23311599961E+03 -0.83535810059E+02 -0.19400699588E+03  0.36647512233E+03  0.18800000000E+03 0.  0.
<mgrwt>
<rscale>  0 0.62508834E+03</rscale>
<asrwt>0</asrwt>
<pdfrwt beam="1">  1        1 0.89174781E-01 0.62508834E+03</pdfrwt>
<pdfrwt beam="2">  1       -1 0.22355515E-01 0.62508834E+03</pdfrwt>
<totfact> 0.61494426E+02</totfact>
</mgrwt>
</event>
<event>
 4    1  0.1578814E-005  0.6753846E+03  0.7818608E-02  0.9760279E-01
          1   -1    0    0  501    0  0.00000000000E+00  0.00000000000E+00  0.24348676344E+03  0.24348676349E+03  0.50400000000E-02 0.  1.
         -1   -1    0    0    0  501 -0.00000000000E+00 -0.00000000000E+00 -0.46834613952E+03  0.46834613954E+03  0.50400000000E-02 0. -1.
    5000001    1    1    2    0    0  0.25499925807E+03  0.23739726709E+01  0.10761976727E+02  0.31700169953E+03  0.18800000000E+03 0.  0.
   -5000001    1    1    2    0    0 -0.25499925807E+03 -0.23739726709E+01 -0.23562135280E+03  0.39483120350E+03  0.18800000000E+03 0.  0.
<mgrwt>
<rscale>  0 0.67538459E+03</rscale>
<asrwt>0</asrwt>
<pdfrwt beam="1">  1        1 0.34783823E-01 0.67538459E+03</pdfrwt>
<pdfrwt beam="2">  1       -1 0.66906591E-01 0.67538459E+03</pdfrwt>
<totfact> 0.29060900E+02</totfact>
</mgrwt>
</event>
<event>
 4    1  0.1578814E-005  0.4957875E+03  0.7818608E-02  0.1014884E+00
         -1   -1    0    0    0  501 -0.00000000000E+00  0.00000000000E+00  0.54090185128E+03  0.54090185130E+03  0.50400000000E-02 0. -1.
          1   -1    0    0  501    0  0.00000000000E+00 -0.00000000000E+00 -0.11360900712E+03  0.11360900723E+03  0.50400000000E-02 0.  1.
    5000001    1    1    2    0    0  0.11435787971E+03  0.11320159671E+03  0.23300335765E+03  0.33989246951E+03  0.18800000000E+03 0.  0.
   -5000001    1    1    2    0    0 -0.11435787971E+03 -0.11320159671E+03  0.19428948650E+03  0.31461838903E+03  0.18800000000E+03 0.  0.
<mgrwt>
<rscale>  0 0.49578754E+03</rscale>
<asrwt>0</asrwt>
<pdfrwt beam="1">  1        1 0.16229858E-01 0.49578754E+03</pdfrwt>
<pdfrwt beam="2">  1       -1 0.77271694E-01 0.49578754E+03</pdfrwt>
<totfact> 0.58878327E+02</totfact>
</mgrwt>
</event>
<event>
 4    1  0.1578814E-005  0.5243426E+03  0.7818608E-02  0.1007613E+00
          1   -1    0    0  501    0  0.00000000000E+00  0.00000000000E+00  0.29572374468E+04  0.29572374468E+04  0.50400000000E-02 0.  1.
         -1   -1    0    0    0  501 -0.00000000000E+00 -0.00000000000E+00 -0.23242567880E+02  0.23242568426E+02  0.50400000000E-02 0. -1.
    5000001    1    1    2    0    0 -0.13637644358E+03 -0.74857048398E+02  0.20118437495E+04  0.20265886076E+04  0.18800000000E+03 0.  0.
   -5000001    1    1    2    0    0  0.13637644358E+03  0.74857048398E+02  0.92215112946E+03  0.95389140767E+03  0.18800000000E+03 0.  0.
<mgrwt>
<rscale>  0 0.52434261E+03</rscale>
<asrwt>0</asrwt>
<pdfrwt beam="1">  1        1 0.42246214E+00 0.52434261E+03</pdfrwt>
<pdfrwt beam="2">  1       -1 0.33203696E-02 0.52434261E+03</pdfrwt>
<totfact> 0.33859969E+02</totfact>
</mgrwt>
</event>
<event>
 4    1  0.1578814E-005  0.5297983E+03  0.7818608E-02  0.1006281E+00
         -1   -1    0    0    0  501 -0.00000000000E+00  0.00000000000E+00  0.57861190927E+02  0.57861191146E+02  0.50400000000E-02 0. -1.
          1   -1    0    0  501    0  0.00000000000E+00 -0.00000000000E+00 -0.12127566963E+04  0.12127566963E+04  0.50400000000E-02 0.  1.
    5000001    1    1    2    0    0  0.13293671852E+03 -0.11171130065E+03 -0.41344924822E+03  0.48624671380E+03  0.18800000000E+03 0.  0.
   -5000001    1    1    2    0    0 -0.13293671852E+03  0.11171130065E+03 -0.74144625718E+03  0.78437117369E+03  0.18800000000E+03 0.  0.
<mgrwt>
<rscale>  0 0.52979825E+03</rscale>
<asrwt>0</asrwt>
<pdfrwt beam="1">  1        1 0.17325094E+00 0.52979825E+03</pdfrwt>
<pdfrwt beam="2">  1       -1 0.82658852E-02 0.52979825E+03</pdfrwt>
<totfact> 0.10493315E+03</totfact>
</mgrwt>
</event>
<event>
 4    1  0.1578814E-005  0.8857476E+03  0.7818608E-02  0.9443575E-01
         -1   -1    0    0    0  501 -0.00000000000E+00  0.00000000000E+00  0.11484517537E+03  0.11484517548E+03  0.50400000000E-02 0. -1.
          1   -1    0    0  501    0  0.00000000000E+00 -0.00000000000E+00 -0.17078400720E+04  0.17078400720E+04  0.50400000000E-02 0.  1.
    5000001    1    1    2    0    0  0.21461836474E+03 -0.33334619920E+03 -0.67281635111E+03  0.80324751685E+03  0.18800000000E+03 0.  0.
   -5000001    1    1    2    0    0 -0.21461836474E+03  0.33334619920E+03 -0.92017854548E+03  0.10194377306E+04  0.18800000000E+03 0.  0.
<mgrwt>
<rscale>  0 0.88574758E+03</rscale>
<asrwt>0</asrwt>
<pdfrwt beam="1">  1        1 0.24397714E+00 0.88574758E+03</pdfrwt>
<pdfrwt beam="2">  1       -1 0.16406455E-01 0.88574758E+03</pdfrwt>
<totfact> 0.16382380E+02</totfact>
</mgrwt>
</event>
<event>
 4    1  0.1578814E-005  0.4671962E+03  0.7818608E-02  0.1022715E+00
          1   -1    0    0  501    0  0.00000000000E+00  0.00000000000E+00  0.23902901873E+03  0.23902901878E+03  0.50400000000E-02 0.  1.
         -1   -1    0    0    0  501 -0.00000000000E+00 -0.00000000000E+00 -0.22829058844E+03  0.22829058850E+03  0.50400000000E-02 0. -1.
    5000001    1    1    2    0    0 -0.61234414339E+02 -0.12246562624E+03 -0.16467543823E+02  0.23315802175E+03  0.18800000000E+03 0.  0.
   -5000001    1    1    2    0    0  0.61234414339E+02  0.12246562624E+03  0.27205974113E+02  0.23416158553E+03  0.18800000000E+03 0.  0.
<mgrwt>
<rscale>  0 0.46719621E+03</rscale>
<asrwt>0</asrwt>
<pdfrwt beam="1">  1        1 0.34147003E-01 0.46719621E+03</pdfrwt>
<pdfrwt beam="2">  1       -1 0.32612941E-01 0.46719621E+03</pdfrwt>
<totfact> 0.11422222E+03</totfact>
</mgrwt>
</event>
<event>
 4    1  0.1578814E-005  0.5329494E+03  0.7818608E-02  0.1005519E+00
          1   -1    0    0  501    0  0.00000000000E+00  0.00000000000E+00  0.23551603257E+03  0.23551603262E+03  0.50400000000E-02 0.  1.
         -1   -1    0    0    0  501 -0.00000000000E+00 -0.00000000000E+00 -0.30150288446E+03  0.30150288450E+03  0.50400000000E-02 0. -1.
    5000001    1    1    2    0    0 -0.18371486600E+03  0.22386905937E+02 -0.70862811195E+02  0.27316270528E+03  0.18800000000E+03 0.  0.
   -5000001    1    1    2    0    0  0.18371486600E+03 -0.22386905937E+02  0.48759593000E+01  0.26385621184E+03  0.18800000000E+03 0.  0.
<mgrwt>
<rscale>  0 0.53294939E+03</rscale>
<asrwt>0</asrwt>
<pdfrwt beam="1">  1        1 0.33645148E-01 0.53294939E+03</pdfrwt>
<pdfrwt beam="2">  1       -1 0.43071840E-01 0.53294939E+03</pdfrwt>
<totfact> 0.70827001E+02</totfact>
</mgrwt>
</event>
<event>
 4    1  0.1578814E-005  0.5450779E+03  0.7818608E-02  0.1002640E+00
         -1   -1    0    0    0  501 -0.00000000000E+00  0.00000000000E+00  0.43473333149E+03  0.43473333152E+03  0.50400000000E-02 0. -1.
          1   -1    0    0  501    0  0.00000000000E+00 -0.00000000000E+00 -0.17085757532E+03  0.17085757540E+03  0.50400000000E-02 0.  1.
    5000001    1    1    2    0    0 -0.16200506217E+03 -0.11238413985E+03  0.14037341081E+03  0.30647109084E+03  0.18800000000E+03 0.  0.
   -5000001    1    1    2    0    0  0.16200506217E+03  0.11238413985E+03  0.12350234536E+03  0.29911981607E+03  0.18800000000E+03 0.  0.
<mgrwt>
<rscale>  0 0.54507791E+03</rscale>
<asrwt>0</asrwt>
<pdfrwt beam="1">  1        1 0.24408225E-01 0.54507791E+03</pdfrwt>
<pdfrwt beam="2">  1       -1 0.62104761E-01 0.54507791E+03</pdfrwt>
<totfact> 0.53552051E+02</totfact>
</mgrwt>
</event>
<event>
 4    1  0.1578814E-005  0.7686047E+03  0.7818608E-02  0.9606606E-01
          1   -1    0    0  501    0  0.00000000000E+00  0.00000000000E+00  0.29767517818E+03  0.29767517822E+03  0.50400000000E-02 0. -1.
         -1   -1    0    0    0  501 -0.00000000000E+00 -0.00000000000E+00 -0.49613913644E+03  0.49613913646E+03  0.50400000000E-02 0.  1.
    5000001    1    1    2    0    0  0.20778692379E+03  0.15581430688E+03 -0.31805578041E+03  0.45161596891E+03  0.18800000000E+03 0.  0.
   -5000001    1    1    2    0    0 -0.20778692379E+03 -0.15581430688E+03  0.11959182215E+03  0.34219834577E+03  0.18800000000E+03 0.  0.
<mgrwt>
<rscale>  0 0.76860473E+03</rscale>
<asrwt>0</asrwt>
<pdfrwt beam="1">  1        1 0.42525025E-01 0.76860473E+03</pdfrwt>
<pdfrwt beam="2">  1       -1 0.70877020E-01 0.76860473E+03</pdfrwt>
<totfact> 0.19856551E+02</totfact>
</mgrwt>
</event>
<event>
 4    1  0.1578814E-005  0.5982712E+03  0.7818608E-02  0.9908999E-01
         -1   -1    0    0    0  501 -0.00000000000E+00  0.00000000000E+00  0.10755345134E+03  0.10755345146E+03  0.50400000000E-02 0.  1.
          1   -1    0    0  501    0  0.00000000000E+00 -0.00000000000E+00 -0.83197790500E+03  0.83197790501E+03  0.50400000000E-02 0. -1.
    5000001    1    1    2    0    0  0.11182845693E+02  0.47701395895E+02 -0.71941631252E+03  0.74518743275E+03  0.18800000000E+03 0.  0.
   -5000001    1    1    2    0    0 -0.11182845693E+02 -0.47701395895E+02 -0.50081411368E+01  0.19434392372E+03  0.18800000000E+03 0.  0.
<mgrwt>
<rscale>  0 0.59827116E+03</rscale>
<asrwt>0</asrwt>
<pdfrwt beam="1">  1        1 0.11885398E+00 0.59827116E+03</pdfrwt>
<pdfrwt beam="2">  1       -1 0.15364779E-01 0.59827116E+03</pdfrwt>
<totfact> 0.74605555E+02</totfact>
</mgrwt>
</event>
<event>
 4    1  0.1578814E-005  0.5803283E+03  0.7818608E-02  0.9947081E-01
         -1   -1    0    0    0  501 -0.00000000000E+00  0.00000000000E+00  0.10721128203E+03  0.10721128214E+03  0.50400000000E-02 0. -1.
          1   -1    0    0  501    0  0.00000000000E+00 -0.00000000000E+00 -0.78532052945E+03  0.78532052947E+03  0.50400000000E-02 0.  1.
    5000001    1    1    2    0    0 -0.16828269186E+03 -0.12003364052E+03 -0.45941137934E+03  0.53770805713E+03  0.18800000000E+03 0.  0.
   -5000001    1    1    2    0    0  0.16828269186E+03  0.12003364052E+03 -0.21869786809E+03  0.35482375448E+03  0.18800000000E+03 0.  0.
<mgrwt>
<rscale>  0 0.58032825E+03</rscale>
<asrwt>0</asrwt>
<pdfrwt beam="1">  1        1 0.11218864E+00 0.58032825E+03</pdfrwt>
<pdfrwt beam="2">  1       -1 0.15315898E-01 0.58032825E+03</pdfrwt>
<totfact> 0.82007860E+02</totfact>
</mgrwt>
</event>
<event>
 4    1  0.1578814E-005  0.8400812E+03  0.7818608E-02  0.9503747E-01
         -1   -1    0    0    0  501 -0.00000000000E+00  0.00000000000E+00  0.23322267428E+03  0.23322267433E+03  0.50400000000E-02 0. -1.
          1   -1    0    0  501    0  0.00000000000E+00 -0.00000000000E+00 -0.75650490486E+03  0.75650490487E+03  0.50400000000E-02 0.  1.
    5000001    1    1    2    0    0  0.93858656348E+02  0.35963851240E+03 -0.32553016513E+03  0.52864278618E+03  0.18800000000E+03 0.  0.
   -5000001    1    1    2    0    0 -0.93858656348E+02 -0.35963851240E+03 -0.19775206545E+03  0.46108479303E+03  0.18800000000E+03 0.  0.
<mgrwt>
<rscale>  0 0.84008118E+03</rscale>
<asrwt>0</asrwt>
<pdfrwt beam="1">  1        1 0.10807213E+00 0.84008118E+03</pdfrwt>
<pdfrwt beam="2">  1       -1 0.33317525E-01 0.84008118E+03</pdfrwt>
<totfact> 0.23139078E+02</totfact>
</mgrwt>
</event>
<event>
 4    1  0.1578814E-005  0.1168846E+04  0.7818608E-02  0.9140572E-01
          1   -1    0    0  501    0  0.00000000000E+00  0.00000000000E+00  0.25352489758E+04  0.25352489758E+04  0.50400000000E-02 0.  1.
         -1   -1    0    0    0  501 -0.00000000000E+00 -0.00000000000E+00 -0.13472052317E+03  0.13472052326E+03  0.50400000000E-02 0. -1.
    5000001    1    1    2    0    0  0.53017165485E+03 -0.12814023640E+03  0.98714988960E+03  0.11433769319E+04  0.18800000000E+03 0.  0.
   -5000001    1    1    2    0    0 -0.53017165485E+03  0.12814023640E+03  0.14133785630E+04  0.15265925672E+04  0.18800000000E+03 0.  0.
<mgrwt>
<rscale>  0 0.11688457E+04</rscale>
<asrwt>0</asrwt>
<pdfrwt beam="1">  1        1 0.36217837E+00 0.11688457E+04</pdfrwt>
<pdfrwt beam="2">  1       -1 0.19245792E-01 0.11688457E+04</pdfrwt>
<totfact> 0.37182116E+01</totfact>
</mgrwt>
</event>
<event>
 4    1  0.1578814E-005  0.6291690E+03  0.7818608E-02  0.9846672E-01
          1   -1    0    0  501    0  0.00000000000E+00  0.00000000000E+00  0.22380165345E+04  0.22380165345E+04  0.50400000000E-02 0.  1.
         -1   -1    0    0    0  501 -0.00000000000E+00 -0.00000000000E+00 -0.44219245596E+02  0.44219245883E+02  0.50400000000E-02 0. -1.
    5000001    1    1    2    0    0  0.41396373798E+01  0.22692088098E+03  0.69773537017E+03  0.75742251723E+03  0.18800000000E+03 0.  0.
   -5000001    1    1    2    0    0 -0.41396373798E+01 -0.22692088098E+03  0.14960619187E+04  0.15248132631E+04  0.18800000000E+03 0.  0.
<mgrwt>
<rscale>  0 0.62916899E+03</rscale>
<asrwt>0</asrwt>
<pdfrwt beam="1">  1        1 0.31971671E+00 0.62916899E+03</pdfrwt>
<pdfrwt beam="2">  1       -1 0.63170338E-02 0.62916899E+03</pdfrwt>
<totfact> 0.35557610E+02</totfact>
</mgrwt>
</event>
<event>
 4    1  0.1578814E-005  0.5584748E+03  0.7818608E-02  0.9995512E-01
          1   -1    0    0  501    0  0.00000000000E+00  0.00000000000E+00  0.11322591886E+04  0.11322591886E+04  0.50400000000E-02 0. -1.
         -1   -1    0    0    0  501 -0.00000000000E+00 -0.00000000000E+00 -0.68865434433E+02  0.68865434617E+02  0.50400000000E-02 0.  1.
    5000001    1    1    2    0    0 -0.10049018964E+03 -0.13966850965E+03  0.28625092988E+03  0.38326122379E+03  0.18800000000E+03 0.  0.
   -5000001    1    1    2    0    0  0.10049018964E+03  0.13966850965E+03  0.77714282430E+03  0.81786339945E+03  0.18800000000E+03 0.  0.
<mgrwt>
<rscale>  0 0.55847478E+03</rscale>
<asrwt>0</asrwt>
<pdfrwt beam="1">  1        1 0.16175128E+00 0.55847478E+03</pdfrwt>
<pdfrwt beam="2">  1       -1 0.98379209E-02 0.55847478E+03</pdfrwt>
<totfact> 0.90693668E+02</totfact>
</mgrwt>
</event>
<event>
 4    1  0.1578814E-005  0.5879720E+03  0.7818608E-02  0.9930679E-01
          1   -1    0    0  501    0  0.00000000000E+00  0.00000000000E+00  0.19865575650E+03  0.19865575657E+03  0.50400000000E-02 0.  1.
         -1   -1    0    0    0  501 -0.00000000000E+00 -0.00000000000E+00 -0.43506303505E+03  0.43506303507E+03  0.50400000000E-02 0. -1.
    5000001    1    1    2    0    0  0.15970950133E+03  0.10849631799E+03  0.84335550472E+01  0.26961769356E+03  0.18800000000E+03 0.  0.
   -5000001    1    1    2    0    0 -0.15970950133E+03 -0.10849631799E+03 -0.24484083359E+03  0.36410109808E+03  0.18800000000E+03 0.  0.
<mgrwt>
<rscale>  0 0.58797203E+03</rscale>
<asrwt>0</asrwt>
<pdfrwt beam="1">  1        1 0.28379394E-01 0.58797203E+03</pdfrwt>
<pdfrwt beam="2">  1       -1 0.62151862E-01 0.58797203E+03</pdfrwt>
<totfact> 0.43924929E+02</totfact>
</mgrwt>
</event>
<event>
 4    1  0.1578814E-005  0.6263679E+03  0.7818608E-02  0.9852162E-01
         -1   -1    0    0    0  501 -0.00000000000E+00  0.00000000000E+00  0.39310312356E+02  0.39310312679E+02  0.50400000000E-02 0. -1.
          1   -1    0    0  501    0  0.00000000000E+00 -0.00000000000E+00 -0.24951262510E+04  0.24951262510E+04  0.50400000000E-02 0.  1.
    5000001    1    1    2    0    0  0.18646973645E+03  0.97376285538E+02 -0.17780643904E+04  0.18003083292E+04  0.18800000000E+03 0.  0.
   -5000001    1    1    2    0    0 -0.18646973645E+03 -0.97376285538E+02 -0.67775154827E+03  0.73412823456E+03  0.18800000000E+03 0.  0.
<mgrwt>
<rscale>  0 0.62636792E+03</rscale>
<asrwt>0</asrwt>
<pdfrwt beam="1">  1        1 0.35644651E+00 0.62636792E+03</pdfrwt>
<pdfrwt beam="2">  1       -1 0.56157605E-02 0.62636792E+03</pdfrwt>
<totfact> 0.29523645E+02</totfact>
</mgrwt>
</event>
<event>
 4    1  0.1578814E-005  0.4777820E+03  0.7818608E-02  0.1019747E+00
          1   -1    0    0  501    0  0.00000000000E+00  0.00000000000E+00  0.12938244345E+04  0.12938244345E+04  0.50400000000E-02 0.  1.
         -1   -1    0    0    0  501 -0.00000000000E+00 -0.00000000000E+00 -0.44108702045E+02  0.44108702333E+02  0.50400000000E-02 0. -1.
    5000001    1    1    2    0    0  0.99886514837E+02 -0.10829687864E+03  0.63718774741E+03  0.68048347167E+03  0.18800000000E+03 0.  0.
   -5000001    1    1    2    0    0 -0.99886514837E+02  0.10829687864E+03  0.61252798505E+03  0.65744966517E+03  0.18800000000E+03 0.  0.
<mgrwt>
<rscale>  0 0.47778203E+03</rscale>
<asrwt>0</asrwt>
<pdfrwt beam="1">  1        1 0.18483205E+00 0.47778203E+03</pdfrwt>
<pdfrwt beam="2">  1       -1 0.63012436E-02 0.47778203E+03</pdfrwt>
<totfact> 0.14106989E+03</totfact>
</mgrwt>
</event>
<event>
 4    1  0.1578814E-005  0.3873192E+03  0.7818608E-02  0.1048261E+00
         -1   -1    0    0    0  501 -0.00000000000E+00  0.00000000000E+00  0.47760981322E+02  0.47760981588E+02  0.50400000000E-02 0. -1.
          1   -1    0    0  501    0  0.00000000000E+00 -0.00000000000E+00 -0.78524451610E+03  0.78524451612E+03  0.50400000000E-02 0.  1.
    5000001    1    1    2    0    0  0.35566804200E+02 -0.25716694034E+02 -0.33586335651E+03  0.38739455360E+03  0.18800000000E+03 0.  0.
   -5000001    1    1    2    0    0 -0.35566804200E+02  0.25716694034E+02 -0.40162017827E+03  0.44561094410E+03  0.18800000000E+03 0.  0.
<mgrwt>
<rscale>  0 0.38731924E+03</rscale>
<asrwt>0</asrwt>
<pdfrwt beam="1">  1        1 0.11217778E+00 0.38731924E+03</pdfrwt>
<pdfrwt beam="2">  1       -1 0.68229978E-02 0.38731924E+03</pdfrwt>
<totfact> 0.29281050E+03</totfact>
</mgrwt>
</event>
<event>
 4    1  0.1578814E-005  0.6174064E+03  0.7818608E-02  0.9869937E-01
         -1   -1    0    0    0  501 -0.00000000000E+00  0.00000000000E+00  0.21347100880E+03  0.21347100886E+03  0.50400000000E-02 0. -1.
          1   -1    0    0  501    0  0.00000000000E+00 -0.00000000000E+00 -0.44641966785E+03  0.44641966788E+03  0.50400000000E-02 0.  1.
    5000001    1    1    2    0    0 -0.20583239107E+03  0.73645200220E+02  0.14008739787E+01  0.28833409645E+03  0.18800000000E+03 0.  0.
   -5000001    1    1    2    0    0  0.20583239107E+03 -0.73645200220E+02 -0.23434953303E+03  0.37155658029E+03  0.18800000000E+03 0.  0.
<mgrwt>
<rscale>  0 0.61740637E+03</rscale>
<asrwt>0</asrwt>
<pdfrwt beam="1">  1        1 0.63774238E-01 0.61740637E+03</pdfrwt>
<pdfrwt beam="2">  1       -1 0.30495859E-01 0.61740637E+03</pdfrwt>
<totfact> 0.57189524E+02</totfact>
</mgrwt>
</event>
<event>
 4    1  0.1578814E-005  0.4336277E+03  0.7818608E-02  0.1032720E+00
          1   -1    0    0  501    0  0.00000000000E+00  0.00000000000E+00  0.16305266841E+03  0.16305266849E+03  0.50400000000E-02 0.  1.
         -1   -1    0    0    0  501 -0.00000000000E+00 -0.00000000000E+00 -0.28830097504E+03  0.28830097509E+03  0.50400000000E-02 0. -1.
    5000001    1    1    2    0    0  0.93294466750E+02  0.20683037772E+02 -0.11500627116E+03  0.24021258915E+03  0.18800000000E+03 0.  0.
   -5000001    1    1    2    0    0 -0.93294466750E+02 -0.20683037772E+02 -0.10242035467E+02  0.21114105444E+03  0.18800000000E+03 0.  0.
<mgrwt>
<rscale>  0 0.43362769E+03</rscale>
<asrwt>0</asrwt>
<pdfrwt beam="1">  1        1 0.23293238E-01 0.43362769E+03</pdfrwt>
<pdfrwt beam="2">  1       -1 0.41185854E-01 0.43362769E+03</pdfrwt>
<totfact> 0.12345796E+03</totfact>
</mgrwt>
</event>
<event>
 4    1  0.1578814E-005  0.4306097E+03  0.7818608E-02  0.1033668E+00
          1   -1    0    0  501    0  0.00000000000E+00  0.00000000000E+00  0.78620098866E+03  0.78620098867E+03  0.50400000000E-02 0.  1.
         -1   -1    0    0    0  501 -0.00000000000E+00 -0.00000000000E+00 -0.58962250427E+02  0.58962250642E+02  0.50400000000E-02 0. -1.
    5000001    1    1    2    0    0 -0.47373374261E+02  0.84059969822E+02  0.28265027470E+03  0.35291003514E+03  0.18800000000E+03 0.  0.
   -5000001    1    1    2    0    0  0.47373374261E+02 -0.84059969822E+02  0.44458846353E+03  0.49225320417E+03  0.18800000000E+03 0.  0.
<mgrwt>
<rscale>  0 0.43060971E+03</rscale>
<asrwt>0</asrwt>
<pdfrwt beam="1">  1        1 0.11231442E+00 0.43060971E+03</pdfrwt>
<pdfrwt beam="2">  1       -1 0.84231791E-02 0.43060971E+03</pdfrwt>
<totfact> 0.21139006E+03</totfact>
</mgrwt>
</event>
<event>
 4    1  0.1578814E-005  0.5282441E+03  0.7818608E-02  0.1006659E+00
          1   -1    0    0  501    0  0.00000000000E+00  0.00000000000E+00  0.10570401788E+03  0.10570401800E+03  0.50400000000E-02 0. -1.
         -1   -1    0    0    0  501 -0.00000000000E+00 -0.00000000000E+00 -0.65996036552E+03  0.65996036554E+03  0.50400000000E-02 0.  1.
    5000001    1    1    2    0    0 -0.23781121832E+02  0.18397293884E+03 -0.28032957641E+03  0.38514965324E+03  0.18800000000E+03 0.  0.
   -5000001    1    1    2    0    0  0.23781121832E+02 -0.18397293884E+03 -0.27392677122E+03  0.38051473030E+03  0.18800000000E+03 0.  0.
<mgrwt>
<rscale>  0 0.52824412E+03</rscale>
<asrwt>0</asrwt>
<pdfrwt beam="1">  1        1 0.15100574E-01 0.52824412E+03</pdfrwt>
<pdfrwt beam="2">  1       -1 0.94280050E-01 0.52824412E+03</pdfrwt>
<totfact> 0.42252177E+02</totfact>
</mgrwt>
</event>
<event>
 4    1  0.1578814E-005  0.5367124E+03  0.7818608E-02  0.1004617E+00
         -1   -1    0    0    0  501 -0.00000000000E+00  0.00000000000E+00  0.10857507676E+04  0.10857507676E+04  0.50400000000E-02 0. -1.
          1   -1    0    0  501    0  0.00000000000E+00 -0.00000000000E+00 -0.66327415658E+02  0.66327415849E+02  0.50400000000E-02 0.  1.
    5000001    1    1    2    0    0  0.74002033718E+02  0.17469766651E+03  0.56549988014E+03  0.62540362176E+03  0.18800000000E+03 0.  0.
   -5000001    1    1    2    0    0 -0.74002033718E+02 -0.17469766651E+03  0.45392347178E+03  0.52667456168E+03  0.18800000000E+03 0.  0.
<mgrwt>
<rscale>  0 0.53671237E+03</rscale>
<asrwt>0</asrwt>
<pdfrwt beam="1">  1        1 0.94753454E-02 0.53671237E+03</pdfrwt>
<pdfrwt beam="2">  1       -1 0.15510725E+00 0.53671237E+03</pdfrwt>
<totfact> 0.23601253E+02</totfact>
</mgrwt>
</event>
<event>
 4    1  0.1578814E-005  0.9707074E+03  0.7818608E-02  0.9341269E-01
          1   -1    0    0  501    0  0.00000000000E+00  0.00000000000E+00  0.94331120223E+03  0.94331120224E+03  0.50400000000E-02 0.  1.
         -1   -1    0    0    0  501 -0.00000000000E+00 -0.00000000000E+00 -0.24972481591E+03  0.24972481596E+03  0.50400000000E-02 0. -1.
    5000001    1    1    2    0    0 -0.40199841402E+03  0.16965447785E+03  0.22488374245E+03  0.52564442768E+03  0.18800000000E+03 0.  0.
   -5000001    1    1    2    0    0  0.40199841402E+03 -0.16965447785E+03  0.46870264387E+03  0.66739159052E+03  0.18800000000E+03 0.  0.
<mgrwt>
<rscale>  0 0.97070740E+03</rscale>
<asrwt>0</asrwt>
<pdfrwt beam="1">  1        1 0.13475875E+00 0.97070740E+03</pdfrwt>
<pdfrwt beam="2">  1       -1 0.35674973E-01 0.97070740E+03</pdfrwt>
<totfact> 0.14319569E+02</totfact>
</mgrwt>
</event>
<event>
 4    1  0.1578814E-005  0.4769390E+03  0.7818608E-02  0.1019980E+00
          1   -1    0    0  501    0  0.00000000000E+00  0.00000000000E+00  0.78545212438E+03  0.78545212439E+03  0.50400000000E-02 0. -1.
         -1   -1    0    0    0  501 -0.00000000000E+00 -0.00000000000E+00 -0.72401222106E+02  0.72401222282E+02  0.50400000000E-02 0.  1.
    5000001    1    1    2    0    0 -0.48542298762E+02 -0.13842375782E+03  0.35204598314E+03  0.42520332283E+03  0.18800000000E+03 0.  0.
   -5000001    1    1    2    0    0  0.48542298762E+02  0.13842375782E+03  0.36100491913E+03  0.43265002384E+03  0.18800000000E+03 0.  0.
<mgrwt>
<rscale>  0 0.47693896E+03</rscale>
<asrwt>0</asrwt>
<pdfrwt beam="1">  1        1 0.11220745E+00 0.47693896E+03</pdfrwt>
<pdfrwt beam="2">  1       -1 0.10343032E-01 0.47693896E+03</pdfrwt>
<totfact> 0.15363783E+03</totfact>
</mgrwt>
</event>
<event>
 4    1  0.1578814E-005  0.8786547E+03  0.7818608E-02  0.9452665E-01
         -1   -1    0    0    0  501 -0.00000000000E+00  0.00000000000E+00  0.30234044586E+03  0.30234044590E+03  0.50400000000E-02 0. -1.
          1   -1    0    0  501    0  0.00000000000E+00 -0.00000000000E+00 -0.63838147998E+03  0.63838148000E+03  0.50400000000E-02 0.  1.
    5000001    1    1    2    0    0  0.10227315363E+03  0.38354899293E+03 -0.17845105570E+03  0.47408691947E+03  0.18800000000E+03 0.  0.
   -5000001    1    1    2    0    0 -0.10227315363E+03 -0.38354899293E+03 -0.15758997842E+03  0.46663500644E+03  0.18800000000E+03 0.  0.
<mgrwt>
<rscale>  0 0.87865475E+03</rscale>
<asrwt>0</asrwt>
<pdfrwt beam="1">  1        1 0.91197354E-01 0.87865475E+03</pdfrwt>
<pdfrwt beam="2">  1       -1 0.43191492E-01 0.87865475E+03</pdfrwt>
<totfact> 0.18561140E+02</totfact>
</mgrwt>
</event>
<event>
 4    1  0.1578814E-005  0.7185762E+03  0.7818608E-02  0.9685981E-01
          1   -1    0    0  501    0  0.00000000000E+00  0.00000000000E+00  0.13141588811E+04  0.13141588811E+04  0.50400000000E-02 0. -1.
         -1   -1    0    0    0  501 -0.00000000000E+00 -0.00000000000E+00 -0.98228550020E+02  0.98228550149E+02  0.50400000000E-02 0.  1.
    5000001    1    1    2    0    0  0.10042532824E+03  0.23363312738E+03  0.27281826642E+03  0.41766432844E+03  0.18800000000E+03 0.  0.
   -5000001    1    1    2    0    0 -0.10042532824E+03 -0.23363312738E+03  0.94311206462E+03  0.99472310277E+03  0.18800000000E+03 0.  0.
<mgrwt>
<rscale>  0 0.71857615E+03</rscale>
<asrwt>0</asrwt>
<pdfrwt beam="1">  1        1 0.18773698E+00 0.71857615E+03</pdfrwt>
<pdfrwt beam="2">  1       -1 0.14032650E-01 0.71857615E+03</pdfrwt>
<totfact> 0.38401776E+02</totfact>
</mgrwt>
</event>
<event>
 4    1  0.1578814E-005  0.5955928E+03  0.7818608E-02  0.9914592E-01
          1   -1    0    0  501    0  0.00000000000E+00  0.00000000000E+00  0.18151127003E+04  0.18151127003E+04  0.50400000000E-02 0. -1.
         -1   -1    0    0    0  501 -0.00000000000E+00 -0.00000000000E+00 -0.48857955431E+02  0.48857955691E+02  0.50400000000E-02 0.  1.
    5000001    1    1    2    0    0 -0.21205093373E+03  0.84449243185E+02  0.77285938776E+03  0.82749797971E+03  0.18800000000E+03 0.  0.
   -5000001    1    1    2    0    0  0.21205093373E+03 -0.84449243185E+02  0.99339535708E+03  0.10364726763E+04  0.18800000000E+03 0.  0.
<mgrwt>
<rscale>  0 0.59559280E+03</rscale>
<asrwt>0</asrwt>
<pdfrwt beam="1">  1        1 0.25930176E+00 0.59559280E+03</pdfrwt>
<pdfrwt beam="2">  1       -1 0.69797095E-02 0.59559280E+03</pdfrwt>
<totfact> 0.55782497E+02</totfact>
</mgrwt>
</event>
<event>
 4    1  0.1578814E-005  0.6375175E+03  0.7818608E-02  0.9830488E-01
         -1   -1    0    0    0  501 -0.00000000000E+00  0.00000000000E+00  0.59746795010E+03  0.59746795012E+03  0.50400000000E-02 0. -1.
          1   -1    0    0  501    0  0.00000000000E+00 -0.00000000000E+00 -0.17006291638E+03  0.17006291646E+03  0.50400000000E-02 0.  1.
    5000001    1    1    2    0    0  0.26878103031E+02  0.25174307307E+03  0.15766918111E+03  0.35256287089E+03  0.18800000000E+03 0.  0.
   -5000001    1    1    2    0    0 -0.26878103031E+02 -0.25174307307E+03  0.26973585261E+03  0.41496799569E+03  0.18800000000E+03 0.  0.
<mgrwt>
<rscale>  0 0.63751750E+03</rscale>
<asrwt>0</asrwt>
<pdfrwt beam="1">  1        1 0.24294702E-01 0.63751750E+03</pdfrwt>
<pdfrwt beam="2">  1       -1 0.85352567E-01 0.63751750E+03</pdfrwt>
<totfact> 0.27910246E+02</totfact>
</mgrwt>
</event>
<event>
 4    1  0.1578814E-005  0.8321112E+03  0.7818608E-02  0.9514666E-01
          1   -1    0    0  501    0  0.00000000000E+00  0.00000000000E+00  0.52159847417E+03  0.52159847420E+03  0.50400000000E-02 0.  1.
         -1   -1    0    0    0  501 -0.00000000000E+00 -0.00000000000E+00 -0.33186877641E+03  0.33186877644E+03  0.50400000000E-02 0. -1.
    5000001    1    1    2    0    0  0.77959029647E+00  0.37114580354E+03  0.97843196919E+02  0.42739572580E+03  0.18800000000E+03 0.  0.
   -5000001    1    1    2    0    0 -0.77959029647E+00 -0.37114580354E+03  0.91886500849E+02  0.42607152485E+03  0.18800000000E+03 0.  0.
<mgrwt>
<rscale>  0 0.83211116E+03</rscale>
<asrwt>0</asrwt>
<pdfrwt beam="1">  1        1 0.74514067E-01 0.83211116E+03</pdfrwt>
<pdfrwt beam="2">  1       -1 0.47409826E-01 0.83211116E+03</pdfrwt>
<totfact> 0.20756192E+02</totfact>
</mgrwt>
</event>
<event>
 4    1  0.1578814E-005  0.4954982E+03  0.7818608E-02  0.1014961E+00
         -1   -1    0    0    0  501 -0.00000000000E+00  0.00000000000E+00  0.22056753551E+04  0.22056753551E+04  0.50400000000E-02 0. -1.
          1   -1    0    0  501    0  0.00000000000E+00 -0.00000000000E+00 -0.27828036661E+02  0.27828037117E+02  0.50400000000E-02 0.  1.
    5000001    1    1    2    0    0 -0.26316710812E+02  0.14329763410E+03  0.14015059941E+04  0.14215448754E+04  0.18800000000E+03 0.  0.
   -5000001    1    1    2    0    0  0.26316710812E+02 -0.14329763410E+03  0.77634132438E+03  0.81195851689E+03  0.18800000000E+03 0.  0.
<mgrwt>
<rscale>  0 0.49549819E+03</rscale>
<asrwt>0</asrwt>
<pdfrwt beam="1">  1        1 0.39754340E-02 0.49549819E+03</pdfrwt>
<pdfrwt beam="2">  1       -1 0.31509647E+00 0.49549819E+03</pdfrwt>
<totfact> 0.69281802E+01</totfact>
</mgrwt>
</event>
<event>
 4    1  0.1578814E-005  0.1553734E+04  0.7818608E-02  0.8849486E-01
         -1   -1    0    0    0  501 -0.00000000000E+00  0.00000000000E+00  0.81144015556E+03  0.81144015557E+03  0.50400000000E-02 0. -1.
          1   -1    0    0  501    0  0.00000000000E+00 -0.00000000000E+00 -0.74376666162E+03  0.74376666163E+03  0.50400000000E-02 0.  1.
    5000001    1    1    2    0    0  0.38880813443E+03  0.47749307287E+03  0.46899797587E+03  0.79653907713E+03  0.18800000000E+03 0.  0.
   -5000001    1    1    2    0    0 -0.38880813443E+03 -0.47749307287E+03 -0.40132448193E+03  0.75866774007E+03  0.18800000000E+03 0.  0.
<mgrwt>
<rscale>  0 0.15537337E+04</rscale>
<asrwt>0</asrwt>
<pdfrwt beam="1">  1        1 0.10625238E+00 0.15537337E+04</pdfrwt>
<pdfrwt beam="2">  1       -1 0.11592002E+00 0.15537337E+04</pdfrwt>
<totfact> 0.18091279E+01</totfact>
</mgrwt>
</event>
<event>
 4    1  0.1578814E-005  0.6578245E+03  0.7818608E-02  0.9792207E-01
          1   -1    0    0  501    0  0.00000000000E+00  0.00000000000E+00  0.35530159521E+04  0.35530159521E+04  0.50400000000E-02 0.  1.
         -1   -1    0    0    0  501 -0.00000000000E+00 -0.00000000000E+00 -0.30448293664E+02  0.30448294081E+02  0.50400000000E-02 0. -1.
    5000001    1    1    2    0    0  0.24954762901E+03 -0.10029187947E+03  0.16386504792E+04  0.16711827767E+04  0.18800000000E+03 0.  0.
   -5000001    1    1    2    0    0 -0.24954762901E+03  0.10029187947E+03  0.18839171793E+04  0.19122814695E+04  0.18800000000E+03 0.  0.
<mgrwt>
<rscale>  0 0.65782452E+03</rscale>
<asrwt>0</asrwt>
<pdfrwt beam="1">  1        1 0.50757358E+00 0.65782452E+03</pdfrwt>
<pdfrwt beam="2">  1       -1 0.43497574E-02 0.65782452E+03</pdfrwt>
<totfact> 0.88838225E+01</totfact>
</mgrwt>
</event>
<event>
 4    1  0.1578814E-005  0.5793513E+03  0.7818608E-02  0.9949196E-01
          1   -1    0    0  501    0  0.00000000000E+00  0.00000000000E+00  0.11142686307E+03  0.11142686319E+03  0.50400000000E-02 0.  1.
         -1   -1    0    0    0  501 -0.00000000000E+00 -0.00000000000E+00 -0.75306786014E+03  0.75306786016E+03  0.50400000000E-02 0. -1.
    5000001    1    1    2    0    0 -0.61527192823E+02 -0.13101457790E+03 -0.56879847285E+03  0.61630034707E+03  0.18800000000E+03 0.  0.
   -5000001    1    1    2    0    0  0.61527192823E+02  0.13101457790E+03 -0.72842524212E+02  0.24819437627E+03  0.18800000000E+03 0.  0.
<mgrwt>
<rscale>  0 0.57935132E+03</rscale>
<asrwt>0</asrwt>
<pdfrwt beam="1">  1        1 0.15918124E-01 0.57935132E+03</pdfrwt>
<pdfrwt beam="2">  1       -1 0.10758112E+00 0.57935132E+03</pdfrwt>
<totfact> 0.29125240E+02</totfact>
</mgrwt>
</event>
<event>
 4    1  0.1578814E-005  0.5459723E+03  0.7818608E-02  0.1002431E+00
         -1   -1    0    0    0  501 -0.00000000000E+00  0.00000000000E+00  0.76674362830E+02  0.76674362995E+02  0.50400000000E-02 0.  1.
          1   -1    0    0  501    0  0.00000000000E+00 -0.00000000000E+00 -0.97192102121E+03  0.97192102123E+03  0.50400000000E-02 0. -1.
    5000001    1    1    2    0    0 -0.12702470547E+03 -0.15169439455E+03 -0.43693677489E+03  0.51517396129E+03  0.18800000000E+03 0.  0.
   -5000001    1    1    2    0    0  0.12702470547E+03  0.15169439455E+03 -0.45830988350E+03  0.53342142294E+03  0.18800000000E+03 0.  0.
<mgrwt>
<rscale>  0 0.54597225E+03</rscale>
<asrwt>0</asrwt>
<pdfrwt beam="1">  1        1 0.13884585E+00 0.54597225E+03</pdfrwt>
<pdfrwt beam="2">  1       -1 0.10953481E-01 0.54597225E+03</pdfrwt>
<totfact> 0.99951555E+02</totfact>
</mgrwt>
</event>
<event>
 4    1  0.1578814E-005  0.4473333E+03  0.7818608E-02  0.1028520E+00
          1   -1    0    0  501    0  0.00000000000E+00  0.00000000000E+00  0.68093377620E+02  0.68093377807E+02  0.50400000000E-02 0. -1.
         -1   -1    0    0    0  501 -0.00000000000E+00 -0.00000000000E+00 -0.73467882389E+03  0.73467882391E+03  0.50400000000E-02 0.  1.
    5000001    1    1    2    0    0 -0.11626715588E+03 -0.29708375434E+02 -0.36343532986E+03  0.42641514760E+03  0.18800000000E+03 0.  0.
   -5000001    1    1    2    0    0  0.11626715588E+03  0.29708375434E+02 -0.30315011641E+03  0.37635705412E+03  0.18800000000E+03 0.  0.
<mgrwt>
<rscale>  0 0.44733327E+03</rscale>
<asrwt>0</asrwt>
<pdfrwt beam="1">  1        1 0.97276258E-02 0.44733327E+03</pdfrwt>
<pdfrwt beam="2">  1       -1 0.10495411E+00 0.44733327E+03</pdfrwt>
<totfact> 0.60235346E+02</totfact>
</mgrwt>
</event>
<event>
 4    1  0.1578814E-005  0.5197444E+03  0.7818608E-02  0.1008750E+00
         -1   -1    0    0    0  501 -0.00000000000E+00  0.00000000000E+00  0.26960358323E+03  0.26960358327E+03  0.50400000000E-02 0. -1.
          1   -1    0    0  501    0  0.00000000000E+00 -0.00000000000E+00 -0.25049208243E+03  0.25049208248E+03  0.50400000000E-02 0.  1.
    5000001    1    1    2    0    0  0.38340805844E+02 -0.17517729598E+03  0.38544794655E+01  0.25983833326E+03  0.18800000000E+03 0.  0.
   -5000001    1    1    2    0    0 -0.38340805844E+02  0.17517729598E+03  0.15257021326E+02  0.26025733250E+03  0.18800000000E+03 0.  0.
<mgrwt>
<rscale>  0 0.51974441E+03</rscale>
<asrwt>0</asrwt>
<pdfrwt beam="1">  1        1 0.35784583E-01 0.51974441E+03</pdfrwt>
<pdfrwt beam="2">  1       -1 0.38514797E-01 0.51974441E+03</pdfrwt>
<totfact> 0.80144001E+02</totfact>
</mgrwt>
</event>
<event>
 4    1  0.1578814E-005  0.8793077E+03  0.7818608E-02  0.9451824E-01
          1   -1    0    0  501    0  0.00000000000E+00  0.00000000000E+00  0.34712397861E+03  0.34712397865E+03  0.50400000000E-02 0. -1.
         -1   -1    0    0    0  501 -0.00000000000E+00 -0.00000000000E+00 -0.55684866591E+03  0.55684866593E+03  0.50400000000E-02 0.  1.
    5000001    1    1    2    0    0 -0.39622704144E+03  0.30825632089E+02 -0.10725936850E+03  0.45254244010E+03  0.18800000000E+03 0.  0.
   -5000001    1    1    2    0    0  0.39622704144E+03 -0.30825632089E+02 -0.10246531880E+03  0.45143020448E+03  0.18800000000E+03 0.  0.
<mgrwt>
<rscale>  0 0.87930774E+03</rscale>
<asrwt>0</asrwt>
<pdfrwt beam="1">  1        1 0.49589140E-01 0.87930774E+03</pdfrwt>
<pdfrwt beam="2">  1       -1 0.79549809E-01 0.87930774E+03</pdfrwt>
<totfact> 0.12711762E+02</totfact>
</mgrwt>
</event>
<event>
 4    1  0.1578814E-005  0.4998935E+03  0.7818608E-02  0.1013807E+00
         -1   -1    0    0    0  501 -0.00000000000E+00  0.00000000000E+00  0.10309067148E+03  0.10309067160E+03  0.50400000000E-02 0. -1.
          1   -1    0    0  501    0  0.00000000000E+00 -0.00000000000E+00 -0.60600413159E+03  0.60600413161E+03  0.50400000000E-02 0.  1.
    5000001    1    1    2    0    0  0.10513853848E+03  0.98074663869E+02 -0.13747651430E+03  0.27370886714E+03  0.18800000000E+03 0.  0.
   -5000001    1    1    2    0    0 -0.10513853848E+03 -0.98074663869E+02 -0.36543694581E+03  0.43538593607E+03  0.18800000000E+03 0.  0.
<mgrwt>
<rscale>  0 0.49989348E+03</rscale>
<asrwt>0</asrwt>
<pdfrwt beam="1">  1        1 0.86572017E-01 0.49989348E+03</pdfrwt>
<pdfrwt beam="2">  1       -1 0.14727239E-01 0.49989348E+03</pdfrwt>
<totfact> 0.12755594E+03</totfact>
</mgrwt>
</event>
<event>
 4    1  0.1578814E-005  0.4145140E+03  0.7818608E-02  0.1038867E+00
          1   -1    0    0  501    0  0.00000000000E+00  0.00000000000E+00  0.29510141151E+03  0.29510141155E+03  0.50400000000E-02 0.  1.
         -1   -1    0    0    0  501 -0.00000000000E+00 -0.00000000000E+00 -0.14556167644E+03  0.14556167653E+03  0.50400000000E-02 0. -1.
    5000001    1    1    2    0    0  0.74472096662E+02  0.22395370356E+02  0.11680956290E+03  0.23459778298E+03  0.18800000000E+03 0.  0.
   -5000001    1    1    2    0    0 -0.74472096662E+02 -0.22395370356E+02  0.32730172169E+02  0.20606530510E+03  0.18800000000E+03 0.  0.
<mgrwt>
<rscale>  0 0.41451396E+03</rscale>
<asrwt>0</asrwt>
<pdfrwt beam="1">  1        1 0.42157344E-01 0.41451396E+03</pdfrwt>
<pdfrwt beam="2">  1       -1 0.20794525E-01 0.41451396E+03</pdfrwt>
<totfact> 0.18702362E+03</totfact>
</mgrwt>
</event>
<event>
 4    1  0.1578814E-005  0.4424645E+03  0.7818608E-02  0.1029993E+00
         -1   -1    0    0    0  501 -0.00000000000E+00  0.00000000000E+00  0.70508289781E+02  0.70508289961E+02  0.50400000000E-02 0. -1.
          1   -1    0    0  501    0  0.00000000000E+00 -0.00000000000E+00 -0.69415531769E+03  0.69415531771E+03  0.50400000000E-02 0.  1.
    5000001    1    1    2    0    0  0.90171121928E+02  0.72772999010E+02 -0.33455195034E+03  0.40086874173E+03  0.18800000000E+03 0.  0.
   -5000001    1    1    2    0    0 -0.90171121928E+02 -0.72772999010E+02 -0.28909507757E+03  0.36379486595E+03  0.18800000000E+03 0.  0.
<mgrwt>
<rscale>  0 0.44246448E+03</rscale>
<asrwt>0</asrwt>
<pdfrwt beam="1">  1        1 0.99165041E-01 0.44246448E+03</pdfrwt>
<pdfrwt beam="2">  1       -1 0.10072613E-01 0.44246448E+03</pdfrwt>
<totfact> 0.19225354E+03</totfact>
</mgrwt>
</event>
<event>
 4    1  0.1578814E-005  0.4935353E+03  0.7818608E-02  0.1015480E+00
          1   -1    0    0  501    0  0.00000000000E+00  0.00000000000E+00  0.62137305710E+03  0.62137305712E+03  0.50400000000E-02 0.  1.
         -1   -1    0    0    0  501 -0.00000000000E+00 -0.00000000000E+00 -0.97999543892E+02  0.97999544022E+02  0.50400000000E-02 0. -1.
    5000001    1    1    2    0    0  0.55012013073E+02 -0.14999843773E+03  0.25448334693E+03  0.35444552017E+03  0.18800000000E+03 0.  0.
   -5000001    1    1    2    0    0 -0.55012013073E+02  0.14999843773E+03  0.26889016629E+03  0.36492708098E+03  0.18800000000E+03 0.  0.
<mgrwt>
<rscale>  0 0.49353531E+03</rscale>
<asrwt>0</asrwt>
<pdfrwt beam="1">  1        1 0.88767579E-01 0.49353531E+03</pdfrwt>
<pdfrwt beam="2">  1       -1 0.13999935E-01 0.49353531E+03</pdfrwt>
<totfact> 0.13361042E+03</totfact>
</mgrwt>
</event>
<event>
 4    1  0.1578814E-005  0.4262627E+03  0.7818608E-02  0.1035047E+00
          1   -1    0    0  501    0  0.00000000000E+00  0.00000000000E+00  0.28854126898E+03  0.28854126902E+03  0.50400000000E-02 0.  1.
         -1   -1    0    0    0  501 -0.00000000000E+00 -0.00000000000E+00 -0.15742969497E+03  0.15742969505E+03  0.50400000000E-02 0. -1.
    5000001    1    1    2    0    0 -0.13862276140E+02  0.95029146193E+02  0.96206416799E+02  0.23199649989E+03  0.18800000000E+03 0.  0.
   -5000001    1    1    2    0    0  0.13862276140E+02 -0.95029146193E+02  0.34905157206E+02  0.21397446419E+03  0.18800000000E+03 0.  0.
<mgrwt>
<rscale>  0 0.42626266E+03</rscale>
<asrwt>0</asrwt>
<pdfrwt beam="1">  1        1 0.41220181E-01 0.42626266E+03</pdfrwt>
<pdfrwt beam="2">  1       -1 0.22489957E-01 0.42626266E+03</pdfrwt>
<totfact> 0.16904758E+03</totfact>
</mgrwt>
</event>
<event>
 4    1  0.1578814E-005  0.1283228E+04  0.7818608E-02  0.9042972E-01
          1   -1    0    0  501    0  0.00000000000E+00  0.00000000000E+00  0.22591496401E+04  0.22591496401E+04  0.50400000000E-02 0.  1.
         -1   -1    0    0    0  501 -0.00000000000E+00 -0.00000000000E+00 -0.18222279804E+03  0.18222279811E+03  0.50400000000E-02 0. -1.
    5000001    1    1    2    0    0  0.41941657821E+03  0.38943710419E+03  0.14585425044E+04  0.15780563239E+04  0.18800000000E+03 0.  0.
   -5000001    1    1    2    0    0 -0.41941657821E+03 -0.38943710419E+03  0.61838433760E+03  0.86331611429E+03  0.18800000000E+03 0.  0.
<mgrwt>
<rscale>  0 0.12832281E+04</rscale>
<asrwt>0</asrwt>
<pdfrwt beam="1">  1        1 0.32273566E+00 0.12832281E+04</pdfrwt>
<pdfrwt beam="2">  1       -1 0.26031829E-01 0.12832281E+04</pdfrwt>
<totfact> 0.32944979E+01</totfact>
</mgrwt>
</event>
<event>
 4    1  0.1578814E-005  0.5267286E+03  0.7818608E-02  0.1007029E+00
         -1   -1    0    0    0  501 -0.00000000000E+00  0.00000000000E+00  0.20019049062E+03  0.20019049068E+03  0.50400000000E-02 0. -1.
          1   -1    0    0  501    0  0.00000000000E+00 -0.00000000000E+00 -0.34647377799E+03  0.34647377802E+03  0.50400000000E-02 0.  1.
    5000001    1    1    2    0    0 -0.79675462328E+02 -0.16396899862E+03 -0.10217809976E+03  0.28110207377E+03  0.18800000000E+03 0.  0.
   -5000001    1    1    2    0    0  0.79675462328E+02  0.16396899862E+03 -0.44105187607E+02  0.26556219494E+03  0.18800000000E+03 0.  0.
<mgrwt>
<rscale>  0 0.52672860E+03</rscale>
<asrwt>0</asrwt>
<pdfrwt beam="1">  1        1 0.49496254E-01 0.52672860E+03</pdfrwt>
<pdfrwt beam="2">  1       -1 0.28598642E-01 0.52672860E+03</pdfrwt>
<totfact> 0.89107301E+02</totfact>
</mgrwt>
</event>
<event>
 4    1  0.1578814E-005  0.8673991E+03  0.7818608E-02  0.9467277E-01
         -1   -1    0    0    0  501 -0.00000000000E+00  0.00000000000E+00  0.76942516440E+02  0.76942516605E+02  0.50400000000E-02 0.  1.
          1   -1    0    0  501    0  0.00000000000E+00 -0.00000000000E+00 -0.24446211474E+04  0.24446211474E+04  0.50400000000E-02 0. -1.
    5000001    1    1    2    0    0 -0.17222239596E+02  0.32530391814E+03 -0.18115987659E+04  0.18502306162E+04  0.18800000000E+03 0.  0.
   -5000001    1    1    2    0    0  0.17222239596E+02 -0.32530391814E+03 -0.55607986507E+03  0.67133304777E+03  0.18800000000E+03 0.  0.
<mgrwt>
<rscale>  0 0.86739911E+03</rscale>
<asrwt>0</asrwt>
<pdfrwt beam="1">  1        1 0.34923155E+00 0.86739911E+03</pdfrwt>
<pdfrwt beam="2">  1       -1 0.10991790E-01 0.86739911E+03</pdfrwt>
<totfact> 0.10858690E+02</totfact>
</mgrwt>
</event>
<event>
 4    1  0.1578814E-005  0.5745235E+03  0.7818608E-02  0.9959718E-01
         -1   -1    0    0    0  501 -0.00000000000E+00  0.00000000000E+00  0.52326976737E+03  0.52326976740E+03  0.50400000000E-02 0.  1.
          1   -1    0    0  501    0  0.00000000000E+00 -0.00000000000E+00 -0.15769936022E+03  0.15769936030E+03  0.50400000000E-02 0. -1.
    5000001    1    1    2    0    0 -0.14544841195E+03 -0.16117496097E+03  0.19053032909E+03  0.34464244498E+03  0.18800000000E+03 0.  0.
   -5000001    1    1    2    0    0  0.14544841195E+03  0.16117496097E+03  0.17504007806E+03  0.33632668272E+03  0.18800000000E+03 0.  0.
<mgrwt>
<rscale>  0 0.57452348E+03</rscale>
<asrwt>0</asrwt>
<pdfrwt beam="1">  1        1 0.22528480E-01 0.57452348E+03</pdfrwt>
<pdfrwt beam="2">  1       -1 0.74752825E-01 0.57452348E+03</pdfrwt>
<totfact> 0.40851989E+02</totfact>
</mgrwt>
</event>
<event>
 4    1  0.1578814E-005  0.4902633E+03  0.7818608E-02  0.1016352E+00
          1   -1    0    0  501    0  0.00000000000E+00  0.00000000000E+00  0.12301557793E+04  0.12301557793E+04  0.50400000000E-02 0.  1.
         -1   -1    0    0    0  501 -0.00000000000E+00 -0.00000000000E+00 -0.48847082540E+02  0.48847082800E+02  0.50400000000E-02 0. -1.
    5000001    1    1    2    0    0  0.52367451690E+01  0.94781899763E+02  0.26341277543E+03  0.33725557413E+03  0.18800000000E+03 0.  0.
   -5000001    1    1    2    0    0 -0.52367451690E+01 -0.94781899763E+02  0.91789592137E+03  0.94174728802E+03  0.18800000000E+03 0.  0.
<mgrwt>
<rscale>  0 0.49026328E+03</rscale>
<asrwt>0</asrwt>
<pdfrwt beam="1">  1        1 0.17573655E+00 0.49026328E+03</pdfrwt>
<pdfrwt beam="2">  1       -1 0.69781542E-02 0.49026328E+03</pdfrwt>
<totfact> 0.13293874E+03</totfact>
</mgrwt>
</event>
<event>
 4    1  0.1578814E-005  0.5421105E+03  0.7818608E-02  0.1003337E+00
          1   -1    0    0  501    0  0.00000000000E+00  0.00000000000E+00  0.81103443020E+03  0.81103443022E+03  0.50400000000E-02 0.  1.
         -1   -1    0    0    0  501 -0.00000000000E+00 -0.00000000000E+00 -0.90589175156E+02  0.90589175296E+02  0.50400000000E-02 0. -1.
    5000001    1    1    2    0    0 -0.14427060049E+02  0.17653209121E+03  0.22352617160E+03  0.34158405800E+03  0.18800000000E+03 0.  0.
   -5000001    1    1    2    0    0  0.14427060049E+02 -0.17653209121E+03  0.49691908344E+03  0.56003954751E+03  0.18800000000E+03 0.  0.
<mgrwt>
<rscale>  0 0.54211047E+03</rscale>
<asrwt>0</asrwt>
<pdfrwt beam="1">  1        1 0.11586206E+00 0.54211047E+03</pdfrwt>
<pdfrwt beam="2">  1       -1 0.12941311E-01 0.54211047E+03</pdfrwt>
<totfact> 0.10246939E+03</totfact>
</mgrwt>
</event>
<event>
 4    1  0.1578814E-005  0.4930782E+03  0.7818608E-02  0.1015602E+00
         -1   -1    0    0    0  501 -0.00000000000E+00  0.00000000000E+00  0.45072478591E+02  0.45072478873E+02  0.50400000000E-02 0. -1.
          1   -1    0    0  501    0  0.00000000000E+00 -0.00000000000E+00 -0.13485286903E+04  0.13485286904E+04  0.50400000000E-02 0.  1.
    5000001    1    1    2    0    0  0.11438361063E+03 -0.71417198995E+02 -0.41101672835E+03  0.47165959937E+03  0.18800000000E+03 0.  0.
   -5000001    1    1    2    0    0 -0.11438361063E+03  0.71417198995E+02 -0.89243948340E+03  0.92194156986E+03  0.18800000000E+03 0.  0.
<mgrwt>
<rscale>  0 0.49307821E+03</rscale>
<asrwt>0</asrwt>
<pdfrwt beam="1">  1        1 0.19264693E+00 0.49307821E+03</pdfrwt>
<pdfrwt beam="2">  1       -1 0.64389264E-02 0.49307821E+03</pdfrwt>
<totfact> 0.12553681E+03</totfact>
</mgrwt>
</event>
<event>
 4    1  0.1578814E-005  0.6351493E+03  0.7818608E-02  0.9835051E-01
          1   -1    0    0  501    0  0.00000000000E+00  0.00000000000E+00  0.39579379370E+03  0.39579379373E+03  0.50400000000E-02 0. -1.
         -1   -1    0    0    0  501 -0.00000000000E+00 -0.00000000000E+00 -0.25481366775E+03  0.25481366780E+03  0.50400000000E-02 0.  1.
    5000001    1    1    2    0    0  0.24433767977E+03  0.41613399210E+02  0.13589618872E+03  0.33947658366E+03  0.18800000000E+03 0.  0.
   -5000001    1    1    2    0    0 -0.24433767977E+03 -0.41613399210E+02  0.50839372236E+01  0.31113087787E+03  0.18800000000E+03 0.  0.
<mgrwt>
<rscale>  0 0.63514933E+03</rscale>
<asrwt>0</asrwt>
<pdfrwt beam="1">  1        1 0.56541970E-01 0.63514933E+03</pdfrwt>
<pdfrwt beam="2">  1       -1 0.36401953E-01 0.63514933E+03</pdfrwt>
<totfact> 0.49024392E+02</totfact>
</mgrwt>
</event>
<event>
 4    1  0.1578814E-005  0.4071067E+03  0.7818608E-02  0.1041346E+00
         -1   -1    0    0    0  501 -0.00000000000E+00  0.00000000000E+00  0.30192361392E+03  0.30192361396E+03  0.50400000000E-02 0. -1.
          1   -1    0    0  501    0  0.00000000000E+00 -0.00000000000E+00 -0.13723325827E+03  0.13723325836E+03  0.50400000000E-02 0.  1.
    5000001    1    1    2    0    0  0.14109187433E+02 -0.75522529593E+02  0.67584360941E+02  0.21404291039E+03  0.18800000000E+03 0.  0.
   -5000001    1    1    2    0    0 -0.14109187433E+02  0.75522529593E+02  0.97105994707E+02  0.22511396193E+03  0.18800000000E+03 0.  0.
<mgrwt>
<rscale>  0 0.40710668E+03</rscale>
<asrwt>0</asrwt>
<pdfrwt beam="1">  1        1 0.19604751E-01 0.40710668E+03</pdfrwt>
<pdfrwt beam="2">  1       -1 0.43131945E-01 0.40710668E+03</pdfrwt>
<totfact> 0.14205625E+03</totfact>
</mgrwt>
</event>
<event>
 4    1  0.1578814E-005  0.5051587E+03  0.7818608E-02  0.1012441E+00
          1   -1    0    0  501    0  0.00000000000E+00  0.00000000000E+00  0.32818178528E+03  0.32818178532E+03  0.50400000000E-02 0.  1.
         -1   -1    0    0    0  501 -0.00000000000E+00 -0.00000000000E+00 -0.19439324363E+03  0.19439324369E+03  0.50400000000E-02 0. -1.
    5000001    1    1    2    0    0  0.98190344263E+02 -0.13575597053E+03  0.87094259326E+02  0.26645907237E+03  0.18800000000E+03 0.  0.
   -5000001    1    1    2    0    0 -0.98190344263E+02  0.13575597053E+03  0.46694282323E+02  0.25611595664E+03  0.18800000000E+03 0.  0.
<mgrwt>
<rscale>  0 0.50515868E+03</rscale>
<asrwt>0</asrwt>
<pdfrwt beam="1">  1        1 0.46883112E-01 0.50515868E+03</pdfrwt>
<pdfrwt beam="2">  1       -1 0.27770463E-01 0.50515868E+03</pdfrwt>
<totfact> 0.10050826E+03</totfact>
</mgrwt>
</event>
<event>
 4    1  0.1578814E-005  0.6368787E+03  0.7818608E-02  0.9831717E-01
          1   -1    0    0  501    0  0.00000000000E+00  0.00000000000E+00  0.12293129397E+04  0.12293129397E+04  0.50400000000E-02 0.  1.
         -1   -1    0    0    0  501 -0.00000000000E+00 -0.00000000000E+00 -0.82488031271E+02  0.82488031424E+02  0.50400000000E-02 0. -1.
    5000001    1    1    2    0    0 -0.25673156803E+03  0.98721324036E+00  0.54839437633E+03  0.63402875692E+03  0.18800000000E+03 0.  0.
   -5000001    1    1    2    0    0  0.25673156803E+03 -0.98721324036E+00  0.59843053209E+03  0.67777221420E+03  0.18800000000E+03 0.  0.
<mgrwt>
<rscale>  0 0.63687865E+03</rscale>
<asrwt>0</asrwt>
<pdfrwt beam="1">  1        1 0.17561612E+00 0.63687865E+03</pdfrwt>
<pdfrwt beam="2">  1       -1 0.11784006E-01 0.63687865E+03</pdfrwt>
<totfact> 0.58228194E+02</totfact>
</mgrwt>
</event>
<event>
 4    1  0.1578814E-005  0.5023188E+03  0.7818608E-02  0.1013175E+00
         -1   -1    0    0    0  501 -0.00000000000E+00  0.00000000000E+00  0.52246695432E+03  0.52246695434E+03  0.50400000000E-02 0. -1.
          1   -1    0    0  501    0  0.00000000000E+00 -0.00000000000E+00 -0.12073691398E+03  0.12073691408E+03  0.50400000000E-02 0.  1.
    5000001    1    1    2    0    0 -0.10103150754E+03  0.11607760918E+03  0.28241062454E+03  0.37253340484E+03  0.18800000000E+03 0.  0.
   -5000001    1    1    2    0    0  0.10103150754E+03 -0.11607760918E+03  0.11931941580E+03  0.27067046358E+03  0.18800000000E+03 0.  0.
<mgrwt>
<rscale>  0 0.50231881E+03</rscale>
<asrwt>0</asrwt>
<pdfrwt beam="1">  1        1 0.17248130E-01 0.50231881E+03</pdfrwt>
<pdfrwt beam="2">  1       -1 0.74638139E-01 0.50231881E+03</pdfrwt>
<totfact> 0.58351230E+02</totfact>
</mgrwt>
</event>
<event>
 4    1  0.1578814E-005  0.5491005E+03  0.7818608E-02  0.1001702E+00
          1   -1    0    0  501    0  0.00000000000E+00  0.00000000000E+00  0.11982815645E+04  0.11982815645E+04  0.50400000000E-02 0.  1.
         -1   -1    0    0    0  501 -0.00000000000E+00 -0.00000000000E+00 -0.62904939899E+02  0.62904940101E+02  0.50400000000E-02 0. -1.
    5000001    1    1    2    0    0  0.70173411105E+02  0.13435715067E+03  0.26771165268E+03  0.36054081675E+03  0.18800000000E+03 0.  0.
   -5000001    1    1    2    0    0 -0.70173411105E+02 -0.13435715067E+03  0.86766497195E+03  0.90064568789E+03  0.18800000000E+03 0.  0.
<mgrwt>
<rscale>  0 0.54910046E+03</rscale>
<asrwt>0</asrwt>
<pdfrwt beam="1">  1        1 0.17118308E+00 0.54910046E+03</pdfrwt>
<pdfrwt beam="2">  1       -1 0.89864203E-02 0.54910046E+03</pdfrwt>
<totfact> 0.94149200E+02</totfact>
</mgrwt>
</event>
<event>
 4    1  0.1578814E-005  0.6219222E+03  0.7818608E-02  0.9860940E-01
         -1   -1    0    0    0  501 -0.00000000000E+00  0.00000000000E+00  0.57247779080E+02  0.57247779302E+02  0.50400000000E-02 0.  1.
          1   -1    0    0  501    0  0.00000000000E+00 -0.00000000000E+00 -0.16890924541E+04  0.16890924541E+04  0.50400000000E-02 0. -1.
    5000001    1    1    2    0    0  0.52535875475E+02 -0.19752190120E+03 -0.42302817543E+03  0.50603533164E+03  0.18800000000E+03 0.  0.
   -5000001    1    1    2    0    0 -0.52535875475E+02  0.19752190120E+03 -0.12088164996E+04  0.12403049018E+04  0.18800000000E+03 0.  0.
<mgrwt>
<rscale>  0 0.62192216E+03</rscale>
<asrwt>0</asrwt>
<pdfrwt beam="1">  1        1 0.24129889E+00 0.62192216E+03</pdfrwt>
<pdfrwt beam="2">  1       -1 0.81782552E-02 0.62192216E+03</pdfrwt>
<totfact> 0.52169248E+02</totfact>
</mgrwt>
</event>
<event>
 4    1  0.1578814E-005  0.5421828E+03  0.7818608E-02  0.1003320E+00
          1   -1    0    0  501    0  0.00000000000E+00  0.00000000000E+00  0.82698660914E+02  0.82698661068E+02  0.50400000000E-02 0. -1.
         -1   -1    0    0    0  501 -0.00000000000E+00 -0.00000000000E+00 -0.88865456690E+03  0.88865456692E+03  0.50400000000E-02 0.  1.
    5000001    1    1    2    0    0 -0.11628785996E+03 -0.12702821850E+03 -0.23792565861E+03  0.34872862471E+03  0.18800000000E+03 0.  0.
   -5000001    1    1    2    0    0  0.11628785996E+03  0.12702821850E+03 -0.56803024737E+03  0.62262460327E+03  0.18800000000E+03 0.  0.
<mgrwt>
<rscale>  0 0.54218278E+03</rscale>
<asrwt>0</asrwt>
<pdfrwt beam="1">  1        1 0.11814095E-01 0.54218278E+03</pdfrwt>
<pdfrwt beam="2">  1       -1 0.12695065E+00 0.54218278E+03</pdfrwt>
<totfact> 0.29306913E+02</totfact>
</mgrwt>
</event>
<event>
 4    1  0.1578814E-005  0.7163052E+03  0.7818608E-02  0.9689747E-01
         -1   -1    0    0    0  501 -0.00000000000E+00  0.00000000000E+00  0.43216750807E+03  0.43216750809E+03  0.50400000000E-02 0. -1.
          1   -1    0    0  501    0  0.00000000000E+00 -0.00000000000E+00 -0.29681380930E+03  0.29681380934E+03  0.50400000000E-02 0.  1.
    5000001    1    1    2    0    0 -0.89278286524E+02  0.20304616746E+03  0.28049694351E+03  0.40400605674E+03  0.18800000000E+03 0.  0.
   -5000001    1    1    2    0    0  0.89278286524E+02 -0.20304616746E+03 -0.14514324474E+03  0.32497526069E+03  0.18800000000E+03 0.  0.
<mgrwt>
<rscale>  0 0.71630520E+03</rscale>
<asrwt>0</asrwt>
<pdfrwt beam="1">  1        1 0.42401973E-01 0.71630520E+03</pdfrwt>
<pdfrwt beam="2">  1       -1 0.61738216E-01 0.71630520E+03</pdfrwt>
<totfact> 0.26386999E+02</totfact>
</mgrwt>
</event>
<event>
 4    1  0.1578814E-005  0.5032598E+03  0.7818608E-02  0.1012932E+00
         -1   -1    0    0    0  501 -0.00000000000E+00  0.00000000000E+00  0.26389194279E+02  0.26389194760E+02  0.50400000000E-02 0. -1.
          1   -1    0    0  501    0  0.00000000000E+00 -0.00000000000E+00 -0.23993762423E+04  0.23993762423E+04  0.50400000000E-02 0.  1.
    5000001    1    1    2    0    0  0.12093308577E+03  0.79513270906E+02 -0.78245378906E+03  0.81763384439E+03  0.18800000000E+03 0.  0.
   -5000001    1    1    2    0    0 -0.12093308577E+03 -0.79513270906E+02 -0.15905332589E+04  0.16081315926E+04  0.18800000000E+03 0.  0.
<mgrwt>
<rscale>  0 0.50325980E+03</rscale>
<asrwt>0</asrwt>
<pdfrwt beam="1">  1        1 0.34276790E+00 0.50325980E+03</pdfrwt>
<pdfrwt beam="2">  1       -1 0.37698864E-02 0.50325980E+03</pdfrwt>
<totfact> 0.62797631E+02</totfact>
</mgrwt>
</event>
<event>
 4    1  0.1578814E-005  0.6098244E+03  0.7818608E-02  0.9885231E-01
         -1   -1    0    0    0  501 -0.00000000000E+00  0.00000000000E+00  0.39513165866E+03  0.39513165869E+03  0.50400000000E-02 0. -1.
          1   -1    0    0  501    0  0.00000000000E+00 -0.00000000000E+00 -0.23529231121E+03  0.23529231127E+03  0.50400000000E-02 0.  1.
    5000001    1    1    2    0    0 -0.20447811152E+03  0.82180592906E+02 -0.18493171760E+02  0.29026013392E+03  0.18800000000E+03 0.  0.
   -5000001    1    1    2    0    0  0.20447811152E+03 -0.82180592906E+02  0.17833251921E+03  0.34016383604E+03  0.18800000000E+03 0.  0.
<mgrwt>
<rscale>  0 0.60982437E+03</rscale>
<asrwt>0</asrwt>
<pdfrwt beam="1">  1        1 0.33613187E-01 0.60982437E+03</pdfrwt>
<pdfrwt beam="2">  1       -1 0.56447380E-01 0.60982437E+03</pdfrwt>
<totfact> 0.42589046E+02</totfact>
</mgrwt>
</event>
<event>
 4    1  0.1578814E-005  0.4626462E+03  0.7818608E-02  0.1024017E+00
         -1   -1    0    0    0  501 -0.00000000000E+00  0.00000000000E+00  0.42540120060E+02  0.42540120358E+02  0.50400000000E-02 0. -1.
          1   -1    0    0  501    0  0.00000000000E+00 -0.00000000000E+00 -0.12578804439E+04  0.12578804440E+04  0.50400000000E-02 0.  1.
    5000001    1    1    2    0    0 -0.10549492275E+03 -0.69251640730E+02 -0.47459527412E+03  0.52584184189E+03  0.18800000000E+03 0.  0.
   -5000001    1    1    2    0    0  0.10549492275E+03  0.69251640730E+02 -0.74074504977E+03  0.77457872242E+03  0.18800000000E+03 0.  0.
<mgrwt>
<rscale>  0 0.46264624E+03</rscale>
<asrwt>0</asrwt>
<pdfrwt beam="1">  1        1 0.17969718E+00 0.46264624E+03</pdfrwt>
<pdfrwt beam="2">  1       -1 0.60771608E-02 0.46264624E+03</pdfrwt>
<totfact> 0.15762547E+03</totfact>
</mgrwt>
</event>
<event>
 4    1  0.1578814E-005  0.5844797E+03  0.7818608E-02  0.9938139E-01
         -1   -1    0    0    0  501 -0.00000000000E+00  0.00000000000E+00  0.19439991469E+03  0.19439991475E+03  0.50400000000E-02 0. -1.
          1   -1    0    0  501    0  0.00000000000E+00 -0.00000000000E+00 -0.43932180104E+03  0.43932180107E+03  0.50400000000E-02 0.  1.
    5000001    1    1    2    0    0 -0.19098846535E+03  0.44601576475E+02 -0.57127778083E+01  0.27173982107E+03  0.18800000000E+03 0.  0.
   -5000001    1    1    2    0    0  0.19098846535E+03 -0.44601576475E+02 -0.23920910855E+03  0.36198189476E+03  0.18800000000E+03 0.  0.
<mgrwt>
<rscale>  0 0.58447967E+03</rscale>
<asrwt>0</asrwt>
<pdfrwt beam="1">  1        1 0.62760257E-01 0.58447967E+03</pdfrwt>
<pdfrwt beam="2">  1       -1 0.27771416E-01 0.58447967E+03</pdfrwt>
<totfact> 0.68725545E+02</totfact>
</mgrwt>
</event>
<event>
 4    1  0.1578814E-005  0.6182379E+03  0.7818608E-02  0.9868274E-01
         -1   -1    0    0    0  501 -0.00000000000E+00  0.00000000000E+00  0.37310647509E+03  0.37310647512E+03  0.50400000000E-02 0.  1.
          1   -1    0    0  501    0  0.00000000000E+00 -0.00000000000E+00 -0.25610523673E+03  0.25610523678E+03  0.50400000000E-02 0. -1.
    5000001    1    1    2    0    0  0.20151378119E+03 -0.91146858225E+02  0.16666485576E+03  0.33471887894E+03  0.18800000000E+03 0.  0.
   -5000001    1    1    2    0    0 -0.20151378119E+03  0.91146858225E+02 -0.49663617397E+02  0.29449283296E+03  0.18800000000E+03 0.  0.
<mgrwt>
<rscale>  0 0.61823789E+03</rscale>
<asrwt>0</asrwt>
<pdfrwt beam="1">  1        1 0.36586462E-01 0.61823789E+03</pdfrwt>
<pdfrwt beam="2">  1       -1 0.53300925E-01 0.61823789E+03</pdfrwt>
<totfact> 0.42623265E+02</totfact>
</mgrwt>
</event>
<event>
 4    1  0.1578814E-005  0.9829482E+03  0.7818608E-02  0.9327447E-01
         -1   -1    0    0    0  501 -0.00000000000E+00  0.00000000000E+00  0.15624451625E+03  0.15624451633E+03  0.50400000000E-02 0. -1.
          1   -1    0    0  501    0  0.00000000000E+00 -0.00000000000E+00 -0.15459536538E+04  0.15459536538E+04  0.50400000000E-02 0.  1.
    5000001    1    1    2    0    0  0.22970745529E+03  0.38364051389E+03 -0.55787043225E+03  0.73926245549E+03  0.18800000000E+03 0.  0.
   -5000001    1    1    2    0    0 -0.22970745529E+03 -0.38364051389E+03 -0.83183870530E+03  0.96293571465E+03  0.18800000000E+03 0.  0.
<mgrwt>
<rscale>  0 0.98294818E+03</rscale>
<asrwt>0</asrwt>
<pdfrwt beam="1">  1        1 0.22085051E+00 0.98294818E+03</pdfrwt>
<pdfrwt beam="2">  1       -1 0.22320646E-01 0.98294818E+03</pdfrwt>
<totfact> 0.12364203E+02</totfact>
</mgrwt>
</event>
<event>
 4    1  0.1578814E-005  0.5051977E+03  0.7818608E-02  0.1012431E+00
         -1   -1    0    0    0  501 -0.00000000000E+00  0.00000000000E+00  0.16500093148E+03  0.16500093156E+03  0.50400000000E-02 0. -1.
          1   -1    0    0  501    0  0.00000000000E+00 -0.00000000000E+00 -0.38670187097E+03  0.38670187101E+03  0.50400000000E-02 0.  1.
    5000001    1    1    2    0    0 -0.51292745635E+02 -0.10936032371E+03  0.17768860165E+02  0.22416591745E+03  0.18800000000E+03 0.  0.
   -5000001    1    1    2    0    0  0.51292745635E+02  0.10936032371E+03 -0.23946979966E+03  0.32753688511E+03  0.18800000000E+03 0.  0.
<mgrwt>
<rscale>  0 0.50519766E+03</rscale>
<asrwt>0</asrwt>
<pdfrwt beam="1">  1        1 0.55243124E-01 0.50519766E+03</pdfrwt>
<pdfrwt beam="2">  1       -1 0.23571562E-01 0.50519766E+03</pdfrwt>
<totfact> 0.10738599E+03</totfact>
</mgrwt>
</event>
<event>
 4    1  0.1578814E-005  0.8080389E+03  0.7818608E-02  0.9548453E-01
         -1   -1    0    0    0  501 -0.00000000000E+00  0.00000000000E+00  0.68220423242E+03  0.68220423244E+03  0.50400000000E-02 0. -1.
          1   -1    0    0  501    0  0.00000000000E+00 -0.00000000000E+00 -0.23927105206E+03  0.23927105211E+03  0.50400000000E-02 0.  1.
    5000001    1    1    2    0    0  0.21008108733E+03 -0.18206481119E+03 -0.35071997072E+02  0.33742510829E+03  0.18800000000E+03 0.  0.
   -5000001    1    1    2    0    0 -0.21008108733E+03  0.18206481119E+03  0.47800517744E+03  0.58405017625E+03  0.18800000000E+03 0.  0.
<mgrwt>
<rscale>  0 0.80803892E+03</rscale>
<asrwt>0</asrwt>
<pdfrwt beam="1">  1        1 0.34181579E-01 0.80803892E+03</pdfrwt>
<pdfrwt beam="2">  1       -1 0.97457747E-01 0.80803892E+03</pdfrwt>
<totfact> 0.13257865E+02</totfact>
</mgrwt>
</event>
<event>
 4    1  0.1578814E-005  0.7986608E+03  0.7818608E-02  0.9561958E-01
          1   -1    0    0  501    0  0.00000000000E+00  0.00000000000E+00  0.58132239203E+03  0.58132239205E+03  0.50400000000E-02 0.  1.
         -1   -1    0    0    0  501 -0.00000000000E+00 -0.00000000000E+00 -0.27431382915E+03  0.27431382920E+03  0.50400000000E-02 0. -1.
    5000001    1    1    2    0    0 -0.16055569294E+03 -0.30572628558E+03  0.78709193729E+02  0.40098108361E+03  0.18800000000E+03 0.  0.
   -5000001    1    1    2    0    0  0.16055569294E+03  0.30572628558E+03  0.22829936915E+03  0.45465513764E+03  0.18800000000E+03 0.  0.
<mgrwt>
<rscale>  0 0.79866081E+03</rscale>
<asrwt>0</asrwt>
<pdfrwt beam="1">  1        1 0.83046056E-01 0.79866081E+03</pdfrwt>
<pdfrwt beam="2">  1       -1 0.39187690E-01 0.79866081E+03</pdfrwt>
<totfact> 0.25426876E+02</totfact>
</mgrwt>
</event>
<event>
 4    1  0.1578814E-005  0.4148977E+03  0.7818608E-02  0.1038740E+00
         -1   -1    0    0    0  501 -0.00000000000E+00  0.00000000000E+00  0.23562045192E+03  0.23562045198E+03  0.50400000000E-02 0. -1.
          1   -1    0    0  501    0  0.00000000000E+00 -0.00000000000E+00 -0.18264555866E+03  0.18264555872E+03  0.50400000000E-02 0.  1.
    5000001    1    1    2    0    0 -0.80007133336E+02 -0.34828924232E+02  0.35324094374E+02  0.21025219854E+03  0.18800000000E+03 0.  0.
   -5000001    1    1    2    0    0  0.80007133336E+02  0.34828924232E+02  0.17650798893E+02  0.20801381216E+03  0.18800000000E+03 0.  0.
<mgrwt>
<rscale>  0 0.41489772E+03</rscale>
<asrwt>0</asrwt>
<pdfrwt beam="1">  1        1 0.26092223E-01 0.41489772E+03</pdfrwt>
<pdfrwt beam="2">  1       -1 0.33660065E-01 0.41489772E+03</pdfrwt>
<totfact> 0.15252639E+03</totfact>
</mgrwt>
</event>
<event>
 4    1  0.1578814E-005  0.4856849E+03  0.7818608E-02  0.1017584E+00
         -1   -1    0    0    0  501 -0.00000000000E+00  0.00000000000E+00  0.33049625677E+02  0.33049626061E+02  0.50400000000E-02 0. -1.
          1   -1    0    0  501    0  0.00000000000E+00 -0.00000000000E+00 -0.17843606768E+04  0.17843606768E+04  0.50400000000E-02 0.  1.
    5000001    1    1    2    0    0  0.13273334020E+03  0.32698995255E+02 -0.61262283437E+03  0.65523896487E+03  0.18800000000E+03 0.  0.
   -5000001    1    1    2    0    0 -0.13273334020E+03 -0.32698995255E+02 -0.11386882167E+04  0.11621713380E+04  0.18800000000E+03 0.  0.
<mgrwt>
<rscale>  0 0.48568489E+03</rscale>
<asrwt>0</asrwt>
<pdfrwt beam="1">  1        1 0.25490861E+00 0.48568489E+03</pdfrwt>
<pdfrwt beam="2">  1       -1 0.47213763E-02 0.48568489E+03</pdfrwt>
<totfact> 0.10685781E+03</totfact>
</mgrwt>
</event>
<event>
 4    1  0.1578814E-005  0.6223807E+03  0.7818608E-02  0.9860031E-01
          1   -1    0    0  501    0  0.00000000000E+00  0.00000000000E+00  0.34127394407E+03  0.34127394411E+03  0.50400000000E-02 0.  1.
         -1   -1    0    0    0  501 -0.00000000000E+00 -0.00000000000E+00 -0.28375869136E+03  0.28375869141E+03  0.50400000000E-02 0. -1.
    5000001    1    1    2    0    0 -0.44055648689E+02 -0.24198937381E+03 -0.29313889294E+01  0.30960030727E+03  0.18800000000E+03 0.  0.
   -5000001    1    1    2    0    0  0.44055648689E+02  0.24198937381E+03  0.60446641640E+02  0.31543232825E+03  0.18800000000E+03 0.  0.
<mgrwt>
<rscale>  0 0.62238074E+03</rscale>
<asrwt>0</asrwt>
<pdfrwt beam="1">  1        1 0.48753420E-01 0.62238074E+03</pdfrwt>
<pdfrwt beam="2">  1       -1 0.40536956E-01 0.62238074E+03</pdfrwt>
<totfact> 0.48998666E+02</totfact>
</mgrwt>
</event>
<event>
 4    1  0.1578814E-005  0.4976335E+03  0.7818608E-02  0.1014398E+00
          1   -1    0    0  501    0  0.00000000000E+00  0.00000000000E+00  0.90714274223E+02  0.90714274363E+02  0.50400000000E-02 0.  1.
         -1   -1    0    0    0  501 -0.00000000000E+00 -0.00000000000E+00 -0.68247008355E+03  0.68247008357E+03  0.50400000000E-02 0. -1.
    5000001    1    1    2    0    0  0.10033550159E+03 -0.11359785551E+03 -0.20273107518E+03  0.31530235410E+03  0.18800000000E+03 0.  0.
   -5000001    1    1    2    0    0 -0.10033550159E+03  0.11359785551E+03 -0.38902473415E+03  0.45788200384E+03  0.18800000000E+03 0.  0.
<mgrwt>
<rscale>  0 0.49763351E+03</rscale>
<asrwt>0</asrwt>
<pdfrwt beam="1">  1        1 0.12959182E-01 0.49763351E+03</pdfrwt>
<pdfrwt beam="2">  1       -1 0.97495723E-01 0.49763351E+03</pdfrwt>
<totfact> 0.48188578E+02</totfact>
</mgrwt>
</event>
<event>
 4    1  0.1578814E-005  0.4863627E+03  0.7818608E-02  0.1017401E+00
          1   -1    0    0  501    0  0.00000000000E+00  0.00000000000E+00  0.19456021404E+03  0.19456021410E+03  0.50400000000E-02 0.  1.
         -1   -1    0    0    0  501 -0.00000000000E+00 -0.00000000000E+00 -0.30395300135E+03  0.30395300139E+03  0.50400000000E-02 0. -1.
    5000001    1    1    2    0    0  0.11759601638E+03  0.88295988565E+02 -0.69696566120E+01  0.23878354378E+03  0.18800000000E+03 0.  0.
   -5000001    1    1    2    0    0 -0.11759601638E+03 -0.88295988565E+02 -0.10242313070E+03  0.25972967171E+03  0.18800000000E+03 0.  0.
<mgrwt>
<rscale>  0 0.48636267E+03</rscale>
<asrwt>0</asrwt>
<pdfrwt beam="1">  1        1 0.27794316E-01 0.48636267E+03</pdfrwt>
<pdfrwt beam="2">  1       -1 0.43421857E-01 0.48636267E+03</pdfrwt>
<totfact> 0.89265595E+02</totfact>
</mgrwt>
</event>
<event>
 4    1  0.1578814E-005  0.4514964E+03  0.7818608E-02  0.1027277E+00
         -1   -1    0    0    0  501 -0.00000000000E+00  0.00000000000E+00  0.82395332707E+02  0.82395332861E+02  0.50400000000E-02 0.  1.
          1   -1    0    0  501    0  0.00000000000E+00 -0.00000000000E+00 -0.61850893338E+03  0.61850893340E+03  0.50400000000E-02 0. -1.
    5000001    1    1    2    0    0  0.64811732170E+01  0.11193688807E+03 -0.18237349147E+03  0.28491395703E+03  0.18800000000E+03 0.  0.
   -5000001    1    1    2    0    0 -0.64811732170E+01 -0.11193688807E+03 -0.35374010921E+03  0.41599030924E+03  0.18800000000E+03 0.  0.
<mgrwt>
<rscale>  0 0.45149640E+03</rscale>
<asrwt>0</asrwt>
<pdfrwt beam="1">  1        1 0.88358416E-01 0.45149640E+03</pdfrwt>
<pdfrwt beam="2">  1       -1 0.11770762E-01 0.45149640E+03</pdfrwt>
<totfact> 0.17725327E+03</totfact>
</mgrwt>
</event>
<event>
 4    1  0.1578814E-005  0.5555313E+03  0.7818608E-02  0.1000222E+00
          1   -1    0    0  501    0  0.00000000000E+00  0.00000000000E+00  0.71268486422E+03  0.71268486424E+03  0.50400000000E-02 0.  1.
         -1   -1    0    0    0  501 -0.00000000000E+00 -0.00000000000E+00 -0.10825788054E+03  0.10825788066E+03  0.50400000000E-02 0. -1.
    5000001    1    1    2    0    0  0.18413950321E+03 -0.16150272428E+02  0.43139355766E+03  0.50558143709E+03  0.18800000000E+03 0.  0.
   -5000001    1    1    2    0    0 -0.18413950321E+03  0.16150272428E+02  0.17303342602E+03  0.31536130781E+03  0.18800000000E+03 0.  0.
<mgrwt>
<rscale>  0 0.55553129E+03</rscale>
<asrwt>0</asrwt>
<pdfrwt beam="1">  1        1 0.10181212E+00 0.55553129E+03</pdfrwt>
<pdfrwt beam="2">  1       -1 0.15465412E-01 0.55553129E+03</pdfrwt>
<totfact> 0.93389995E+02</totfact>
</mgrwt>
</event>
<event>
 4    1  0.1578814E-005  0.4799468E+03  0.7818608E-02  0.1019150E+00
         -1   -1    0    0    0  501 -0.00000000000E+00  0.00000000000E+00  0.47488346357E+02  0.47488346624E+02  0.50400000000E-02 0. -1.
          1   -1    0    0  501    0  0.00000000000E+00 -0.00000000000E+00 -0.12126604136E+04  0.12126604136E+04  0.50400000000E-02 0.  1.
    5000001    1    1    2    0    0 -0.12148025699E+02  0.13833546448E+03 -0.43976293930E+03  0.49801578092E+03  0.18800000000E+03 0.  0.
   -5000001    1    1    2    0    0  0.12148025699E+02 -0.13833546448E+03 -0.72540912793E+03  0.76213297930E+03  0.18800000000E+03 0.  0.
<mgrwt>
<rscale>  0 0.47994682E+03</rscale>
<asrwt>0</asrwt>
<pdfrwt beam="1">  1        1 0.17323718E+00 0.47994682E+03</pdfrwt>
<pdfrwt beam="2">  1       -1 0.67840503E-02 0.47994682E+03</pdfrwt>
<totfact> 0.14271716E+03</totfact>
</mgrwt>
</event>
<event>
 4    1  0.1578814E-005  0.5592605E+03  0.7818608E-02  0.9993729E-01
         -1   -1    0    0    0  501 -0.00000000000E+00  0.00000000000E+00  0.45499642122E+02  0.45499642401E+02  0.50400000000E-02 0. -1.
          1   -1    0    0  501    0  0.00000000000E+00 -0.00000000000E+00 -0.17185426622E+04  0.17185426622E+04  0.50400000000E-02 0.  1.
    5000001    1    1    2    0    0  0.16559214784E+03  0.91622091794E+00 -0.12283015541E+04  0.12535909647E+04  0.18800000000E+03 0.  0.
   -5000001    1    1    2    0    0 -0.16559214784E+03 -0.91622091794E+00 -0.44474146597E+03  0.51045133993E+03  0.18800000000E+03 0.  0.
<mgrwt>
<rscale>  0 0.55926050E+03</rscale>
<asrwt>0</asrwt>
<pdfrwt beam="1">  1        1 0.24550605E+00 0.55926050E+03</pdfrwt>
<pdfrwt beam="2">  1       -1 0.64999500E-02 0.55926050E+03</pdfrwt>
<totfact> 0.71687136E+02</totfact>
</mgrwt>
</event>
<event>
 4    1  0.1578814E-005  0.5608934E+03  0.7818608E-02  0.9990035E-01
         -1   -1    0    0    0  501 -0.00000000000E+00  0.00000000000E+00  0.28020828540E+03  0.28020828544E+03  0.50400000000E-02 0. -1.
          1   -1    0    0  501    0  0.00000000000E+00 -0.00000000000E+00 -0.28068530096E+03  0.28068530100E+03  0.50400000000E-02 0.  1.
    5000001    1    1    2    0    0  0.14142233915E+03  0.14661388706E+03  0.42310738542E+02  0.28041060694E+03  0.18800000000E+03 0.  0.
   -5000001    1    1    2    0    0 -0.14142233915E+03 -0.14661388706E+03 -0.42787754102E+02  0.28048297950E+03  0.18800000000E+03 0.  0.
<mgrwt>
<rscale>  0 0.56089338E+03</rscale>
<asrwt>0</asrwt>
<pdfrwt beam="1">  1        1 0.40097900E-01 0.56089338E+03</pdfrwt>
<pdfrwt beam="2">  1       -1 0.40029755E-01 0.56089338E+03</pdfrwt>
<totfact> 0.64569187E+02</totfact>
</mgrwt>
</event>
<event>
 4    1  0.1578814E-005  0.9400345E+03  0.7818608E-02  0.9376875E-01
         -1   -1    0    0    0  501 -0.00000000000E+00  0.00000000000E+00  0.51889041900E+03  0.51889041902E+03  0.50400000000E-02 0. -1.
          1   -1    0    0  501    0  0.00000000000E+00 -0.00000000000E+00 -0.42574729867E+03  0.42574729870E+03  0.50400000000E-02 0.  1.
    5000001    1    1    2    0    0  0.35889274806E+03  0.22182376425E+03  0.13395950780E+03  0.48093548084E+03  0.18800000000E+03 0.  0.
   -5000001    1    1    2    0    0 -0.35889274806E+03 -0.22182376425E+03 -0.40816387475E+02  0.46370223688E+03  0.18800000000E+03 0.  0.
<mgrwt>
<rscale>  0 0.94003446E+03</rscale>
<asrwt>0</asrwt>
<pdfrwt beam="1">  1        1 0.60821043E-01 0.94003446E+03</pdfrwt>
<pdfrwt beam="2">  1       -1 0.74127203E-01 0.94003446E+03</pdfrwt>
<totfact> 0.11236161E+02</totfact>
</mgrwt>
</event>
<event>
 4    1  0.1578814E-005  0.5102273E+03  0.7818608E-02  0.1011143E+00
          1   -1    0    0  501    0  0.00000000000E+00  0.00000000000E+00  0.90611975027E+03  0.90611975029E+03  0.50400000000E-02 0.  1.
         -1   -1    0    0    0  501 -0.00000000000E+00 -0.00000000000E+00 -0.71826019396E+02  0.71826019573E+02  0.50400000000E-02 0. -1.
    5000001    1    1    2    0    0  0.77391426093E+02 -0.15352064833E+03  0.39136386612E+03  0.46697719216E+03  0.18800000000E+03 0.  0.
   -5000001    1    1    2    0    0 -0.77391426093E+02  0.15352064833E+03  0.44292986476E+03  0.51096857770E+03  0.18800000000E+03 0.  0.
<mgrwt>
<rscale>  0 0.51022730E+03</rscale>
<asrwt>0</asrwt>
<pdfrwt beam="1">  1        1 0.12944567E+00 0.51022730E+03</pdfrwt>
<pdfrwt beam="2">  1       -1 0.10260860E-01 0.51022730E+03</pdfrwt>
<totfact> 0.12442173E+03</totfact>
</mgrwt>
</event>
<event>
 4    1  0.1578814E-005  0.6623881E+03  0.7818608E-02  0.9783807E-01
         -1   -1    0    0    0  501 -0.00000000000E+00  0.00000000000E+00  0.19434112347E+03  0.19434112353E+03  0.50400000000E-02 0.  1.
          1   -1    0    0  501    0  0.00000000000E+00 -0.00000000000E+00 -0.56441735784E+03  0.56441735786E+03  0.50400000000E-02 0. -1.
    5000001    1    1    2    0    0 -0.16002737247E+03 -0.21936337221E+03 -0.15659733572E+03  0.36550755746E+03  0.18800000000E+03 0.  0.
   -5000001    1    1    2    0    0  0.16002737247E+03  0.21936337221E+03 -0.21347889865E+03  0.39325092393E+03  0.18800000000E+03 0.  0.
<mgrwt>
<rscale>  0 0.66238811E+03</rscale>
<asrwt>0</asrwt>
<pdfrwt beam="1">  1        1 0.80631050E-01 0.66238811E+03</pdfrwt>
<pdfrwt beam="2">  1       -1 0.27763018E-01 0.66238811E+03</pdfrwt>
<totfact> 0.48943347E+02</totfact>
</mgrwt>
</event>
<event>
 4    1  0.1578814E-005  0.6222786E+03  0.7818608E-02  0.9860234E-01
         -1   -1    0    0    0  501 -0.00000000000E+00  0.00000000000E+00  0.27839086418E+03  0.27839086422E+03  0.50400000000E-02 0. -1.
          1   -1    0    0  501    0  0.00000000000E+00 -0.00000000000E+00 -0.34774005158E+03  0.34774005162E+03  0.50400000000E-02 0.  1.
    5000001    1    1    2    0    0 -0.63717838437E+02 -0.23789235001E+03 -0.60216392223E+01  0.30989190578E+03  0.18800000000E+03 0.  0.
   -5000001    1    1    2    0    0  0.63717838437E+02  0.23789235001E+03 -0.63327548182E+02  0.31623901006E+03  0.18800000000E+03 0.  0.
<mgrwt>
<rscale>  0 0.62227857E+03</rscale>
<asrwt>0</asrwt>
<pdfrwt beam="1">  1        1 0.49677150E-01 0.62227857E+03</pdfrwt>
<pdfrwt beam="2">  1       -1 0.39770124E-01 0.62227857E+03</pdfrwt>
<totfact> 0.49507554E+02</totfact>
</mgrwt>
</event>
<event>
 4    1  0.1578814E-005  0.5325960E+03  0.7818608E-02  0.1005605E+00
         -1   -1    0    0    0  501 -0.00000000000E+00  0.00000000000E+00  0.52137907057E+02  0.52137907301E+02  0.50400000000E-02 0.  1.
          1   -1    0    0  501    0  0.00000000000E+00 -0.00000000000E+00 -0.13601354021E+04  0.13601354021E+04  0.50400000000E-02 0. -1.
    5000001    1    1    2    0    0  0.18570566631E+03  0.30845495515E+02 -0.62346708138E+03  0.67785930742E+03  0.18800000000E+03 0.  0.
   -5000001    1    1    2    0    0 -0.18570566631E+03 -0.30845495515E+02 -0.68453041368E+03  0.73441400201E+03  0.18800000000E+03 0.  0.
<mgrwt>
<rscale>  0 0.53259596E+03</rscale>
<asrwt>0</asrwt>
<pdfrwt beam="1">  1        1 0.19430504E+00 0.53259596E+03</pdfrwt>
<pdfrwt beam="2">  1       -1 0.74482733E-02 0.53259596E+03</pdfrwt>
<totfact> 0.98379483E+02</totfact>
</mgrwt>
</event>
<event>
 4    1  0.1578814E-005  0.9697977E+03  0.7818608E-02  0.9342305E-01
          1   -1    0    0  501    0  0.00000000000E+00  0.00000000000E+00  0.12903195276E+04  0.12903195276E+04  0.50400000000E-02 0. -1.
         -1   -1    0    0    0  501 -0.00000000000E+00 -0.00000000000E+00 -0.18222376676E+03  0.18222376683E+03  0.50400000000E-02 0.  1.
    5000001    1    1    2    0    0 -0.75518460939E+02 -0.43838141921E+03  0.62026099378E+03  0.78609732671E+03  0.18800000000E+03 0.  0.
   -5000001    1    1    2    0    0  0.75518460939E+02  0.43838141921E+03  0.48783476704E+03  0.68644596771E+03  0.18800000000E+03 0.  0.
<mgrwt>
<rscale>  0 0.96979768E+03</rscale>
<asrwt>0</asrwt>
<pdfrwt beam="1">  1        1 0.18433137E+00 0.96979768E+03</pdfrwt>
<pdfrwt beam="2">  1       -1 0.26031966E-01 0.96979768E+03</pdfrwt>
<totfact> 0.14036351E+02</totfact>
</mgrwt>
</event>
<event>
 4    1  0.1578814E-005  0.4574912E+03  0.7818608E-02  0.1025511E+00
          1   -1    0    0  501    0  0.00000000000E+00  0.00000000000E+00  0.46946984879E+03  0.46946984882E+03  0.50400000000E-02 0.  1.
         -1   -1    0    0    0  501 -0.00000000000E+00 -0.00000000000E+00 -0.11145456737E+03  0.11145456749E+03  0.50400000000E-02 0. -1.
    5000001    1    1    2    0    0  0.65475471279E+02  0.74580641212E+02  0.71776811655E+02  0.22437740544E+03  0.18800000000E+03 0.  0.
   -5000001    1    1    2    0    0 -0.65475471279E+02 -0.74580641212E+02  0.28623846976E+03  0.35654701086E+03  0.18800000000E+03 0.  0.
<mgrwt>
<rscale>  0 0.45749124E+03</rscale>
<asrwt>0</asrwt>
<pdfrwt beam="1">  1        1 0.67067123E-01 0.45749124E+03</pdfrwt>
<pdfrwt beam="2">  1       -1 0.15922081E-01 0.45749124E+03</pdfrwt>
<totfact> 0.15895076E+03</totfact>
</mgrwt>
</event>
<event>
 4    1  0.1578814E-005  0.1450820E+04  0.7818608E-02  0.8917832E-01
          1   -1    0    0  501    0  0.00000000000E+00  0.00000000000E+00  0.15370376183E+04  0.15370376183E+04  0.50400000000E-02 0.  1.
         -1   -1    0    0    0  501 -0.00000000000E+00 -0.00000000000E+00 -0.34235945688E+03  0.34235945691E+03  0.50400000000E-02 0. -1.
    5000001    1    1    2    0    0 -0.50730044892E+03  0.38673985914E+03  0.97267970879E+03  0.11782916787E+04  0.18800000000E+03 0.  0.
   -5000001    1    1    2    0    0  0.50730044892E+03 -0.38673985914E+03  0.22199845265E+03  0.70110539657E+03  0.18800000000E+03 0.  0.
<mgrwt>
<rscale>  0 0.14508196E+04</rscale>
<asrwt>0</asrwt>
<pdfrwt beam="1">  1        1 0.21957680E+00 0.14508196E+04</pdfrwt>
<pdfrwt beam="2">  1       -1 0.48908494E-01 0.14508196E+04</pdfrwt>
<totfact> 0.29932343E+01</totfact>
</mgrwt>
</event>
<event>
 4    1  0.1578814E-005  0.8975230E+03  0.7818608E-02  0.9428683E-01
          1   -1    0    0  501    0  0.00000000000E+00  0.00000000000E+00  0.15310217728E+03  0.15310217737E+03  0.50400000000E-02 0.  1.
         -1   -1    0    0    0  501 -0.00000000000E+00 -0.00000000000E+00 -0.13153756690E+04  0.13153756690E+04  0.50400000000E-02 0. -1.
    5000001    1    1    2    0    0  0.22951920274E+03 -0.33668459993E+03 -0.58555575391E+03  0.73773648764E+03  0.18800000000E+03 0.  0.
   -5000001    1    1    2    0    0 -0.22951920274E+03  0.33668459993E+03 -0.57671773780E+03  0.73074135872E+03  0.18800000000E+03 0.  0.
<mgrwt>
<rscale>  0 0.89752299E+03</rscale>
<asrwt>0</asrwt>
<pdfrwt beam="1">  1        1 0.21871740E-01 0.89752299E+03</pdfrwt>
<pdfrwt beam="2">  1       -1 0.18791080E+00 0.89752299E+03</pdfrwt>
<totfact> 0.43057531E+01</totfact>
</mgrwt>
</event>
<event>
 4    1  0.1578814E-005  0.5059090E+03  0.7818608E-02  0.1012248E+00
         -1   -1    0    0    0  501 -0.00000000000E+00  0.00000000000E+00  0.56751200214E+02  0.56751200438E+02  0.50400000000E-02 0. -1.
          1   -1    0    0  501    0  0.00000000000E+00 -0.00000000000E+00 -0.11274824450E+04  0.11274824450E+04  0.50400000000E-02 0.  1.
    5000001    1    1    2    0    0 -0.27619524534E+02  0.16565921962E+03 -0.48647885185E+03  0.54791558518E+03  0.18800000000E+03 0.  0.
   -5000001    1    1    2    0    0  0.27619524534E+02 -0.16565921962E+03 -0.58425239294E+03  0.63631806028E+03  0.18800000000E+03 0.  0.
<mgrwt>
<rscale>  0 0.50590901E+03</rscale>
<asrwt>0</asrwt>
<pdfrwt beam="1">  1        1 0.16106891E+00 0.50590901E+03</pdfrwt>
<pdfrwt beam="2">  1       -1 0.81073150E-02 0.50590901E+03</pdfrwt>
<totfact> 0.12388134E+03</totfact>
</mgrwt>
</event>
<event>
 4    1  0.1578814E-005  0.4526965E+03  0.7818608E-02  0.1026921E+00
          1   -1    0    0  501    0  0.00000000000E+00  0.00000000000E+00  0.78679355109E+03  0.78679355111E+03  0.50400000000E-02 0.  1.
         -1   -1    0    0    0  501 -0.00000000000E+00 -0.00000000000E+00 -0.65116871858E+02  0.65116872053E+02  0.50400000000E-02 0. -1.
    5000001    1    1    2    0    0 -0.50086845875E+02 -0.11197389682E+03  0.41546699342E+03  0.47223264216E+03  0.18800000000E+03 0.  0.
   -5000001    1    1    2    0    0  0.50086845875E+02  0.11197389682E+03  0.30620968581E+03  0.37967778100E+03  0.18800000000E+03 0.  0.
<mgrwt>
<rscale>  0 0.45269652E+03</rscale>
<asrwt>0</asrwt>
<pdfrwt beam="1">  1        1 0.11239907E+00 0.45269652E+03</pdfrwt>
<pdfrwt beam="2">  1       -1 0.93024108E-02 0.45269652E+03</pdfrwt>
<totfact> 0.18094285E+03</totfact>
</mgrwt>
</event>
<event>
 4    1  0.1578814E-005  0.5562987E+03  0.7818608E-02  0.1000046E+00
          1   -1    0    0  501    0  0.00000000000E+00  0.00000000000E+00  0.84717066444E+02  0.84717066594E+02  0.50400000000E-02 0.  1.
         -1   -1    0    0    0  501 -0.00000000000E+00 -0.00000000000E+00 -0.91324048577E+03  0.91324048579E+03  0.50400000000E-02 0. -1.
    5000001    1    1    2    0    0 -0.60437768576E+00 -0.16694440833E+03 -0.20085068460E+03  0.32180086738E+03  0.18800000000E+03 0.  0.
   -5000001    1    1    2    0    0  0.60437768576E+00  0.16694440833E+03 -0.62767273473E+03  0.67615668500E+03  0.18800000000E+03 0.  0.
<mgrwt>
<rscale>  0 0.55629868E+03</rscale>
<asrwt>0</asrwt>
<pdfrwt beam="1">  1        1 0.12102439E-01 0.55629868E+03</pdfrwt>
<pdfrwt beam="2">  1       -1 0.13046292E+00 0.55629868E+03</pdfrwt>
<totfact> 0.26484103E+02</totfact>
</mgrwt>
</event>
<event>
 4    1  0.1578814E-005  0.9759611E+03  0.7818608E-02  0.9335310E-01
          1   -1    0    0  501    0  0.00000000000E+00  0.00000000000E+00  0.28815116523E+03  0.28815116528E+03  0.50400000000E-02 0.  1.
         -1   -1    0    0    0  501 -0.00000000000E+00 -0.00000000000E+00 -0.82638928693E+03  0.82638928695E+03  0.50400000000E-02 0. -1.
    5000001    1    1    2    0    0  0.40054222645E+03  0.96816044232E+02 -0.61748745401E+02  0.45712616327E+03  0.18800000000E+03 0.  0.
   -5000001    1    1    2    0    0 -0.40054222645E+03 -0.96816044232E+02 -0.47648937630E+03  0.65741428895E+03  0.18800000000E+03 0.  0.
<mgrwt>
<rscale>  0 0.97596114E+03</rscale>
<asrwt>0</asrwt>
<pdfrwt beam="1">  1        1 0.41164453E-01 0.97596114E+03</pdfrwt>
<pdfrwt beam="2">  1       -1 0.11805561E+00 0.97596114E+03</pdfrwt>
<totfact> 0.65858288E+01</totfact>
</mgrwt>
</event>
<event>
 4    1  0.1578814E-005  0.6844238E+03  0.7818608E-02  0.9744247E-01
          1   -1    0    0  501    0  0.00000000000E+00  0.00000000000E+00  0.19034075558E+03  0.19034075565E+03  0.50400000000E-02 0.  1.
         -1   -1    0    0    0  501 -0.00000000000E+00 -0.00000000000E+00 -0.61525969422E+03  0.61525969424E+03  0.50400000000E-02 0. -1.
    5000001    1    1    2    0    0 -0.26093317225E+03  0.11658234321E+03 -0.20145346336E+03  0.39699503905E+03  0.18800000000E+03 0.  0.
   -5000001    1    1    2    0    0  0.26093317225E+03 -0.11658234321E+03 -0.22346547528E+03  0.40860541084E+03  0.18800000000E+03 0.  0.
<mgrwt>
<rscale>  0 0.68442383E+03</rscale>
<asrwt>0</asrwt>
<pdfrwt beam="1">  1        1 0.27191537E-01 0.68442383E+03</pdfrwt>
<pdfrwt beam="2">  1       -1 0.87894241E-01 0.68442383E+03</pdfrwt>
<totfact> 0.22568861E+02</totfact>
</mgrwt>
</event>
<event>
 4    1  0.1578814E-005  0.4377201E+03  0.7818608E-02  0.1031449E+00
         -1   -1    0    0    0  501 -0.00000000000E+00  0.00000000000E+00  0.24054539657E+03  0.24054539662E+03  0.50400000000E-02 0. -1.
          1   -1    0    0  501    0  0.00000000000E+00 -0.00000000000E+00 -0.19912968700E+03  0.19912968707E+03  0.50400000000E-02 0.  1.
    5000001    1    1    2    0    0 -0.20563394230E+02 -0.22163931906E+02  0.12908615761E+03  0.23004636304E+03  0.18800000000E+03 0.  0.
   -5000001    1    1    2    0    0  0.20563394230E+02  0.22163931906E+02 -0.87670448051E+02  0.20962872065E+03  0.18800000000E+03 0.  0.
<mgrwt>
<rscale>  0 0.43772014E+03</rscale>
<asrwt>0</asrwt>
<pdfrwt beam="1">  1        1 0.28447098E-01 0.43772014E+03</pdfrwt>
<pdfrwt beam="2">  1       -1 0.34363628E-01 0.43772014E+03</pdfrwt>
<totfact> 0.13167933E+03</totfact>
</mgrwt>
</event>
<event>
 4    1  0.1578814E-005  0.6819270E+03  0.7818608E-02  0.9748649E-01
          1   -1    0    0  501    0  0.00000000000E+00  0.00000000000E+00  0.68027444219E+03  0.68027444221E+03  0.50400000000E-02 0.  1.
         -1   -1    0    0    0  501 -0.00000000000E+00 -0.00000000000E+00 -0.17089586889E+03  0.17089586896E+03  0.50400000000E-02 0. -1.
    5000001    1    1    2    0    0 -0.58433023970E+02 -0.27835262664E+03  0.25990915496E+03  0.42870895941E+03  0.18800000000E+03 0.  0.
   -5000001    1    1    2    0    0  0.58433023970E+02  0.27835262664E+03  0.24946941834E+03  0.42246135176E+03  0.18800000000E+03 0.  0.
<mgrwt>
<rscale>  0 0.68192695E+03</rscale>
<asrwt>0</asrwt>
<pdfrwt beam="1">  1        1 0.97182065E-01 0.68192695E+03</pdfrwt>
<pdfrwt beam="2">  1       -1 0.24413695E-01 0.68192695E+03</pdfrwt>
<totfact> 0.46758019E+02</totfact>
</mgrwt>
</event>
<event>
 4    1  0.1578814E-005  0.4472650E+03  0.7818608E-02  0.1028541E+00
          1   -1    0    0  501    0  0.00000000000E+00  0.00000000000E+00  0.25151174990E+02  0.25151175495E+02  0.50400000000E-02 0. -1.
         -1   -1    0    0    0  501 -0.00000000000E+00 -0.00000000000E+00 -0.19884353137E+04  0.19884353137E+04  0.50400000000E-02 0.  1.
    5000001    1    1    2    0    0  0.41765099185E+02  0.11233086620E+03 -0.90302601979E+03  0.93014113952E+03  0.18800000000E+03 0.  0.
   -5000001    1    1    2    0    0 -0.41765099185E+02 -0.11233086620E+03 -0.10602581189E+04  0.10834453497E+04  0.18800000000E+03 0.  0.
<mgrwt>
<rscale>  0 0.44726496E+03</rscale>
<asrwt>0</asrwt>
<pdfrwt beam="1">  1        1 0.35930263E-02 0.44726496E+03</pdfrwt>
<pdfrwt beam="2">  1       -1 0.28406209E+00 0.44726496E+03</pdfrwt>
<totfact> 0.12632260E+02</totfact>
</mgrwt>
</event>
<event>
 4    1  0.1578814E-005  0.1056339E+04  0.7818608E-02  0.9248824E-01
          1   -1    0    0  501    0  0.00000000000E+00  0.00000000000E+00  0.15790086194E+04  0.15790086194E+04  0.50400000000E-02 0.  1.
         -1   -1    0    0    0  501 -0.00000000000E+00 -0.00000000000E+00 -0.17666968719E+03  0.17666968726E+03  0.50400000000E-02 0. -1.
    5000001    1    1    2    0    0 -0.37975957774E+03 -0.24456442318E+03  0.10318690793E+04  0.11419837525E+04  0.18800000000E+03 0.  0.
   -5000001    1    1    2    0    0  0.37975957774E+03  0.24456442318E+03  0.37046985285E+03  0.61369455419E+03  0.18800000000E+03 0.  0.
<mgrwt>
<rscale>  0 0.10563389E+04</rscale>
<asrwt>0</asrwt>
<pdfrwt beam="1">  1        1 0.22557267E+00 0.10563389E+04</pdfrwt>
<pdfrwt beam="2">  1       -1 0.25238525E-01 0.10563389E+04</pdfrwt>
<totfact> 0.95012449E+01</totfact>
</mgrwt>
</event>
<event>
 4    1  0.1578814E-005  0.8800114E+03  0.7818608E-02  0.9450919E-01
          1   -1    0    0  501    0  0.00000000000E+00  0.00000000000E+00  0.29079008324E+03  0.29079008329E+03  0.50400000000E-02 0. -1.
         -1   -1    0    0    0  501 -0.00000000000E+00 -0.00000000000E+00 -0.66578956918E+03  0.66578956920E+03  0.50400000000E-02 0.  1.
    5000001    1    1    2    0    0 -0.34288541181E+03  0.62107539901E+02 -0.39611827571E+03  0.56007271001E+03  0.18800000000E+03 0.  0.
   -5000001    1    1    2    0    0  0.34288541181E+03 -0.62107539901E+02  0.21118789775E+02  0.39650694247E+03  0.18800000000E+03 0.  0.
<mgrwt>
<rscale>  0 0.88001137E+03</rscale>
<asrwt>0</asrwt>
<pdfrwt beam="1">  1        1 0.41541441E-01 0.88001137E+03</pdfrwt>
<pdfrwt beam="2">  1       -1 0.95112795E-01 0.88001137E+03</pdfrwt>
<totfact> 0.10836031E+02</totfact>
</mgrwt>
</event>
<event>
 4    1  0.1578814E-005  0.6068656E+03  0.7818608E-02  0.9891264E-01
         -1   -1    0    0    0  501 -0.00000000000E+00  0.00000000000E+00  0.27668754334E+03  0.27668754339E+03  0.50400000000E-02 0. -1.
          1   -1    0    0  501    0  0.00000000000E+00 -0.00000000000E+00 -0.33276336682E+03  0.33276336685E+03  0.50400000000E-02 0.  1.
    5000001    1    1    2    0    0 -0.23555565107E+03  0.17619803889E+02  0.25970606649E+01  0.30190671898E+03  0.18800000000E+03 0.  0.
   -5000001    1    1    2    0    0  0.23555565107E+03 -0.17619803889E+02 -0.58672884141E+02  0.30754419126E+03  0.18800000000E+03 0.  0.
<mgrwt>
<rscale>  0 0.60686565E+03</rscale>
<asrwt>0</asrwt>
<pdfrwt beam="1">  1        1 0.47537624E-01 0.60686565E+03</pdfrwt>
<pdfrwt beam="2">  1       -1 0.39526792E-01 0.60686565E+03</pdfrwt>
<totfact> 0.53015774E+02</totfact>
</mgrwt>
</event>
<event>
 4    1  0.1578814E-005  0.4660965E+03  0.7818608E-02  0.1023028E+00
         -1   -1    0    0    0  501 -0.00000000000E+00  0.00000000000E+00  0.55279747255E+02  0.55279747484E+02  0.50400000000E-02 0. -1.
          1   -1    0    0  501    0  0.00000000000E+00 -0.00000000000E+00 -0.98248428852E+03  0.98248428853E+03  0.50400000000E-02 0.  1.
    5000001    1    1    2    0    0  0.91900064528E+02 -0.72640782514E+02 -0.62485345362E+03  0.66295410373E+03  0.18800000000E+03 0.  0.
   -5000001    1    1    2    0    0 -0.91900064528E+02  0.72640782514E+02 -0.30235108764E+03  0.37480993229E+03  0.18800000000E+03 0.  0.
<mgrwt>
<rscale>  0 0.46609648E+03</rscale>
<asrwt>0</asrwt>
<pdfrwt beam="1">  1        1 0.14035489E+00 0.46609648E+03</pdfrwt>
<pdfrwt beam="2">  1       -1 0.78971074E-02 0.46609648E+03</pdfrwt>
<totfact> 0.16406648E+03</totfact>
</mgrwt>
</event>
<event>
 4    1  0.1578814E-005  0.4989506E+03  0.7818608E-02  0.1014053E+00
         -1   -1    0    0    0  501 -0.00000000000E+00  0.00000000000E+00  0.77691371752E+03  0.77691371754E+03  0.50400000000E-02 0. -1.
          1   -1    0    0  501    0  0.00000000000E+00 -0.00000000000E+00 -0.80109196273E+02  0.80109196432E+02  0.50400000000E-02 0.  1.
    5000001    1    1    2    0    0 -0.74571759631E+02 -0.14167321842E+03  0.40941357704E+03  0.47811685310E+03  0.18800000000E+03 0.  0.
   -5000001    1    1    2    0    0  0.74571759631E+02  0.14167321842E+03  0.28739094421E+03  0.37890606087E+03  0.18800000000E+03 0.  0.
<mgrwt>
<rscale>  0 0.49895063E+03</rscale>
<asrwt>0</asrwt>
<pdfrwt beam="1">  1        1 0.11444171E-01 0.49895063E+03</pdfrwt>
<pdfrwt beam="2">  1       -1 0.11098767E+00 0.49895063E+03</pdfrwt>
<totfact> 0.42356274E+02</totfact>
</mgrwt>
</event>
<event>
 4    1  0.1578814E-005  0.5187589E+03  0.7818608E-02  0.1008995E+00
          1   -1    0    0  501    0  0.00000000000E+00  0.00000000000E+00  0.12163448487E+04  0.12163448487E+04  0.50400000000E-02 0.  1.
         -1   -1    0    0    0  501 -0.00000000000E+00 -0.00000000000E+00 -0.55311367313E+02  0.55311367543E+02  0.50400000000E-02 0. -1.
    5000001    1    1    2    0    0 -0.69322085492E+02  0.15194307882E+03  0.42467902924E+03  0.49354688594E+03  0.18800000000E+03 0.  0.
   -5000001    1    1    2    0    0  0.69322085492E+02 -0.15194307882E+03  0.73635445214E+03  0.77810933031E+03  0.18800000000E+03 0.  0.
<mgrwt>
<rscale>  0 0.51875889E+03</rscale>
<asrwt>0</asrwt>
<pdfrwt beam="1">  1        1 0.17376354E+00 0.51875889E+03</pdfrwt>
<pdfrwt beam="2">  1       -1 0.79016246E-02 0.51875889E+03</pdfrwt>
<totfact> 0.11196336E+03</totfact>
</mgrwt>
</event>
<event>
 4    1  0.1578814E-005  0.5232702E+03  0.7818608E-02  0.1007877E+00
         -1   -1    0    0    0  501 -0.00000000000E+00  0.00000000000E+00  0.23223978676E+03  0.23223978681E+03  0.50400000000E-02 0. -1.
          1   -1    0    0  501    0  0.00000000000E+00 -0.00000000000E+00 -0.29475106948E+03  0.29475106952E+03  0.50400000000E-02 0.  1.
    5000001    1    1    2    0    0  0.89283387130E+02 -0.12191249546E+03  0.70829520121E+02  0.25138615850E+03  0.18800000000E+03 0.  0.
   -5000001    1    1    2    0    0 -0.89283387130E+02  0.12191249546E+03 -0.13334080284E+03  0.27560469783E+03  0.18800000000E+03 0.  0.
<mgrwt>
<rscale>  0 0.52327020E+03</rscale>
<asrwt>0</asrwt>
<pdfrwt beam="1">  1        1 0.42107295E-01 0.52327020E+03</pdfrwt>
<pdfrwt beam="2">  1       -1 0.33177113E-01 0.52327020E+03</pdfrwt>
<totfact> 0.84752792E+02</totfact>
</mgrwt>
</event>
<event>
 4    1  0.1578814E-005  0.8907465E+03  0.7818608E-02  0.9437223E-01
         -1   -1    0    0    0  501 -0.00000000000E+00  0.00000000000E+00  0.12035865630E+04  0.12035865630E+04  0.50400000000E-02 0. -1.
          1   -1    0    0  501    0  0.00000000000E+00 -0.00000000000E+00 -0.16480519998E+03  0.16480520005E+03  0.50400000000E-02 0.  1.
    5000001    1    1    2    0    0 -0.22337842374E+03 -0.31613441848E+03  0.69571909915E+03  0.81805131603E+03  0.18800000000E+03 0.  0.
   -5000001    1    1    2    0    0  0.22337842374E+03  0.31613441848E+03  0.34306226388E+03  0.55034044703E+03  0.18800000000E+03 0.  0.
<mgrwt>
<rscale>  0 0.89074648E+03</rscale>
<asrwt>0</asrwt>
<pdfrwt beam="1">  1        1 0.23543600E-01 0.89074648E+03</pdfrwt>
<pdfrwt beam="2">  1       -1 0.17194094E+00 0.89074648E+03</pdfrwt>
<totfact> 0.50851626E+01</totfact>
</mgrwt>
</event>
<event>
 4    1  0.1578814E-005  0.4974527E+03  0.7818608E-02  0.1014446E+00
         -1   -1    0    0    0  501 -0.00000000000E+00  0.00000000000E+00  0.13712888855E+03  0.13712888864E+03  0.50400000000E-02 0.  1.
          1   -1    0    0  501    0  0.00000000000E+00 -0.00000000000E+00 -0.45114352027E+03  0.45114352030E+03  0.50400000000E-02 0. -1.
    5000001    1    1    2    0    0 -0.75736648303E+00  0.16245904499E+03 -0.17034964674E+03  0.30125822320E+03  0.18800000000E+03 0.  0.
   -5000001    1    1    2    0    0  0.75736648303E+00 -0.16245904499E+03 -0.14366498499E+03  0.28701418574E+03  0.18800000000E+03 0.  0.
<mgrwt>
<rscale>  0 0.49745275E+03</rscale>
<asrwt>0</asrwt>
<pdfrwt beam="1">  1        1 0.64449073E-01 0.49745275E+03</pdfrwt>
<pdfrwt beam="2">  1       -1 0.19589842E-01 0.49745275E+03</pdfrwt>
<totfact> 0.11945707E+03</totfact>
</mgrwt>
</event>
<event>
 4    1  0.1578814E-005  0.4139962E+03  0.7818608E-02  0.1039038E+00
         -1   -1    0    0    0  501 -0.00000000000E+00  0.00000000000E+00  0.26329361556E+02  0.26329362038E+02  0.50400000000E-02 0. -1.
          1   -1    0    0  501    0  0.00000000000E+00 -0.00000000000E+00 -0.16273929096E+04  0.16273929096E+04  0.50400000000E-02 0.  1.
    5000001    1    1    2    0    0  0.80923750213E+02  0.27125244947E+02 -0.85975126728E+03  0.88419492979E+03  0.18800000000E+03 0.  0.
   -5000001    1    1    2    0    0 -0.80923750213E+02 -0.27125244947E+02 -0.74131228072E+03  0.76952734182E+03  0.18800000000E+03 0.  0.
<mgrwt>
<rscale>  0 0.41399622E+03</rscale>
<asrwt>0</asrwt>
<pdfrwt beam="1">  1        1 0.23248464E+00 0.41399622E+03</pdfrwt>
<pdfrwt beam="2">  1       -1 0.37613384E-02 0.41399622E+03</pdfrwt>
<totfact> 0.18911070E+03</totfact>
</mgrwt>
</event>
<event>
 4    1  0.1578814E-005  0.4602537E+03  0.7818608E-02  0.1024708E+00
         -1   -1    0    0    0  501 -0.00000000000E+00  0.00000000000E+00  0.25929082989E+03  0.25929082994E+03  0.50400000000E-02 0. -1.
          1   -1    0    0  501    0  0.00000000000E+00 -0.00000000000E+00 -0.20424314759E+03  0.20424314766E+03  0.50400000000E-02 0.  1.
    5000001    1    1    2    0    0  0.11353638850E+03  0.68728563154E+02  0.28025747490E+02  0.23182659345E+03  0.18800000000E+03 0.  0.
   -5000001    1    1    2    0    0 -0.11353638850E+03 -0.68728563154E+02  0.27021934805E+02  0.23170738415E+03  0.18800000000E+03 0.  0.
<mgrwt>
<rscale>  0 0.46025374E+03</rscale>
<asrwt>0</asrwt>
<pdfrwt beam="1">  1        1 0.29177593E-01 0.46025374E+03</pdfrwt>
<pdfrwt beam="2">  1       -1 0.37041547E-01 0.46025374E+03</pdfrwt>
<totfact> 0.11166206E+03</totfact>
</mgrwt>
</event>
<event>
 4    1  0.1578814E-005  0.8408464E+03  0.7818608E-02  0.9502706E-01
         -1   -1    0    0    0  501 -0.00000000000E+00  0.00000000000E+00  0.10894692294E+03  0.10894692306E+03  0.50400000000E-02 0. -1.
          1   -1    0    0  501    0  0.00000000000E+00 -0.00000000000E+00 -0.16224017959E+04  0.16224017959E+04  0.50400000000E-02 0.  1.
    5000001    1    1    2    0    0  0.12163580005E+03 -0.34634311386E+03 -0.58865429878E+03  0.71875357658E+03  0.18800000000E+03 0.  0.
   -5000001    1    1    2    0    0 -0.12163580005E+03  0.34634311386E+03 -0.92480057417E+03  0.10125951424E+04  0.18800000000E+03 0.  0.
<mgrwt>
<rscale>  0 0.84084644E+03</rscale>
<asrwt>0</asrwt>
<pdfrwt beam="1">  1        1 0.23177167E+00 0.84084644E+03</pdfrwt>
<pdfrwt beam="2">  1       -1 0.15563847E-01 0.84084644E+03</pdfrwt>
<totfact> 0.20299325E+02</totfact>
</mgrwt>
</event>
<event>
 4    1  0.1578814E-005  0.5780368E+03  0.7818608E-02  0.9952050E-01
          1   -1    0    0  501    0  0.00000000000E+00  0.00000000000E+00  0.90683126753E+02  0.90683126893E+02  0.50400000000E-02 0.  1.
         -1   -1    0    0    0  501 -0.00000000000E+00 -0.00000000000E+00 -0.92113742134E+03  0.92113742135E+03  0.50400000000E-02 0. -1.
    5000001    1    1    2    0    0  0.69508604583E+02  0.20490426940E+03 -0.48002703229E+03  0.55909494494E+03  0.18800000000E+03 0.  0.
   -5000001    1    1    2    0    0 -0.69508604583E+02 -0.20490426940E+03 -0.35042726229E+03  0.45272560330E+03  0.18800000000E+03 0.  0.
<mgrwt>
<rscale>  0 0.57803675E+03</rscale>
<asrwt>0</asrwt>
<pdfrwt beam="1">  1        1 0.12954733E-01 0.57803675E+03</pdfrwt>
<pdfrwt beam="2">  1       -1 0.13159105E+00 0.57803675E+03</pdfrwt>
<totfact> 0.23612431E+02</totfact>
</mgrwt>
</event>
<event>
 4    1  0.1578814E-005  0.4815047E+03  0.7818608E-02  0.1018722E+00
          1   -1    0    0  501    0  0.00000000000E+00  0.00000000000E+00  0.24533304335E+03  0.24533304341E+03  0.50400000000E-02 0.  1.
         -1   -1    0    0    0  501 -0.00000000000E+00 -0.00000000000E+00 -0.23625714131E+03  0.23625714136E+03  0.50400000000E-02 0. -1.
    5000001    1    1    2    0    0  0.35725627818E+02  0.83257741941E+02  0.12459889781E+03  0.24305772445E+03  0.18800000000E+03 0.  0.
   -5000001    1    1    2    0    0 -0.35725627818E+02 -0.83257741941E+02 -0.11552299577E+03  0.23853246032E+03  0.18800000000E+03 0.  0.
<mgrwt>
<rscale>  0 0.48150466E+03</rscale>
<asrwt>0</asrwt>
<pdfrwt beam="1">  1        1 0.35047578E-01 0.48150466E+03</pdfrwt>
<pdfrwt beam="2">  1       -1 0.33751020E-01 0.48150466E+03</pdfrwt>
<totfact> 0.10404834E+03</totfact>
</mgrwt>
</event>
<event>
 4    1  0.1578814E-005  0.6650078E+03  0.7818608E-02  0.9779019E-01
          1   -1    0    0  501    0  0.00000000000E+00  0.00000000000E+00  0.14177680943E+04  0.14177680943E+04  0.50400000000E-02 0.  1.
         -1   -1    0    0    0  501 -0.00000000000E+00 -0.00000000000E+00 -0.77980908007E+02  0.77980908170E+02  0.50400000000E-02 0. -1.
    5000001    1    1    2    0    0 -0.30426194285E+02  0.24827478879E+03  0.41693160717E+03  0.52128887299E+03  0.18800000000E+03 0.  0.
   -5000001    1    1    2    0    0  0.30426194285E+02 -0.24827478879E+03  0.92285557914E+03  0.97446012950E+03  0.18800000000E+03 0.  0.
<mgrwt>
<rscale>  0 0.66500780E+03</rscale>
<asrwt>0</asrwt>
<pdfrwt beam="1">  1        1 0.20253829E+00 0.66500780E+03</pdfrwt>
<pdfrwt beam="2">  1       -1 0.11140130E-01 0.66500780E+03</pdfrwt>
<totfact> 0.47647300E+02</totfact>
</mgrwt>
</event>
<event>
 4    1  0.1578814E-005  0.5039099E+03  0.7818608E-02  0.1012763E+00
         -1   -1    0    0    0  501 -0.00000000000E+00  0.00000000000E+00  0.32822571430E+02  0.32822571817E+02  0.50400000000E-02 0. -1.
          1   -1    0    0  501    0  0.00000000000E+00 -0.00000000000E+00 -0.19340741011E+04  0.19340741011E+04  0.50400000000E-02 0.  1.
    5000001    1    1    2    0    0 -0.11474389795E+03 -0.88662777129E+02 -0.12797535742E+04  0.13015915107E+04  0.18800000000E+03 0.  0.
   -5000001    1    1    2    0    0  0.11474389795E+03  0.88662777129E+02 -0.62149795543E+03  0.66530516214E+03  0.18800000000E+03 0.  0.
<mgrwt>
<rscale>  0 0.50390986E+03</rscale>
<asrwt>0</asrwt>
<pdfrwt beam="1">  1        1 0.27629623E+00 0.50390986E+03</pdfrwt>
<pdfrwt beam="2">  1       -1 0.46889400E-02 0.50390986E+03</pdfrwt>
<totfact> 0.87205900E+02</totfact>
</mgrwt>
</event>
<event>
 4    1  0.1578814E-005  0.4832159E+03  0.7818608E-02  0.1018255E+00
          1   -1    0    0  501    0  0.00000000000E+00  0.00000000000E+00  0.38605482189E+04  0.38605482189E+04  0.50400000000E-02 0.  1.
         -1   -1    0    0    0  501 -0.00000000000E+00 -0.00000000000E+00 -0.15120754235E+02  0.15120755075E+02  0.50400000000E-02 0. -1.
    5000001    1    1    2    0    0 -0.10370300870E+02 -0.77535016017E+02  0.29657332145E+04  0.29727153785E+04  0.18800000000E+03 0.  0.
   -5000001    1    1    2    0    0  0.10370300870E+02  0.77535016017E+02  0.87969425008E+03  0.90295359541E+03  0.18800000000E+03 0.  0.
<mgrwt>
<rscale>  0 0.48321590E+03</rscale>
<asrwt>0</asrwt>
<pdfrwt beam="1">  1        1 0.55150631E+00 0.48321590E+03</pdfrwt>
<pdfrwt beam="2">  1       -1 0.21601101E-02 0.48321590E+03</pdfrwt>
<totfact> 0.15833763E+02</totfact>
</mgrwt>
</event>
<event>
 4    1  0.1578814E-005  0.4666056E+03  0.7818608E-02  0.1022883E+00
         -1   -1    0    0    0  501 -0.00000000000E+00  0.00000000000E+00  0.24234681395E+02  0.24234681919E+02  0.50400000000E-02 0. -1.
          1   -1    0    0  501    0  0.00000000000E+00 -0.00000000000E+00 -0.22459625054E+04  0.22459625054E+04  0.50400000000E-02 0.  1.
    5000001    1    1    2    0    0 -0.59014384282E+02  0.75791704214E+01 -0.17174935641E+04  0.17287765281E+04  0.18800000000E+03 0.  0.
   -5000001    1    1    2    0    0  0.59014384282E+02 -0.75791704214E+01 -0.50423425990E+03  0.54142065922E+03  0.18800000000E+03 0.  0.
<mgrwt>
<rscale>  0 0.46660556E+03</rscale>
<asrwt>0</asrwt>
<pdfrwt beam="1">  1        1 0.32085166E+00 0.46660556E+03</pdfrwt>
<pdfrwt beam="2">  1       -1 0.34620988E-02 0.46660556E+03</pdfrwt>
<totfact> 0.88992084E+02</totfact>
</mgrwt>
</event>
<event>
 4    1  0.1578814E-005  0.1074197E+04  0.7818608E-02  0.9230713E-01
          1   -1    0    0  501    0  0.00000000000E+00  0.00000000000E+00  0.40659551179E+03  0.40659551182E+03  0.50400000000E-02 0.  1.
         -1   -1    0    0    0  501 -0.00000000000E+00 -0.00000000000E+00 -0.70948833652E+03  0.70948833654E+03  0.50400000000E-02 0. -1.
    5000001    1    1    2    0    0 -0.33296514776E+03 -0.32507346002E+03 -0.35019650578E+03  0.61198050352E+03  0.18800000000E+03 0.  0.
   -5000001    1    1    2    0    0  0.33296514776E+03  0.32507346002E+03  0.47303681040E+02  0.50410334483E+03  0.18800000000E+03 0.  0.
<mgrwt>
<rscale>  0 0.10741970E+04</rscale>
<asrwt>0</asrwt>
<pdfrwt beam="1">  1        1 0.58085073E-01 0.10741970E+04</pdfrwt>
<pdfrwt beam="2">  1       -1 0.10135548E+00 0.10741970E+04</pdfrwt>
<totfact> 0.59817335E+01</totfact>
</mgrwt>
</event>
<event>
 4    1  0.1578814E-005  0.4892640E+03  0.7818608E-02  0.1016620E+00
         -1   -1    0    0    0  501 -0.00000000000E+00  0.00000000000E+00  0.96132739093E+02  0.96132739225E+02  0.50400000000E-02 0.  1.
          1   -1    0    0  501    0  0.00000000000E+00 -0.00000000000E+00 -0.62252281939E+03  0.62252281941E+03  0.50400000000E-02 0. -1.
    5000001    1    1    2    0    0  0.85604820741E+02 -0.26211069740E+02 -0.74600065013E+02  0.22118855127E+03  0.18800000000E+03 0.  0.
   -5000001    1    1    2    0    0 -0.85604820741E+02  0.26211069740E+02 -0.45179001528E+03  0.49746700737E+03  0.18800000000E+03 0.  0.
<mgrwt>
<rscale>  0 0.48926403E+03</rscale>
<asrwt>0</asrwt>
<pdfrwt beam="1">  1        1 0.88931829E-01 0.48926403E+03</pdfrwt>
<pdfrwt beam="2">  1       -1 0.13733249E-01 0.48926403E+03</pdfrwt>
<totfact> 0.13743793E+03</totfact>
</mgrwt>
</event>
<event>
 4    1  0.1578814E-005  0.5478394E+03  0.7818608E-02  0.1001995E+00
          1   -1    0    0  501    0  0.00000000000E+00  0.00000000000E+00  0.10401024716E+03  0.10401024728E+03  0.50400000000E-02 0.  1.
         -1   -1    0    0    0  501 -0.00000000000E+00 -0.00000000000E+00 -0.72139036395E+03  0.72139036397E+03  0.50400000000E-02 0. -1.
    5000001    1    1    2    0    0 -0.40857740046E+02 -0.18004086737E+03 -0.19590344148E+03  0.32833858626E+03  0.18800000000E+03 0.  0.
   -5000001    1    1    2    0    0  0.40857740046E+02  0.18004086737E+03 -0.42147667531E+03  0.49706202498E+03  0.18800000000E+03 0.  0.
<mgrwt>
<rscale>  0 0.54783936E+03</rscale>
<asrwt>0</asrwt>
<pdfrwt beam="1">  1        1 0.14858607E-01 0.54783936E+03</pdfrwt>
<pdfrwt beam="2">  1       -1 0.10305576E+00 0.54783936E+03</pdfrwt>
<totfact> 0.35309779E+02</totfact>
</mgrwt>
</event>
<event>
 4    1  0.1578814E-005  0.4899918E+03  0.7818608E-02  0.1016425E+00
          1   -1    0    0  501    0  0.00000000000E+00  0.00000000000E+00  0.21693672760E+04  0.21693672760E+04  0.50400000000E-02 0.  1.
         -1   -1    0    0    0  501 -0.00000000000E+00 -0.00000000000E+00 -0.27668428638E+02  0.27668429097E+02  0.50400000000E-02 0. -1.
    5000001    1    1    2    0    0  0.15275583867E+03 -0.21968421533E+02  0.12024957084E+04  0.12268483551E+04  0.18800000000E+03 0.  0.
   -5000001    1    1    2    0    0 -0.15275583867E+03  0.21968421533E+02  0.93920313899E+03  0.97018734999E+03  0.18800000000E+03 0.  0.
<mgrwt>
<rscale>  0 0.48999177E+03</rscale>
<asrwt>0</asrwt>
<pdfrwt beam="1">  1        1 0.30990958E+00 0.48999177E+03</pdfrwt>
<pdfrwt beam="2">  1       -1 0.39526331E-02 0.48999177E+03</pdfrwt>
<totfact> 0.81074696E+02</totfact>
</mgrwt>
</event>
<event>
 4    1  0.1578814E-005  0.8240724E+03  0.7818608E-02  0.9525812E-01
          1   -1    0    0  501    0  0.00000000000E+00  0.00000000000E+00  0.74447734048E+03  0.74447734050E+03  0.50400000000E-02 0.  1.
         -1   -1    0    0    0  501 -0.00000000000E+00 -0.00000000000E+00 -0.22804431005E+03  0.22804431011E+03  0.50400000000E-02 0. -1.
    5000001    1    1    2    0    0 -0.16795438455E+03 -0.25305571709E+03  0.15830508529E+02  0.35754786566E+03  0.18800000000E+03 0.  0.
   -5000001    1    1    2    0    0  0.16795438455E+03  0.25305571709E+03  0.50060252190E+03  0.61497378495E+03  0.18800000000E+03 0.  0.
<mgrwt>
<rscale>  0 0.82407238E+03</rscale>
<asrwt>0</asrwt>
<pdfrwt beam="1">  1        1 0.10635391E+00 0.82407238E+03</pdfrwt>
<pdfrwt beam="2">  1       -1 0.32577758E-01 0.82407238E+03</pdfrwt>
<totfact> 0.24686337E+02</totfact>
</mgrwt>
</event>
<event>
 4    1  0.1578814E-005  0.4723471E+03  0.7818608E-02  0.1021260E+00
         -1   -1    0    0    0  501 -0.00000000000E+00  0.00000000000E+00  0.36473107634E+02  0.36473107982E+02  0.50400000000E-02 0.  1.
          1   -1    0    0  501    0  0.00000000000E+00 -0.00000000000E+00 -0.15292898700E+04  0.15292898700E+04  0.50400000000E-02 0. -1.
    5000001    1    1    2    0    0  0.10358322482E+03 -0.51195573380E+02 -0.46741868447E+03  0.51688944445E+03  0.18800000000E+03 0.  0.
   -5000001    1    1    2    0    0 -0.10358322482E+03  0.51195573380E+02 -0.10253980779E+04  0.10488735335E+04  0.18800000000E+03 0.  0.
<mgrwt>
<rscale>  0 0.47234714E+03</rscale>
<asrwt>0</asrwt>
<pdfrwt beam="1">  1        1 0.21846994E+00 0.47234714E+03</pdfrwt>
<pdfrwt beam="2">  1       -1 0.52104449E-02 0.47234714E+03</pdfrwt>
<totfact> 0.13287530E+03</totfact>
</mgrwt>
</event>
<event>
 4    1  0.1578814E-005  0.5141659E+03  0.7818608E-02  0.1010146E+00
          1   -1    0    0  501    0  0.00000000000E+00  0.00000000000E+00  0.88266831926E+03  0.88266831927E+03  0.50400000000E-02 0. -1.
         -1   -1    0    0    0  501 -0.00000000000E+00 -0.00000000000E+00 -0.74877101092E+02  0.74877101262E+02  0.50400000000E-02 0.  1.
    5000001    1    1    2    0    0  0.72353161075E+01  0.11871008562E+03  0.16392826303E+03  0.27633477821E+03  0.18800000000E+03 0.  0.
   -5000001    1    1    2    0    0 -0.72353161075E+01 -0.11871008562E+03  0.64386295513E+03  0.68121064233E+03  0.18800000000E+03 0.  0.
<mgrwt>
<rscale>  0 0.51416591E+03</rscale>
<asrwt>0</asrwt>
<pdfrwt beam="1">  1        1 0.12609547E+00 0.51416591E+03</pdfrwt>
<pdfrwt beam="2">  1       -1 0.10696729E-01 0.51416591E+03</pdfrwt>
<totfact> 0.12151979E+03</totfact>
</mgrwt>
</event>
<event>
 4    1  0.1578814E-005  0.6873203E+03  0.7818608E-02  0.9739165E-01
         -1   -1    0    0    0  501 -0.00000000000E+00  0.00000000000E+00  0.11275939758E+04  0.11275939758E+04  0.50400000000E-02 0. -1.
          1   -1    0    0  501    0  0.00000000000E+00 -0.00000000000E+00 -0.10473832509E+03  0.10473832521E+03  0.50400000000E-02 0.  1.
    5000001    1    1    2    0    0 -0.28245004413E+03  0.53925554821E+02  0.49618123933E+03  0.60351123864E+03  0.18800000000E+03 0.  0.
   -5000001    1    1    2    0    0  0.28245004413E+03 -0.53925554821E+02  0.52667441135E+03  0.62882106236E+03  0.18800000000E+03 0.  0.
<mgrwt>
<rscale>  0 0.68732032E+03</rscale>
<asrwt>0</asrwt>
<pdfrwt beam="1">  1        1 0.14962618E-01 0.68732032E+03</pdfrwt>
<pdfrwt beam="2">  1       -1 0.16108485E+00 0.68732032E+03</pdfrwt>
<totfact> 0.11330056E+02</totfact>
</mgrwt>
</event>
<event>
 4    1  0.1578814E-005  0.1407968E+04  0.7818608E-02  0.8948071E-01
         -1   -1    0    0    0  501 -0.00000000000E+00  0.00000000000E+00  0.56090588517E+03  0.56090588520E+03  0.50400000000E-02 0. -1.
          1   -1    0    0  501    0  0.00000000000E+00 -0.00000000000E+00 -0.88355903338E+03  0.88355903340E+03  0.50400000000E-02 0.  1.
    5000001    1    1    2    0    0 -0.64429387898E+03  0.53438592640E+02  0.49622428633E+02  0.67511233961E+03  0.18800000000E+03 0.  0.
   -5000001    1    1    2    0    0  0.64429387898E+03 -0.53438592640E+02 -0.37227557684E+03  0.76935257898E+03  0.18800000000E+03 0.  0.
<mgrwt>
<rscale>  0 0.14079680E+04</rscale>
<asrwt>0</asrwt>
<pdfrwt beam="1">  1        1 0.12622272E+00 0.14079680E+04</pdfrwt>
<pdfrwt beam="2">  1       -1 0.80129413E-01 0.14079680E+04</pdfrwt>
<totfact> 0.32231492E+01</totfact>
</mgrwt>
</event>
<event>
 4    1  0.1578814E-005  0.4594827E+03  0.7818608E-02  0.1024931E+00
         -1   -1    0    0    0  501 -0.00000000000E+00  0.00000000000E+00  0.36920568642E+03  0.36920568646E+03  0.50400000000E-02 0. -1.
          1   -1    0    0  501    0  0.00000000000E+00 -0.00000000000E+00 -0.14295846126E+03  0.14295846135E+03  0.50400000000E-02 0.  1.
    5000001    1    1    2    0    0 -0.69989568340E+02 -0.10686587684E+03  0.75849785841E+02  0.23961645461E+03  0.18800000000E+03 0.  0.
   -5000001    1    1    2    0    0  0.69989568340E+02  0.10686587684E+03  0.15039743932E+03  0.27254769319E+03  0.18800000000E+03 0.  0.
<mgrwt>
<rscale>  0 0.45948265E+03</rscale>
<asrwt>0</asrwt>
<pdfrwt beam="1">  1        1 0.20422638E-01 0.45948265E+03</pdfrwt>
<pdfrwt beam="2">  1       -1 0.52743668E-01 0.45948265E+03</pdfrwt>
<totfact> 0.92763096E+02</totfact>
</mgrwt>
</event>
<event>
 4    1  0.1578814E-005  0.4252403E+03  0.7818608E-02  0.1035374E+00
          1   -1    0    0  501    0  0.00000000000E+00  0.00000000000E+00  0.22652464576E+04  0.22652464576E+04  0.50400000000E-02 0.  1.
         -1   -1    0    0    0  501 -0.00000000000E+00 -0.00000000000E+00 -0.19956918035E+02  0.19956918671E+02  0.50400000000E-02 0. -1.
    5000001    1    1    2    0    0 -0.58092088187E+02  0.66573842573E+02  0.87894097813E+03  0.90315447752E+03  0.18800000000E+03 0.  0.
   -5000001    1    1    2    0    0  0.58092088187E+02 -0.66573842573E+02  0.13663485615E+04  0.13820488988E+04  0.18800000000E+03 0.  0.
<mgrwt>
<rscale>  0 0.42524035E+03</rscale>
<asrwt>0</asrwt>
<pdfrwt beam="1">  1        1 0.32360647E+00 0.42524035E+03</pdfrwt>
<pdfrwt beam="2">  1       -1 0.28509898E-02 0.42524035E+03</pdfrwt>
<totfact> 0.11617338E+03</totfact>
</mgrwt>
</event>
<event>
 4    1  0.1578814E-005  0.4745906E+03  0.7818608E-02  0.1020632E+00
          1   -1    0    0  501    0  0.00000000000E+00  0.00000000000E+00  0.10833782485E+04  0.10833782485E+04  0.50400000000E-02 0. -1.
         -1   -1    0    0    0  501 -0.00000000000E+00 -0.00000000000E+00 -0.51975447507E+02  0.51975447751E+02  0.50400000000E-02 0.  1.
    5000001    1    1    2    0    0  0.51102766378E+02 -0.11037145982E+03  0.70363958567E+03  0.73840775889E+03  0.18800000000E+03 0.  0.
   -5000001    1    1    2    0    0 -0.51102766378E+02  0.11037145982E+03  0.32776321531E+03  0.39694593736E+03  0.18800000000E+03 0.  0.
<mgrwt>
<rscale>  0 0.47459064E+03</rscale>
<asrwt>0</asrwt>
<pdfrwt beam="1">  1        1 0.15476830E+00 0.47459064E+03</pdfrwt>
<pdfrwt beam="2">  1       -1 0.74250648E-02 0.47459064E+03</pdfrwt>
<totfact> 0.15256664E+03</totfact>
</mgrwt>
</event>
<event>
 4    1  0.1578814E-005  0.4330465E+03  0.7818608E-02  0.1032902E+00
          1   -1    0    0  501    0  0.00000000000E+00  0.00000000000E+00  0.33672885777E+02  0.33672886154E+02  0.50400000000E-02 0.  1.
         -1   -1    0    0    0  501 -0.00000000000E+00 -0.00000000000E+00 -0.13922869380E+04  0.13922869380E+04  0.50400000000E-02 0. -1.
    5000001    1    1    2    0    0 -0.33380378503E+02 -0.85777670809E+02 -0.86164507244E+03  0.88670642793E+03  0.18800000000E+03 0.  0.
   -5000001    1    1    2    0    0  0.33380378503E+02  0.85777670809E+02 -0.49696897977E+03  0.53925339622E+03  0.18800000000E+03 0.  0.
<mgrwt>
<rscale>  0 0.43304651E+03</rscale>
<asrwt>0</asrwt>
<pdfrwt beam="1">  1        1 0.48104131E-02 0.43304651E+03</pdfrwt>
<pdfrwt beam="2">  1       -1 0.19889810E+00 0.43304651E+03</pdfrwt>
<totfact> 0.29676945E+02</totfact>
</mgrwt>
</event>
<event>
 4    1  0.1578814E-005  0.5454326E+03  0.7818608E-02  0.1002557E+00
          1   -1    0    0  501    0  0.00000000000E+00  0.00000000000E+00  0.10206472551E+04  0.10206472552E+04  0.50400000000E-02 0.  1.
         -1   -1    0    0    0  501 -0.00000000000E+00 -0.00000000000E+00 -0.72869626651E+02  0.72869626825E+02  0.50400000000E-02 0. -1.
    5000001    1    1    2    0    0  0.13245868024E+03 -0.11931295187E+02  0.76678067642E+03  0.80061492836E+03  0.18800000000E+03 0.  0.
   -5000001    1    1    2    0    0 -0.13245868024E+03  0.11931295187E+02  0.18099695207E+03  0.29290195362E+03  0.18800000000E+03 0.  0.
<mgrwt>
<rscale>  0 0.54543262E+03</rscale>
<asrwt>0</asrwt>
<pdfrwt beam="1">  1        1 0.14580676E+00 0.54543262E+03</pdfrwt>
<pdfrwt beam="2">  1       -1 0.10409946E-01 0.54543262E+03</pdfrwt>
<totfact> 0.99708231E+02</totfact>
</mgrwt>
</event>
<event>
 4    1  0.1578814E-005  0.4998339E+03  0.7818608E-02  0.1013822E+00
         -1   -1    0    0    0  501 -0.00000000000E+00  0.00000000000E+00  0.46459045671E+02  0.46459045945E+02  0.50400000000E-02 0. -1.
          1   -1    0    0  501    0  0.00000000000E+00 -0.00000000000E+00 -0.13443770399E+04  0.13443770399E+04  0.50400000000E-02 0.  1.
    5000001    1    1    2    0    0 -0.38961502752E+02 -0.92976153608E+02 -0.28666628694E+03  0.35732915345E+03  0.18800000000E+03 0.  0.
   -5000001    1    1    2    0    0  0.38961502752E+02  0.92976153608E+02 -0.10112517073E+04  0.10335069324E+04  0.18800000000E+03 0.  0.
<mgrwt>
<rscale>  0 0.49983387E+03</rscale>
<asrwt>0</asrwt>
<pdfrwt beam="1">  1        1 0.19205384E+00 0.49983387E+03</pdfrwt>
<pdfrwt beam="2">  1       -1 0.66370074E-02 0.49983387E+03</pdfrwt>
<totfact> 0.12054353E+03</totfact>
</mgrwt>
</event>
<event>
 4    1  0.1578814E-005  0.1677298E+04  0.7818608E-02  0.8774419E-01
         -1   -1    0    0    0  501 -0.00000000000E+00  0.00000000000E+00  0.37768673572E+03  0.37768673576E+03  0.50400000000E-02 0. -1.
          1   -1    0    0  501    0  0.00000000000E+00 -0.00000000000E+00 -0.18622106211E+04  0.18622106211E+04  0.50400000000E-02 0.  1.
    5000001    1    1    2    0    0  0.13525379337E+03 -0.70329788268E+03 -0.12681304929E+04  0.14684755522E+04  0.18800000000E+03 0.  0.
   -5000001    1    1    2    0    0 -0.13525379337E+03  0.70329788268E+03 -0.21639339247E+03  0.77142180466E+03  0.18800000000E+03 0.  0.
<mgrwt>
<rscale>  0 0.16772981E+04</rscale>
<asrwt>0</asrwt>
<pdfrwt beam="1">  1        1 0.26603008E+00 0.16772981E+04</pdfrwt>
<pdfrwt beam="2">  1       -1 0.53955249E-01 0.16772981E+04</pdfrwt>
<totfact> 0.15087363E+01</totfact>
</mgrwt>
</event>
<event>
 4    1  0.1578814E-005  0.7260318E+03  0.7818608E-02  0.9673722E-01
          1   -1    0    0  501    0  0.00000000000E+00  0.00000000000E+00  0.11181306246E+04  0.11181306246E+04  0.50400000000E-02 0.  1.
         -1   -1    0    0    0  501 -0.00000000000E+00 -0.00000000000E+00 -0.11785790908E+03  0.11785790919E+03  0.50400000000E-02 0. -1.
    5000001    1    1    2    0    0 -0.33762593295E+02  0.15960689759E+03  0.50298741246E+02  0.25394534419E+03  0.18800000000E+03 0.  0.
   -5000001    1    1    2    0    0  0.33762593295E+02 -0.15960689759E+03  0.94997397425E+03  0.98204318959E+03  0.18800000000E+03 0.  0.
<mgrwt>
<rscale>  0 0.72603178E+03</rscale>
<asrwt>0</asrwt>
<pdfrwt beam="1">  1        1 0.15973295E+00 0.72603178E+03</pdfrwt>
<pdfrwt beam="2">  1       -1 0.16836844E-01 0.72603178E+03</pdfrwt>
<totfact> 0.38892484E+02</totfact>
</mgrwt>
</event>
<event>
 4    1  0.1578814E-005  0.4529296E+03  0.7818608E-02  0.1026852E+00
         -1   -1    0    0    0  501 -0.00000000000E+00  0.00000000000E+00  0.97974737936E+02  0.97974738066E+02  0.50400000000E-02 0. -1.
          1   -1    0    0  501    0  0.00000000000E+00 -0.00000000000E+00 -0.52346452339E+03  0.52346452341E+03  0.50400000000E-02 0.  1.
    5000001    1    1    2    0    0  0.11441226674E+03 -0.52232779670E+02 -0.22801528486E+03  0.32117503045E+03  0.18800000000E+03 0.  0.
   -5000001    1    1    2    0    0 -0.11441226674E+03  0.52232779670E+02 -0.19747450059E+03  0.30026423103E+03  0.18800000000E+03 0.  0.
<mgrwt>
<rscale>  0 0.45292957E+03</rscale>
<asrwt>0</asrwt>
<pdfrwt beam="1">  1        1 0.74780645E-01 0.45292957E+03</pdfrwt>
<pdfrwt beam="2">  1       -1 0.13996391E-01 0.45292957E+03</pdfrwt>
<totfact> 0.16914237E+03</totfact>
</mgrwt>
</event>
<event>
 4    1  0.1578814E-005  0.6941720E+03  0.7818608E-02  0.9727251E-01
          1   -1    0    0  501    0  0.00000000000E+00  0.00000000000E+00  0.70836964543E+03  0.70836964545E+03  0.50400000000E-02 0. -1.
         -1   -1    0    0    0  501 -0.00000000000E+00 -0.00000000000E+00 -0.17006474657E+03  0.17006474664E+03  0.50400000000E-02 0.  1.
    5000001    1    1    2    0    0  0.70056615038E+02  0.24500963045E+03  0.44894790428E+03  0.54939591288E+03  0.18800000000E+03 0.  0.
   -5000001    1    1    2    0    0 -0.70056615038E+02 -0.24500963045E+03  0.89356994587E+02  0.32903847922E+03  0.18800000000E+03 0.  0.
<mgrwt>
<rscale>  0 0.69417204E+03</rscale>
<asrwt>0</asrwt>
<pdfrwt beam="1">  1        1 0.10119566E+00 0.69417204E+03</pdfrwt>
<pdfrwt beam="2">  1       -1 0.24294964E-01 0.69417204E+03</pdfrwt>
<totfact> 0.44410569E+02</totfact>
</mgrwt>
</event>
<event>
 4    1  0.1578814E-005  0.4795343E+03  0.7818608E-02  0.1019263E+00
         -1   -1    0    0    0  501 -0.00000000000E+00  0.00000000000E+00  0.75204695993E+02  0.75204696161E+02  0.50400000000E-02 0. -1.
          1   -1    0    0  501    0  0.00000000000E+00 -0.00000000000E+00 -0.76442410097E+03  0.76442410099E+03  0.50400000000E-02 0.  1.
    5000001    1    1    2    0    0  0.86025601134E+00 -0.14702828004E+03 -0.30444410430E+03  0.38684398382E+03  0.18800000000E+03 0.  0.
   -5000001    1    1    2    0    0 -0.86025601134E+00  0.14702828004E+03 -0.38477530067E+03  0.45278481333E+03  0.18800000000E+03 0.  0.
<mgrwt>
<rscale>  0 0.47953428E+03</rscale>
<asrwt>0</asrwt>
<pdfrwt beam="1">  1        1 0.10920344E+00 0.47953428E+03</pdfrwt>
<pdfrwt beam="2">  1       -1 0.10743528E-01 0.47953428E+03</pdfrwt>
<totfact> 0.15075402E+03</totfact>
</mgrwt>
</event>
<event>
 4    1  0.1578814E-005  0.4820976E+03  0.7818608E-02  0.1018560E+00
          1   -1    0    0  501    0  0.00000000000E+00  0.00000000000E+00  0.87662735440E+03  0.87662735441E+03  0.50400000000E-02 0. -1.
         -1   -1    0    0    0  501 -0.00000000000E+00 -0.00000000000E+00 -0.66281893890E+02  0.66281894082E+02  0.50400000000E-02 0.  1.
    5000001    1    1    2    0    0  0.64736041416E+02 -0.36307210069E+02  0.14828164592E+03  0.25067990561E+03  0.18800000000E+03 0.  0.
   -5000001    1    1    2    0    0 -0.64736041416E+02  0.36307210069E+02  0.66206381458E+03  0.69222934288E+03  0.18800000000E+03 0.  0.
<mgrwt>
<rscale>  0 0.48209759E+03</rscale>
<asrwt>0</asrwt>
<pdfrwt beam="1">  1        1 0.12523248E+00 0.48209759E+03</pdfrwt>
<pdfrwt beam="2">  1       -1 0.94688420E-02 0.48209759E+03</pdfrwt>
<totfact> 0.14886787E+03</totfact>
</mgrwt>
</event>
<event>
 4    1  0.1578814E-005  0.4209795E+03  0.7818608E-02  0.1036748E+00
         -1   -1    0    0    0  501 -0.00000000000E+00  0.00000000000E+00  0.33322123056E+03  0.33322123059E+03  0.50400000000E-02 0. -1.
          1   -1    0    0  501    0  0.00000000000E+00 -0.00000000000E+00 -0.13296254342E+03  0.13296254351E+03  0.50400000000E-02 0.  1.
    5000001    1    1    2    0    0 -0.58458371362E+02  0.27157146253E+02  0.23351569828E+02  0.20011043848E+03  0.18800000000E+03 0.  0.
   -5000001    1    1    2    0    0  0.58458371362E+02 -0.27157146253E+02  0.17690711731E+03  0.26607333563E+03  0.18800000000E+03 0.  0.
<mgrwt>
<rscale>  0 0.42097954E+03</rscale>
<asrwt>0</asrwt>
<pdfrwt beam="1">  1        1 0.18994649E-01 0.42097954E+03</pdfrwt>
<pdfrwt beam="2">  1       -1 0.47603034E-01 0.42097954E+03</pdfrwt>
<totfact> 0.12357185E+03</totfact>
</mgrwt>
</event>
<event>
 4    1  0.1578814E-005  0.1621037E+04  0.7818608E-02  0.8807728E-01
          1   -1    0    0  501    0  0.00000000000E+00  0.00000000000E+00  0.30132941708E+04  0.30132941708E+04  0.50400000000E-02 0. -1.
         -1   -1    0    0    0  501 -0.00000000000E+00 -0.00000000000E+00 -0.21801385871E+03  0.21801385877E+03  0.50400000000E-02 0.  1.
    5000001    1    1    2    0    0  0.25172450339E+03 -0.45201295535E+03  0.25835044783E+04  0.26414996360E+04  0.18800000000E+03 0.  0.
   -5000001    1    1    2    0    0 -0.25172450339E+03  0.45201295535E+03  0.21177583383E+03  0.58980839364E+03  0.18800000000E+03 0.  0.
<mgrwt>
<rscale>  0 0.16210366E+04</rscale>
<asrwt>0</asrwt>
<pdfrwt beam="1">  1        1 0.43047063E+00 0.16210366E+04</pdfrwt>
<pdfrwt beam="2">  1       -1 0.31144834E-01 0.16210366E+04</pdfrwt>
<totfact> 0.76876814E+00</totfact>
</mgrwt>
</event>
<event>
 4    1  0.1578814E-005  0.5470462E+03  0.7818608E-02  0.1002180E+00
          1   -1    0    0  501    0  0.00000000000E+00  0.00000000000E+00  0.12776793723E+04  0.12776793723E+04  0.50400000000E-02 0.  1.
         -1   -1    0    0    0  501 -0.00000000000E+00 -0.00000000000E+00 -0.58555282289E+02  0.58555282506E+02  0.50400000000E-02 0. -1.
    5000001    1    1    2    0    0 -0.30742772737E+02 -0.11459509325E+03  0.99880605907E+03  0.10232471339E+04  0.18800000000E+03 0.  0.
   -5000001    1    1    2    0    0  0.30742772737E+02  0.11459509325E+03  0.22031803095E+03  0.31298752089E+03  0.18800000000E+03 0.  0.
<mgrwt>
<rscale>  0 0.54704616E+03</rscale>
<asrwt>0</asrwt>
<pdfrwt beam="1">  1        1 0.18252562E+00 0.54704616E+03</pdfrwt>
<pdfrwt beam="2">  1       -1 0.83650405E-02 0.54704616E+03</pdfrwt>
<totfact> 0.93073285E+02</totfact>
</mgrwt>
</event>
<event>
 4    1  0.1578814E-005  0.5637357E+03  0.7818608E-02  0.9983637E-01
         -1   -1    0    0    0  501 -0.00000000000E+00  0.00000000000E+00  0.66247533576E+02  0.66247533768E+02  0.50400000000E-02 0. -1.
          1   -1    0    0  501    0  0.00000000000E+00 -0.00000000000E+00 -0.11992822139E+04  0.11992822139E+04  0.50400000000E-02 0.  1.
    5000001    1    1    2    0    0 -0.16913185476E+03  0.83796166496E+02 -0.35981458917E+03  0.44770293767E+03  0.18800000000E+03 0.  0.
   -5000001    1    1    2    0    0  0.16913185476E+03 -0.83796166496E+02 -0.77322009112E+03  0.81782680998E+03  0.18800000000E+03 0.  0.
<mgrwt>
<rscale>  0 0.56373571E+03</rscale>
<asrwt>0</asrwt>
<pdfrwt beam="1">  1        1 0.17132602E+00 0.56373571E+03</pdfrwt>
<pdfrwt beam="2">  1       -1 0.94639342E-02 0.56373571E+03</pdfrwt>
<totfact> 0.86624550E+02</totfact>
</mgrwt>
</event>
<event>
 4    1  0.1578814E-005  0.7322906E+03  0.7818608E-02  0.9663551E-01
          1   -1    0    0  501    0  0.00000000000E+00  0.00000000000E+00  0.65603570417E+03  0.65603570419E+03  0.50400000000E-02 0.  1.
         -1   -1    0    0    0  501 -0.00000000000E+00 -0.00000000000E+00 -0.20435227253E+03  0.20435227259E+03  0.50400000000E-02 0. -1.
    5000001    1    1    2    0    0 -0.10695913397E+03  0.22384572638E+03 -0.68231426940E+00  0.31127420566E+03  0.18800000000E+03 0.  0.
   -5000001    1    1    2    0    0  0.10695913397E+03 -0.22384572638E+03  0.45236574592E+03  0.54911377112E+03  0.18800000000E+03 0.  0.
<mgrwt>
<rscale>  0 0.73229062E+03</rscale>
<asrwt>0</asrwt>
<pdfrwt beam="1">  1        1 0.93719385E-01 0.73229062E+03</pdfrwt>
<pdfrwt beam="2">  1       -1 0.29193182E-01 0.73229062E+03</pdfrwt>
<totfact> 0.36192268E+02</totfact>
</mgrwt>
</event>
<event>
 4    1  0.1578814E-005  0.4019229E+03  0.7818608E-02  0.1043116E+00
          1   -1    0    0  501    0  0.00000000000E+00  0.00000000000E+00  0.10291809827E+04  0.10291809827E+04  0.50400000000E-02 0.  1.
         -1   -1    0    0    0  501 -0.00000000000E+00 -0.00000000000E+00 -0.39240434892E+02  0.39240435215E+02  0.50400000000E-02 0. -1.
    5000001    1    1    2    0    0 -0.70038136205E+02  0.42950758670E+01  0.52381240682E+03  0.56093424368E+03  0.18800000000E+03 0.  0.
   -5000001    1    1    2    0    0  0.70038136205E+02 -0.42950758670E+01  0.46612814099E+03  0.50748717425E+03  0.18800000000E+03 0.  0.
<mgrwt>
<rscale>  0 0.40192293E+03</rscale>
<asrwt>0</asrwt>
<pdfrwt beam="1">  1        1 0.14702584E+00 0.40192293E+03</pdfrwt>
<pdfrwt beam="2">  1       -1 0.56057770E-02 0.40192293E+03</pdfrwt>
<totfact> 0.25672280E+03</totfact>
</mgrwt>
</event>
<event>
 4    1  0.1578814E-005  0.4443971E+03  0.7818608E-02  0.1029406E+00
         -1   -1    0    0    0  501 -0.00000000000E+00  0.00000000000E+00  0.78699181315E+02  0.78699181476E+02  0.50400000000E-02 0. -1.
          1   -1    0    0  501    0  0.00000000000E+00 -0.00000000000E+00 -0.62735344571E+03  0.62735344573E+03  0.50400000000E-02 0.  1.
    5000001    1    1    2    0    0 -0.10642108764E+03  0.46716327148E+02 -0.23808537621E+03  0.32486383222E+03  0.18800000000E+03 0.  0.
   -5000001    1    1    2    0    0  0.10642108764E+03 -0.46716327148E+02 -0.31056888818E+03  0.38118879498E+03  0.18800000000E+03 0.  0.
<mgrwt>
<rscale>  0 0.44439713E+03</rscale>
<asrwt>0</asrwt>
<pdfrwt beam="1">  1        1 0.89621918E-01 0.44439713E+03</pdfrwt>
<pdfrwt beam="2">  1       -1 0.11242741E-01 0.44439713E+03</pdfrwt>
<totfact> 0.18681534E+03</totfact>
</mgrwt>
</event>
<event>
 4    1  0.1578814E-005  0.4272360E+03  0.7818608E-02  0.1034737E+00
          1   -1    0    0  501    0  0.00000000000E+00  0.00000000000E+00  0.38337302090E+03  0.38337302093E+03  0.50400000000E-02 0.  1.
         -1   -1    0    0    0  501 -0.00000000000E+00 -0.00000000000E+00 -0.11902939957E+03  0.11902939968E+03  0.50400000000E-02 0. -1.
    5000001    1    1    2    0    0  0.12425085013E+02 -0.97269517016E+02  0.16267639971E+03  0.26725147839E+03  0.18800000000E+03 0.  0.
   -5000001    1    1    2    0    0 -0.12425085013E+02  0.97269517016E+02  0.10166722161E+03  0.23515094222E+03  0.18800000000E+03 0.  0.
<mgrwt>
<rscale>  0 0.42723605E+03</rscale>
<asrwt>0</asrwt>
<pdfrwt beam="1">  1        1 0.54767575E-01 0.42723605E+03</pdfrwt>
<pdfrwt beam="2">  1       -1 0.17004200E-01 0.42723605E+03</pdfrwt>
<totfact> 0.18602303E+03</totfact>
</mgrwt>
</event>
<event>
 4    1  0.1578814E-005  0.5331512E+03  0.7818608E-02  0.1005471E+00
         -1   -1    0    0    0  501 -0.00000000000E+00  0.00000000000E+00  0.15131135407E+03  0.15131135416E+03  0.50400000000E-02 0. -1.
          1   -1    0    0  501    0  0.00000000000E+00 -0.00000000000E+00 -0.46964454833E+03  0.46964454836E+03  0.50400000000E-02 0.  1.
    5000001    1    1    2    0    0 -0.12723575570E+03 -0.12036596032E+03 -0.24186492653E+03  0.35287326992E+03  0.18800000000E+03 0.  0.
   -5000001    1    1    2    0    0  0.12723575570E+03  0.12036596032E+03 -0.76468267728E+02  0.26808263260E+03  0.18800000000E+03 0.  0.
<mgrwt>
<rscale>  0 0.53315121E+03</rscale>
<asrwt>0</asrwt>
<pdfrwt beam="1">  1        1 0.67092078E-01 0.53315121E+03</pdfrwt>
<pdfrwt beam="2">  1       -1 0.21615908E-01 0.53315121E+03</pdfrwt>
<totfact> 0.96191364E+02</totfact>
</mgrwt>
</event>
<event>
 4    1  0.1578814E-005  0.5226181E+03  0.7818608E-02  0.1008038E+00
          1   -1    0    0  501    0  0.00000000000E+00  0.00000000000E+00  0.61426517558E+03  0.61426517560E+03  0.50400000000E-02 0.  1.
         -1   -1    0    0    0  501 -0.00000000000E+00 -0.00000000000E+00 -0.11116112659E+03  0.11116112671E+03  0.50400000000E-02 0. -1.
    5000001    1    1    2    0    0  0.83183327670E+02  0.91067004680E+02  0.43635591816E+03  0.49087997786E+03  0.18800000000E+03 0.  0.
   -5000001    1    1    2    0    0 -0.83183327670E+02 -0.91067004680E+02  0.66748130825E+02  0.23454632445E+03  0.18800000000E+03 0.  0.
<mgrwt>
<rscale>  0 0.52261806E+03</rscale>
<asrwt>0</asrwt>
<pdfrwt beam="1">  1        1 0.87752171E-01 0.52261806E+03</pdfrwt>
<pdfrwt beam="2">  1       -1 0.15880160E-01 0.52261806E+03</pdfrwt>
<totfact> 0.11078581E+03</totfact>
</mgrwt>
</event>
<event>
 4    1  0.1578814E-005  0.1005826E+04  0.7818608E-02  0.9302177E-01
         -1   -1    0    0    0  501 -0.00000000000E+00  0.00000000000E+00  0.77016365225E+02  0.77016365390E+02  0.50400000000E-02 0. -1.
          1   -1    0    0  501    0  0.00000000000E+00 -0.00000000000E+00 -0.32839995480E+04  0.32839995480E+04  0.50400000000E-02 0.  1.
    5000001    1    1    2    0    0  0.39440150492E+03  0.46126523577E+02 -0.24213005953E+04  0.24608374136E+04  0.18800000000E+03 0.  0.
   -5000001    1    1    2    0    0 -0.39440150492E+03 -0.46126523577E+02 -0.78568258744E+03  0.90017849978E+03  0.18800000000E+03 0.  0.
<mgrwt>
<rscale>  0 0.10058264E+04</rscale>
<asrwt>0</asrwt>
<pdfrwt beam="1">  1        1 0.46914270E+00 0.10058264E+04</pdfrwt>
<pdfrwt beam="2">  1       -1 0.11002340E-01 0.10058264E+04</pdfrwt>
<totfact> 0.30630618E+01</totfact>
</mgrwt>
</event>
<event>
 4    1  0.1578814E-005  0.5687175E+03  0.7818608E-02  0.9972521E-01
          1   -1    0    0  501    0  0.00000000000E+00  0.00000000000E+00  0.35736055200E+04  0.35736055200E+04  0.50400000000E-02 0. -1.
         -1   -1    0    0    0  501 -0.00000000000E+00 -0.00000000000E+00 -0.22626979858E+02  0.22626980419E+02  0.50400000000E-02 0.  1.
    5000001    1    1    2    0    0  0.18907344334E+03 -0.87990643441E+02  0.14909513367E+04  0.15171588607E+04  0.18800000000E+03 0.  0.
   -5000001    1    1    2    0    0 -0.18907344334E+03  0.87990643441E+02  0.20600272034E+04  0.20790736397E+04  0.18800000000E+03 0.  0.
<mgrwt>
<rscale>  0 0.56871751E+03</rscale>
<asrwt>0</asrwt>
<pdfrwt beam="1">  1        1 0.51051506E+00 0.56871751E+03</pdfrwt>
<pdfrwt beam="2">  1       -1 0.32324258E-02 0.56871751E+03</pdfrwt>
<totfact> 0.13644686E+02</totfact>
</mgrwt>
</event>
<event>
 4    1  0.1578814E-005  0.5865134E+03  0.7818608E-02  0.9933788E-01
         -1   -1    0    0    0  501 -0.00000000000E+00  0.00000000000E+00  0.18855085449E+03  0.18855085456E+03  0.50400000000E-02 0. -1.
          1   -1    0    0  501    0  0.00000000000E+00 -0.00000000000E+00 -0.45610769980E+03  0.45610769983E+03  0.50400000000E-02 0.  1.
    5000001    1    1    2    0    0  0.16145641304E+03  0.15586200706E+03 -0.15263616637E+03  0.33015592959E+03  0.18800000000E+03 0.  0.
   -5000001    1    1    2    0    0 -0.16145641304E+03 -0.15586200706E+03 -0.11492067893E+03  0.31450262480E+03  0.18800000000E+03 0.  0.
<mgrwt>
<rscale>  0 0.58651342E+03</rscale>
<asrwt>0</asrwt>
<pdfrwt beam="1">  1        1 0.65158242E-01 0.58651342E+03</pdfrwt>
<pdfrwt beam="2">  1       -1 0.26935837E-01 0.58651342E+03</pdfrwt>
<totfact> 0.68913210E+02</totfact>
</mgrwt>
</event>
<event>
 4    1  0.1578814E-005  0.5042857E+03  0.7818608E-02  0.1012666E+00
          1   -1    0    0  501    0  0.00000000000E+00  0.00000000000E+00  0.58683555774E+03  0.58683555776E+03  0.50400000000E-02 0.  1.
         -1   -1    0    0    0  501 -0.00000000000E+00 -0.00000000000E+00 -0.10833703051E+03  0.10833703063E+03  0.50400000000E-02 0. -1.
    5000001    1    1    2    0    0 -0.85063551083E+02  0.14068401036E+03  0.28708687408E+03  0.38051369458E+03  0.18800000000E+03 0.  0.
   -5000001    1    1    2    0    0  0.85063551083E+02 -0.14068401036E+03  0.19141165315E+03  0.31465889381E+03  0.18800000000E+03 0.  0.
<mgrwt>
<rscale>  0 0.50428572E+03</rscale>
<asrwt>0</asrwt>
<pdfrwt beam="1">  1        1 0.83833650E-01 0.50428572E+03</pdfrwt>
<pdfrwt beam="2">  1       -1 0.15476719E-01 0.50428572E+03</pdfrwt>
<totfact> 0.12311593E+03</totfact>
</mgrwt>
</event>
<event>
 4    1  0.1578814E-005  0.8785778E+03  0.7818608E-02  0.9452764E-01
         -1   -1    0    0    0  501 -0.00000000000E+00  0.00000000000E+00  0.23362519147E+03  0.23362519153E+03  0.50400000000E-02 0. -1.
          1   -1    0    0  501    0  0.00000000000E+00 -0.00000000000E+00 -0.82600132615E+03  0.82600132616E+03  0.50400000000E-02 0.  1.
    5000001    1    1    2    0    0  0.28010297292E+03  0.27727551668E+03 -0.23845608420E+03  0.49753863336E+03  0.18800000000E+03 0.  0.
   -5000001    1    1    2    0    0 -0.28010297292E+03 -0.27727551668E+03 -0.35392005047E+03  0.56208788433E+03  0.18800000000E+03 0.  0.
<mgrwt>
<rscale>  0 0.87857776E+03</rscale>
<asrwt>0</asrwt>
<pdfrwt beam="1">  1        1 0.11800019E+00 0.87857776E+03</pdfrwt>
<pdfrwt beam="2">  1       -1 0.33375028E-01 0.87857776E+03</pdfrwt>
<totfact> 0.20102242E+02</totfact>
</mgrwt>
</event>
<event>
 4    1  0.1578814E-005  0.7858530E+03  0.7818608E-02  0.9580723E-01
          1   -1    0    0  501    0  0.00000000000E+00  0.00000000000E+00  0.12634996975E+04  0.12634996975E+04  0.50400000000E-02 0. -1.
         -1   -1    0    0    0  501 -0.00000000000E+00 -0.00000000000E+00 -0.12219332258E+03  0.12219332268E+03  0.50400000000E-02 0.  1.
    5000001    1    1    2    0    0  0.30143690649E+02 -0.29076920886E+03  0.24747451323E+03  0.42666498521E+03  0.18800000000E+03 0.  0.
   -5000001    1    1    2    0    0 -0.30143690649E+02  0.29076920886E+03  0.89383186169E+03  0.95902803498E+03  0.18800000000E+03 0.  0.
<mgrwt>
<rscale>  0 0.78585298E+03</rscale>
<asrwt>0</asrwt>
<pdfrwt beam="1">  1        1 0.18049996E+00 0.78585298E+03</pdfrwt>
<pdfrwt beam="2">  1       -1 0.17456189E-01 0.78585298E+03</pdfrwt>
<totfact> 0.28979210E+02</totfact>
</mgrwt>
</event>
<event>
 4    1  0.1578814E-005  0.5901783E+03  0.7818608E-02  0.9925995E-01
          1   -1    0    0  501    0  0.00000000000E+00  0.00000000000E+00  0.13631260852E+04  0.13631260852E+04  0.50400000000E-02 0.  1.
         -1   -1    0    0    0  501 -0.00000000000E+00 -0.00000000000E+00 -0.63880809662E+02  0.63880809861E+02  0.50400000000E-02 0. -1.
    5000001    1    1    2    0    0  0.13252615224E+03  0.18484279715E+03  0.64506213297E+03  0.70935125014E+03  0.18800000000E+03 0.  0.
   -5000001    1    1    2    0    0 -0.13252615224E+03 -0.18484279715E+03  0.65418314260E+03  0.71765564496E+03  0.18800000000E+03 0.  0.
<mgrwt>
<rscale>  0 0.59017827E+03</rscale>
<asrwt>0</asrwt>
<pdfrwt beam="1">  1        1 0.19473230E+00 0.59017827E+03</pdfrwt>
<pdfrwt beam="2">  1       -1 0.91258300E-02 0.59017827E+03</pdfrwt>
<totfact> 0.71168816E+02</totfact>
</mgrwt>
</event>
<event>
 4    1  0.1578814E-005  0.5291947E+03  0.7818608E-02  0.1006428E+00
          1   -1    0    0  501    0  0.00000000000E+00  0.00000000000E+00  0.72784280395E+03  0.72784280397E+03  0.50400000000E-02 0.  1.
         -1   -1    0    0    0  501 -0.00000000000E+00 -0.00000000000E+00 -0.96190764470E+02  0.96190764602E+02  0.50400000000E-02 0. -1.
    5000001    1    1    2    0    0  0.11933668327E+03  0.12473849963E+03  0.42445657507E+03  0.49528610054E+03  0.18800000000E+03 0.  0.
   -5000001    1    1    2    0    0 -0.11933668327E+03 -0.12473849963E+03  0.20719546441E+03  0.32874746803E+03  0.18800000000E+03 0.  0.
<mgrwt>
<rscale>  0 0.52919469E+03</rscale>
<asrwt>0</asrwt>
<pdfrwt beam="1">  1        1 0.10397755E+00 0.52919469E+03</pdfrwt>
<pdfrwt beam="2">  1       -1 0.13741537E-01 0.52919469E+03</pdfrwt>
<totfact> 0.10959622E+03</totfact>
</mgrwt>
</event>
