<event>
 4    1  0.1390278E-004  0.3084942E+03  0.7818608E-02  0.1081070E+00
          2   -1    0    0  501    0  0.00000000000E+00  0.00000000000E+00  0.86944700726E+03  0.86944700726E+03  0.25500000000E-02 0.  1.
         -2   -1    0    0    0  501 -0.00000000000E+00 -0.00000000000E+00 -0.27364721437E+02  0.27364721555E+02  0.25500000000E-02 0. -1.
    5000001    1    1    2    0    0  0.55529897044E+02 -0.67219356947E+02  0.39830580397E+03  0.42705798774E+03  0.12700000000E+03 0.  0.
   -5000001    1    1    2    0    0 -0.55529897044E+02  0.67219356947E+02  0.44377648186E+03  0.46975374108E+03  0.12700000000E+03 0.  0.
<mgrwt>
<rscale>  0 0.30849425E+03</rscale>
<asrwt>0</asrwt>
<pdfrwt beam="1">  1        2 0.12420676E+00 0.30849425E+03</pdfrwt>
<pdfrwt beam="2">  1       -2 0.39092446E-02 0.30849425E+03</pdfrwt>
<totfact> 0.99930331E+03</totfact>
</mgrwt>
</event>
<event>
 4    1  0.1390278E-004  0.3135766E+03  0.7818608E-02  0.1078644E+00
          2   -1    0    0  501    0  0.00000000000E+00  0.00000000000E+00  0.11745266360E+04  0.11745266360E+04  0.25500000000E-02 0.  1.
         -2   -1    0    0    0  501 -0.00000000000E+00 -0.00000000000E+00 -0.20929771623E+02  0.20929771779E+02  0.25500000000E-02 0. -1.
    5000001    1    1    2    0    0 -0.77157969487E+02 -0.48524376143E+02  0.53079595492E+03  0.55333652789E+03  0.12700000000E+03 0.  0.
   -5000001    1    1    2    0    0  0.77157969487E+02  0.48524376143E+02  0.62280090949E+03  0.64211987992E+03  0.12700000000E+03 0.  0.
<mgrwt>
<rscale>  0 0.31357662E+03</rscale>
<asrwt>0</asrwt>
<pdfrwt beam="1">  1        2 0.16778954E+00 0.31357662E+03</pdfrwt>
<pdfrwt beam="2">  1       -2 0.29899670E-02 0.31357662E+03</pdfrwt>
<totfact> 0.98777379E+03</totfact>
</mgrwt>
</event>
<event>
 4    1  0.1390278E-004  0.3392209E+03  0.7818608E-02  0.1067128E+00
         -2   -1    0    0    0  501 -0.00000000000E+00  0.00000000000E+00  0.38846567453E+02  0.38846567536E+02  0.25500000000E-02 0. -1.
          2   -1    0    0  501    0  0.00000000000E+00 -0.00000000000E+00 -0.74054691371E+03  0.74054691372E+03  0.25500000000E-02 0.  1.
    5000001    1    1    2    0    0 -0.10815005533E+03  0.68567537943E+01 -0.28210411335E+03  0.32780356971E+03  0.12700000000E+03 0.  0.
   -5000001    1    1    2    0    0  0.10815005533E+03 -0.68567537943E+01 -0.41959623291E+03  0.45158991155E+03  0.12700000000E+03 0.  0.
<mgrwt>
<rscale>  0 0.33922091E+03</rscale>
<asrwt>0</asrwt>
<pdfrwt beam="1">  1        2 0.10579241E+00 0.33922091E+03</pdfrwt>
<pdfrwt beam="2">  1       -2 0.55495101E-02 0.33922091E+03</pdfrwt>
<totfact> 0.71849943E+03</totfact>
</mgrwt>
</event>
<event>
 4    1  0.1390278E-004  0.3320541E+03  0.7818608E-02  0.1070232E+00
          2   -1    0    0  501    0  0.00000000000E+00  0.00000000000E+00  0.18590679908E+04  0.18590679908E+04  0.25500000000E-02 0.  1.
         -2   -1    0    0    0  501 -0.00000000000E+00 -0.00000000000E+00 -0.14827312216E+02  0.14827312435E+02  0.25500000000E-02 0. -1.
    5000001    1    1    2    0    0 -0.60913922806E+02 -0.22918269545E+02  0.14009815035E+04  0.14082307787E+04  0.12700000000E+03 0.  0.
   -5000001    1    1    2    0    0  0.60913922806E+02  0.22918269545E+02  0.44325917512E+03  0.46566452452E+03  0.12700000000E+03 0.  0.
<mgrwt>
<rscale>  0 0.33205410E+03</rscale>
<asrwt>0</asrwt>
<pdfrwt beam="1">  1        2 0.26558103E+00 0.33205410E+03</pdfrwt>
<pdfrwt beam="2">  1       -2 0.21181883E-02 0.33205410E+03</pdfrwt>
<totfact> 0.73683502E+03</totfact>
</mgrwt>
</event>
<event>
 4    1  0.1390278E-004  0.3768063E+03  0.7818608E-02  0.1052121E+00
         -2   -1    0    0    0  501 -0.00000000000E+00  0.00000000000E+00  0.52465309305E+02  0.52465309366E+02  0.25500000000E-02 0. -1.
          2   -1    0    0  501    0  0.00000000000E+00 -0.00000000000E+00 -0.67655643063E+03  0.67655643064E+03  0.25500000000E-02 0.  1.
    5000001    1    1    2    0    0 -0.64430001583E+02 -0.12186572021E+03 -0.27511973532E+03  0.33289990633E+03  0.12700000000E+03 0.  0.
   -5000001    1    1    2    0    0  0.64430001583E+02  0.12186572021E+03 -0.34897138600E+03  0.39612183368E+03  0.12700000000E+03 0.  0.
<mgrwt>
<rscale>  0 0.37680628E+03</rscale>
<asrwt>0</asrwt>
<pdfrwt beam="1">  1        2 0.96650913E-01 0.37680628E+03</pdfrwt>
<pdfrwt beam="2">  1       -2 0.74950446E-02 0.37680628E+03</pdfrwt>
<totfact> 0.50366862E+03</totfact>
</mgrwt>
</event>
<event>
 4    1  0.1390278E-004  0.6805856E+03  0.7818608E-02  0.9751022E-01
         -2   -1    0    0    0  501 -0.00000000000E+00  0.00000000000E+00  0.38236290689E+03  0.38236290690E+03  0.25500000000E-02 0. -1.
          2   -1    0    0  501    0  0.00000000000E+00 -0.00000000000E+00 -0.30285152183E+03  0.30285152184E+03  0.25500000000E-02 0.  1.
    5000001    1    1    2    0    0  0.11409513008E+03  0.26521134126E+03 -0.88844927300E+02  0.32768456684E+03  0.12700000000E+03 0.  0.
   -5000001    1    1    2    0    0 -0.11409513008E+03 -0.26521134126E+03  0.16835631236E+03  0.35752986190E+03  0.12700000000E+03 0.  0.
<mgrwt>
<rscale>  0 0.68058560E+03</rscale>
<asrwt>0</asrwt>
<pdfrwt beam="1">  1        2 0.43264503E-01 0.68058560E+03</pdfrwt>
<pdfrwt beam="2">  1       -2 0.54623272E-01 0.68058560E+03</pdfrwt>
<totfact> 0.37538109E+02</totfact>
</mgrwt>
</event>
<event>
 4    1  0.1390278E-004  0.5693833E+03  0.7818608E-02  0.9971044E-01
          2   -1    0    0  501    0  0.00000000000E+00  0.00000000000E+00  0.35219550362E+03  0.35219550363E+03  0.25500000000E-02 0.  1.
         -2   -1    0    0    0  501 -0.00000000000E+00 -0.00000000000E+00 -0.23012599365E+03  0.23012599366E+03  0.25500000000E-02 0. -1.
    5000001    1    1    2    0    0  0.24508960649E+03  0.69179181132E+02  0.69322342227E+02  0.29289803933E+03  0.12700000000E+03 0.  0.
   -5000001    1    1    2    0    0 -0.24508960649E+03 -0.69179181132E+02  0.52747167747E+02  0.28942345796E+03  0.12700000000E+03 0.  0.
<mgrwt>
<rscale>  0 0.56938332E+03</rscale>
<asrwt>0</asrwt>
<pdfrwt beam="1">  1        2 0.50313643E-01 0.56938332E+03</pdfrwt>
<pdfrwt beam="2">  1       -2 0.32875142E-01 0.56938332E+03</pdfrwt>
<totfact> 0.86359000E+02</totfact>
</mgrwt>
</event>
<event>
 4    1  0.1390278E-004  0.4470701E+03  0.7818608E-02  0.1028599E+00
          2   -1    0    0  501    0  0.00000000000E+00  0.00000000000E+00  0.54193774209E+03  0.54193774209E+03  0.25500000000E-02 0.  1.
         -2   -1    0    0    0  501 -0.00000000000E+00 -0.00000000000E+00 -0.92202336390E+02  0.92202336425E+02  0.25500000000E-02 0. -1.
    5000001    1    1    2    0    0 -0.69629383662E+02 -0.17001202252E+03  0.23806655750E+03  0.32643073487E+03  0.12700000000E+03 0.  0.
   -5000001    1    1    2    0    0  0.69629383662E+02  0.17001202252E+03  0.21166884820E+03  0.30770934365E+03  0.12700000000E+03 0.  0.
<mgrwt>
<rscale>  0 0.44707013E+03</rscale>
<asrwt>0</asrwt>
<pdfrwt beam="1">  1        2 0.77419679E-01 0.44707013E+03</pdfrwt>
<pdfrwt beam="2">  1       -2 0.13171762E-01 0.44707013E+03</pdfrwt>
<totfact> 0.26429246E+03</totfact>
</mgrwt>
</event>
<event>
 4    1  0.1390278E-004  0.9119412E+03  0.7818608E-02  0.9410776E-01
         -2   -1    0    0    0  501 -0.00000000000E+00  0.00000000000E+00  0.17793613768E+03  0.17793613770E+03  0.25500000000E-02 0. -1.
          2   -1    0    0  501    0  0.00000000000E+00 -0.00000000000E+00 -0.11684483851E+04  0.11684483851E+04  0.25500000000E-02 0.  1.
    5000001    1    1    2    0    0 -0.34775478797E+03  0.18488878549E+03 -0.21256257594E+03  0.46521941516E+03  0.12700000000E+03 0.  0.
   -5000001    1    1    2    0    0  0.34775478797E+03 -0.18488878549E+03 -0.77794967144E+03  0.88116510760E+03  0.12700000000E+03 0.  0.
<mgrwt>
<rscale>  0 0.91194121E+03</rscale>
<asrwt>0</asrwt>
<pdfrwt beam="1">  1        2 0.16692119E+00 0.91194121E+03</pdfrwt>
<pdfrwt beam="2">  1       -2 0.25419449E-01 0.91194121E+03</pdfrwt>
<totfact> 0.30971534E+02</totfact>
</mgrwt>
</event>
<event>
 4    1  0.1390278E-004  0.4124425E+03  0.7818608E-02  0.1039554E+00
          2   -1    0    0  501    0  0.00000000000E+00  0.00000000000E+00  0.50320225454E+03  0.50320225455E+03  0.25500000000E-02 0.  1.
         -2   -1    0    0    0  501 -0.00000000000E+00 -0.00000000000E+00 -0.84513147477E+02  0.84513147516E+02  0.25500000000E-02 0. -1.
    5000001    1    1    2    0    0 -0.12376272865E+03 -0.82394172414E+02  0.11598832331E+03  0.22735061864E+03  0.12700000000E+03 0.  0.
   -5000001    1    1    2    0    0  0.12376272865E+03  0.82394172414E+02  0.30270078375E+03  0.36036478343E+03  0.12700000000E+03 0.  0.
<mgrwt>
<rscale>  0 0.41244251E+03</rscale>
<asrwt>0</asrwt>
<pdfrwt beam="1">  1        2 0.71886038E-01 0.41244251E+03</pdfrwt>
<pdfrwt beam="2">  1       -2 0.12073307E-01 0.41244251E+03</pdfrwt>
<totfact> 0.33126916E+03</totfact>
</mgrwt>
</event>
<event>
 4    1  0.1390278E-004  0.3086986E+03  0.7818608E-02  0.1080971E+00
         -2   -1    0    0    0  501 -0.00000000000E+00  0.00000000000E+00  0.58807819877E+02  0.58807819933E+02  0.25500000000E-02 0. -1.
          2   -1    0    0  501    0  0.00000000000E+00 -0.00000000000E+00 -0.40511115424E+03  0.40511115425E+03  0.25500000000E-02 0.  1.
    5000001    1    1    2    0    0 -0.11987791939E+02 -0.58326553729E+02 -0.76350692887E+02  0.15970010122E+03  0.12700000000E+03 0.  0.
   -5000001    1    1    2    0    0  0.11987791939E+02  0.58326553729E+02 -0.26995264147E+03  0.30421887296E+03  0.12700000000E+03 0.  0.
<mgrwt>
<rscale>  0 0.30869858E+03</rscale>
<asrwt>0</asrwt>
<pdfrwt beam="1">  1        2 0.57873021E-01 0.30869858E+03</pdfrwt>
<pdfrwt beam="2">  1       -2 0.84011174E-02 0.30869858E+03</pdfrwt>
<totfact> 0.74677594E+03</totfact>
</mgrwt>
</event>
<event>
 4    1  0.1390278E-004  0.3901437E+03  0.7818608E-02  0.1047247E+00
          2   -1    0    0  501    0  0.00000000000E+00  0.00000000000E+00  0.10678265261E+04  0.10678265261E+04  0.25500000000E-02 0.  1.
         -2   -1    0    0    0  501 -0.00000000000E+00 -0.00000000000E+00 -0.35635966933E+02  0.35635967024E+02  0.25500000000E-02 0. -1.
    5000001    1    1    2    0    0  0.98425830625E+02  0.85374771414E+02  0.31715285993E+03  0.36563839007E+03  0.12700000000E+03 0.  0.
   -5000001    1    1    2    0    0 -0.98425830625E+02 -0.85374771414E+02  0.71503769926E+03  0.73782410309E+03  0.12700000000E+03 0.  0.
<mgrwt>
<rscale>  0 0.39014372E+03</rscale>
<asrwt>0</asrwt>
<pdfrwt beam="1">  1        2 0.15254668E+00 0.39014372E+03</pdfrwt>
<pdfrwt beam="2">  1       -2 0.50908513E-02 0.39014372E+03</pdfrwt>
<totfact> 0.50918521E+03</totfact>
</mgrwt>
</event>
<event>
 4    1  0.1390278E-004  0.4852702E+03  0.7818608E-02  0.1017697E+00
         -2   -1    0    0    0  501 -0.00000000000E+00  0.00000000000E+00  0.48010223816E+02  0.48010223884E+02  0.25500000000E-02 0. -1.
          2   -1    0    0  501    0  0.00000000000E+00 -0.00000000000E+00 -0.12262342727E+04  0.12262342727E+04  0.25500000000E-02 0.  1.
    5000001    1    1    2    0    0  0.75201118024E+02 -0.19218625352E+03 -0.62148751119E+03  0.66705808650E+03  0.12700000000E+03 0.  0.
   -5000001    1    1    2    0    0 -0.75201118024E+02  0.19218625352E+03 -0.55673653772E+03  0.60718641011E+03  0.12700000000E+03 0.  0.
<mgrwt>
<rscale>  0 0.48527016E+03</rscale>
<asrwt>0</asrwt>
<pdfrwt beam="1">  1        2 0.17517631E+00 0.48527016E+03</pdfrwt>
<pdfrwt beam="2">  1       -2 0.68586042E-02 0.48527016E+03</pdfrwt>
<totfact> 0.26118654E+03</totfact>
</mgrwt>
</event>
<event>
 4    1  0.1390278E-004  0.5108469E+03  0.7818608E-02  0.1010986E+00
         -2   -1    0    0    0  501 -0.00000000000E+00  0.00000000000E+00  0.79598472793E+02  0.79598472834E+02  0.25500000000E-02 0. -1.
          2   -1    0    0  501    0  0.00000000000E+00 -0.00000000000E+00 -0.81962808523E+03  0.81962808523E+03  0.25500000000E-02 0.  1.
    5000001    1    1    2    0    0 -0.17537499902E+03  0.36524779509E+02 -0.59967183203E+03  0.63861236751E+03  0.12700000000E+03 0.  0.
   -5000001    1    1    2    0    0  0.17537499902E+03 -0.36524779509E+02 -0.14035778040E+03  0.26061419056E+03  0.12700000000E+03 0.  0.
<mgrwt>
<rscale>  0 0.51084692E+03</rscale>
<asrwt>0</asrwt>
<pdfrwt beam="1">  1        2 0.11708972E+00 0.51084692E+03</pdfrwt>
<pdfrwt beam="2">  1       -2 0.11371211E-01 0.51084692E+03</pdfrwt>
<totfact> 0.20474329E+03</totfact>
</mgrwt>
</event>
<event>
 4    1  0.1390278E-004  0.4147887E+03  0.7818608E-02  0.1038776E+00
          2   -1    0    0  501    0  0.00000000000E+00  0.00000000000E+00  0.48190754221E+03  0.48190754221E+03  0.25500000000E-02 0.  1.
         -2   -1    0    0    0  501 -0.00000000000E+00 -0.00000000000E+00 -0.89254487756E+02  0.89254487793E+02  0.25500000000E-02 0. -1.
    5000001    1    1    2    0    0 -0.93653420460E+02  0.11419438759E+03  0.98258848626E+02  0.21816306437E+03  0.12700000000E+03 0.  0.
   -5000001    1    1    2    0    0  0.93653420460E+02 -0.11419438759E+03  0.29439420582E+03  0.35299896564E+03  0.12700000000E+03 0.  0.
<mgrwt>
<rscale>  0 0.41478867E+03</rscale>
<asrwt>0</asrwt>
<pdfrwt beam="1">  1        2 0.68843934E-01 0.41478867E+03</pdfrwt>
<pdfrwt beam="2">  1       -2 0.12750641E-01 0.41478867E+03</pdfrwt>
<totfact> 0.31803021E+03</totfact>
</mgrwt>
</event>
<event>
 4    1  0.1390278E-004  0.4178168E+03  0.7818608E-02  0.1037779E+00
         -2   -1    0    0    0  501 -0.00000000000E+00  0.00000000000E+00  0.38883981997E+02  0.38883982080E+02  0.25500000000E-02 0.  1.
          2   -1    0    0  501    0  0.00000000000E+00 -0.00000000000E+00 -0.11223828063E+04  0.11223828064E+04  0.25500000000E-02 0. -1.
    5000001    1    1    2    0    0  0.39746683470E+02 -0.14940298982E+03 -0.37469431704E+03  0.42476568062E+03  0.12700000000E+03 0.  0.
   -5000001    1    1    2    0    0 -0.39746683470E+02  0.14940298982E+03 -0.70880450732E+03  0.73650110781E+03  0.12700000000E+03 0.  0.
<mgrwt>
<rscale>  0 0.41781677E+03</rscale>
<asrwt>0</asrwt>
<pdfrwt beam="1">  1        2 0.16034038E+00 0.41781677E+03</pdfrwt>
<pdfrwt beam="2">  1       -2 0.55548553E-02 0.41781677E+03</pdfrwt>
<totfact> 0.41449159E+03</totfact>
</mgrwt>
</event>
<event>
 4    1  0.1390278E-004  0.2870847E+03  0.7818608E-02  0.1091881E+00
         -2   -1    0    0    0  501 -0.00000000000E+00  0.00000000000E+00  0.78643745959E+02  0.78643746000E+02  0.25500000000E-02 0. -1.
          2   -1    0    0  501    0  0.00000000000E+00 -0.00000000000E+00 -0.26199675989E+03  0.26199675990E+03  0.25500000000E-02 0.  1.
    5000001    1    1    2    0    0  0.49944817969E+02  0.29000217007E+02 -0.51615545506E+02  0.14875705686E+03  0.12700000000E+03 0.  0.
   -5000001    1    1    2    0    0 -0.49944817969E+02 -0.29000217007E+02 -0.13173746842E+03  0.19188344904E+03  0.12700000000E+03 0.  0.
<mgrwt>
<rscale>  0 0.28708470E+03</rscale>
<asrwt>0</asrwt>
<pdfrwt beam="1">  1        2 0.37428108E-01 0.28708470E+03</pdfrwt>
<pdfrwt beam="2">  1       -2 0.11234821E-01 0.28708470E+03</pdfrwt>
<totfact> 0.75170273E+03</totfact>
</mgrwt>
</event>
<event>
 4    1  0.1390278E-004  0.3345955E+03  0.7818608E-02  0.1069121E+00
          2   -1    0    0  501    0  0.00000000000E+00  0.00000000000E+00  0.28457931122E+03  0.28457931123E+03  0.25500000000E-02 0.  1.
         -2   -1    0    0    0  501 -0.00000000000E+00 -0.00000000000E+00 -0.98350542793E+02  0.98350542826E+02  0.25500000000E-02 0. -1.
    5000001    1    1    2    0    0  0.99375311475E+02 -0.24388923824E+02  0.50457357745E+02  0.17071970328E+03  0.12700000000E+03 0.  0.
   -5000001    1    1    2    0    0 -0.99375311475E+02  0.24388923824E+02  0.13577141068E+03  0.21221015078E+03  0.12700000000E+03 0.  0.
<mgrwt>
<rscale>  0 0.33459546E+03</rscale>
<asrwt>0</asrwt>
<pdfrwt beam="1">  1        2 0.40654187E-01 0.33459546E+03</pdfrwt>
<pdfrwt beam="2">  1       -2 0.14050078E-01 0.33459546E+03</pdfrwt>
<totfact> 0.48005397E+03</totfact>
</mgrwt>
</event>
<event>
 4    1  0.1390278E-004  0.4294197E+03  0.7818608E-02  0.1034043E+00
         -2   -1    0    0    0  501 -0.00000000000E+00  0.00000000000E+00  0.16274545059E+02  0.16274545259E+02  0.25500000000E-02 0. -1.
          2   -1    0    0  501    0  0.00000000000E+00 -0.00000000000E+00 -0.28326636774E+04  0.28326636774E+04  0.25500000000E-02 0.  1.
    5000001    1    1    2    0    0  0.60681565992E+02 -0.12869471863E+03 -0.75388310551E+03  0.77763315248E+03  0.12700000000E+03 0.  0.
   -5000001    1    1    2    0    0 -0.60681565992E+02  0.12869471863E+03 -0.20625060268E+04  0.20713050702E+04  0.12700000000E+03 0.  0.
<mgrwt>
<rscale>  0 0.42941967E+03</rscale>
<asrwt>0</asrwt>
<pdfrwt beam="1">  1        2 0.40466592E+00 0.42941967E+03</pdfrwt>
<pdfrwt beam="2">  1       -2 0.23249368E-02 0.42941967E+03</pdfrwt>
<totfact> 0.20729254E+03</totfact>
</mgrwt>
</event>
<event>
 4    1  0.1390278E-004  0.5028754E+03  0.7818608E-02  0.1013031E+00
         -2   -1    0    0    0  501 -0.00000000000E+00  0.00000000000E+00  0.43504255417E+02  0.43504255491E+02  0.25500000000E-02 0. -1.
          2   -1    0    0  501    0  0.00000000000E+00 -0.00000000000E+00 -0.14532122442E+04  0.14532122442E+04  0.25500000000E-02 0.  1.
    5000001    1    1    2    0    0  0.18577363676E+03 -0.74965639527E+02 -0.45654593790E+03  0.51448506746E+03  0.12700000000E+03 0.  0.
   -5000001    1    1    2    0    0 -0.18577363676E+03  0.74965639527E+02 -0.95316205085E+03  0.98223143220E+03  0.12700000000E+03 0.  0.
<mgrwt>
<rscale>  0 0.50287540E+03</rscale>
<asrwt>0</asrwt>
<pdfrwt beam="1">  1        2 0.20760172E+00 0.50287540E+03</pdfrwt>
<pdfrwt beam="2">  1       -2 0.62148945E-02 0.50287540E+03</pdfrwt>
<totfact> 0.23037699E+03</totfact>
</mgrwt>
</event>
<event>
 4    1  0.1390278E-004  0.3388278E+03  0.7818608E-02  0.1067296E+00
          2   -1    0    0  501    0  0.00000000000E+00  0.00000000000E+00  0.20976359177E+04  0.20976359177E+04  0.25500000000E-02 0.  1.
         -2   -1    0    0    0  501 -0.00000000000E+00 -0.00000000000E+00 -0.13682578355E+02  0.13682578593E+02  0.25500000000E-02 0. -1.
    5000001    1    1    2    0    0  0.91743978334E+02 -0.25210741788E+02  0.67230429172E+03  0.69077825655E+03  0.12700000000E+03 0.  0.
   -5000001    1    1    2    0    0 -0.91743978334E+02  0.25210741788E+02  0.14116490476E+04  0.14205402397E+04  0.12700000000E+03 0.  0.
<mgrwt>
<rscale>  0 0.33882779E+03</rscale>
<asrwt>0</asrwt>
<pdfrwt beam="1">  1        2 0.29966195E+00 0.33882779E+03</pdfrwt>
<pdfrwt beam="2">  1       -2 0.19546562E-02 0.33882779E+03</pdfrwt>
<totfact> 0.63357988E+03</totfact>
</mgrwt>
</event>
<event>
 4    1  0.1390278E-004  0.3400824E+03  0.7818608E-02  0.1066761E+00
         -2   -1    0    0    0  501 -0.00000000000E+00  0.00000000000E+00  0.29495353399E+02  0.29495353509E+02  0.25500000000E-02 0.  1.
          2   -1    0    0  501    0  0.00000000000E+00 -0.00000000000E+00 -0.98029055967E+03  0.98029055967E+03  0.25500000000E-02 0. -1.
    5000001    1    1    2    0    0  0.40393282980E+02 -0.10263435359E+03 -0.54930652110E+03  0.57448418775E+03  0.12700000000E+03 0.  0.
   -5000001    1    1    2    0    0 -0.40393282980E+02  0.10263435359E+03 -0.40148868516E+03  0.43530172543E+03  0.12700000000E+03 0.  0.
<mgrwt>
<rscale>  0 0.34008244E+03</rscale>
<asrwt>0</asrwt>
<pdfrwt beam="1">  1        2 0.14004149E+00 0.34008244E+03</pdfrwt>
<pdfrwt beam="2">  1       -2 0.42136225E-02 0.34008244E+03</pdfrwt>
<totfact> 0.76356414E+03</totfact>
</mgrwt>
</event>
<event>
 4    1  0.1390278E-004  0.3676801E+03  0.7818608E-02  0.1055584E+00
         -2   -1    0    0    0  501 -0.00000000000E+00  0.00000000000E+00  0.27809829199E+02  0.27809829316E+02  0.25500000000E-02 0. -1.
          2   -1    0    0  501    0  0.00000000000E+00 -0.00000000000E+00 -0.12152953540E+04  0.12152953540E+04  0.25500000000E-02 0.  1.
    5000001    1    1    2    0    0 -0.11817611908E+03  0.45349860875E+02 -0.73090870463E+03  0.75258138397E+03  0.12700000000E+03 0.  0.
   -5000001    1    1    2    0    0  0.11817611908E+03 -0.45349860875E+02 -0.45657682013E+03  0.49052379930E+03  0.12700000000E+03 0.  0.
<mgrwt>
<rscale>  0 0.36768006E+03</rscale>
<asrwt>0</asrwt>
<pdfrwt beam="1">  1        2 0.17361359E+00 0.36768006E+03</pdfrwt>
<pdfrwt beam="2">  1       -2 0.39728335E-02 0.36768006E+03</pdfrwt>
<totfact> 0.61364581E+03</totfact>
</mgrwt>
</event>
<event>
 4    1  0.1390278E-004  0.2870062E+03  0.7818608E-02  0.1091923E+00
         -2   -1    0    0    0  501 -0.00000000000E+00  0.00000000000E+00  0.20538433216E+03  0.20538433218E+03  0.25500000000E-02 0. -1.
          2   -1    0    0  501    0  0.00000000000E+00 -0.00000000000E+00 -0.10026635759E+03  0.10026635762E+03  0.25500000000E-02 0.  1.
    5000001    1    1    2    0    0 -0.55252036491E+02 -0.13752873174E+02  0.15327790346E+02  0.14002096348E+03  0.12700000000E+03 0.  0.
   -5000001    1    1    2    0    0  0.55252036491E+02  0.13752873174E+02  0.89790184227E+02  0.16562972632E+03  0.12700000000E+03 0.  0.
<mgrwt>
<rscale>  0 0.28700619E+03</rscale>
<asrwt>0</asrwt>
<pdfrwt beam="1">  1        2 0.14323766E-01 0.28700619E+03</pdfrwt>
<pdfrwt beam="2">  1       -2 0.29340619E-01 0.28700619E+03</pdfrwt>
<totfact> 0.43701434E+03</totfact>
</mgrwt>
</event>
<event>
 4    1  0.1390278E-004  0.4320849E+03  0.7818608E-02  0.1033203E+00
         -2   -1    0    0    0  501 -0.00000000000E+00  0.00000000000E+00  0.77293568436E+03  0.77293568436E+03  0.25500000000E-02 0. -1.
          2   -1    0    0  501    0  0.00000000000E+00 -0.00000000000E+00 -0.60385809559E+02  0.60385809612E+02  0.25500000000E-02 0.  1.
    5000001    1    1    2    0    0  0.34613265244E+02 -0.15373229412E+03  0.50205572922E+03  0.54131381992E+03  0.12700000000E+03 0.  0.
   -5000001    1    1    2    0    0 -0.34613265244E+02  0.15373229412E+03  0.21049414558E+03  0.29200767406E+03  0.12700000000E+03 0.  0.
<mgrwt>
<rscale>  0 0.43208493E+03</rscale>
<asrwt>0</asrwt>
<pdfrwt beam="1">  1        2 0.86265444E-02 0.43208493E+03</pdfrwt>
<pdfrwt beam="2">  1       -2 0.11041938E+00 0.43208493E+03</pdfrwt>
<totfact> 0.52735563E+02</totfact>
</mgrwt>
</event>
<event>
 4    1  0.1390278E-004  0.5034675E+03  0.7818608E-02  0.1012878E+00
          2   -1    0    0  501    0  0.00000000000E+00  0.00000000000E+00  0.64036598678E+03  0.64036598678E+03  0.25500000000E-02 0.  1.
         -2   -1    0    0    0  501 -0.00000000000E+00 -0.00000000000E+00 -0.98958840119E+02  0.98958840152E+02  0.25500000000E-02 0. -1.
    5000001    1    1    2    0    0  0.13555396860E+03 -0.40051271347E+02  0.51316456070E+03  0.54721645544E+03  0.12700000000E+03 0.  0.
   -5000001    1    1    2    0    0 -0.13555396860E+03  0.40051271347E+02  0.28242585955E+02  0.19210837150E+03  0.12700000000E+03 0.  0.
<mgrwt>
<rscale>  0 0.50346748E+03</rscale>
<asrwt>0</asrwt>
<pdfrwt beam="1">  1        2 0.91480859E-01 0.50346748E+03</pdfrwt>
<pdfrwt beam="2">  1       -2 0.14136977E-01 0.50346748E+03</pdfrwt>
<totfact> 0.19374032E+03</totfact>
</mgrwt>
</event>
<event>
 4    1  0.1390278E-004  0.3454180E+03  0.7818608E-02  0.1064512E+00
          2   -1    0    0  501    0  0.00000000000E+00  0.00000000000E+00  0.13751190486E+03  0.13751190488E+03  0.25500000000E-02 0.  1.
         -2   -1    0    0    0  501 -0.00000000000E+00 -0.00000000000E+00 -0.21691496817E+03  0.21691496818E+03  0.25500000000E-02 0. -1.
    5000001    1    1    2    0    0 -0.89220642117E+01 -0.90987791910E+02  0.35286748146E+02  0.16041364063E+03  0.12700000000E+03 0.  0.
   -5000001    1    1    2    0    0  0.89220642117E+01  0.90987791910E+02 -0.11468981146E+03  0.19401323243E+03  0.12700000000E+03 0.  0.
<mgrwt>
<rscale>  0 0.34541795E+03</rscale>
<asrwt>0</asrwt>
<pdfrwt beam="1">  1        2 0.19644558E-01 0.34541795E+03</pdfrwt>
<pdfrwt beam="2">  1       -2 0.30987853E-01 0.34541795E+03</pdfrwt>
<totfact> 0.27434882E+03</totfact>
</mgrwt>
</event>
<event>
 4    1  0.1390278E-004  0.3980966E+03  0.7818608E-02  0.1044441E+00
         -2   -1    0    0    0  501 -0.00000000000E+00  0.00000000000E+00  0.16146482393E+02  0.16146482594E+02  0.25500000000E-02 0. -1.
          2   -1    0    0  501    0  0.00000000000E+00 -0.00000000000E+00 -0.24537994284E+04  0.24537994284E+04  0.25500000000E-02 0.  1.
    5000001    1    1    2    0    0 -0.14195617646E+03  0.48744843638E+02 -0.10262290657E+04  0.10448936363E+04  0.12700000000E+03 0.  0.
   -5000001    1    1    2    0    0  0.14195617646E+03 -0.48744843638E+02 -0.14114238803E+04  0.14250522747E+04  0.12700000000E+03 0.  0.
<mgrwt>
<rscale>  0 0.39809662E+03</rscale>
<asrwt>0</asrwt>
<pdfrwt beam="1">  1        2 0.35054254E+00 0.39809662E+03</pdfrwt>
<pdfrwt beam="2">  1       -2 0.23066419E-02 0.39809662E+03</pdfrwt>
<totfact> 0.32908300E+03</totfact>
</mgrwt>
</event>
<event>
 4    1  0.1390278E-004  0.3454772E+03  0.7818608E-02  0.1064487E+00
         -2   -1    0    0    0  501 -0.00000000000E+00  0.00000000000E+00  0.23829925926E+02  0.23829926063E+02  0.25500000000E-02 0. -1.
          2   -1    0    0  501    0  0.00000000000E+00 -0.00000000000E+00 -0.12521489604E+04  0.12521489604E+04  0.25500000000E-02 0.  1.
    5000001    1    1    2    0    0 -0.48009662224E+01 -0.97379037715E+02 -0.37469020866E+03  0.40746469630E+03  0.12700000000E+03 0.  0.
   -5000001    1    1    2    0    0  0.48009662224E+01  0.97379037715E+02 -0.85362882582E+03  0.86851419018E+03  0.12700000000E+03 0.  0.
<mgrwt>
<rscale>  0 0.34547716E+03</rscale>
<asrwt>0</asrwt>
<pdfrwt beam="1">  1        2 0.17887838E+00 0.34547716E+03</pdfrwt>
<pdfrwt beam="2">  1       -2 0.34042759E-02 0.34547716E+03</pdfrwt>
<totfact> 0.73926102E+03</totfact>
</mgrwt>
</event>
<event>
 4    1  0.1390278E-004  0.3224874E+03  0.7818608E-02  0.1074510E+00
          2   -1    0    0  501    0  0.00000000000E+00  0.00000000000E+00  0.35578870631E+02  0.35578870723E+02  0.25500000000E-02 0.  1.
         -2   -1    0    0    0  501 -0.00000000000E+00 -0.00000000000E+00 -0.73075739743E+03  0.73075739744E+03  0.25500000000E-02 0. -1.
    5000001    1    1    2    0    0  0.56531203078E+02 -0.61656882413E+02 -0.22021322889E+03  0.26761953263E+03  0.12700000000E+03 0.  0.
   -5000001    1    1    2    0    0 -0.56531203078E+02  0.61656882413E+02 -0.47496529792E+03  0.49871673553E+03  0.12700000000E+03 0.  0.
<mgrwt>
<rscale>  0 0.32248735E+03</rscale>
<asrwt>0</asrwt>
<pdfrwt beam="1">  1        2 0.50826963E-02 0.32248735E+03</pdfrwt>
<pdfrwt beam="2">  1       -2 0.10439390E+00 0.32248735E+03</pdfrwt>
<totfact> 0.11980300E+03</totfact>
</mgrwt>
</event>
<event>
 4    1  0.1390278E-004  0.4330153E+03  0.7818608E-02  0.1032912E+00
         -2   -1    0    0    0  501 -0.00000000000E+00  0.00000000000E+00  0.37260181802E+02  0.37260181890E+02  0.25500000000E-02 0. -1.
          2   -1    0    0  501    0  0.00000000000E+00 -0.00000000000E+00 -0.12580605972E+04  0.12580605972E+04  0.25500000000E-02 0.  1.
    5000001    1    1    2    0    0  0.15575412333E+03  0.64506340240E+02 -0.46612453954E+03  0.51168496287E+03  0.12700000000E+03 0.  0.
   -5000001    1    1    2    0    0 -0.15575412333E+03 -0.64506340240E+02 -0.75467587588E+03  0.78363581624E+03  0.12700000000E+03 0.  0.
<mgrwt>
<rscale>  0 0.43301532E+03</rscale>
<asrwt>0</asrwt>
<pdfrwt beam="1">  1        2 0.17972291E+00 0.43301532E+03</pdfrwt>
<pdfrwt beam="2">  1       -2 0.53228839E-02 0.43301532E+03</pdfrwt>
<totfact> 0.37230091E+03</totfact>
</mgrwt>
</event>
<event>
 4    1  0.1390278E-004  0.3366442E+03  0.7818608E-02  0.1068234E+00
         -2   -1    0    0    0  501 -0.00000000000E+00  0.00000000000E+00  0.25629803095E+02  0.25629803222E+02  0.25500000000E-02 0. -1.
          2   -1    0    0  501    0  0.00000000000E+00 -0.00000000000E+00 -0.11054446303E+04  0.11054446303E+04  0.25500000000E-02 0.  1.
    5000001    1    1    2    0    0 -0.10239647656E+03  0.41151284600E+02 -0.55666011991E+03  0.58153070059E+03  0.12700000000E+03 0.  0.
   -5000001    1    1    2    0    0  0.10239647656E+03 -0.41151284600E+02 -0.52315470727E+03  0.54954373290E+03  0.12700000000E+03 0.  0.
<mgrwt>
<rscale>  0 0.33664419E+03</rscale>
<asrwt>0</asrwt>
<pdfrwt beam="1">  1        2 0.15792063E+00 0.33664419E+03</pdfrwt>
<pdfrwt beam="2">  1       -2 0.36614011E-02 0.33664419E+03</pdfrwt>
<totfact> 0.79792114E+03</totfact>
</mgrwt>
</event>
<event>
 4    1  0.1390278E-004  0.6681035E+03  0.7818608E-02  0.9773390E-01
          2   -1    0    0  501    0  0.00000000000E+00  0.00000000000E+00  0.40676274390E+03  0.40676274391E+03  0.25500000000E-02 0.  1.
         -2   -1    0    0    0  501 -0.00000000000E+00 -0.00000000000E+00 -0.27433823314E+03  0.27433823315E+03  0.25500000000E-02 0. -1.
    5000001    1    1    2    0    0  0.44440997191E+02 -0.26677711773E+03 -0.86081179738E+02  0.31094051245E+03  0.12700000000E+03 0.  0.
   -5000001    1    1    2    0    0 -0.44440997191E+02  0.26677711773E+03  0.21850569050E+03  0.37016046461E+03  0.12700000000E+03 0.  0.
<mgrwt>
<rscale>  0 0.66810350E+03</rscale>
<asrwt>0</asrwt>
<pdfrwt beam="1">  1        2 0.58108963E-01 0.66810350E+03</pdfrwt>
<pdfrwt beam="2">  1       -2 0.39191176E-01 0.66810350E+03</pdfrwt>
<totfact> 0.52579566E+02</totfact>
</mgrwt>
</event>
<event>
 4    1  0.1390278E-004  0.5512239E+03  0.7818608E-02  0.1001211E+00
         -2   -1    0    0    0  501 -0.00000000000E+00  0.00000000000E+00  0.40939101237E+03  0.40939101238E+03  0.25500000000E-02 0. -1.
          2   -1    0    0  501    0  0.00000000000E+00 -0.00000000000E+00 -0.18554863719E+03  0.18554863720E+03  0.25500000000E-02 0.  1.
    5000001    1    1    2    0    0  0.86959108277E+02  0.66174460972E+02 -0.12427689178E+03  0.20860175366E+03  0.12700000000E+03 0.  0.
   -5000001    1    1    2    0    0 -0.86959108277E+02 -0.66174460972E+02  0.34811926697E+03  0.38633789593E+03  0.12700000000E+03 0.  0.
<mgrwt>
<rscale>  0 0.55122389E+03</rscale>
<asrwt>0</asrwt>
<pdfrwt beam="1">  1        2 0.26506949E-01 0.55122389E+03</pdfrwt>
<pdfrwt beam="2">  1       -2 0.58484428E-01 0.55122389E+03</pdfrwt>
<totfact> 0.56437217E+02</totfact>
</mgrwt>
</event>
<event>
 4    1  0.1390278E-004  0.3011278E+03  0.7818608E-02  0.1084678E+00
          2   -1    0    0  501    0  0.00000000000E+00  0.00000000000E+00  0.10362762180E+04  0.10362762180E+04  0.25500000000E-02 0.  1.
         -2   -1    0    0    0  501 -0.00000000000E+00 -0.00000000000E+00 -0.21875917920E+02  0.21875918069E+02  0.25500000000E-02 0. -1.
    5000001    1    1    2    0    0 -0.55056898445E+02  0.43109048269E+02  0.36442589863E+03  0.39220516022E+03  0.12700000000E+03 0.  0.
   -5000001    1    1    2    0    0  0.55056898445E+02 -0.43109048269E+02  0.64997440145E+03  0.66594697585E+03  0.12700000000E+03 0.  0.
<mgrwt>
<rscale>  0 0.30112784E+03</rscale>
<asrwt>0</asrwt>
<pdfrwt beam="1">  1        2 0.14803948E+00 0.30112784E+03</pdfrwt>
<pdfrwt beam="2">  1       -2 0.31251308E-02 0.30112784E+03</pdfrwt>
<totfact> 0.11056732E+04</totfact>
</mgrwt>
</event>
<event>
 4    1  0.1390278E-004  0.3166553E+03  0.7818608E-02  0.1077199E+00
          2   -1    0    0  501    0  0.00000000000E+00  0.00000000000E+00  0.18277362397E+04  0.18277362397E+04  0.25500000000E-02 0.  1.
         -2   -1    0    0    0  501 -0.00000000000E+00 -0.00000000000E+00 -0.13715128512E+02  0.13715128749E+02  0.25500000000E-02 0. -1.
    5000001    1    1    2    0    0 -0.51555863489E+02  0.79026773679E+02  0.94161029422E+03  0.95481002519E+03  0.12700000000E+03 0.  0.
   -5000001    1    1    2    0    0  0.51555863489E+02 -0.79026773679E+02  0.87241081692E+03  0.88664134322E+03  0.12700000000E+03 0.  0.
<mgrwt>
<rscale>  0 0.31665526E+03</rscale>
<asrwt>0</asrwt>
<pdfrwt beam="1">  1        2 0.26110513E+00 0.31665526E+03</pdfrwt>
<pdfrwt beam="2">  1       -2 0.19593045E-02 0.31665526E+03</pdfrwt>
<totfact> 0.85640461E+03</totfact>
</mgrwt>
</event>
<event>
 4    1  0.1390278E-004  0.4962384E+03  0.7818608E-02  0.1014765E+00
          2   -1    0    0  501    0  0.00000000000E+00  0.00000000000E+00  0.20442193377E+04  0.20442193377E+04  0.25500000000E-02 0.  1.
         -2   -1    0    0    0  501 -0.00000000000E+00 -0.00000000000E+00 -0.30115716313E+02  0.30115716421E+02  0.25500000000E-02 0. -1.
    5000001    1    1    2    0    0 -0.18552238595E+03 -0.89938099979E+02  0.78091119069E+03  0.81759323949E+03  0.12700000000E+03 0.  0.
   -5000001    1    1    2    0    0  0.18552238595E+03  0.89938099979E+02  0.12331924307E+04  0.12567418147E+04  0.12700000000E+03 0.  0.
<mgrwt>
<rscale>  0 0.49623837E+03</rscale>
<asrwt>0</asrwt>
<pdfrwt beam="1">  1        2 0.29203139E+00 0.49623837E+03</pdfrwt>
<pdfrwt beam="2">  1       -2 0.43022444E-02 0.49623837E+03</pdfrwt>
<totfact> 0.20459930E+03</totfact>
</mgrwt>
</event>
<event>
 4    1  0.1390278E-004  0.2875277E+03  0.7818608E-02  0.1091647E+00
         -2   -1    0    0    0  501 -0.00000000000E+00  0.00000000000E+00  0.51166717548E+01  0.51166723902E+01  0.25500000000E-02 0. -1.
          2   -1    0    0  501    0  0.00000000000E+00 -0.00000000000E+00 -0.40393523586E+04  0.40393523586E+04  0.25500000000E-02 0.  1.
    5000001    1    1    2    0    0  0.50869573041E+02 -0.27915293174E+02 -0.15355498817E+04  0.15418850205E+04  0.12700000000E+03 0.  0.
   -5000001    1    1    2    0    0 -0.50869573041E+02  0.27915293174E+02 -0.24986858051E+04  0.25025840105E+04  0.12700000000E+03 0.  0.
<mgrwt>
<rscale>  0 0.28752768E+03</rscale>
<asrwt>0</asrwt>
<pdfrwt beam="1">  1        2 0.57704829E+00 0.28752768E+03</pdfrwt>
<pdfrwt beam="2">  1       -2 0.73095574E-03 0.28752768E+03</pdfrwt>
<totfact> 0.22886166E+03</totfact>
</mgrwt>
</event>
<event>
 4    1  0.1390278E-004  0.9196827E+03  0.7818608E-02  0.9401306E-01
         -2   -1    0    0    0  501 -0.00000000000E+00  0.00000000000E+00  0.14642960244E+03  0.14642960246E+03  0.25500000000E-02 0. -1.
          2   -1    0    0  501    0  0.00000000000E+00 -0.00000000000E+00 -0.14440665143E+04  0.14440665143E+04  0.25500000000E-02 0.  1.
    5000001    1    1    2    0    0  0.30739481529E+03  0.31042892898E+03 -0.53322808281E+03  0.70094142459E+03  0.12700000000E+03 0.  0.
   -5000001    1    1    2    0    0 -0.30739481529E+03 -0.31042892898E+03 -0.76440882901E+03  0.88955469213E+03  0.12700000000E+03 0.  0.
<mgrwt>
<rscale>  0 0.91968274E+03</rscale>
<asrwt>0</asrwt>
<pdfrwt beam="1">  1        2 0.20629521E+00 0.91968274E+03</pdfrwt>
<pdfrwt beam="2">  1       -2 0.20918515E-01 0.91968274E+03</pdfrwt>
<totfact> 0.30905264E+02</totfact>
</mgrwt>
</event>
<event>
 4    1  0.1390278E-004  0.9976139E+03  0.7818608E-02  0.9311166E-01
         -2   -1    0    0    0  501 -0.00000000000E+00  0.00000000000E+00  0.92750783822E+02  0.92750783857E+02  0.25500000000E-02 0. -1.
          2   -1    0    0  501    0  0.00000000000E+00 -0.00000000000E+00 -0.26825472141E+04  0.26825472141E+04  0.25500000000E-02 0.  1.
    5000001    1    1    2    0    0  0.29859809870E+03 -0.37864470357E+03 -0.12612010896E+04  0.13562041972E+04  0.12700000000E+03 0.  0.
   -5000001    1    1    2    0    0 -0.29859809870E+03  0.37864470357E+03 -0.13285953407E+04  0.14190938008E+04  0.12700000000E+03 0.  0.
<mgrwt>
<rscale>  0 0.99761387E+03</rscale>
<asrwt>0</asrwt>
<pdfrwt beam="1">  1        2 0.38322098E+00 0.99761387E+03</pdfrwt>
<pdfrwt beam="2">  1       -2 0.13250114E-01 0.99761387E+03</pdfrwt>
<totfact> 0.15424264E+02</totfact>
</mgrwt>
</event>
<event>
 4    1  0.1390278E-004  0.3938382E+03  0.7818608E-02  0.1045934E+00
         -2   -1    0    0    0  501 -0.00000000000E+00  0.00000000000E+00  0.45388292326E+02  0.45388292397E+02  0.25500000000E-02 0. -1.
          2   -1    0    0  501    0  0.00000000000E+00 -0.00000000000E+00 -0.85434227376E+03  0.85434227377E+03  0.25500000000E-02 0.  1.
    5000001    1    1    2    0    0  0.12939627951E+03  0.41019409157E+02 -0.25603344257E+03  0.31639866117E+03  0.12700000000E+03 0.  0.
   -5000001    1    1    2    0    0 -0.12939627951E+03 -0.41019409157E+02 -0.55292053887E+03  0.58333190499E+03  0.12700000000E+03 0.  0.
<mgrwt>
<rscale>  0 0.39383823E+03</rscale>
<asrwt>0</asrwt>
<pdfrwt beam="1">  1        2 0.12204889E+00 0.39383823E+03</pdfrwt>
<pdfrwt beam="2">  1       -2 0.64840423E-02 0.39383823E+03</pdfrwt>
<totfact> 0.47377881E+03</totfact>
</mgrwt>
</event>
<event>
 4    1  0.1390278E-004  0.3170544E+03  0.7818608E-02  0.1077013E+00
         -2   -1    0    0    0  501 -0.00000000000E+00  0.00000000000E+00  0.10406169530E+03  0.10406169533E+03  0.25500000000E-02 0. -1.
          2   -1    0    0  501    0  0.00000000000E+00 -0.00000000000E+00 -0.24149981674E+03  0.24149981676E+03  0.25500000000E-02 0.  1.
    5000001    1    1    2    0    0  0.36881811169E+02 -0.84735635752E+02 -0.92132759484E+02  0.18209294696E+03  0.12700000000E+03 0.  0.
   -5000001    1    1    2    0    0 -0.36881811169E+02  0.84735635752E+02 -0.45305361963E+02  0.16346856513E+03  0.12700000000E+03 0.  0.
<mgrwt>
<rscale>  0 0.31705445E+03</rscale>
<asrwt>0</asrwt>
<pdfrwt beam="1">  1        2 0.34499974E-01 0.31705445E+03</pdfrwt>
<pdfrwt beam="2">  1       -2 0.14865957E-01 0.31705445E+03</pdfrwt>
<totfact> 0.52197876E+03</totfact>
</mgrwt>
</event>
<event>
 4    1  0.1390278E-004  0.3816012E+03  0.7818608E-02  0.1050344E+00
          2   -1    0    0  501    0  0.00000000000E+00  0.00000000000E+00  0.15917631030E+04  0.15917631030E+04  0.25500000000E-02 0.  1.
         -2   -1    0    0    0  501 -0.00000000000E+00 -0.00000000000E+00 -0.22870782785E+02  0.22870782927E+02  0.25500000000E-02 0. -1.
    5000001    1    1    2    0    0  0.12935482760E+03 -0.50630269158E+02  0.65200377155E+03  0.67862656424E+03  0.12700000000E+03 0.  0.
   -5000001    1    1    2    0    0 -0.12935482760E+03  0.50630269158E+02  0.91688854863E+03  0.93600732166E+03  0.12700000000E+03 0.  0.
<mgrwt>
<rscale>  0 0.38160120E+03</rscale>
<asrwt>0</asrwt>
<pdfrwt beam="1">  1        2 0.22739480E+00 0.38160120E+03</pdfrwt>
<pdfrwt beam="2">  1       -2 0.32672537E-02 0.38160120E+03</pdfrwt>
<totfact> 0.52442493E+03</totfact>
</mgrwt>
</event>
<event>
 4    1  0.1390278E-004  0.5681673E+03  0.7818608E-02  0.9973742E-01
          2   -1    0    0  501    0  0.00000000000E+00  0.00000000000E+00  0.13985584148E+04  0.13985584148E+04  0.25500000000E-02 0.  1.
         -2   -1    0    0    0  501 -0.00000000000E+00 -0.00000000000E+00 -0.57704784799E+02  0.57704784856E+02  0.25500000000E-02 0. -1.
    5000001    1    1    2    0    0  0.18632819919E+03  0.14068462129E+03  0.92755652065E+03  0.96488365075E+03  0.12700000000E+03 0.  0.
   -5000001    1    1    2    0    0 -0.18632819919E+03 -0.14068462129E+03  0.41329710931E+03  0.49137954886E+03  0.12700000000E+03 0.  0.
<mgrwt>
<rscale>  0 0.56816727E+03</rscale>
<asrwt>0</asrwt>
<pdfrwt beam="1">  1        2 0.19979405E+00 0.56816727E+03</pdfrwt>
<pdfrwt beam="2">  1       -2 0.82435411E-02 0.56816727E+03</pdfrwt>
<totfact> 0.15734339E+03</totfact>
</mgrwt>
</event>
<event>
 4    1  0.1390278E-004  0.3386687E+03  0.7818608E-02  0.1067364E+00
         -2   -1    0    0    0  501 -0.00000000000E+00  0.00000000000E+00  0.10578323040E+04  0.10578323040E+04  0.25500000000E-02 0. -1.
          2   -1    0    0  501    0  0.00000000000E+00 -0.00000000000E+00 -0.27106483819E+02  0.27106483939E+02  0.25500000000E-02 0.  1.
    5000001    1    1    2    0    0 -0.11609265568E+01 -0.61032605779E+02  0.21452353682E+03  0.25666256947E+03  0.12700000000E+03 0.  0.
   -5000001    1    1    2    0    0  0.11609265568E+01  0.61032605779E+02  0.81620228337E+03  0.82827621848E+03  0.12700000000E+03 0.  0.
<mgrwt>
<rscale>  0 0.33866865E+03</rscale>
<asrwt>0</asrwt>
<pdfrwt beam="1">  1        2 0.38723545E-02 0.33866865E+03</pdfrwt>
<pdfrwt beam="2">  1       -2 0.15111891E+00 0.33866865E+03</pdfrwt>
<totfact> 0.69246249E+02</totfact>
</mgrwt>
</event>
<event>
 4    1  0.1390278E-004  0.6142690E+03  0.7818608E-02  0.9876237E-01
          2   -1    0    0  501    0  0.00000000000E+00  0.00000000000E+00  0.17838795418E+03  0.17838795420E+03  0.25500000000E-02 0. -1.
         -2   -1    0    0    0  501 -0.00000000000E+00 -0.00000000000E+00 -0.52880033330E+03  0.52880033331E+03  0.25500000000E-02 0.  1.
    5000001    1    1    2    0    0  0.19697228748E+02  0.27408857015E+03 -0.23491788525E+03  0.38318133817E+03  0.12700000000E+03 0.  0.
   -5000001    1    1    2    0    0 -0.19697228748E+02 -0.27408857015E+03 -0.11549449387E+03  0.32400694934E+03  0.12700000000E+03 0.  0.
<mgrwt>
<rscale>  0 0.61426903E+03</rscale>
<asrwt>0</asrwt>
<pdfrwt beam="1">  1        2 0.25483994E-01 0.61426903E+03</pdfrwt>
<pdfrwt beam="2">  1       -2 0.75542904E-01 0.61426903E+03</pdfrwt>
<totfact> 0.34022772E+02</totfact>
</mgrwt>
</event>
<event>
 4    1  0.1390278E-004  0.3481927E+03  0.7818608E-02  0.1063359E+00
          2   -1    0    0  501    0  0.00000000000E+00  0.00000000000E+00  0.18772962858E+04  0.18772962858E+04  0.25500000000E-02 0.  1.
         -2   -1    0    0    0  501 -0.00000000000E+00 -0.00000000000E+00 -0.16145314549E+02  0.16145314751E+02  0.25500000000E-02 0. -1.
    5000001    1    1    2    0    0 -0.76648164396E+02 -0.90752517409E+02  0.97593521251E+03  0.99130696534E+03  0.12700000000E+03 0.  0.
   -5000001    1    1    2    0    0  0.76648164396E+02  0.90752517409E+02  0.88521575874E+03  0.90213463521E+03  0.12700000000E+03 0.  0.
<mgrwt>
<rscale>  0 0.34819270E+03</rscale>
<asrwt>0</asrwt>
<pdfrwt beam="1">  1        2 0.26818524E+00 0.34819270E+03</pdfrwt>
<pdfrwt beam="2">  1       -2 0.23064730E-02 0.34819270E+03</pdfrwt>
<totfact> 0.63623625E+03</totfact>
</mgrwt>
</event>
<event>
 4    1  0.1390278E-004  0.4626518E+03  0.7818608E-02  0.1024015E+00
         -2   -1    0    0    0  501 -0.00000000000E+00  0.00000000000E+00  0.14657282018E+04  0.14657282018E+04  0.25500000000E-02 0. -1.
          2   -1    0    0  501    0  0.00000000000E+00 -0.00000000000E+00 -0.36508590463E+02  0.36508590552E+02  0.25500000000E-02 0.  1.
    5000001    1    1    2    0    0  0.19055106722E+03 -0.28164107789E+02  0.76891794757E+03  0.80278685608E+03  0.12700000000E+03 0.  0.
   -5000001    1    1    2    0    0 -0.19055106722E+03  0.28164107789E+02  0.66030166372E+03  0.69944993624E+03  0.12700000000E+03 0.  0.
<mgrwt>
<rscale>  0 0.46265179E+03</rscale>
<asrwt>0</asrwt>
<pdfrwt beam="1">  1        2 0.52155143E-02 0.46265179E+03</pdfrwt>
<pdfrwt beam="2">  1       -2 0.20938969E+00 0.46265179E+03</pdfrwt>
<totfact> 0.18622730E+02</totfact>
</mgrwt>
</event>
<event>
 4    1  0.1390278E-004  0.3579629E+03  0.7818608E-02  0.1059393E+00
          2   -1    0    0  501    0  0.00000000000E+00  0.00000000000E+00  0.27721887481E+04  0.27721887481E+04  0.25500000000E-02 0.  1.
         -2   -1    0    0    0  501 -0.00000000000E+00 -0.00000000000E+00 -0.11555621563E+02  0.11555621844E+02  0.25500000000E-02 0. -1.
    5000001    1    1    2    0    0 -0.12545357077E+03 -0.28336228593E+01  0.12823382683E+04  0.12947073268E+04  0.12700000000E+03 0.  0.
   -5000001    1    1    2    0    0  0.12545357077E+03  0.28336228593E+01  0.14782948583E+04  0.14890370431E+04  0.12700000000E+03 0.  0.
<mgrwt>
<rscale>  0 0.35796293E+03</rscale>
<asrwt>0</asrwt>
<pdfrwt beam="1">  1        2 0.39602723E+00 0.35796293E+03</pdfrwt>
<pdfrwt beam="2">  1       -2 0.16508020E-02 0.35796293E+03</pdfrwt>
<totfact> 0.37258798E+03</totfact>
</mgrwt>
</event>
<event>
 4    1  0.1390278E-004  0.2798489E+03  0.7818608E-02  0.1095772E+00
         -2   -1    0    0    0  501 -0.00000000000E+00  0.00000000000E+00  0.59408205838E+01  0.59408211310E+01  0.25500000000E-02 0. -1.
          2   -1    0    0  501    0  0.00000000000E+00 -0.00000000000E+00 -0.32956466356E+04  0.32956466356E+04  0.25500000000E-02 0.  1.
    5000001    1    1    2    0    0 -0.11923058519E+02 -0.53424736247E+00 -0.96636404432E+03  0.97474658804E+03  0.12700000000E+03 0.  0.
   -5000001    1    1    2    0    0  0.11923058519E+02  0.53424736247E+00 -0.23233417706E+04  0.23268408686E+04  0.12700000000E+03 0.  0.
<mgrwt>
<rscale>  0 0.27984886E+03</rscale>
<asrwt>0</asrwt>
<pdfrwt beam="1">  1        2 0.47080549E+00 0.27984886E+03</pdfrwt>
<pdfrwt beam="2">  1       -2 0.84869080E-03 0.27984886E+03</pdfrwt>
<totfact> 0.51883260E+03</totfact>
</mgrwt>
</event>
<event>
 4    1  0.1390278E-004  0.3569212E+03  0.7818608E-02  0.1059810E+00
         -2   -1    0    0    0  501 -0.00000000000E+00  0.00000000000E+00  0.22026619145E+03  0.22026619147E+03  0.25500000000E-02 0. -1.
          2   -1    0    0  501    0  0.00000000000E+00 -0.00000000000E+00 -0.14458952910E+03  0.14458952912E+03  0.25500000000E-02 0.  1.
    5000001    1    1    2    0    0  0.30668916151E+02 -0.11923688286E+03  0.62053938644E+02  0.18745054802E+03  0.12700000000E+03 0.  0.
   -5000001    1    1    2    0    0 -0.30668916151E+02  0.11923688286E+03  0.13622723708E+02  0.17740517257E+03  0.12700000000E+03 0.  0.
<mgrwt>
<rscale>  0 0.35692120E+03</rscale>
<asrwt>0</asrwt>
<pdfrwt beam="1">  1        2 0.20655647E-01 0.35692120E+03</pdfrwt>
<pdfrwt beam="2">  1       -2 0.31466599E-01 0.35692120E+03</pdfrwt>
<totfact> 0.25189672E+03</totfact>
</mgrwt>
</event>
<event>
 4    1  0.1390278E-004  0.1114309E+04  0.7818608E-02  0.9191356E-01
         -2   -1    0    0    0  501 -0.00000000000E+00  0.00000000000E+00  0.14661392891E+03  0.14661392894E+03  0.25500000000E-02 0. -1.
          2   -1    0    0  501    0  0.00000000000E+00 -0.00000000000E+00 -0.21172700071E+04  0.21172700071E+04  0.25500000000E-02 0.  1.
    5000001    1    1    2    0    0 -0.42807043894E+03 -0.32087252993E+03 -0.80260627092E+03  0.97288709894E+03  0.12700000000E+03 0.  0.
   -5000001    1    1    2    0    0  0.42807043894E+03  0.32087252993E+03 -0.11680498073E+04  0.12909968371E+04  0.12700000000E+03 0.  0.
<mgrwt>
<rscale>  0 0.11143092E+04</rscale>
<asrwt>0</asrwt>
<pdfrwt beam="1">  1        2 0.30246713E+00 0.11143092E+04</pdfrwt>
<pdfrwt beam="2">  1       -2 0.20944848E-01 0.11143092E+04</pdfrwt>
<totfact> 0.13665329E+02</totfact>
</mgrwt>
</event>
<event>
 4    1  0.1390278E-004  0.2907695E+03  0.7818608E-02  0.1089948E+00
         -2   -1    0    0    0  501 -0.00000000000E+00  0.00000000000E+00  0.91067049010E+02  0.91067049046E+02  0.25500000000E-02 0. -1.
          2   -1    0    0  501    0  0.00000000000E+00 -0.00000000000E+00 -0.23210062194E+03  0.23210062195E+03  0.25500000000E-02 0.  1.
    5000001    1    1    2    0    0 -0.58049089076E+02 -0.12515446637E+02 -0.11329406822E+03  0.18025226501E+03  0.12700000000E+03 0.  0.
   -5000001    1    1    2    0    0  0.58049089076E+02  0.12515446637E+02 -0.27739504704E+02  0.14291540599E+03  0.12700000000E+03 0.  0.
<mgrwt>
<rscale>  0 0.29076945E+03</rscale>
<asrwt>0</asrwt>
<pdfrwt beam="1">  1        2 0.33157232E-01 0.29076945E+03</pdfrwt>
<pdfrwt beam="2">  1       -2 0.13009578E-01 0.29076945E+03</pdfrwt>
<totfact> 0.67670922E+03</totfact>
</mgrwt>
</event>
<event>
 4    1  0.1390278E-004  0.3475159E+03  0.7818608E-02  0.1063639E+00
         -2   -1    0    0    0  501 -0.00000000000E+00  0.00000000000E+00  0.12574944136E+02  0.12574944394E+02  0.25500000000E-02 0. -1.
          2   -1    0    0  501    0  0.00000000000E+00 -0.00000000000E+00 -0.24009512955E+04  0.24009512955E+04  0.25500000000E-02 0.  1.
    5000001    1    1    2    0    0  0.75656384776E+02  0.71017615456E+02 -0.79549947917E+03  0.81222891577E+03  0.12700000000E+03 0.  0.
   -5000001    1    1    2    0    0 -0.75656384776E+02 -0.71017615456E+02 -0.15928768722E+04  0.16012973241E+04  0.12700000000E+03 0.  0.
<mgrwt>
<rscale>  0 0.34751592E+03</rscale>
<asrwt>0</asrwt>
<pdfrwt beam="1">  1        2 0.34299275E+00 0.34751592E+03</pdfrwt>
<pdfrwt beam="2">  1       -2 0.17964221E-02 0.34751592E+03</pdfrwt>
<totfact> 0.50796805E+03</totfact>
</mgrwt>
</event>
<event>
 4    1  0.1390278E-004  0.4583581E+03  0.7818608E-02  0.1025258E+00
         -2   -1    0    0    0  501 -0.00000000000E+00  0.00000000000E+00  0.38394557332E+02  0.38394557416E+02  0.25500000000E-02 0. -1.
          2   -1    0    0  501    0  0.00000000000E+00 -0.00000000000E+00 -0.13679813264E+04  0.13679813264E+04  0.25500000000E-02 0.  1.
    5000001    1    1    2    0    0 -0.17272164175E+03  0.52061365399E+02 -0.85519772393E+03  0.88319607014E+03  0.12700000000E+03 0.  0.
   -5000001    1    1    2    0    0  0.17272164175E+03 -0.52061365399E+02 -0.47438904516E+03  0.52317981370E+03  0.12700000000E+03 0.  0.
<mgrwt>
<rscale>  0 0.45835810E+03</rscale>
<asrwt>0</asrwt>
<pdfrwt beam="1">  1        2 0.19542587E+00 0.45835810E+03</pdfrwt>
<pdfrwt beam="2">  1       -2 0.54849376E-02 0.45835810E+03</pdfrwt>
<totfact> 0.31035414E+03</totfact>
</mgrwt>
</event>
<event>
 4    1  0.1390278E-004  0.4294075E+03  0.7818608E-02  0.1034047E+00
          2   -1    0    0  501    0  0.00000000000E+00  0.00000000000E+00  0.63413420295E+03  0.63413420296E+03  0.25500000000E-02 0.  1.
         -2   -1    0    0    0  501 -0.00000000000E+00 -0.00000000000E+00 -0.72693930421E+02  0.72693930466E+02  0.25500000000E-02 0. -1.
    5000001    1    1    2    0    0 -0.14531093044E+03 -0.43659295262E+02  0.41791960022E+03  0.46239289875E+03  0.12700000000E+03 0.  0.
   -5000001    1    1    2    0    0  0.14531093044E+03  0.43659295262E+02  0.14352067231E+03  0.24443523467E+03  0.12700000000E+03 0.  0.
<mgrwt>
<rscale>  0 0.42940753E+03</rscale>
<asrwt>0</asrwt>
<pdfrwt beam="1">  1        2 0.90590597E-01 0.42940753E+03</pdfrwt>
<pdfrwt beam="2">  1       -2 0.10384848E-01 0.42940753E+03</pdfrwt>
<totfact> 0.32449374E+03</totfact>
</mgrwt>
</event>
<event>
 4    1  0.1390278E-004  0.6006460E+03  0.7818608E-02  0.9904067E-01
         -2   -1    0    0    0  501 -0.00000000000E+00  0.00000000000E+00  0.41329951541E+03  0.41329951542E+03  0.25500000000E-02 0. -1.
          2   -1    0    0  501    0  0.00000000000E+00 -0.00000000000E+00 -0.21822894445E+03  0.21822894447E+03  0.25500000000E-02 0.  1.
    5000001    1    1    2    0    0 -0.17354609787E+03 -0.18114211606E+03  0.20847929796E+03  0.35003332981E+03  0.12700000000E+03 0.  0.
   -5000001    1    1    2    0    0  0.17354609787E+03  0.18114211606E+03 -0.13408727001E+02  0.28149513008E+03  0.12700000000E+03 0.  0.
<mgrwt>
<rscale>  0 0.60064604E+03</rscale>
<asrwt>0</asrwt>
<pdfrwt beam="1">  1        2 0.31175564E-01 0.60064604E+03</pdfrwt>
<pdfrwt beam="2">  1       -2 0.59042788E-01 0.60064604E+03</pdfrwt>
<totfact> 0.46050120E+02</totfact>
</mgrwt>
</event>
<event>
 4    1  0.1390278E-004  0.4147247E+03  0.7818608E-02  0.1038797E+00
         -2   -1    0    0    0  501 -0.00000000000E+00  0.00000000000E+00  0.10946381723E+03  0.10946381726E+03  0.25500000000E-02 0. -1.
          2   -1    0    0  501    0  0.00000000000E+00 -0.00000000000E+00 -0.39281605869E+03  0.39281605870E+03  0.25500000000E-02 0.  1.
    5000001    1    1    2    0    0  0.18074503426E+01 -0.15343061827E+03 -0.21152219738E+03  0.29054235747E+03  0.12700000000E+03 0.  0.
   -5000001    1    1    2    0    0 -0.18074503426E+01  0.15343061827E+03 -0.71830044075E+02  0.21173751848E+03  0.12700000000E+03 0.  0.
<mgrwt>
<rscale>  0 0.41472471E+03</rscale>
<asrwt>0</asrwt>
<pdfrwt beam="1">  1        2 0.56116579E-01 0.41472471E+03</pdfrwt>
<pdfrwt beam="2">  1       -2 0.15637688E-01 0.41472471E+03</pdfrwt>
<totfact> 0.28418641E+03</totfact>
</mgrwt>
</event>
<event>
 4    1  0.1390278E-004  0.4897522E+03  0.7818608E-02  0.1016489E+00
          2   -1    0    0  501    0  0.00000000000E+00  0.00000000000E+00  0.17275000752E+04  0.17275000752E+04  0.25500000000E-02 0.  1.
         -2   -1    0    0    0  501 -0.00000000000E+00 -0.00000000000E+00 -0.34711613356E+02  0.34711613450E+02  0.25500000000E-02 0. -1.
    5000001    1    1    2    0    0 -0.82522096555E+02 -0.19171533240E+03  0.78719918026E+03  0.82424281283E+03  0.12700000000E+03 0.  0.
   -5000001    1    1    2    0    0  0.82522096555E+02  0.19171533240E+03  0.90558928161E+03  0.93796887585E+03  0.12700000000E+03 0.  0.
<mgrwt>
<rscale>  0 0.48975224E+03</rscale>
<asrwt>0</asrwt>
<pdfrwt beam="1">  1        2 0.24678579E+00 0.48975224E+03</pdfrwt>
<pdfrwt beam="2">  1       -2 0.49588006E-02 0.48975224E+03</pdfrwt>
<totfact> 0.23686685E+03</totfact>
</mgrwt>
</event>
<event>
 4    1  0.1390278E-004  0.3789727E+03  0.7818608E-02  0.1051314E+00
          2   -1    0    0  501    0  0.00000000000E+00  0.00000000000E+00  0.84248831230E+03  0.84248831230E+03  0.25500000000E-02 0.  1.
         -2   -1    0    0    0  501 -0.00000000000E+00 -0.00000000000E+00 -0.42617890205E+02  0.42617890282E+02  0.25500000000E-02 0. -1.
    5000001    1    1    2    0    0  0.13865225689E+03  0.48566862765E+00  0.34509274185E+03  0.39299196518E+03  0.12700000000E+03 0.  0.
   -5000001    1    1    2    0    0 -0.13865225689E+03 -0.48566862765E+00  0.45477768024E+03  0.49211423741E+03  0.12700000000E+03 0.  0.
<mgrwt>
<rscale>  0 0.37897269E+03</rscale>
<asrwt>0</asrwt>
<pdfrwt beam="1">  1        2 0.12035547E+00 0.37897269E+03</pdfrwt>
<pdfrwt beam="2">  1       -2 0.60882703E-02 0.37897269E+03</pdfrwt>
<totfact> 0.53156121E+03</totfact>
</mgrwt>
</event>
<event>
 4    1  0.1390278E-004  0.3719093E+03  0.7818608E-02  0.1053965E+00
          2   -1    0    0  501    0  0.00000000000E+00  0.00000000000E+00  0.11273424453E+04  0.11273424453E+04  0.25500000000E-02 0. -1.
         -2   -1    0    0    0  501 -0.00000000000E+00 -0.00000000000E+00 -0.30673146235E+02  0.30673146341E+02  0.25500000000E-02 0.  1.
    5000001    1    1    2    0    0  0.93005259387E+02  0.98083936788E+02  0.59007487184E+03  0.61853681483E+03  0.12700000000E+03 0.  0.
   -5000001    1    1    2    0    0 -0.93005259387E+02 -0.98083936788E+02  0.50659442721E+03  0.53947877679E+03  0.12700000000E+03 0.  0.
<mgrwt>
<rscale>  0 0.37190934E+03</rscale>
<asrwt>0</asrwt>
<pdfrwt beam="1">  1        2 0.16104894E+00 0.37190934E+03</pdfrwt>
<pdfrwt beam="2">  1       -2 0.43818777E-02 0.37190934E+03</pdfrwt>
<totfact> 0.59177051E+03</totfact>
</mgrwt>
</event>
<event>
 4    1  0.1390278E-004  0.3348949E+03  0.7818608E-02  0.1068991E+00
          2   -1    0    0  501    0  0.00000000000E+00  0.00000000000E+00  0.19147150799E+04  0.19147150799E+04  0.25500000000E-02 0.  1.
         -2   -1    0    0    0  501 -0.00000000000E+00 -0.00000000000E+00 -0.14643770362E+02  0.14643770584E+02  0.25500000000E-02 0. -1.
    5000001    1    1    2    0    0  0.18294969879E+02  0.85085907371E+02  0.13293642573E+04  0.13382498444E+04  0.12700000000E+03 0.  0.
   -5000001    1    1    2    0    0 -0.18294969879E+02 -0.85085907371E+02  0.57070705229E+03  0.59110900610E+03  0.12700000000E+03 0.  0.
<mgrwt>
<rscale>  0 0.33489490E+03</rscale>
<asrwt>0</asrwt>
<pdfrwt beam="1">  1        2 0.27353076E+00 0.33489490E+03</pdfrwt>
<pdfrwt beam="2">  1       -2 0.20919670E-02 0.33489490E+03</pdfrwt>
<totfact> 0.70474785E+03</totfact>
</mgrwt>
</event>
<event>
 4    1  0.1390278E-004  0.4288710E+03  0.7818608E-02  0.1034217E+00
          2   -1    0    0  501    0  0.00000000000E+00  0.00000000000E+00  0.39164223356E+02  0.39164223439E+02  0.25500000000E-02 0.  1.
         -2   -1    0    0    0  501 -0.00000000000E+00 -0.00000000000E+00 -0.11740964528E+04  0.11740964528E+04  0.25500000000E-02 0. -1.
    5000001    1    1    2    0    0 -0.16602092826E+03  0.32283327338E+02 -0.46751059528E+03  0.51312797482E+03  0.12700000000E+03 0.  0.
   -5000001    1    1    2    0    0  0.16602092826E+03 -0.32283327338E+02 -0.66742163413E+03  0.70013270139E+03  0.12700000000E+03 0.  0.
<mgrwt>
<rscale>  0 0.42887096E+03</rscale>
<asrwt>0</asrwt>
<pdfrwt beam="1">  1        2 0.55948898E-02 0.42887096E+03</pdfrwt>
<pdfrwt beam="2">  1       -2 0.16772804E+00 0.42887096E+03</pdfrwt>
<totfact> 0.32043930E+02</totfact>
</mgrwt>
</event>
<event>
 4    1  0.1390278E-004  0.4012708E+03  0.7818608E-02  0.1043341E+00
         -2   -1    0    0    0  501 -0.00000000000E+00  0.00000000000E+00  0.14977986950E+03  0.14977986952E+03  0.25500000000E-02 0. -1.
          2   -1    0    0  501    0  0.00000000000E+00 -0.00000000000E+00 -0.26875819515E+03  0.26875819516E+03  0.25500000000E-02 0.  1.
    5000001    1    1    2    0    0 -0.23359724279E+02 -0.13282973589E+03 -0.13985100593E+03  0.23211359140E+03  0.12700000000E+03 0.  0.
   -5000001    1    1    2    0    0  0.23359724279E+02  0.13282973589E+03  0.20872680277E+02  0.18642447328E+03  0.12700000000E+03 0.  0.
<mgrwt>
<rscale>  0 0.40127082E+03</rscale>
<asrwt>0</asrwt>
<pdfrwt beam="1">  1        2 0.38394028E-01 0.40127082E+03</pdfrwt>
<pdfrwt beam="2">  1       -2 0.21397124E-01 0.40127082E+03</pdfrwt>
<totfact> 0.25168457E+03</totfact>
</mgrwt>
</event>
<event>
 4    1  0.1390278E-004  0.3072774E+03  0.7818608E-02  0.1081658E+00
          2   -1    0    0  501    0  0.00000000000E+00  0.00000000000E+00  0.49643454577E+03  0.49643454578E+03  0.25500000000E-02 0.  1.
         -2   -1    0    0    0  501 -0.00000000000E+00 -0.00000000000E+00 -0.47548779232E+02  0.47548779301E+02  0.25500000000E-02 0. -1.
    5000001    1    1    2    0    0 -0.66608269542E+02 -0.22054934874E+02  0.13499683256E+03  0.19818230629E+03  0.12700000000E+03 0.  0.
   -5000001    1    1    2    0    0  0.66608269542E+02  0.22054934874E+02  0.31388893397E+03  0.34580101879E+03  0.12700000000E+03 0.  0.
<mgrwt>
<rscale>  0 0.30727744E+03</rscale>
<asrwt>0</asrwt>
<pdfrwt beam="1">  1        2 0.70919222E-01 0.30727744E+03</pdfrwt>
<pdfrwt beam="2">  1       -2 0.67926827E-02 0.30727744E+03</pdfrwt>
<totfact> 0.83249391E+03</totfact>
</mgrwt>
</event>
<event>
 4    1  0.1390278E-004  0.4269720E+03  0.7818608E-02  0.1034821E+00
          2   -1    0    0  501    0  0.00000000000E+00  0.00000000000E+00  0.18029857657E+03  0.18029857658E+03  0.25500000000E-02 0.  1.
         -2   -1    0    0    0  501 -0.00000000000E+00 -0.00000000000E+00 -0.25278219574E+03  0.25278219575E+03  0.25500000000E-02 0. -1.
    5000001    1    1    2    0    0 -0.16439687140E+03  0.26099530991E+02  0.60652988311E+01  0.20945955384E+03  0.12700000000E+03 0.  0.
   -5000001    1    1    2    0    0  0.16439687140E+03 -0.26099530991E+02 -0.78548918006E+02  0.22362121850E+03  0.12700000000E+03 0.  0.
<mgrwt>
<rscale>  0 0.42697199E+03</rscale>
<asrwt>0</asrwt>
<pdfrwt beam="1">  1        2 0.25756940E-01 0.42697199E+03</pdfrwt>
<pdfrwt beam="2">  1       -2 0.36111742E-01 0.42697199E+03</pdfrwt>
<totfact> 0.15188816E+03</totfact>
</mgrwt>
</event>
<event>
 4    1  0.1390278E-004  0.7969262E+03  0.7818608E-02  0.9564477E-01
         -2   -1    0    0    0  501 -0.00000000000E+00  0.00000000000E+00  0.89027617326E+02  0.89027617363E+02  0.25500000000E-02 0.  1.
          2   -1    0    0  501    0  0.00000000000E+00 -0.00000000000E+00 -0.17834108960E+04  0.17834108960E+04  0.25500000000E-02 0. -1.
    5000001    1    1    2    0    0 -0.33152735122E+03  0.98977079647E+02 -0.12030339338E+04  0.12582235464E+04  0.12700000000E+03 0.  0.
   -5000001    1    1    2    0    0  0.33152735122E+03 -0.98977079647E+02 -0.49134934488E+03  0.61421496694E+03  0.12700000000E+03 0.  0.
<mgrwt>
<rscale>  0 0.79692615E+03</rscale>
<asrwt>0</asrwt>
<pdfrwt beam="1">  1        2 0.25477296E+00 0.79692615E+03</pdfrwt>
<pdfrwt beam="2">  1       -2 0.12718232E-01 0.79692615E+03</pdfrwt>
<totfact> 0.48566511E+02</totfact>
</mgrwt>
</event>
<event>
 4    1  0.1390278E-004  0.3189498E+03  0.7818608E-02  0.1076134E+00
         -2   -1    0    0    0  501 -0.00000000000E+00  0.00000000000E+00  0.16253656598E+02  0.16253656798E+02  0.25500000000E-02 0. -1.
          2   -1    0    0  501    0  0.00000000000E+00 -0.00000000000E+00 -0.15647092622E+04  0.15647092622E+04  0.25500000000E-02 0.  1.
    5000001    1    1    2    0    0  0.45880115654E+02  0.69821343857E+02 -0.53531107618E+03  0.55647727119E+03  0.12700000000E+03 0.  0.
   -5000001    1    1    2    0    0 -0.45880115654E+02 -0.69821343857E+02 -0.10131445294E+04  0.10244856478E+04  0.12700000000E+03 0.  0.
<mgrwt>
<rscale>  0 0.31894982E+03</rscale>
<asrwt>0</asrwt>
<pdfrwt beam="1">  1        2 0.22352980E+00 0.31894982E+03</pdfrwt>
<pdfrwt beam="2">  1       -2 0.23219520E-02 0.31894982E+03</pdfrwt>
<totfact> 0.89995011E+03</totfact>
</mgrwt>
</event>
<event>
 4    1  0.1390278E-004  0.3615330E+03  0.7818608E-02  0.1057979E+00
         -2   -1    0    0    0  501 -0.00000000000E+00  0.00000000000E+00  0.80207642343E+01  0.80207646397E+01  0.25500000000E-02 0.  1.
          2   -1    0    0  501    0  0.00000000000E+00 -0.00000000000E+00 -0.40739915486E+04  0.40739915486E+04  0.25500000000E-02 0. -1.
    5000001    1    1    2    0    0  0.66304948372E+02 -0.10833091597E+03 -0.18028091563E+04  0.18117344694E+04  0.12700000000E+03 0.  0.
   -5000001    1    1    2    0    0 -0.66304948372E+02  0.10833091597E+03 -0.22631616280E+04  0.22702778438E+04  0.12700000000E+03 0.  0.
<mgrwt>
<rscale>  0 0.36153299E+03</rscale>
<asrwt>0</asrwt>
<pdfrwt beam="1">  1        2 0.58199747E+00 0.36153299E+03</pdfrwt>
<pdfrwt beam="2">  1       -2 0.11458261E-02 0.36153299E+03</pdfrwt>
<totfact> 0.11139863E+03</totfact>
</mgrwt>
</event>
<event>
 4    1  0.1390278E-004  0.6822615E+03  0.7818608E-02  0.9748058E-01
          2   -1    0    0  501    0  0.00000000000E+00  0.00000000000E+00  0.36239310591E+03  0.36239310592E+03  0.25500000000E-02 0.  1.
         -2   -1    0    0    0  501 -0.00000000000E+00 -0.00000000000E+00 -0.32111587694E+03  0.32111587695E+03  0.25500000000E-02 0. -1.
    5000001    1    1    2    0    0 -0.15494155779E+03  0.26929654573E+03 -0.40412653704E+02  0.33806759450E+03  0.12700000000E+03 0.  0.
   -5000001    1    1    2    0    0  0.15494155779E+03 -0.26929654573E+03  0.81689882679E+02  0.34544138838E+03  0.12700000000E+03 0.  0.
<mgrwt>
<rscale>  0 0.68226147E+03</rscale>
<asrwt>0</asrwt>
<pdfrwt beam="1">  1        2 0.51770444E-01 0.68226147E+03</pdfrwt>
<pdfrwt beam="2">  1       -2 0.45873697E-01 0.68226147E+03</pdfrwt>
<totfact> 0.43859900E+02</totfact>
</mgrwt>
</event>
<event>
 4    1  0.1390278E-004  0.5928226E+03  0.7818608E-02  0.9920410E-01
         -2   -1    0    0    0  501 -0.00000000000E+00  0.00000000000E+00  0.33095724355E+03  0.33095724356E+03  0.25500000000E-02 0. -1.
          2   -1    0    0  501    0  0.00000000000E+00 -0.00000000000E+00 -0.26547134417E+03  0.26547134419E+03  0.25500000000E-02 0.  1.
    5000001    1    1    2    0    0  0.70898193929E+02  0.24353917153E+03  0.11924723976E+03  0.30771218072E+03  0.12700000000E+03 0.  0.
   -5000001    1    1    2    0    0 -0.70898193929E+02 -0.24353917153E+03 -0.53761340382E+02  0.28871640703E+03  0.12700000000E+03 0.  0.
<mgrwt>
<rscale>  0 0.59282262E+03</rscale>
<asrwt>0</asrwt>
<pdfrwt beam="1">  1        2 0.37924478E-01 0.59282262E+03</pdfrwt>
<pdfrwt beam="2">  1       -2 0.47279606E-01 0.59282262E+03</pdfrwt>
<totfact> 0.58369877E+02</totfact>
</mgrwt>
</event>
<event>
 4    1  0.1390278E-004  0.4269031E+03  0.7818608E-02  0.1034843E+00
          2   -1    0    0  501    0  0.00000000000E+00  0.00000000000E+00  0.23226399767E+04  0.23226399767E+04  0.25500000000E-02 0.  1.
         -2   -1    0    0    0  501 -0.00000000000E+00 -0.00000000000E+00 -0.19616283259E+02  0.19616283424E+02  0.25500000000E-02 0. -1.
    5000001    1    1    2    0    0 -0.12849364847E+03  0.35226256572E+02  0.17445002137E+04  0.17541839990E+04  0.12700000000E+03 0.  0.
   -5000001    1    1    2    0    0  0.12849364847E+03 -0.35226256572E+02  0.55852347974E+03  0.58807226110E+03  0.12700000000E+03 0.  0.
<mgrwt>
<rscale>  0 0.42690310E+03</rscale>
<asrwt>0</asrwt>
<pdfrwt beam="1">  1        2 0.33180560E+00 0.42690310E+03</pdfrwt>
<pdfrwt beam="2">  1       -2 0.28023271E-02 0.42690310E+03</pdfrwt>
<totfact> 0.28573105E+03</totfact>
</mgrwt>
</event>
<event>
 4    1  0.1390278E-004  0.4633889E+03  0.7818608E-02  0.1023803E+00
         -2   -1    0    0    0  501 -0.00000000000E+00  0.00000000000E+00  0.63393428866E+03  0.63393428866E+03  0.25500000000E-02 0. -1.
          2   -1    0    0  501    0  0.00000000000E+00 -0.00000000000E+00 -0.84681187908E+02  0.84681187946E+02  0.25500000000E-02 0.  1.
    5000001    1    1    2    0    0 -0.13322970870E+03 -0.16371726437E+02  0.49137650696E+03  0.52497434251E+03  0.12700000000E+03 0.  0.
   -5000001    1    1    2    0    0  0.13322970870E+03  0.16371726437E+02  0.57876593792E+02  0.19364113410E+03  0.12700000000E+03 0.  0.
<mgrwt>
<rscale>  0 0.46338886E+03</rscale>
<asrwt>0</asrwt>
<pdfrwt beam="1">  1        2 0.12097313E-01 0.46338886E+03</pdfrwt>
<pdfrwt beam="2">  1       -2 0.90562040E-01 0.46338886E+03</pdfrwt>
<totfact> 0.54883651E+02</totfact>
</mgrwt>
</event>
<event>
 4    1  0.1390278E-004  0.3544801E+03  0.7818608E-02  0.1060791E+00
          2   -1    0    0  501    0  0.00000000000E+00  0.00000000000E+00  0.11894535481E+04  0.11894535481E+04  0.25500000000E-02 0.  1.
         -2   -1    0    0    0  501 -0.00000000000E+00 -0.00000000000E+00 -0.26410481793E+02  0.26410481916E+02  0.25500000000E-02 0. -1.
    5000001    1    1    2    0    0  0.83944639080E+02  0.82506771741E+02  0.71127190377E+03  0.73204562078E+03  0.12700000000E+03 0.  0.
   -5000001    1    1    2    0    0 -0.83944639080E+02 -0.82506771741E+02  0.45177116250E+03  0.48381840919E+03  0.12700000000E+03 0.  0.
<mgrwt>
<rscale>  0 0.35448013E+03</rscale>
<asrwt>0</asrwt>
<pdfrwt beam="1">  1        2 0.16992192E+00 0.35448013E+03</pdfrwt>
<pdfrwt beam="2">  1       -2 0.37729263E-02 0.35448013E+03</pdfrwt>
<totfact> 0.68516644E+03</totfact>
</mgrwt>
</event>
<event>
 4    1  0.1390278E-004  0.3607132E+03  0.7818608E-02  0.1058302E+00
         -2   -1    0    0    0  501 -0.00000000000E+00  0.00000000000E+00  0.80074320343E+02  0.80074320383E+02  0.25500000000E-02 0. -1.
          2   -1    0    0  501    0  0.00000000000E+00 -0.00000000000E+00 -0.40622898806E+03  0.40622898807E+03  0.25500000000E-02 0.  1.
    5000001    1    1    2    0    0 -0.60675962767E+02 -0.92731323085E+02 -0.76554134202E+02  0.18512213861E+03  0.12700000000E+03 0.  0.
   -5000001    1    1    2    0    0  0.60675962767E+02  0.92731323085E+02 -0.24960053352E+03  0.30118116985E+03  0.12700000000E+03 0.  0.
<mgrwt>
<rscale>  0 0.36071324E+03</rscale>
<asrwt>0</asrwt>
<pdfrwt beam="1">  1        2 0.58032712E-01 0.36071324E+03</pdfrwt>
<pdfrwt beam="2">  1       -2 0.11439189E-01 0.36071324E+03</pdfrwt>
<totfact> 0.45711758E+03</totfact>
</mgrwt>
</event>
<event>
 4    1  0.1390278E-004  0.4323589E+03  0.7818608E-02  0.1033117E+00
         -2   -1    0    0    0  501 -0.00000000000E+00  0.00000000000E+00  0.29584458549E+03  0.29584458550E+03  0.25500000000E-02 0. -1.
          2   -1    0    0  501    0  0.00000000000E+00 -0.00000000000E+00 -0.15796659358E+03  0.15796659360E+03  0.25500000000E-02 0.  1.
    5000001    1    1    2    0    0 -0.13516945299E+03 -0.10125219418E+03  0.11682928952E+03  0.24145573246E+03  0.12700000000E+03 0.  0.
   -5000001    1    1    2    0    0  0.13516945299E+03  0.10125219418E+03  0.21048702381E+02  0.21235544664E+03  0.12700000000E+03 0.  0.
<mgrwt>
<rscale>  0 0.43235893E+03</rscale>
<asrwt>0</asrwt>
<pdfrwt beam="1">  1        2 0.22566656E-01 0.43235893E+03</pdfrwt>
<pdfrwt beam="2">  1       -2 0.42263512E-01 0.43235893E+03</pdfrwt>
<totfact> 0.13052606E+03</totfact>
</mgrwt>
</event>
<event>
 4    1  0.1390278E-004  0.3165352E+03  0.7818608E-02  0.1077255E+00
          2   -1    0    0  501    0  0.00000000000E+00  0.00000000000E+00  0.22090851144E+03  0.22090851145E+03  0.25500000000E-02 0.  1.
         -2   -1    0    0    0  501 -0.00000000000E+00 -0.00000000000E+00 -0.11338919280E+03  0.11338919283E+03  0.25500000000E-02 0. -1.
    5000001    1    1    2    0    0  0.70535056131E+02 -0.12791016083E+02 -0.11179269711E+02  0.14626270990E+03  0.12700000000E+03 0.  0.
   -5000001    1    1    2    0    0 -0.70535056131E+02  0.12791016083E+02  0.11869858835E+03  0.18803499438E+03  0.12700000000E+03 0.  0.
<mgrwt>
<rscale>  0 0.31653523E+03</rscale>
<asrwt>0</asrwt>
<pdfrwt beam="1">  1        2 0.31558359E-01 0.31653523E+03</pdfrwt>
<pdfrwt beam="2">  1       -2 0.16198456E-01 0.31653523E+03</pdfrwt>
<totfact> 0.49885425E+03</totfact>
</mgrwt>
</event>
<event>
 4    1  0.1390278E-004  0.3421021E+03  0.7818608E-02  0.1065904E+00
          2   -1    0    0  501    0  0.00000000000E+00  0.00000000000E+00  0.24901039123E+04  0.24901039123E+04  0.25500000000E-02 0.  1.
         -2   -1    0    0    0  501 -0.00000000000E+00 -0.00000000000E+00 -0.11749895871E+02  0.11749896147E+02  0.25500000000E-02 0. -1.
    5000001    1    1    2    0    0 -0.72658036794E+02 -0.82509323892E+02  0.10030526907E+04  0.10170204910E+04  0.12700000000E+03 0.  0.
   -5000001    1    1    2    0    0  0.72658036794E+02  0.82509323892E+02  0.14753013258E+04  0.14848333175E+04  0.12700000000E+03 0.  0.
<mgrwt>
<rscale>  0 0.34210210E+03</rscale>
<asrwt>0</asrwt>
<pdfrwt beam="1">  1        2 0.35572969E+00 0.34210210E+03</pdfrwt>
<pdfrwt beam="2">  1       -2 0.16785539E-02 0.34210210E+03</pdfrwt>
<totfact> 0.50667745E+03</totfact>
</mgrwt>
</event>
<event>
 4    1  0.1390278E-004  0.4028132E+03  0.7818608E-02  0.1042810E+00
         -2   -1    0    0    0  501 -0.00000000000E+00  0.00000000000E+00  0.93349546814E+02  0.93349546849E+02  0.25500000000E-02 0. -1.
          2   -1    0    0  501    0  0.00000000000E+00 -0.00000000000E+00 -0.43454549391E+03  0.43454549392E+03  0.25500000000E-02 0.  1.
    5000001    1    1    2    0    0 -0.12882567863E+03 -0.61701681569E+02 -0.25381832236E+03  0.31773557206E+03  0.12700000000E+03 0.  0.
   -5000001    1    1    2    0    0  0.12882567863E+03  0.61701681569E+02 -0.87377624734E+02  0.21015946871E+03  0.12700000000E+03 0.  0.
<mgrwt>
<rscale>  0 0.40281323E+03</rscale>
<asrwt>0</asrwt>
<pdfrwt beam="1">  1        2 0.62077927E-01 0.40281323E+03</pdfrwt>
<pdfrwt beam="2">  1       -2 0.13335650E-01 0.40281323E+03</pdfrwt>
<totfact> 0.33121189E+03</totfact>
</mgrwt>
</event>
<event>
 4    1  0.1390278E-004  0.3181199E+03  0.7818608E-02  0.1076518E+00
         -2   -1    0    0    0  501 -0.00000000000E+00  0.00000000000E+00  0.49818636118E+03  0.49818636119E+03  0.25500000000E-02 0.  1.
          2   -1    0    0  501    0  0.00000000000E+00 -0.00000000000E+00 -0.50784358144E+02  0.50784358208E+02  0.25500000000E-02 0. -1.
    5000001    1    1    2    0    0 -0.58175994841E+02  0.15733957782E+02  0.95267967337E+02  0.16981457359E+03  0.12700000000E+03 0.  0.
   -5000001    1    1    2    0    0  0.58175994841E+02 -0.15733957782E+02  0.35213403570E+03  0.37915614581E+03  0.12700000000E+03 0.  0.
<mgrwt>
<rscale>  0 0.31811994E+03</rscale>
<asrwt>0</asrwt>
<pdfrwt beam="1">  1        2 0.72549085E-02 0.31811994E+03</pdfrwt>
<pdfrwt beam="2">  1       -2 0.71169478E-01 0.31811994E+03</pdfrwt>
<totfact> 0.17811654E+03</totfact>
</mgrwt>
</event>
<event>
 4    1  0.1390278E-004  0.3557301E+03  0.7818608E-02  0.1060287E+00
          2   -1    0    0  501    0  0.00000000000E+00  0.00000000000E+00  0.98023243616E+03  0.98023243617E+03  0.25500000000E-02 0.  1.
         -2   -1    0    0    0  501 -0.00000000000E+00 -0.00000000000E+00 -0.32273954607E+02  0.32273954708E+02  0.25500000000E-02 0. -1.
    5000001    1    1    2    0    0 -0.11952586751E+03  0.20467873903E+02  0.39339338828E+03  0.43080474093E+03  0.12700000000E+03 0.  0.
   -5000001    1    1    2    0    0  0.11952586751E+03 -0.20467873903E+02  0.55456509328E+03  0.58170164994E+03  0.12700000000E+03 0.  0.
<mgrwt>
<rscale>  0 0.35573011E+03</rscale>
<asrwt>0</asrwt>
<pdfrwt beam="1">  1        2 0.14003320E+00 0.35573011E+03</pdfrwt>
<pdfrwt beam="2">  1       -2 0.46105652E-02 0.35573011E+03</pdfrwt>
<totfact> 0.66655192E+03</totfact>
</mgrwt>
</event>
<event>
 4    1  0.1390278E-004  0.3908727E+03  0.7818608E-02  0.1046987E+00
         -2   -1    0    0    0  501 -0.00000000000E+00  0.00000000000E+00  0.33709470427E+02  0.33709470524E+02  0.25500000000E-02 0. -1.
          2   -1    0    0  501    0  0.00000000000E+00 -0.00000000000E+00 -0.11330754771E+04  0.11330754771E+04  0.25500000000E-02 0.  1.
    5000001    1    1    2    0    0  0.41480356975E+01 -0.83365458538E+02 -0.18287835694E+03  0.23778246217E+03  0.12700000000E+03 0.  0.
   -5000001    1    1    2    0    0 -0.41480356975E+01  0.83365458538E+02 -0.91648764969E+03  0.92900248542E+03  0.12700000000E+03 0.  0.
<mgrwt>
<rscale>  0 0.39087274E+03</rscale>
<asrwt>0</asrwt>
<pdfrwt beam="1">  1        2 0.16186790E+00 0.39087274E+03</pdfrwt>
<pdfrwt beam="2">  1       -2 0.48156393E-02 0.39087274E+03</pdfrwt>
<totfact> 0.50885103E+03</totfact>
</mgrwt>
</event>
<event>
 4    1  0.1390278E-004  0.3959393E+03  0.7818608E-02  0.1045195E+00
         -2   -1    0    0    0  501 -0.00000000000E+00  0.00000000000E+00  0.25448222795E+03  0.25448222796E+03  0.25500000000E-02 0. -1.
          2   -1    0    0  501    0  0.00000000000E+00 -0.00000000000E+00 -0.15400676621E+03  0.15400676623E+03  0.25500000000E-02 0.  1.
    5000001    1    1    2    0    0  0.12138878373E+02  0.13535737552E+03  0.12016520939E+03  0.22144446036E+03  0.12700000000E+03 0.  0.
   -5000001    1    1    2    0    0 -0.12138878373E+02 -0.13535737552E+03 -0.19689747645E+02  0.18704453383E+03  0.12700000000E+03 0.  0.
<mgrwt>
<rscale>  0 0.39593931E+03</rscale>
<asrwt>0</asrwt>
<pdfrwt beam="1">  1        2 0.22000966E-01 0.39593931E+03</pdfrwt>
<pdfrwt beam="2">  1       -2 0.36354604E-01 0.39593931E+03</pdfrwt>
<totfact> 0.17926390E+03</totfact>
</mgrwt>
</event>
<event>
 4    1  0.1390278E-004  0.5541626E+03  0.7818608E-02  0.1000535E+00
          2   -1    0    0  501    0  0.00000000000E+00  0.00000000000E+00  0.92655089747E+03  0.92655089747E+03  0.25500000000E-02 0.  1.
         -2   -1    0    0    0  501 -0.00000000000E+00 -0.00000000000E+00 -0.82860046223E+02  0.82860046262E+02  0.25500000000E-02 0. -1.
    5000001    1    1    2    0    0  0.22402361539E+03 -0.94091570367E+02  0.34886579988E+03  0.44370727985E+03  0.12700000000E+03 0.  0.
   -5000001    1    1    2    0    0 -0.22402361539E+03  0.94091570367E+02  0.49482505137E+03  0.56570366388E+03  0.12700000000E+03 0.  0.
<mgrwt>
<rscale>  0 0.55416261E+03</rscale>
<asrwt>0</asrwt>
<pdfrwt beam="1">  1        2 0.13236441E+00 0.55416261E+03</pdfrwt>
<pdfrwt beam="2">  1       -2 0.11837150E-01 0.55416261E+03</pdfrwt>
<totfact> 0.16312790E+03</totfact>
</mgrwt>
</event>
<event>
 4    1  0.1390278E-004  0.5241147E+03  0.7818608E-02  0.1007669E+00
         -2   -1    0    0    0  501 -0.00000000000E+00  0.00000000000E+00  0.77626941867E+02  0.77626941909E+02  0.25500000000E-02 0. -1.
          2   -1    0    0  501    0  0.00000000000E+00 -0.00000000000E+00 -0.88466789654E+03  0.88466789654E+03  0.25500000000E-02 0.  1.
    5000001    1    1    2    0    0  0.13980931677E+03  0.94454074093E+02 -0.11862760250E+03  0.24221834209E+03  0.12700000000E+03 0.  0.
   -5000001    1    1    2    0    0 -0.13980931677E+03 -0.94454074093E+02 -0.68841335217E+03  0.72007649636E+03  0.12700000000E+03 0.  0.
<mgrwt>
<rscale>  0 0.52411473E+03</rscale>
<asrwt>0</asrwt>
<pdfrwt beam="1">  1        2 0.12638112E+00 0.52411473E+03</pdfrwt>
<pdfrwt beam="2">  1       -2 0.11089564E-01 0.52411473E+03</pdfrwt>
<totfact> 0.19311246E+03</totfact>
</mgrwt>
</event>
<event>
 4    1  0.1390278E-004  0.3438349E+03  0.7818608E-02  0.1065174E+00
         -2   -1    0    0    0  501 -0.00000000000E+00  0.00000000000E+00  0.28174812236E+02  0.28174812352E+02  0.25500000000E-02 0. -1.
          2   -1    0    0  501    0  0.00000000000E+00 -0.00000000000E+00 -0.10490085099E+04  0.10490085100E+04  0.25500000000E-02 0.  1.
    5000001    1    1    2    0    0 -0.96345256809E+02 -0.40889449397E+02 -0.66618794479E+03  0.68621405798E+03  0.12700000000E+03 0.  0.
   -5000001    1    1    2    0    0  0.96345256809E+02  0.40889449397E+02 -0.35464575292E+03  0.39096926432E+03  0.12700000000E+03 0.  0.
<mgrwt>
<rscale>  0 0.34383495E+03</rscale>
<asrwt>0</asrwt>
<pdfrwt beam="1">  1        2 0.14985833E+00 0.34383495E+03</pdfrwt>
<pdfrwt beam="2">  1       -2 0.40249739E-02 0.34383495E+03</pdfrwt>
<totfact> 0.74549565E+03</totfact>
</mgrwt>
</event>
<event>
 4    1  0.1390278E-004  0.3979112E+03  0.7818608E-02  0.1044505E+00
         -2   -1    0    0    0  501 -0.00000000000E+00  0.00000000000E+00  0.71951364640E+03  0.71951364640E+03  0.25500000000E-02 0. -1.
          2   -1    0    0  501    0  0.00000000000E+00 -0.00000000000E+00 -0.55014005811E+02  0.55014005870E+02  0.25500000000E-02 0.  1.
    5000001    1    1    2    0    0  0.10084510203E+03 -0.56681568736E+02  0.13690397551E+03  0.21966846234E+03  0.12700000000E+03 0.  0.
   -5000001    1    1    2    0    0 -0.10084510203E+03  0.56681568736E+02  0.52759566508E+03  0.55485918993E+03  0.12700000000E+03 0.  0.
<mgrwt>
<rscale>  0 0.39791119E+03</rscale>
<asrwt>0</asrwt>
<pdfrwt beam="1">  1        2 0.78591439E-02 0.39791119E+03</pdfrwt>
<pdfrwt beam="2">  1       -2 0.10278766E+00 0.39791119E+03</pdfrwt>
<totfact> 0.70451457E+02</totfact>
</mgrwt>
</event>
<event>
 4    1  0.1390278E-004  0.4688199E+03  0.7818608E-02  0.1022254E+00
         -2   -1    0    0    0  501 -0.00000000000E+00  0.00000000000E+00  0.55021426304E+02  0.55021426363E+02  0.25500000000E-02 0. -1.
          2   -1    0    0  501    0  0.00000000000E+00 -0.00000000000E+00 -0.99866587139E+03  0.99866587139E+03  0.25500000000E-02 0.  1.
    5000001    1    1    2    0    0  0.18158243681E+03 -0.34795721115E+02 -0.62485412763E+03  0.66389351886E+03  0.12700000000E+03 0.  0.
   -5000001    1    1    2    0    0 -0.18158243681E+03  0.34795721115E+02 -0.31879031746E+03  0.38979377890E+03  0.12700000000E+03 0.  0.
<mgrwt>
<rscale>  0 0.46881988E+03</rscale>
<asrwt>0</asrwt>
<pdfrwt beam="1">  1        2 0.14266654E+00 0.46881988E+03</pdfrwt>
<pdfrwt beam="2">  1       -2 0.78602044E-02 0.46881988E+03</pdfrwt>
<totfact> 0.28476442E+03</totfact>
</mgrwt>
</event>
<event>
 4    1  0.1390278E-004  0.9235081E+03  0.7818608E-02  0.9396663E-01
         -2   -1    0    0    0  501 -0.00000000000E+00  0.00000000000E+00  0.86299041691E+02  0.86299041729E+02  0.25500000000E-02 0. -1.
          2   -1    0    0  501    0  0.00000000000E+00 -0.00000000000E+00 -0.24706741896E+04  0.24706741896E+04  0.25500000000E-02 0.  1.
    5000001    1    1    2    0    0 -0.65170421471E+02  0.43881106370E+03 -0.11454060430E+04  0.12348628818E+04  0.12700000000E+03 0.  0.
   -5000001    1    1    2    0    0  0.65170421471E+02 -0.43881106370E+03 -0.12389691049E+04  0.13221103495E+04  0.12700000000E+03 0.  0.
<mgrwt>
<rscale>  0 0.92350813E+03</rscale>
<asrwt>0</asrwt>
<pdfrwt beam="1">  1        2 0.35295341E+00 0.92350813E+03</pdfrwt>
<pdfrwt beam="2">  1       -2 0.12328436E-01 0.92350813E+03</pdfrwt>
<totfact> 0.22602318E+02</totfact>
</mgrwt>
</event>
<event>
 4    1  0.1390278E-004  0.7780834E+03  0.7818608E-02  0.9592294E-01
         -2   -1    0    0    0  501 -0.00000000000E+00  0.00000000000E+00  0.54512120882E+03  0.54512120883E+03  0.25500000000E-02 0.  1.
          2   -1    0    0  501    0  0.00000000000E+00 -0.00000000000E+00 -0.27765102652E+03  0.27765102653E+03  0.25500000000E-02 0. -1.
    5000001    1    1    2    0    0 -0.19981496298E+03 -0.30669301776E+03  0.17093870415E+03  0.42348042121E+03  0.12700000000E+03 0.  0.
   -5000001    1    1    2    0    0  0.19981496298E+03  0.30669301776E+03  0.96531478156E+02  0.39929181415E+03  0.12700000000E+03 0.  0.
<mgrwt>
<rscale>  0 0.77808345E+03</rscale>
<asrwt>0</asrwt>
<pdfrwt beam="1">  1        2 0.39664432E-01 0.77808345E+03</pdfrwt>
<pdfrwt beam="2">  1       -2 0.77874459E-01 0.77808345E+03</pdfrwt>
<totfact> 0.19242570E+02</totfact>
</mgrwt>
</event>
<event>
 4    1  0.1390278E-004  0.3552267E+03  0.7818608E-02  0.1060490E+00
         -2   -1    0    0    0  501 -0.00000000000E+00  0.00000000000E+00  0.56991872559E+02  0.56991872616E+02  0.25500000000E-02 0. -1.
          2   -1    0    0  501    0  0.00000000000E+00 -0.00000000000E+00 -0.55352648524E+03  0.55352648525E+03  0.25500000000E-02 0.  1.
    5000001    1    1    2    0    0  0.10898721188E+03 -0.59193712073E+02 -0.25849348149E+03  0.31357612772E+03  0.12700000000E+03 0.  0.
   -5000001    1    1    2    0    0 -0.10898721188E+03  0.59193712073E+02 -0.23804113119E+03  0.29694223014E+03  0.12700000000E+03 0.  0.
<mgrwt>
<rscale>  0 0.35522675E+03</rscale>
<asrwt>0</asrwt>
<pdfrwt beam="1">  1        2 0.79075209E-01 0.35522675E+03</pdfrwt>
<pdfrwt beam="2">  1       -2 0.81416964E-02 0.35522675E+03</pdfrwt>
<totfact> 0.55756654E+03</totfact>
</mgrwt>
</event>
<event>
 4    1  0.1390278E-004  0.3029535E+03  0.7818608E-02  0.1083773E+00
         -2   -1    0    0    0  501 -0.00000000000E+00  0.00000000000E+00  0.52484531573E+03  0.52484531573E+03  0.25500000000E-02 0. -1.
          2   -1    0    0  501    0  0.00000000000E+00 -0.00000000000E+00 -0.43718038616E+02  0.43718038690E+02  0.25500000000E-02 0.  1.
    5000001    1    1    2    0    0  0.58614864816E+02  0.52008390830E+02  0.19178179549E+03  0.24300171229E+03  0.12700000000E+03 0.  0.
   -5000001    1    1    2    0    0 -0.58614864816E+02 -0.52008390830E+02  0.28934548162E+03  0.32556164213E+03  0.12700000000E+03 0.  0.
<mgrwt>
<rscale>  0 0.30295351E+03</rscale>
<asrwt>0</asrwt>
<pdfrwt beam="1">  1        2 0.62454342E-02 0.30295351E+03</pdfrwt>
<pdfrwt beam="2">  1       -2 0.74977901E-01 0.30295351E+03</pdfrwt>
<totfact> 0.19296752E+03</totfact>
</mgrwt>
</event>
<event>
 4    1  0.1390278E-004  0.5070132E+03  0.7818608E-02  0.1011964E+00
         -2   -1    0    0    0  501 -0.00000000000E+00  0.00000000000E+00  0.36049293435E+03  0.36049293436E+03  0.25500000000E-02 0. -1.
          2   -1    0    0  501    0  0.00000000000E+00 -0.00000000000E+00 -0.17827143880E+03  0.17827143882E+03  0.25500000000E-02 0.  1.
    5000001    1    1    2    0    0  0.12472439106E+02  0.15778164305E+03 -0.70345114913E+02  0.21477440213E+03  0.12700000000E+03 0.  0.
   -5000001    1    1    2    0    0 -0.12472439106E+02 -0.15778164305E+03  0.25256661046E+03  0.32398997105E+03  0.12700000000E+03 0.  0.
<mgrwt>
<rscale>  0 0.50701319E+03</rscale>
<asrwt>0</asrwt>
<pdfrwt beam="1">  1        2 0.25467349E-01 0.50701319E+03</pdfrwt>
<pdfrwt beam="2">  1       -2 0.51498990E-01 0.50701319E+03</pdfrwt>
<totfact> 0.76779785E+02</totfact>
</mgrwt>
</event>
<event>
 4    1  0.1390278E-004  0.3377972E+03  0.7818608E-02  0.1067738E+00
          2   -1    0    0  501    0  0.00000000000E+00  0.00000000000E+00  0.40481160937E+03  0.40481160938E+03  0.25500000000E-02 0.  1.
         -2   -1    0    0    0  501 -0.00000000000E+00 -0.00000000000E+00 -0.70469148358E+02  0.70469148404E+02  0.25500000000E-02 0. -1.
    5000001    1    1    2    0    0 -0.43876863995E+02 -0.18864708992E+02  0.30868969246E+03  0.33719339061E+03  0.12700000000E+03 0.  0.
   -5000001    1    1    2    0    0  0.43876863995E+02  0.18864708992E+02  0.25652768556E+02  0.13808736718E+03  0.12700000000E+03 0.  0.
<mgrwt>
<rscale>  0 0.33779715E+03</rscale>
<asrwt>0</asrwt>
<pdfrwt beam="1">  1        2 0.57830227E-01 0.33779715E+03</pdfrwt>
<pdfrwt beam="2">  1       -2 0.10067022E-01 0.33779715E+03</pdfrwt>
<totfact> 0.56264312E+03</totfact>
</mgrwt>
</event>
<event>
 4    1  0.1390278E-004  0.4365500E+03  0.7818608E-02  0.1031811E+00
          2   -1    0    0  501    0  0.00000000000E+00  0.00000000000E+00  0.75307456151E+03  0.75307456152E+03  0.25500000000E-02 0.  1.
         -2   -1    0    0    0  501 -0.00000000000E+00 -0.00000000000E+00 -0.63265956375E+02  0.63265956426E+02  0.25500000000E-02 0. -1.
    5000001    1    1    2    0    0  0.85699075999E+02  0.87653201236E+02  0.58501727102E+03  0.61106597247E+03  0.12700000000E+03 0.  0.
   -5000001    1    1    2    0    0 -0.85699075999E+02 -0.87653201236E+02  0.10479133412E+03  0.20527454547E+03  0.12700000000E+03 0.  0.
<mgrwt>
<rscale>  0 0.43655003E+03</rscale>
<asrwt>0</asrwt>
<pdfrwt beam="1">  1        2 0.10758208E+00 0.43655003E+03</pdfrwt>
<pdfrwt beam="2">  1       -2 0.90379935E-02 0.43655003E+03</pdfrwt>
<totfact> 0.32966909E+03</totfact>
</mgrwt>
</event>
<event>
 4    1  0.1390278E-004  0.3441072E+03  0.7818608E-02  0.1065060E+00
         -2   -1    0    0    0  501 -0.00000000000E+00  0.00000000000E+00  0.17958818651E+03  0.17958818653E+03  0.25500000000E-02 0. -1.
          2   -1    0    0  501    0  0.00000000000E+00 -0.00000000000E+00 -0.16483516880E+03  0.16483516882E+03  0.25500000000E-02 0.  1.
    5000001    1    1    2    0    0  0.98670746521E+02 -0.61089784849E+02  0.50140411442E+01  0.17211048382E+03  0.12700000000E+03 0.  0.
   -5000001    1    1    2    0    0 -0.98670746521E+02  0.61089784849E+02  0.97389765629E+01  0.17231287153E+03  0.12700000000E+03 0.  0.
<mgrwt>
<rscale>  0 0.34410725E+03</rscale>
<asrwt>0</asrwt>
<pdfrwt beam="1">  1        2 0.23547881E-01 0.34410725E+03</pdfrwt>
<pdfrwt beam="2">  1       -2 0.25655455E-01 0.34410725E+03</pdfrwt>
<totfact> 0.31367869E+03</totfact>
</mgrwt>
</event>
<event>
 4    1  0.1390278E-004  0.4215458E+03  0.7818608E-02  0.1036564E+00
         -2   -1    0    0    0  501 -0.00000000000E+00  0.00000000000E+00  0.24260617331E+02  0.24260617465E+02  0.25500000000E-02 0. -1.
          2   -1    0    0  501    0  0.00000000000E+00 -0.00000000000E+00 -0.18311660176E+04  0.18311660176E+04  0.25500000000E-02 0.  1.
    5000001    1    1    2    0    0 -0.13551678222E+03 -0.82694840643E+02 -0.11482393835E+04  0.11660985879E+04  0.12700000000E+03 0.  0.
   -5000001    1    1    2    0    0  0.13551678222E+03  0.82694840643E+02 -0.65866601672E+03  0.68932804710E+03  0.12700000000E+03 0.  0.
<mgrwt>
<rscale>  0 0.42154581E+03</rscale>
<asrwt>0</asrwt>
<pdfrwt beam="1">  1        2 0.26159506E+00 0.42154581E+03</pdfrwt>
<pdfrwt beam="2">  1       -2 0.34658036E-02 0.42154581E+03</pdfrwt>
<totfact> 0.36395527E+03</totfact>
</mgrwt>
</event>
<event>
 4    1  0.1390278E-004  0.7253020E+03  0.7818608E-02  0.9674915E-01
          2   -1    0    0  501    0  0.00000000000E+00  0.00000000000E+00  0.10804117909E+04  0.10804117909E+04  0.25500000000E-02 0. -1.
         -2   -1    0    0    0  501 -0.00000000000E+00 -0.00000000000E+00 -0.12172741708E+03  0.12172741711E+03  0.25500000000E-02 0.  1.
    5000001    1    1    2    0    0  0.83850216294E+02  0.30763864354E+03  0.28524313778E+03  0.44627910708E+03  0.12700000000E+03 0.  0.
   -5000001    1    1    2    0    0 -0.83850216294E+02 -0.30763864354E+03  0.67344123602E+03  0.75586010091E+03  0.12700000000E+03 0.  0.
<mgrwt>
<rscale>  0 0.72530197E+03</rscale>
<asrwt>0</asrwt>
<pdfrwt beam="1">  1        2 0.15434454E+00 0.72530197E+03</pdfrwt>
<pdfrwt beam="2">  1       -2 0.17389631E-01 0.72530197E+03</pdfrwt>
<totfact> 0.68616520E+02</totfact>
</mgrwt>
</event>
<event>
 4    1  0.1390278E-004  0.3346162E+03  0.7818608E-02  0.1069112E+00
          2   -1    0    0  501    0  0.00000000000E+00  0.00000000000E+00  0.13688642506E+04  0.13688642506E+04  0.25500000000E-02 0.  1.
         -2   -1    0    0    0  501 -0.00000000000E+00 -0.00000000000E+00 -0.20449072260E+02  0.20449072419E+02  0.25500000000E-02 0. -1.
    5000001    1    1    2    0    0  0.10664772968E+03  0.11791138585E+02  0.75190971729E+03  0.77007142016E+03  0.12700000000E+03 0.  0.
   -5000001    1    1    2    0    0 -0.10664772968E+03 -0.11791138585E+02  0.59650546101E+03  0.61924190283E+03  0.12700000000E+03 0.  0.
<mgrwt>
<rscale>  0 0.33461622E+03</rscale>
<asrwt>0</asrwt>
<pdfrwt beam="1">  1        2 0.19555207E+00 0.33461622E+03</pdfrwt>
<pdfrwt beam="2">  1       -2 0.29212955E-02 0.33461622E+03</pdfrwt>
<totfact> 0.80601665E+03</totfact>
</mgrwt>
</event>
<event>
 4    1  0.1390278E-004  0.1316402E+04  0.7818608E-02  0.9016658E-01
          2   -1    0    0  501    0  0.00000000000E+00  0.00000000000E+00  0.47993239631E+03  0.47993239632E+03  0.25500000000E-02 0.  1.
         -2   -1    0    0    0  501 -0.00000000000E+00 -0.00000000000E+00 -0.90268653410E+03  0.90268653410E+03  0.25500000000E-02 0. -1.
    5000001    1    1    2    0    0 -0.53254598251E+03 -0.35982583140E+03 -0.27796700443E+03  0.71167022418E+03  0.12700000000E+03 0.  0.
   -5000001    1    1    2    0    0  0.53254598251E+03  0.35982583140E+03 -0.14478713335E+03  0.67094870625E+03  0.12700000000E+03 0.  0.
<mgrwt>
<rscale>  0 0.13164019E+04</rscale>
<asrwt>0</asrwt>
<pdfrwt beam="1">  1        2 0.68561771E-01 0.13164019E+04</pdfrwt>
<pdfrwt beam="2">  1       -2 0.12895522E+00 0.13164019E+04</pdfrwt>
<totfact> 0.30569447E+01</totfact>
</mgrwt>
</event>
<event>
 4    1  0.1390278E-004  0.4086378E+03  0.7818608E-02  0.1040829E+00
         -2   -1    0    0    0  501 -0.00000000000E+00  0.00000000000E+00  0.11788354878E+03  0.11788354881E+03  0.25500000000E-02 0. -1.
          2   -1    0    0  501    0  0.00000000000E+00 -0.00000000000E+00 -0.35413101373E+03  0.35413101374E+03  0.25500000000E-02 0.  1.
    5000001    1    1    2    0    0 -0.12293064833E+03  0.10229418832E+03 -0.12553573597E+03  0.23971705460E+03  0.12700000000E+03 0.  0.
   -5000001    1    1    2    0    0  0.12293064833E+03 -0.10229418832E+03 -0.11071172899E+03  0.23229750795E+03  0.12700000000E+03 0.  0.
<mgrwt>
<rscale>  0 0.40863784E+03</rscale>
<asrwt>0</asrwt>
<pdfrwt beam="1">  1        2 0.50590144E-01 0.40863784E+03</pdfrwt>
<pdfrwt beam="2">  1       -2 0.16840507E-01 0.40863784E+03</pdfrwt>
<totfact> 0.28095394E+03</totfact>
</mgrwt>
</event>
<event>
 4    1  0.1390278E-004  0.3061022E+03  0.7818608E-02  0.1082229E+00
         -2   -1    0    0    0  501 -0.00000000000E+00  0.00000000000E+00  0.65317565447E+02  0.65317565497E+02  0.25500000000E-02 0. -1.
          2   -1    0    0  501    0  0.00000000000E+00 -0.00000000000E+00 -0.35862705365E+03  0.35862705366E+03  0.25500000000E-02 0.  1.
    5000001    1    1    2    0    0 -0.68215486938E+02  0.40783286636E+02 -0.18998963571E+03  0.24195390223E+03  0.12700000000E+03 0.  0.
   -5000001    1    1    2    0    0  0.68215486938E+02 -0.40783286636E+02 -0.10331985248E+03  0.18199071692E+03  0.12700000000E+03 0.  0.
<mgrwt>
<rscale>  0 0.30610224E+03</rscale>
<asrwt>0</asrwt>
<pdfrwt beam="1">  1        2 0.51232435E-01 0.30610224E+03</pdfrwt>
<pdfrwt beam="2">  1       -2 0.93310809E-02 0.30610224E+03</pdfrwt>
<totfact> 0.72191536E+03</totfact>
</mgrwt>
</event>
<event>
 4    1  0.1390278E-004  0.5487254E+03  0.7818608E-02  0.1001789E+00
         -2   -1    0    0    0  501 -0.00000000000E+00  0.00000000000E+00  0.10560300165E+04  0.10560300165E+04  0.25500000000E-02 0. -1.
          2   -1    0    0  501    0  0.00000000000E+00 -0.00000000000E+00 -0.71281018770E+02  0.71281018815E+02  0.25500000000E-02 0.  1.
    5000001    1    1    2    0    0  0.17106627480E+03  0.17240724792E+03  0.46655365562E+03  0.54110003057E+03  0.12700000000E+03 0.  0.
   -5000001    1    1    2    0    0 -0.17106627480E+03 -0.17240724792E+03  0.51819534214E+03  0.58621100478E+03  0.12700000000E+03 0.  0.
<mgrwt>
<rscale>  0 0.54872542E+03</rscale>
<asrwt>0</asrwt>
<pdfrwt beam="1">  1        2 0.10183003E-01 0.54872542E+03</pdfrwt>
<pdfrwt beam="2">  1       -2 0.15086142E+00 0.54872542E+03</pdfrwt>
<totfact> 0.19494282E+02</totfact>
</mgrwt>
</event>
<event>
 4    1  0.1390278E-004  0.3126887E+03  0.7818608E-02  0.1079064E+00
          2   -1    0    0  501    0  0.00000000000E+00  0.00000000000E+00  0.64189555996E+03  0.64189555997E+03  0.25500000000E-02 0.  1.
         -2   -1    0    0    0  501 -0.00000000000E+00 -0.00000000000E+00 -0.38080279767E+02  0.38080279853E+02  0.25500000000E-02 0. -1.
    5000001    1    1    2    0    0 -0.46117311705E+02 -0.72563233489E+02  0.36795039269E+03  0.39863356704E+03  0.12700000000E+03 0.  0.
   -5000001    1    1    2    0    0  0.46117311705E+02  0.72563233489E+02  0.23586488751E+03  0.28134227278E+03  0.12700000000E+03 0.  0.
<mgrwt>
<rscale>  0 0.31268874E+03</rscale>
<asrwt>0</asrwt>
<pdfrwt beam="1">  1        2 0.91699369E-01 0.31268874E+03</pdfrwt>
<pdfrwt beam="2">  1       -2 0.54400398E-02 0.31268874E+03</pdfrwt>
<totfact> 0.87608606E+03</totfact>
</mgrwt>
</event>
<event>
 4    1  0.1390278E-004  0.3072226E+03  0.7818608E-02  0.1081685E+00
         -2   -1    0    0    0  501 -0.00000000000E+00  0.00000000000E+00  0.22869531203E+03  0.22869531205E+03  0.25500000000E-02 0. -1.
          2   -1    0    0  501    0  0.00000000000E+00 -0.00000000000E+00 -0.10317847257E+03  0.10317847261E+03  0.25500000000E-02 0.  1.
    5000001    1    1    2    0    0 -0.77726379923E+02 -0.26197063663E+02  0.92139261200E+02  0.17704891904E+03  0.12700000000E+03 0.  0.
   -5000001    1    1    2    0    0  0.77726379923E+02  0.26197063663E+02  0.33377578261E+02  0.15482486561E+03  0.12700000000E+03 0.  0.
<mgrwt>
<rscale>  0 0.30722261E+03</rscale>
<asrwt>0</asrwt>
<pdfrwt beam="1">  1        2 0.14739782E-01 0.30722261E+03</pdfrwt>
<pdfrwt beam="2">  1       -2 0.32670758E-01 0.30722261E+03</pdfrwt>
<totfact> 0.34766397E+03</totfact>
</mgrwt>
</event>
<event>
 4    1  0.1390278E-004  0.4126767E+03  0.7818608E-02  0.1039476E+00
          2   -1    0    0  501    0  0.00000000000E+00  0.00000000000E+00  0.48127183478E+03  0.48127183479E+03  0.25500000000E-02 0.  1.
         -2   -1    0    0    0  501 -0.00000000000E+00 -0.00000000000E+00 -0.88464587042E+02  0.88464587079E+02  0.25500000000E-02 0. -1.
    5000001    1    1    2    0    0 -0.11749779502E+03 -0.11184090487E+03  0.21228904271E+03  0.29582048187E+03  0.12700000000E+03 0.  0.
   -5000001    1    1    2    0    0  0.11749779502E+03  0.11184090487E+03  0.18051820503E+03  0.27391594000E+03  0.12700000000E+03 0.  0.
<mgrwt>
<rscale>  0 0.41267670E+03</rscale>
<asrwt>0</asrwt>
<pdfrwt beam="1">  1        2 0.68753119E-01 0.41267670E+03</pdfrwt>
<pdfrwt beam="2">  1       -2 0.12637798E-01 0.41267670E+03</pdfrwt>
<totfact> 0.32315382E+03</totfact>
</mgrwt>
</event>
<event>
 4    1  0.1390278E-004  0.4791737E+03  0.7818608E-02  0.1019363E+00
         -2   -1    0    0    0  501 -0.00000000000E+00  0.00000000000E+00  0.88188121042E+02  0.88188121079E+02  0.25500000000E-02 0. -1.
          2   -1    0    0  501    0  0.00000000000E+00 -0.00000000000E+00 -0.65090231878E+03  0.65090231878E+03  0.25500000000E-02 0.  1.
    5000001    1    1    2    0    0 -0.13589384885E+02  0.19897078864E+03 -0.22164292876E+03  0.32408121511E+03  0.12700000000E+03 0.  0.
   -5000001    1    1    2    0    0  0.13589384885E+02 -0.19897078864E+03 -0.34107126897E+03  0.41500922476E+03  0.12700000000E+03 0.  0.
<mgrwt>
<rscale>  0 0.47917367E+03</rscale>
<asrwt>0</asrwt>
<pdfrwt beam="1">  1        2 0.92986043E-01 0.47917367E+03</pdfrwt>
<pdfrwt beam="2">  1       -2 0.12598303E-01 0.47917367E+03</pdfrwt>
<totfact> 0.22991562E+03</totfact>
</mgrwt>
</event>
<event>
 4    1  0.1390278E-004  0.3610287E+03  0.7818608E-02  0.1058177E+00
          2   -1    0    0  501    0  0.00000000000E+00  0.00000000000E+00  0.11580173772E+03  0.11580173775E+03  0.25500000000E-02 0.  1.
         -2   -1    0    0    0  501 -0.00000000000E+00 -0.00000000000E+00 -0.28138980240E+03  0.28138980241E+03  0.25500000000E-02 0. -1.
    5000001    1    1    2    0    0 -0.47157700771E+02  0.10052465225E+03 -0.12114255079E+02  0.16912956462E+03  0.12700000000E+03 0.  0.
   -5000001    1    1    2    0    0  0.47157700771E+02 -0.10052465225E+03 -0.15347380960E+03  0.22806197554E+03  0.12700000000E+03 0.  0.
<mgrwt>
<rscale>  0 0.36102869E+03</rscale>
<asrwt>0</asrwt>
<pdfrwt beam="1">  1        2 0.16543105E-01 0.36102869E+03</pdfrwt>
<pdfrwt beam="2">  1       -2 0.40198543E-01 0.36102869E+03</pdfrwt>
<totfact> 0.20588285E+03</totfact>
</mgrwt>
</event>
<event>
 4    1  0.1390278E-004  0.3212460E+03  0.7818608E-02  0.1075077E+00
          2   -1    0    0  501    0  0.00000000000E+00  0.00000000000E+00  0.13677741929E+04  0.13677741929E+04  0.25500000000E-02 0.  1.
         -2   -1    0    0    0  501 -0.00000000000E+00 -0.00000000000E+00 -0.18862577745E+02  0.18862577918E+02  0.25500000000E-02 0. -1.
    5000001    1    1    2    0    0  0.81033003359E+02 -0.49394105189E+02  0.78573457844E+03  0.80156968070E+03  0.12700000000E+03 0.  0.
   -5000001    1    1    2    0    0 -0.81033003359E+02  0.49394105189E+02  0.56317703676E+03  0.58506709017E+03  0.12700000000E+03 0.  0.
<mgrwt>
<rscale>  0 0.32124599E+03</rscale>
<asrwt>0</asrwt>
<pdfrwt beam="1">  1        2 0.19539629E+00 0.32124599E+03</pdfrwt>
<pdfrwt beam="2">  1       -2 0.26946543E-02 0.32124599E+03</pdfrwt>
<totfact> 0.90975056E+03</totfact>
</mgrwt>
</event>
<event>
 4    1  0.1390278E-004  0.4183930E+03  0.7818608E-02  0.1037591E+00
          2   -1    0    0  501    0  0.00000000000E+00  0.00000000000E+00  0.81459313613E+03  0.81459313613E+03  0.25500000000E-02 0.  1.
         -2   -1    0    0    0  501 -0.00000000000E+00 -0.00000000000E+00 -0.53723964985E+02  0.53723965045E+02  0.25500000000E-02 0. -1.
    5000001    1    1    2    0    0  0.12695075223E+03 -0.14887600350E+02  0.60100997191E+03  0.62743933609E+03  0.12700000000E+03 0.  0.
   -5000001    1    1    2    0    0 -0.12695075223E+03  0.14887600350E+02  0.15985919923E+03  0.24087776509E+03  0.12700000000E+03 0.  0.
<mgrwt>
<rscale>  0 0.41839299E+03</rscale>
<asrwt>0</asrwt>
<pdfrwt beam="1">  1        2 0.11637045E+00 0.41839299E+03</pdfrwt>
<pdfrwt beam="2">  1       -2 0.76748521E-02 0.41839299E+03</pdfrwt>
<totfact> 0.38702311E+03</totfact>
</mgrwt>
</event>
<event>
 4    1  0.1390278E-004  0.4315854E+03  0.7818608E-02  0.1033360E+00
          2   -1    0    0  501    0  0.00000000000E+00  0.00000000000E+00  0.86860783929E+03  0.86860783930E+03  0.25500000000E-02 0.  1.
         -2   -1    0    0    0  501 -0.00000000000E+00 -0.00000000000E+00 -0.53610492547E+02  0.53610492608E+02  0.25500000000E-02 0. -1.
    5000001    1    1    2    0    0  0.97963776204E+02  0.24951170189E+02  0.10366463812E+03  0.19260015456E+03  0.12700000000E+03 0.  0.
   -5000001    1    1    2    0    0 -0.97963776204E+02 -0.24951170189E+02  0.71133270863E+03  0.72961817734E+03  0.12700000000E+03 0.  0.
<mgrwt>
<rscale>  0 0.43158542E+03</rscale>
<asrwt>0</asrwt>
<pdfrwt beam="1">  1        2 0.12408684E+00 0.43158542E+03</pdfrwt>
<pdfrwt beam="2">  1       -2 0.76586414E-02 0.43158542E+03</pdfrwt>
<totfact> 0.35768636E+03</totfact>
</mgrwt>
</event>
<event>
 4    1  0.1390278E-004  0.3811079E+03  0.7818608E-02  0.1050525E+00
         -2   -1    0    0    0  501 -0.00000000000E+00  0.00000000000E+00  0.65524781804E+02  0.65524781854E+02  0.25500000000E-02 0. -1.
          2   -1    0    0  501    0  0.00000000000E+00 -0.00000000000E+00 -0.55415395889E+03  0.55415395889E+03  0.25500000000E-02 0.  1.
    5000001    1    1    2    0    0  0.22050317777E+02 -0.12527149899E+03 -0.34718548432E+03  0.39095514512E+03  0.12700000000E+03 0.  0.
   -5000001    1    1    2    0    0 -0.22050317777E+02  0.12527149899E+03 -0.14144369276E+03  0.22872359562E+03  0.12700000000E+03 0.  0.
<mgrwt>
<rscale>  0 0.38110795E+03</rscale>
<asrwt>0</asrwt>
<pdfrwt beam="1">  1        2 0.79164848E-01 0.38110795E+03</pdfrwt>
<pdfrwt beam="2">  1       -2 0.93606835E-02 0.38110795E+03</pdfrwt>
<totfact> 0.44711144E+03</totfact>
</mgrwt>
</event>
<event>
 4    1  0.1390278E-004  0.3455424E+03  0.7818608E-02  0.1064460E+00
         -2   -1    0    0    0  501 -0.00000000000E+00  0.00000000000E+00  0.70150427601E+01  0.70150432236E+01  0.25500000000E-02 0. -1.
          2   -1    0    0  501    0  0.00000000000E+00 -0.00000000000E+00 -0.42551254295E+04  0.42551254295E+04  0.25500000000E-02 0.  1.
    5000001    1    1    2    0    0  0.81159639333E+02 -0.78577529328E+02 -0.25061449048E+04  0.25119021874E+04  0.12700000000E+03 0.  0.
   -5000001    1    1    2    0    0 -0.81159639333E+02  0.78577529328E+02 -0.17419654820E+04  0.17502382854E+04  0.12700000000E+03 0.  0.
<mgrwt>
<rscale>  0 0.34554240E+03</rscale>
<asrwt>0</asrwt>
<pdfrwt beam="1">  1        2 0.60787341E+00 0.34554240E+03</pdfrwt>
<pdfrwt beam="2">  1       -2 0.10021517E-02 0.34554240E+03</pdfrwt>
<totfact> 0.10202625E+03</totfact>
</mgrwt>
</event>
<event>
 4    1  0.1390278E-004  0.3411144E+03  0.7818608E-02  0.1066322E+00
          2   -1    0    0  501    0  0.00000000000E+00  0.00000000000E+00  0.53005199470E+03  0.53005199470E+03  0.25500000000E-02 0.  1.
         -2   -1    0    0    0  501 -0.00000000000E+00 -0.00000000000E+00 -0.54880954824E+02  0.54880954883E+02  0.25500000000E-02 0. -1.
    5000001    1    1    2    0    0 -0.10419380355E+03  0.45075484862E+02  0.22297354519E+03  0.28059641816E+03  0.12700000000E+03 0.  0.
   -5000001    1    1    2    0    0  0.10419380355E+03 -0.45075484862E+02  0.25219749468E+03  0.30433653142E+03  0.12700000000E+03 0.  0.
<mgrwt>
<rscale>  0 0.34111441E+03</rscale>
<asrwt>0</asrwt>
<pdfrwt beam="1">  1        2 0.75721711E-01 0.34111441E+03</pdfrwt>
<pdfrwt beam="2">  1       -2 0.78401367E-02 0.34111441E+03</pdfrwt>
<totfact> 0.62071278E+03</totfact>
</mgrwt>
</event>
<event>
 4    1  0.1390278E-004  0.6444150E+03  0.7818608E-02  0.9817316E-01
          2   -1    0    0  501    0  0.00000000000E+00  0.00000000000E+00  0.52890808691E+04  0.52890808691E+04  0.25500000000E-02 0.  1.
         -2   -1    0    0    0  501 -0.00000000000E+00 -0.00000000000E+00 -0.19628679474E+02  0.19628679639E+02  0.25500000000E-02 0. -1.
    5000001    1    1    2    0    0  0.11905938958E+03 -0.23502978756E+03  0.37483703509E+04  0.37597637462E+04  0.12700000000E+03 0.  0.
   -5000001    1    1    2    0    0 -0.11905938958E+03  0.23502978756E+03  0.15210818387E+04  0.15489458026E+04  0.12700000000E+03 0.  0.
<mgrwt>
<rscale>  0 0.64441500E+03</rscale>
<asrwt>0</asrwt>
<pdfrwt beam="1">  1        2 0.75558368E+00 0.64441500E+03</pdfrwt>
<pdfrwt beam="2">  1       -2 0.28040945E-02 0.64441500E+03</pdfrwt>
<totfact> 0.26433947E+01</totfact>
</mgrwt>
</event>
<event>
 4    1  0.1390278E-004  0.3688104E+03  0.7818608E-02  0.1055149E+00
         -2   -1    0    0    0  501 -0.00000000000E+00  0.00000000000E+00  0.28730963829E+02  0.28730963942E+02  0.25500000000E-02 0. -1.
          2   -1    0    0  501    0  0.00000000000E+00 -0.00000000000E+00 -0.11835759869E+04  0.11835759869E+04  0.25500000000E-02 0.  1.
    5000001    1    1    2    0    0  0.92949517971E+02  0.72933490833E+02 -0.78315687356E+03  0.80213626996E+03  0.12700000000E+03 0.  0.
   -5000001    1    1    2    0    0 -0.92949517971E+02 -0.72933490833E+02 -0.37168814954E+03  0.41017068092E+03  0.12700000000E+03 0.  0.
<mgrwt>
<rscale>  0 0.36881041E+03</rscale>
<asrwt>0</asrwt>
<pdfrwt beam="1">  1        2 0.16908225E+00 0.36881041E+03</pdfrwt>
<pdfrwt beam="2">  1       -2 0.41044242E-02 0.36881041E+03</pdfrwt>
<totfact> 0.60799558E+03</totfact>
</mgrwt>
</event>
<event>
 4    1  0.1390278E-004  0.3645463E+03  0.7818608E-02  0.1056798E+00
          2   -1    0    0  501    0  0.00000000000E+00  0.00000000000E+00  0.11836579614E+04  0.11836579614E+04  0.25500000000E-02 0.  1.
         -2   -1    0    0    0  501 -0.00000000000E+00 -0.00000000000E+00 -0.28068498345E+02  0.28068498461E+02  0.25500000000E-02 0. -1.
    5000001    1    1    2    0    0 -0.83854467887E+01 -0.12699648250E+03  0.67729519895E+03  0.70075402875E+03  0.12700000000E+03 0.  0.
   -5000001    1    1    2    0    0  0.83854467887E+01  0.12699648250E+03  0.47829426410E+03  0.51097243111E+03  0.12700000000E+03 0.  0.
<mgrwt>
<rscale>  0 0.36454630E+03</rscale>
<asrwt>0</asrwt>
<pdfrwt beam="1">  1        2 0.16909397E+00 0.36454630E+03</pdfrwt>
<pdfrwt beam="2">  1       -2 0.40097861E-02 0.36454630E+03</pdfrwt>
<totfact> 0.62972756E+03</totfact>
</mgrwt>
</event>
<event>
 4    1  0.1390278E-004  0.3830712E+03  0.7818608E-02  0.1049804E+00
         -2   -1    0    0    0  501 -0.00000000000E+00  0.00000000000E+00  0.10858585814E+02  0.10858586114E+02  0.25500000000E-02 0. -1.
          2   -1    0    0  501    0  0.00000000000E+00 -0.00000000000E+00 -0.33785149558E+04  0.33785149558E+04  0.25500000000E-02 0.  1.
    5000001    1    1    2    0    0  0.42333173845E+01 -0.98680040301E+02 -0.26033803280E+04  0.26083469484E+04  0.12700000000E+03 0.  0.
   -5000001    1    1    2    0    0 -0.42333173845E+01  0.98680040301E+02 -0.76427604205E+03  0.78102659351E+03  0.12700000000E+03 0.  0.
<mgrwt>
<rscale>  0 0.38307125E+03</rscale>
<asrwt>0</asrwt>
<pdfrwt beam="1">  1        2 0.48264432E+00 0.38307125E+03</pdfrwt>
<pdfrwt beam="2">  1       -2 0.15512287E-02 0.38307125E+03</pdfrwt>
<totfact> 0.19100169E+03</totfact>
</mgrwt>
</event>
<event>
 4    1  0.1390278E-004  0.2797866E+03  0.7818608E-02  0.1095806E+00
          2   -1    0    0  501    0  0.00000000000E+00  0.00000000000E+00  0.18328818351E+04  0.18328818351E+04  0.25500000000E-02 0.  1.
         -2   -1    0    0    0  501 -0.00000000000E+00 -0.00000000000E+00 -0.10677247209E+02  0.10677247514E+02  0.25500000000E-02 0. -1.
    5000001    1    1    2    0    0  0.50789870427E+02  0.17207994302E+01  0.71803190581E+03  0.73094554506E+03  0.12700000000E+03 0.  0.
   -5000001    1    1    2    0    0 -0.50789870427E+02 -0.17207994302E+01  0.11041726821E+04  0.11126135376E+04  0.12700000000E+03 0.  0.
<mgrwt>
<rscale>  0 0.27978658E+03</rscale>
<asrwt>0</asrwt>
<pdfrwt beam="1">  1        2 0.26184042E+00 0.27978658E+03</pdfrwt>
<pdfrwt beam="2">  1       -2 0.15253201E-02 0.27978658E+03</pdfrwt>
<totfact> 0.12277782E+04</totfact>
</mgrwt>
</event>
<event>
 4    1  0.1390278E-004  0.2926031E+03  0.7818608E-02  0.1088998E+00
          2   -1    0    0  501    0  0.00000000000E+00  0.00000000000E+00  0.34451629483E+03  0.34451629484E+03  0.25500000000E-02 0.  1.
         -2   -1    0    0    0  501 -0.00000000000E+00 -0.00000000000E+00 -0.62128091347E+02  0.62128091399E+02  0.25500000000E-02 0. -1.
    5000001    1    1    2    0    0  0.52003424183E+02  0.44442019112E+02  0.17511335563E+03  0.22687691930E+03  0.12700000000E+03 0.  0.
   -5000001    1    1    2    0    0 -0.52003424183E+02 -0.44442019112E+02  0.10727484785E+03  0.17976746694E+03  0.12700000000E+03 0.  0.
<mgrwt>
<rscale>  0 0.29260307E+03</rscale>
<asrwt>0</asrwt>
<pdfrwt beam="1">  1        2 0.49216613E-01 0.29260307E+03</pdfrwt>
<pdfrwt beam="2">  1       -2 0.88754418E-02 0.29260307E+03</pdfrwt>
<totfact> 0.81467944E+03</totfact>
</mgrwt>
</event>
<event>
 4    1  0.1390278E-004  0.2644057E+03  0.7818608E-02  0.1104525E+00
          2   -1    0    0  501    0  0.00000000000E+00  0.00000000000E+00  0.59258903655E+02  0.59258903710E+02  0.25500000000E-02 0.  1.
         -2   -1    0    0    0  501 -0.00000000000E+00 -0.00000000000E+00 -0.29493624985E+03  0.29493624986E+03  0.25500000000E-02 0. -1.
    5000001    1    1    2    0    0 -0.32636772795E+02 -0.16029008200E+02 -0.12473603506E+03  0.18168700142E+03  0.12700000000E+03 0.  0.
   -5000001    1    1    2    0    0  0.32636772795E+02  0.16029008200E+02 -0.11094131114E+03  0.17250815215E+03  0.12700000000E+03 0.  0.
<mgrwt>
<rscale>  0 0.26440574E+03</rscale>
<asrwt>0</asrwt>
<pdfrwt beam="1">  1        2 0.84655578E-02 0.26440574E+03</pdfrwt>
<pdfrwt beam="2">  1       -2 0.42133749E-01 0.26440574E+03</pdfrwt>
<totfact> 0.42317901E+03</totfact>
</mgrwt>
</event>
<event>
 4    1  0.1390278E-004  0.7604556E+03  0.7818608E-02  0.9619088E-01
          2   -1    0    0  501    0  0.00000000000E+00  0.00000000000E+00  0.42824149020E+03  0.42824149020E+03  0.25500000000E-02 0.  1.
         -2   -1    0    0    0  501 -0.00000000000E+00 -0.00000000000E+00 -0.33759735949E+03  0.33759735950E+03  0.25500000000E-02 0. -1.
    5000001    1    1    2    0    0 -0.28755238459E+03 -0.18210436213E+03 -0.67703527502E+02  0.36954179767E+03  0.12700000000E+03 0.  0.
   -5000001    1    1    2    0    0  0.28755238459E+03  0.18210436213E+03  0.15834765821E+03  0.39629705203E+03  0.12700000000E+03 0.  0.
<mgrwt>
<rscale>  0 0.76045564E+03</rscale>
<asrwt>0</asrwt>
<pdfrwt beam="1">  1        2 0.61177355E-01 0.76045564E+03</pdfrwt>
<pdfrwt beam="2">  1       -2 0.48228194E-01 0.76045564E+03</pdfrwt>
<totfact> 0.32847421E+02</totfact>
</mgrwt>
</event>
<event>
 4    1  0.1390278E-004  0.3152328E+03  0.7818608E-02  0.1077864E+00
         -2   -1    0    0    0  501 -0.00000000000E+00  0.00000000000E+00  0.43407397684E+02  0.43407397759E+02  0.25500000000E-02 0. -1.
          2   -1    0    0  501    0  0.00000000000E+00 -0.00000000000E+00 -0.57232014259E+03  0.57232014259E+03  0.25500000000E-02 0.  1.
    5000001    1    1    2    0    0 -0.79610755991E+02  0.47308909261E+02 -0.24151734214E+03  0.28815903928E+03  0.12700000000E+03 0.  0.
   -5000001    1    1    2    0    0  0.79610755991E+02 -0.47308909261E+02 -0.28739540276E+03  0.32756850107E+03  0.12700000000E+03 0.  0.
<mgrwt>
<rscale>  0 0.31523279E+03</rscale>
<asrwt>0</asrwt>
<pdfrwt beam="1">  1        2 0.81760016E-01 0.31523279E+03</pdfrwt>
<pdfrwt beam="2">  1       -2 0.62010572E-02 0.31523279E+03</pdfrwt>
<totfact> 0.81772301E+03</totfact>
</mgrwt>
</event>
<event>
 4    1  0.1390278E-004  0.3430349E+03  0.7818608E-02  0.1065511E+00
          2   -1    0    0  501    0  0.00000000000E+00  0.00000000000E+00  0.10978171403E+04  0.10978171403E+04  0.25500000000E-02 0.  1.
         -2   -1    0    0    0  501 -0.00000000000E+00 -0.00000000000E+00 -0.26797030480E+02  0.26797030601E+02  0.25500000000E-02 0. -1.
    5000001    1    1    2    0    0 -0.10910356081E+03  0.22093384715E+02  0.43729210447E+03  0.46876976146E+03  0.12700000000E+03 0.  0.
   -5000001    1    1    2    0    0  0.10910356081E+03 -0.22093384715E+02  0.63372800538E+03  0.65584440947E+03  0.12700000000E+03 0.  0.
<mgrwt>
<rscale>  0 0.34303492E+03</rscale>
<asrwt>0</asrwt>
<pdfrwt beam="1">  1        2 0.15683103E+00 0.34303492E+03</pdfrwt>
<pdfrwt beam="2">  1       -2 0.38281470E-02 0.34303492E+03</pdfrwt>
<totfact> 0.75383280E+03</totfact>
</mgrwt>
</event>
<event>
 4    1  0.1390278E-004  0.6934214E+03  0.7818608E-02  0.9728549E-01
          2   -1    0    0  501    0  0.00000000000E+00  0.00000000000E+00  0.73589468161E+03  0.73589468162E+03  0.25500000000E-02 0.  1.
         -2   -1    0    0    0  501 -0.00000000000E+00 -0.00000000000E+00 -0.16334989358E+03  0.16334989360E+03  0.25500000000E-02 0. -1.
    5000001    1    1    2    0    0 -0.27231711687E+03 -0.14106403472E+03  0.15643691466E+03  0.36695664908E+03  0.12700000000E+03 0.  0.
   -5000001    1    1    2    0    0  0.27231711687E+03  0.14106403472E+03  0.41610787337E+03  0.53228792614E+03  0.12700000000E+03 0.  0.
<mgrwt>
<rscale>  0 0.69342142E+03</rscale>
<asrwt>0</asrwt>
<pdfrwt beam="1">  1        2 0.10512781E+00 0.69342142E+03</pdfrwt>
<pdfrwt beam="2">  1       -2 0.23335699E-01 0.69342142E+03</pdfrwt>
<totfact> 0.68858106E+02</totfact>
</mgrwt>
</event>
<event>
 4    1  0.1390278E-004  0.2963592E+03  0.7818608E-02  0.1087075E+00
         -2   -1    0    0    0  501 -0.00000000000E+00  0.00000000000E+00  0.43079887969E+02  0.43079888045E+02  0.25500000000E-02 0. -1.
          2   -1    0    0  501    0  0.00000000000E+00 -0.00000000000E+00 -0.50968536316E+03  0.50968536317E+03  0.25500000000E-02 0.  1.
    5000001    1    1    2    0    0  0.75018930090E+02  0.11594910689E+02 -0.24844485592E+03  0.28916453493E+03  0.12700000000E+03 0.  0.
   -5000001    1    1    2    0    0 -0.75018930090E+02 -0.11594910689E+02 -0.21816061927E+03  0.26360071629E+03  0.12700000000E+03 0.  0.
<mgrwt>
<rscale>  0 0.29635916E+03</rscale>
<asrwt>0</asrwt>
<pdfrwt beam="1">  1        2 0.72812191E-01 0.29635916E+03</pdfrwt>
<pdfrwt beam="2">  1       -2 0.61542700E-02 0.29635916E+03</pdfrwt>
<totfact> 0.94045228E+03</totfact>
</mgrwt>
</event>
<event>
 4    1  0.1390278E-004  0.3799762E+03  0.7818608E-02  0.1050943E+00
         -2   -1    0    0    0  501 -0.00000000000E+00  0.00000000000E+00  0.16182615913E+02  0.16182616114E+02  0.25500000000E-02 0. -1.
          2   -1    0    0  501    0  0.00000000000E+00 -0.00000000000E+00 -0.22305094406E+04  0.22305094406E+04  0.25500000000E-02 0.  1.
    5000001    1    1    2    0    0 -0.12383291008E+03 -0.58079712455E+02 -0.13169303751E+04  0.13300911455E+04  0.12700000000E+03 0.  0.
   -5000001    1    1    2    0    0  0.12383291008E+03  0.58079712455E+02 -0.89739644967E+03  0.91660091125E+03  0.12700000000E+03 0.  0.
<mgrwt>
<rscale>  0 0.37997620E+03</rscale>
<asrwt>0</asrwt>
<pdfrwt beam="1">  1        2 0.31864401E+00 0.37997620E+03</pdfrwt>
<pdfrwt beam="2">  1       -2 0.23118037E-02 0.37997620E+03</pdfrwt>
<totfact> 0.42435414E+03</totfact>
</mgrwt>
</event>
<event>
 4    1  0.1390278E-004  0.3184502E+03  0.7818608E-02  0.1076365E+00
          2   -1    0    0  501    0  0.00000000000E+00  0.00000000000E+00  0.21678165988E+04  0.21678165988E+04  0.25500000000E-02 0.  1.
         -2   -1    0    0    0  501 -0.00000000000E+00 -0.00000000000E+00 -0.11695010798E+02  0.11695011076E+02  0.25500000000E-02 0. -1.
    5000001    1    1    2    0    0  0.15619119608E+01  0.95553520877E+02  0.11432504214E+04  0.11542458321E+04  0.12700000000E+03 0.  0.
   -5000001    1    1    2    0    0 -0.15619119608E+01 -0.95553520877E+02  0.10128711667E+04  0.10252657778E+04  0.12700000000E+03 0.  0.
<mgrwt>
<rscale>  0 0.31845024E+03</rscale>
<asrwt>0</asrwt>
<pdfrwt beam="1">  1        2 0.30968836E+00 0.31845024E+03</pdfrwt>
<pdfrwt beam="2">  1       -2 0.16707144E-02 0.31845024E+03</pdfrwt>
<totfact> 0.73761202E+03</totfact>
</mgrwt>
</event>
<event>
 4    1  0.1390278E-004  0.4436381E+03  0.7818608E-02  0.1029636E+00
          2   -1    0    0  501    0  0.00000000000E+00  0.00000000000E+00  0.10542218072E+04  0.10542218072E+04  0.25500000000E-02 0.  1.
         -2   -1    0    0    0  501 -0.00000000000E+00 -0.00000000000E+00 -0.46673000501E+02  0.46673000570E+02  0.25500000000E-02 0. -1.
    5000001    1    1    2    0    0  0.13509181893E+03 -0.11538087440E+03  0.60027151172E+03  0.63876242337E+03  0.12700000000E+03 0.  0.
   -5000001    1    1    2    0    0 -0.13509181893E+03  0.11538087440E+03  0.40727729502E+03  0.46213238445E+03  0.12700000000E+03 0.  0.
<mgrwt>
<rscale>  0 0.44363812E+03</rscale>
<asrwt>0</asrwt>
<pdfrwt beam="1">  1        2 0.15060311E+00 0.44363812E+03</pdfrwt>
<pdfrwt beam="2">  1       -2 0.66675716E-02 0.44363812E+03</pdfrwt>
<totfact> 0.34178688E+03</totfact>
</mgrwt>
</event>
<event>
 4    1  0.1390278E-004  0.4350084E+03  0.7818608E-02  0.1032289E+00
         -2   -1    0    0    0  501 -0.00000000000E+00  0.00000000000E+00  0.39706248866E+02  0.39706248948E+02  0.25500000000E-02 0. -1.
          2   -1    0    0  501    0  0.00000000000E+00 -0.00000000000E+00 -0.11914515342E+04  0.11914515342E+04  0.25500000000E-02 0.  1.
    5000001    1    1    2    0    0 -0.27863107403E+01  0.10361620890E+03 -0.98045161010E+03  0.99406158865E+03  0.12700000000E+03 0.  0.
   -5000001    1    1    2    0    0  0.27863107403E+01 -0.10361620890E+03 -0.17129367524E+03  0.23709619451E+03  0.12700000000E+03 0.  0.
<mgrwt>
<rscale>  0 0.43500837E+03</rscale>
<asrwt>0</asrwt>
<pdfrwt beam="1">  1        2 0.17020734E+00 0.43500837E+03</pdfrwt>
<pdfrwt beam="2">  1       -2 0.56723220E-02 0.43500837E+03</pdfrwt>
<totfact> 0.36709106E+03</totfact>
</mgrwt>
</event>
<event>
 4    1  0.1390278E-004  0.9171170E+03  0.7818608E-02  0.9404434E-01
          2   -1    0    0  501    0  0.00000000000E+00  0.00000000000E+00  0.10090397004E+04  0.10090397004E+04  0.25500000000E-02 0. -1.
         -2   -1    0    0    0  501 -0.00000000000E+00 -0.00000000000E+00 -0.20839210577E+03  0.20839210578E+03  0.25500000000E-02 0.  1.
    5000001    1    1    2    0    0 -0.10431422631E+03 -0.39923130903E+03  0.19519088689E+03  0.47380964347E+03  0.12700000000E+03 0.  0.
   -5000001    1    1    2    0    0  0.10431422631E+03  0.39923130903E+03  0.60545670771E+03  0.74362216268E+03  0.12700000000E+03 0.  0.
<mgrwt>
<rscale>  0 0.91711702E+03</rscale>
<asrwt>0</asrwt>
<pdfrwt beam="1">  1        2 0.14414853E+00 0.91711702E+03</pdfrwt>
<pdfrwt beam="2">  1       -2 0.29770300E-01 0.91711702E+03</pdfrwt>
<totfact> 0.28809867E+02</totfact>
</mgrwt>
</event>
<event>
 4    1  0.1390278E-004  0.5306822E+03  0.7818608E-02  0.1006067E+00
          2   -1    0    0  501    0  0.00000000000E+00  0.00000000000E+00  0.47701933934E+03  0.47701933935E+03  0.25500000000E-02 0.  1.
         -2   -1    0    0    0  501 -0.00000000000E+00 -0.00000000000E+00 -0.14759545550E+03  0.14759545552E+03  0.25500000000E-02 0. -1.
    5000001    1    1    2    0    0  0.16212213272E+03  0.95031429087E+02  0.32678977256E+03  0.39778777493E+03  0.12700000000E+03 0.  0.
   -5000001    1    1    2    0    0 -0.16212213272E+03 -0.95031429087E+02  0.26341112824E+01  0.22682701994E+03  0.12700000000E+03 0.  0.
<mgrwt>
<rscale>  0 0.53068215E+03</rscale>
<asrwt>0</asrwt>
<pdfrwt beam="1">  1        2 0.68145620E-01 0.53068215E+03</pdfrwt>
<pdfrwt beam="2">  1       -2 0.21085065E-01 0.53068215E+03</pdfrwt>
<totfact> 0.13759647E+03</totfact>
</mgrwt>
</event>
<event>
 4    1  0.1390278E-004  0.7650420E+03  0.7818608E-02  0.9612043E-01
          2   -1    0    0  501    0  0.00000000000E+00  0.00000000000E+00  0.14194573046E+03  0.14194573048E+03  0.25500000000E-02 0.  1.
         -2   -1    0    0    0  501 -0.00000000000E+00 -0.00000000000E+00 -0.10308327444E+04  0.10308327444E+04  0.25500000000E-02 0. -1.
    5000001    1    1    2    0    0 -0.10662340202E+03 -0.31742317932E+03 -0.23839136392E+03  0.43021560527E+03  0.12700000000E+03 0.  0.
   -5000001    1    1    2    0    0  0.10662340202E+03  0.31742317932E+03 -0.65049565000E+03  0.74256286959E+03  0.12700000000E+03 0.  0.
<mgrwt>
<rscale>  0 0.76504198E+03</rscale>
<asrwt>0</asrwt>
<pdfrwt beam="1">  1        2 0.20277962E-01 0.76504198E+03</pdfrwt>
<pdfrwt beam="2">  1       -2 0.14726182E+00 0.76504198E+03</pdfrwt>
<totfact> 0.88851991E+01</totfact>
</mgrwt>
</event>
<event>
 4    1  0.1390278E-004  0.7362637E+03  0.7818608E-02  0.9657150E-01
          2   -1    0    0  501    0  0.00000000000E+00  0.00000000000E+00  0.37460394811E+03  0.37460394812E+03  0.25500000000E-02 0.  1.
         -2   -1    0    0    0  501 -0.00000000000E+00 -0.00000000000E+00 -0.36177157171E+03  0.36177157172E+03  0.25500000000E-02 0. -1.
    5000001    1    1    2    0    0  0.33369101784E+03  0.24060035244E+02  0.92820734359E+02  0.36969348034E+03  0.12700000000E+03 0.  0.
   -5000001    1    1    2    0    0 -0.33369101784E+03 -0.24060035244E+02 -0.79988357956E+02  0.36668203950E+03  0.12700000000E+03 0.  0.
<mgrwt>
<rscale>  0 0.73626370E+03</rscale>
<asrwt>0</asrwt>
<pdfrwt beam="1">  1        2 0.53514850E-01 0.73626370E+03</pdfrwt>
<pdfrwt beam="2">  1       -2 0.51681653E-01 0.73626370E+03</pdfrwt>
<totfact> 0.33173495E+02</totfact>
</mgrwt>
</event>
<event>
 4    1  0.1390278E-004  0.3953921E+03  0.7818608E-02  0.1045387E+00
          2   -1    0    0  501    0  0.00000000000E+00  0.00000000000E+00  0.34104473727E+02  0.34104473822E+02  0.25500000000E-02 0.  1.
         -2   -1    0    0    0  501 -0.00000000000E+00 -0.00000000000E+00 -0.11460002751E+04  0.11460002751E+04  0.25500000000E-02 0. -1.
    5000001    1    1    2    0    0  0.13690613800E+03 -0.30952791139E+02 -0.72618698815E+03  0.75045180235E+03  0.12700000000E+03 0.  0.
   -5000001    1    1    2    0    0 -0.13690613800E+03  0.30952791139E+02 -0.38570881326E+03  0.42965294660E+03  0.12700000000E+03 0.  0.
<mgrwt>
<rscale>  0 0.39539214E+03</rscale>
<asrwt>0</asrwt>
<pdfrwt beam="1">  1        2 0.48720684E-02 0.39539214E+03</pdfrwt>
<pdfrwt beam="2">  1       -2 0.16371430E+00 0.39539214E+03</pdfrwt>
<totfact> 0.41158651E+02</totfact>
</mgrwt>
</event>
<event>
 4    1  0.1390278E-004  0.3090905E+03  0.7818608E-02  0.1080783E+00
         -2   -1    0    0    0  501 -0.00000000000E+00  0.00000000000E+00  0.55788354290E+02  0.55788354348E+02  0.25500000000E-02 0. -1.
          2   -1    0    0  501    0  0.00000000000E+00 -0.00000000000E+00 -0.42812226335E+03  0.42812226336E+03  0.25500000000E-02 0.  1.
    5000001    1    1    2    0    0 -0.27986374035E+02 -0.72324190685E+02 -0.25149582573E+03  0.29222110815E+03  0.12700000000E+03 0.  0.
   -5000001    1    1    2    0    0  0.27986374035E+02  0.72324190685E+02 -0.12083808333E+03  0.19168950955E+03  0.12700000000E+03 0.  0.
<mgrwt>
<rscale>  0 0.30909051E+03</rscale>
<asrwt>0</asrwt>
<pdfrwt beam="1">  1        2 0.61160322E-01 0.30909051E+03</pdfrwt>
<pdfrwt beam="2">  1       -2 0.79697651E-02 0.30909051E+03</pdfrwt>
<totfact> 0.76386150E+03</totfact>
</mgrwt>
</event>
<event>
 4    1  0.1390278E-004  0.5635029E+03  0.7818608E-02  0.9984160E-01
         -2   -1    0    0    0  501 -0.00000000000E+00  0.00000000000E+00  0.36967462183E+02  0.36967462271E+02  0.25500000000E-02 0. -1.
          2   -1    0    0  501    0  0.00000000000E+00 -0.00000000000E+00 -0.21473990140E+04  0.21473990140E+04  0.25500000000E-02 0.  1.
    5000001    1    1    2    0    0 -0.12213630490E+02  0.24759539910E+03 -0.12197799621E+04  0.12511773697E+04  0.12700000000E+03 0.  0.
   -5000001    1    1    2    0    0  0.12213630490E+02 -0.24759539910E+03 -0.89065158973E+03  0.93318910662E+03  0.12700000000E+03 0.  0.
<mgrwt>
<rscale>  0 0.56350294E+03</rscale>
<asrwt>0</asrwt>
<pdfrwt beam="1">  1        2 0.30677121E+00 0.56350294E+03</pdfrwt>
<pdfrwt beam="2">  1       -2 0.52810674E-02 0.56350294E+03</pdfrwt>
<totfact> 0.13194688E+03</totfact>
</mgrwt>
</event>
<event>
 4    1  0.1390278E-004  0.6430866E+03  0.7818608E-02  0.9819839E-01
          2   -1    0    0  501    0  0.00000000000E+00  0.00000000000E+00  0.84003976921E+03  0.84003976921E+03  0.25500000000E-02 0.  1.
         -2   -1    0    0    0  501 -0.00000000000E+00 -0.00000000000E+00 -0.12307761440E+03  0.12307761442E+03  0.25500000000E-02 0. -1.
    5000001    1    1    2    0    0  0.10927940400E+03 -0.26329676121E+03  0.24253256699E+03  0.39524450490E+03  0.12700000000E+03 0.  0.
   -5000001    1    1    2    0    0 -0.10927940400E+03  0.26329676121E+03  0.47442958782E+03  0.56787287873E+03  0.12700000000E+03 0.  0.
<mgrwt>
<rscale>  0 0.64308659E+03</rscale>
<asrwt>0</asrwt>
<pdfrwt beam="1">  1        2 0.12000568E+00 0.64308659E+03</pdfrwt>
<pdfrwt beam="2">  1       -2 0.17582516E-01 0.64308659E+03</pdfrwt>
<totfact> 0.95534456E+02</totfact>
</mgrwt>
</event>
<event>
 4    1  0.1390278E-004  0.2806831E+03  0.7818608E-02  0.1095316E+00
          2   -1    0    0  501    0  0.00000000000E+00  0.00000000000E+00  0.85510737725E+03  0.85510737725E+03  0.25500000000E-02 0.  1.
         -2   -1    0    0    0  501 -0.00000000000E+00 -0.00000000000E+00 -0.23033068159E+02  0.23033068300E+02  0.25500000000E-02 0. -1.
    5000001    1    1    2    0    0  0.83473491180E+01 -0.56478655679E+02  0.36119943099E+03  0.38710921680E+03  0.12700000000E+03 0.  0.
   -5000001    1    1    2    0    0 -0.83473491180E+01  0.56478655679E+02  0.47087487810E+03  0.49103122876E+03  0.12700000000E+03 0.  0.
<mgrwt>
<rscale>  0 0.28068307E+03</rscale>
<asrwt>0</asrwt>
<pdfrwt beam="1">  1        2 0.12215822E+00 0.28068307E+03</pdfrwt>
<pdfrwt beam="2">  1       -2 0.32904378E-02 0.28068307E+03</pdfrwt>
<totfact> 0.13177150E+04</totfact>
</mgrwt>
</event>
<event>
 4    1  0.1390278E-004  0.3718512E+03  0.7818608E-02  0.1053987E+00
         -2   -1    0    0    0  501 -0.00000000000E+00  0.00000000000E+00  0.16813813447E+02  0.16813813641E+02  0.25500000000E-02 0. -1.
          2   -1    0    0  501    0  0.00000000000E+00 -0.00000000000E+00 -0.20559485321E+04  0.20559485321E+04  0.25500000000E-02 0.  1.
    5000001    1    1    2    0    0  0.11951255368E+03 -0.23814912702E+02 -0.13535032217E+04  0.13648993999E+04  0.12700000000E+03 0.  0.
   -5000001    1    1    2    0    0 -0.11951255368E+03  0.23814912702E+02 -0.68563149689E+03  0.70786294583E+03  0.12700000000E+03 0.  0.
<mgrwt>
<rscale>  0 0.37185124E+03</rscale>
<asrwt>0</asrwt>
<pdfrwt beam="1">  1        2 0.29370677E+00 0.37185124E+03</pdfrwt>
<pdfrwt beam="2">  1       -2 0.24019747E-02 0.37185124E+03</pdfrwt>
<totfact> 0.48902973E+03</totfact>
</mgrwt>
</event>
<event>
 4    1  0.1390278E-004  0.5136267E+03  0.7818608E-02  0.1010282E+00
         -2   -1    0    0    0  501 -0.00000000000E+00  0.00000000000E+00  0.18096224945E+04  0.18096224945E+04  0.25500000000E-02 0. -1.
          2   -1    0    0  501    0  0.00000000000E+00 -0.00000000000E+00 -0.36445778909E+02  0.36445778998E+02  0.25500000000E-02 0.  1.
    5000001    1    1    2    0    0 -0.18980357027E+03 -0.96470143846E+02  0.64569183096E+03  0.69164935083E+03  0.12700000000E+03 0.  0.
   -5000001    1    1    2    0    0  0.18980357027E+03  0.96470143846E+02  0.11274848846E+04  0.11544189227E+04  0.12700000000E+03 0.  0.
<mgrwt>
<rscale>  0 0.51362672E+03</rscale>
<asrwt>0</asrwt>
<pdfrwt beam="1">  1        2 0.52065397E-02 0.51362672E+03</pdfrwt>
<pdfrwt beam="2">  1       -2 0.25851751E+00 0.51362672E+03</pdfrwt>
<totfact> 0.93470965E+01</totfact>
</mgrwt>
</event>
<event>
 4    1  0.1390278E-004  0.7251899E+03  0.7818608E-02  0.9675098E-01
          2   -1    0    0  501    0  0.00000000000E+00  0.00000000000E+00  0.73977284736E+03  0.73977284737E+03  0.25500000000E-02 0.  1.
         -2   -1    0    0    0  501 -0.00000000000E+00 -0.00000000000E+00 -0.17772360604E+03  0.17772360606E+03  0.25500000000E-02 0. -1.
    5000001    1    1    2    0    0  0.13247707734E+03  0.19961917888E+03 -0.23534961375E+02  0.27217804284E+03  0.12700000000E+03 0.  0.
   -5000001    1    1    2    0    0 -0.13247707734E+03 -0.19961917888E+03  0.58558420270E+03  0.64531841059E+03  0.12700000000E+03 0.  0.
<mgrwt>
<rscale>  0 0.72518990E+03</rscale>
<asrwt>0</asrwt>
<pdfrwt beam="1">  1        2 0.10568184E+00 0.72518990E+03</pdfrwt>
<pdfrwt beam="2">  1       -2 0.25389086E-01 0.72518990E+03</pdfrwt>
<totfact> 0.58749305E+02</totfact>
</mgrwt>
</event>
<event>
 4    1  0.1390278E-004  0.2813586E+03  0.7818608E-02  0.1094949E+00
          2   -1    0    0  501    0  0.00000000000E+00  0.00000000000E+00  0.12046005909E+02  0.12046006179E+02  0.25500000000E-02 0. -1.
         -2   -1    0    0    0  501 -0.00000000000E+00 -0.00000000000E+00 -0.16429236286E+04  0.16429236286E+04  0.25500000000E-02 0.  1.
    5000001    1    1    2    0    0  0.53551419040E+02  0.22734977194E+02 -0.91334194087E+03  0.92396273443E+03  0.12700000000E+03 0.  0.
   -5000001    1    1    2    0    0 -0.53551419040E+02 -0.22734977194E+02 -0.71753568181E+03  0.73100690034E+03  0.12700000000E+03 0.  0.
<mgrwt>
<rscale>  0 0.28135862E+03</rscale>
<asrwt>0</asrwt>
<pdfrwt beam="1">  1        2 0.17208590E-02 0.28135862E+03</pdfrwt>
<pdfrwt beam="2">  1       -2 0.23470323E+00 0.28135862E+03</pdfrwt>
<totfact> 0.59692562E+02</totfact>
</mgrwt>
</event>
<event>
 4    1  0.1390278E-004  0.8171784E+03  0.7818608E-02  0.9535480E-01
          2   -1    0    0  501    0  0.00000000000E+00  0.00000000000E+00  0.15324809058E+03  0.15324809060E+03  0.25500000000E-02 0.  1.
         -2   -1    0    0    0  501 -0.00000000000E+00 -0.00000000000E+00 -0.10893781543E+04  0.10893781543E+04  0.25500000000E-02 0. -1.
    5000001    1    1    2    0    0  0.30505497221E+03 -0.18123620901E+03 -0.22806050313E+03  0.44050617773E+03  0.12700000000E+03 0.  0.
   -5000001    1    1    2    0    0 -0.30505497221E+03  0.18123620901E+03 -0.70806956061E+03  0.80212006719E+03  0.12700000000E+03 0.  0.
<mgrwt>
<rscale>  0 0.81717837E+03</rscale>
<asrwt>0</asrwt>
<pdfrwt beam="1">  1        2 0.21892585E-01 0.81717837E+03</pdfrwt>
<pdfrwt beam="2">  1       -2 0.15562545E+00 0.81717837E+03</pdfrwt>
<totfact> 0.69986471E+01</totfact>
</mgrwt>
</event>
<event>
 4    1  0.1390278E-004  0.3675138E+03  0.7818608E-02  0.1055648E+00
          2   -1    0    0  501    0  0.00000000000E+00  0.00000000000E+00  0.55453675854E+03  0.55453675854E+03  0.25500000000E-02 0.  1.
         -2   -1    0    0    0  501 -0.00000000000E+00 -0.00000000000E+00 -0.60891547122E+02  0.60891547176E+02  0.25500000000E-02 0. -1.
    5000001    1    1    2    0    0 -0.57986009782E+02 -0.10439435425E+03  0.14950933486E+03  0.22965757061E+03  0.12700000000E+03 0.  0.
   -5000001    1    1    2    0    0  0.57986009782E+02  0.10439435425E+03  0.34413587655E+03  0.38577073510E+03  0.12700000000E+03 0.  0.
<mgrwt>
<rscale>  0 0.36751382E+03</rscale>
<asrwt>0</asrwt>
<pdfrwt beam="1">  1        2 0.79219544E-01 0.36751382E+03</pdfrwt>
<pdfrwt beam="2">  1       -2 0.86987917E-02 0.36751382E+03</pdfrwt>
<totfact> 0.50158920E+03</totfact>
</mgrwt>
</event>
<event>
 4    1  0.1390278E-004  0.4187305E+03  0.7818608E-02  0.1037480E+00
         -2   -1    0    0    0  501 -0.00000000000E+00  0.00000000000E+00  0.44697497900E+02  0.44697497973E+02  0.25500000000E-02 0. -1.
          2   -1    0    0  501    0  0.00000000000E+00 -0.00000000000E+00 -0.98067714653E+03  0.98067714654E+03  0.25500000000E-02 0.  1.
    5000001    1    1    2    0    0 -0.14128386890E+03  0.12650751664E+02 -0.25474090216E+03  0.31803003060E+03  0.12700000000E+03 0.  0.
   -5000001    1    1    2    0    0  0.14128386890E+03 -0.12650751664E+02 -0.68123874647E+03  0.70734461391E+03  0.12700000000E+03 0.  0.
<mgrwt>
<rscale>  0 0.41873053E+03</rscale>
<asrwt>0</asrwt>
<pdfrwt beam="1">  1        2 0.14009672E+00 0.41873053E+03</pdfrwt>
<pdfrwt beam="2">  1       -2 0.63853575E-02 0.41873053E+03</pdfrwt>
<totfact> 0.40434966E+03</totfact>
</mgrwt>
</event>
<event>
 4    1  0.1390278E-004  0.4456056E+03  0.7818608E-02  0.1029041E+00
         -2   -1    0    0    0  501 -0.00000000000E+00  0.00000000000E+00  0.78700595316E+03  0.78700595316E+03  0.25500000000E-02 0. -1.
          2   -1    0    0  501    0  0.00000000000E+00 -0.00000000000E+00 -0.63075879187E+02  0.63075879239E+02  0.25500000000E-02 0.  1.
    5000001    1    1    2    0    0  0.30026476387E+02  0.16612853011E+03  0.22691099884E+03  0.31002883607E+03  0.12700000000E+03 0.  0.
   -5000001    1    1    2    0    0 -0.30026476387E+02 -0.16612853011E+03  0.49701907513E+03  0.54005299633E+03  0.12700000000E+03 0.  0.
<mgrwt>
<rscale>  0 0.44560562E+03</rscale>
<asrwt>0</asrwt>
<pdfrwt beam="1">  1        2 0.90108411E-02 0.44560562E+03</pdfrwt>
<pdfrwt beam="2">  1       -2 0.11242941E+00 0.44560562E+03</pdfrwt>
<totfact> 0.47766656E+02</totfact>
</mgrwt>
</event>
<event>
 4    1  0.1390278E-004  0.3666338E+03  0.7818608E-02  0.1055988E+00
         -2   -1    0    0    0  501 -0.00000000000E+00  0.00000000000E+00  0.28748718988E+02  0.28748719101E+02  0.25500000000E-02 0. -1.
          2   -1    0    0  501    0  0.00000000000E+00 -0.00000000000E+00 -0.11689247690E+04  0.11689247690E+04  0.25500000000E-02 0.  1.
    5000001    1    1    2    0    0 -0.35948114493E+02 -0.41972488207E+02 -0.17778590089E+03  0.22536810612E+03  0.12700000000E+03 0.  0.
   -5000001    1    1    2    0    0  0.35948114493E+02  0.41972488207E+02 -0.96239014911E+03  0.97230538197E+03  0.12700000000E+03 0.  0.
<mgrwt>
<rscale>  0 0.36663382E+03</rscale>
<asrwt>0</asrwt>
<pdfrwt beam="1">  1        2 0.16698922E+00 0.36663382E+03</pdfrwt>
<pdfrwt beam="2">  1       -2 0.41069606E-02 0.36663382E+03</pdfrwt>
<totfact> 0.61883127E+03</totfact>
</mgrwt>
</event>
<event>
 4    1  0.1390278E-004  0.4733333E+03  0.7818608E-02  0.1020984E+00
         -2   -1    0    0    0  501 -0.00000000000E+00  0.00000000000E+00  0.44957865942E+02  0.44957866014E+02  0.25500000000E-02 0. -1.
          2   -1    0    0  501    0  0.00000000000E+00 -0.00000000000E+00 -0.12458575155E+04  0.12458575155E+04  0.25500000000E-02 0.  1.
    5000001    1    1    2    0    0 -0.15372589368E+03  0.84792199811E+02 -0.86003425658E+03  0.88690996726E+03  0.12700000000E+03 0.  0.
   -5000001    1    1    2    0    0  0.15372589368E+03 -0.84792199811E+02 -0.34086539301E+03  0.40390541429E+03  0.12700000000E+03 0.  0.
<mgrwt>
<rscale>  0 0.47333327E+03</rscale>
<asrwt>0</asrwt>
<pdfrwt beam="1">  1        2 0.17797962E+00 0.47333327E+03</pdfrwt>
<pdfrwt beam="2">  1       -2 0.64225531E-02 0.47333327E+03</pdfrwt>
<totfact> 0.28242163E+03</totfact>
</mgrwt>
</event>
<event>
 4    1  0.1390278E-004  0.3195269E+03  0.7818608E-02  0.1075867E+00
          2   -1    0    0  501    0  0.00000000000E+00  0.00000000000E+00  0.38693147848E+03  0.38693147849E+03  0.25500000000E-02 0.  1.
         -2   -1    0    0    0  501 -0.00000000000E+00 -0.00000000000E+00 -0.65966107683E+02  0.65966107732E+02  0.25500000000E-02 0. -1.
    5000001    1    1    2    0    0  0.57398559996E+02 -0.38033620818E+02  0.25718027697E+03  0.29497770401E+03  0.12700000000E+03 0.  0.
   -5000001    1    1    2    0    0 -0.57398559996E+02  0.38033620818E+02  0.63785093829E+02  0.15791988221E+03  0.12700000000E+03 0.  0.
<mgrwt>
<rscale>  0 0.31952692E+03</rscale>
<asrwt>0</asrwt>
<pdfrwt beam="1">  1        2 0.55275926E-01 0.31952692E+03</pdfrwt>
<pdfrwt beam="2">  1       -2 0.94237296E-02 0.31952692E+03</pdfrwt>
<totfact> 0.65545368E+03</totfact>
</mgrwt>
</event>
<event>
 4    1  0.1390278E-004  0.3991462E+03  0.7818608E-02  0.1044076E+00
         -2   -1    0    0    0  501 -0.00000000000E+00  0.00000000000E+00  0.66929324939E+02  0.66929324988E+02  0.25500000000E-02 0. -1.
          2   -1    0    0  501    0  0.00000000000E+00 -0.00000000000E+00 -0.59509685640E+03  0.59509685641E+03  0.25500000000E-02 0.  1.
    5000001    1    1    2    0    0  0.13283120732E+03  0.73937473142E+02 -0.22381169828E+03  0.29888385012E+03  0.12700000000E+03 0.  0.
   -5000001    1    1    2    0    0 -0.13283120732E+03 -0.73937473142E+02 -0.30435583318E+03  0.36314233128E+03  0.12700000000E+03 0.  0.
<mgrwt>
<rscale>  0 0.39914624E+03</rscale>
<asrwt>0</asrwt>
<pdfrwt beam="1">  1        2 0.85013833E-01 0.39914624E+03</pdfrwt>
<pdfrwt beam="2">  1       -2 0.95613325E-02 0.39914624E+03</pdfrwt>
<totfact> 0.39862273E+03</totfact>
</mgrwt>
</event>
<event>
 4    1  0.1390278E-004  0.3724552E+03  0.7818608E-02  0.1053758E+00
         -2   -1    0    0    0  501 -0.00000000000E+00  0.00000000000E+00  0.33467690602E+02  0.33467690700E+02  0.25500000000E-02 0. -1.
          2   -1    0    0  501    0  0.00000000000E+00 -0.00000000000E+00 -0.10362448889E+04  0.10362448889E+04  0.25500000000E-02 0.  1.
    5000001    1    1    2    0    0 -0.60717681533E+02 -0.11342801408E+03 -0.62980430125E+03  0.65523660543E+03  0.12700000000E+03 0.  0.
   -5000001    1    1    2    0    0  0.60717681533E+02  0.11342801408E+03 -0.37297289702E+03  0.41447597414E+03  0.12700000000E+03 0.  0.
<mgrwt>
<rscale>  0 0.37245522E+03</rscale>
<asrwt>0</asrwt>
<pdfrwt beam="1">  1        2 0.14803496E+00 0.37245522E+03</pdfrwt>
<pdfrwt beam="2">  1       -2 0.47810993E-02 0.37245522E+03</pdfrwt>
<totfact> 0.58450163E+03</totfact>
</mgrwt>
</event>
<event>
 4    1  0.1390278E-004  0.3569496E+03  0.7818608E-02  0.1059798E+00
         -2   -1    0    0    0  501 -0.00000000000E+00  0.00000000000E+00  0.36258630891E+03  0.36258630892E+03  0.25500000000E-02 0. -1.
          2   -1    0    0  501    0  0.00000000000E+00 -0.00000000000E+00 -0.87850116391E+02  0.87850116428E+02  0.25500000000E-02 0.  1.
    5000001    1    1    2    0    0  0.50643029281E+01 -0.10448667330E+03  0.22462348306E+03  0.27843818202E+03  0.12700000000E+03 0.  0.
   -5000001    1    1    2    0    0 -0.50643029281E+01  0.10448667330E+03  0.50112709460E+02  0.17199824334E+03  0.12700000000E+03 0.  0.
<mgrwt>
<rscale>  0 0.35694957E+03</rscale>
<asrwt>0</asrwt>
<pdfrwt beam="1">  1        2 0.12550017E-01 0.35694957E+03</pdfrwt>
<pdfrwt beam="2">  1       -2 0.51798044E-01 0.35694957E+03</pdfrwt>
<totfact> 0.17403371E+03</totfact>
</mgrwt>
</event>
<event>
 4    1  0.1390278E-004  0.5583207E+03  0.7818608E-02  0.9995862E-01
          2   -1    0    0  501    0  0.00000000000E+00  0.00000000000E+00  0.17025479107E+04  0.17025479107E+04  0.25500000000E-02 0.  1.
         -2   -1    0    0    0  501 -0.00000000000E+00 -0.00000000000E+00 -0.45772871796E+02  0.45772871867E+02  0.25500000000E-02 0. -1.
    5000001    1    1    2    0    0  0.14146319067E+03 -0.20013849902E+03  0.69798266744E+03  0.75058381088E+03  0.12700000000E+03 0.  0.
   -5000001    1    1    2    0    0 -0.14146319067E+03  0.20013849902E+03  0.95879237147E+03  0.99773697170E+03  0.12700000000E+03 0.  0.
<mgrwt>
<rscale>  0 0.55832072E+03</rscale>
<asrwt>0</asrwt>
<pdfrwt beam="1">  1        2 0.24322112E+00 0.55832072E+03</pdfrwt>
<pdfrwt beam="2">  1       -2 0.65389819E-02 0.55832072E+03</pdfrwt>
<totfact> 0.15815974E+03</totfact>
</mgrwt>
</event>
<event>
 4    1  0.1390278E-004  0.5353283E+03  0.7818608E-02  0.1004948E+00
          2   -1    0    0  501    0  0.00000000000E+00  0.00000000000E+00  0.11164868243E+04  0.11164868243E+04  0.25500000000E-02 0.  1.
         -2   -1    0    0    0  501 -0.00000000000E+00 -0.00000000000E+00 -0.64169239181E+02  0.64169239232E+02  0.25500000000E-02 0. -1.
    5000001    1    1    2    0    0  0.22473662094E+03  0.48505363667E+02  0.41250076683E+03  0.48902474552E+03  0.12700000000E+03 0.  0.
   -5000001    1    1    2    0    0 -0.22473662094E+03 -0.48505363667E+02  0.63981681828E+03  0.69163131801E+03  0.12700000000E+03 0.  0.
<mgrwt>
<rscale>  0 0.53532835E+03</rscale>
<asrwt>0</asrwt>
<pdfrwt beam="1">  1        2 0.15949812E+00 0.53532835E+03</pdfrwt>
<pdfrwt beam="2">  1       -2 0.91670342E-02 0.53532835E+03</pdfrwt>
<totfact> 0.18988883E+03</totfact>
</mgrwt>
</event>
<event>
 4    1  0.1390278E-004  0.3547264E+03  0.7818608E-02  0.1060692E+00
         -2   -1    0    0    0  501 -0.00000000000E+00  0.00000000000E+00  0.12670409498E+02  0.12670409754E+02  0.25500000000E-02 0. -1.
          2   -1    0    0  501    0  0.00000000000E+00 -0.00000000000E+00 -0.24827691980E+04  0.24827691980E+04  0.25500000000E-02 0.  1.
    5000001    1    1    2    0    0 -0.92306751901E+02 -0.15102185492E+02 -0.18056989621E+04  0.18125745100E+04  0.12700000000E+03 0.  0.
   -5000001    1    1    2    0    0  0.92306751901E+02  0.15102185492E+02 -0.66439982638E+03  0.68286509776E+03  0.12700000000E+03 0.  0.
<mgrwt>
<rscale>  0 0.35472639E+03</rscale>
<asrwt>0</asrwt>
<pdfrwt beam="1">  1        2 0.35468100E+00 0.35472639E+03</pdfrwt>
<pdfrwt beam="2">  1       -2 0.18100601E-02 0.35472639E+03</pdfrwt>
<totfact> 0.45697231E+03</totfact>
</mgrwt>
</event>
<event>
 4    1  0.1390278E-004  0.4994694E+03  0.7818608E-02  0.1013918E+00
          2   -1    0    0  501    0  0.00000000000E+00  0.00000000000E+00  0.76329677456E+03  0.76329677456E+03  0.25500000000E-02 0.  1.
         -2   -1    0    0    0  501 -0.00000000000E+00 -0.00000000000E+00 -0.81707942208E+02  0.81707942248E+02  0.25500000000E-02 0. -1.
    5000001    1    1    2    0    0  0.13336665991E+03 -0.14286570425E+03  0.49250256851E+03  0.54487159535E+03  0.12700000000E+03 0.  0.
   -5000001    1    1    2    0    0 -0.13336665991E+03  0.14286570425E+03  0.18908626384E+03  0.30013312147E+03  0.12700000000E+03 0.  0.
<mgrwt>
<rscale>  0 0.49946935E+03</rscale>
<asrwt>0</asrwt>
<pdfrwt beam="1">  1        2 0.10904239E+00 0.49946935E+03</pdfrwt>
<pdfrwt beam="2">  1       -2 0.11672564E-01 0.49946935E+03</pdfrwt>
<totfact> 0.21466009E+03</totfact>
</mgrwt>
</event>
<event>
 4    1  0.1390278E-004  0.1485864E+04  0.7818608E-02  0.8893908E-01
          2   -1    0    0  501    0  0.00000000000E+00  0.00000000000E+00  0.37819276971E+04  0.37819276971E+04  0.25500000000E-02 0.  1.
         -2   -1    0    0    0  501 -0.00000000000E+00 -0.00000000000E+00 -0.14594349739E+03  0.14594349742E+03  0.25500000000E-02 0. -1.
    5000001    1    1    2    0    0 -0.21824087054E+03  0.49592797706E+03  0.31190774115E+04  0.31683349784E+04  0.12700000000E+03 0.  0.
   -5000001    1    1    2    0    0  0.21824087054E+03 -0.49592797706E+03  0.51690678820E+03  0.75953621618E+03  0.12700000000E+03 0.  0.
<mgrwt>
<rscale>  0 0.14858637E+04</rscale>
<asrwt>0</asrwt>
<pdfrwt beam="1">  1        2 0.54027534E+00 0.14858637E+04</pdfrwt>
<pdfrwt beam="2">  1       -2 0.20849073E-01 0.14858637E+04</pdfrwt>
<totfact> 0.15573856E+01</totfact>
</mgrwt>
</event>
<event>
 4    1  0.1390278E-004  0.5650584E+03  0.7818608E-02  0.9980674E-01
          2   -1    0    0  501    0  0.00000000000E+00  0.00000000000E+00  0.27190317178E+04  0.27190317178E+04  0.25500000000E-02 0.  1.
         -2   -1    0    0    0  501 -0.00000000000E+00 -0.00000000000E+00 -0.29357049524E+02  0.29357049635E+02  0.25500000000E-02 0. -1.
    5000001    1    1    2    0    0 -0.61850731390E+01 -0.14821399823E+03  0.23379325825E+04  0.23460740407E+04  0.12700000000E+03 0.  0.
   -5000001    1    1    2    0    0  0.61850731390E+01  0.14821399823E+03  0.35174208583E+03  0.40231472673E+03  0.12700000000E+03 0.  0.
<mgrwt>
<rscale>  0 0.56505840E+03</rscale>
<asrwt>0</asrwt>
<pdfrwt beam="1">  1        2 0.38843339E+00 0.56505840E+03</pdfrwt>
<pdfrwt beam="2">  1       -2 0.41938611E-02 0.56505840E+03</pdfrwt>
<totfact> 0.96210491E+02</totfact>
</mgrwt>
</event>
<event>
 4    1  0.1390278E-004  0.3153391E+03  0.7818608E-02  0.1077815E+00
          2   -1    0    0  501    0  0.00000000000E+00  0.00000000000E+00  0.15296466972E+04  0.15296466972E+04  0.25500000000E-02 0.  1.
         -2   -1    0    0    0  501 -0.00000000000E+00 -0.00000000000E+00 -0.16251918429E+02  0.16251918629E+02  0.25500000000E-02 0. -1.
    5000001    1    1    2    0    0  0.14606683557E+01  0.91046973233E+02  0.85941375634E+03  0.87350597564E+03  0.12700000000E+03 0.  0.
   -5000001    1    1    2    0    0 -0.14606683557E+01 -0.91046973233E+02  0.65398102244E+03  0.67239264020E+03  0.12700000000E+03 0.  0.
<mgrwt>
<rscale>  0 0.31533914E+03</rscale>
<asrwt>0</asrwt>
<pdfrwt beam="1">  1        2 0.21852091E+00 0.31533914E+03</pdfrwt>
<pdfrwt beam="2">  1       -2 0.23217031E-02 0.31533914E+03</pdfrwt>
<totfact> 0.93732229E+03</totfact>
</mgrwt>
</event>
<event>
 4    1  0.1390278E-004  0.4665043E+03  0.7818608E-02  0.1022912E+00
          2   -1    0    0  501    0  0.00000000000E+00  0.00000000000E+00  0.32768330584E+03  0.32768330585E+03  0.25500000000E-02 0.  1.
         -2   -1    0    0    0  501 -0.00000000000E+00 -0.00000000000E+00 -0.16603398171E+03  0.16603398173E+03  0.25500000000E-02 0. -1.
    5000001    1    1    2    0    0 -0.61085599241E+02  0.31219730692E+02  0.27473800214E+03  0.31034833952E+03  0.12700000000E+03 0.  0.
   -5000001    1    1    2    0    0  0.61085599241E+02 -0.31219730692E+02 -0.11308867801E+03  0.18336894806E+03  0.12700000000E+03 0.  0.
<mgrwt>
<rscale>  0 0.46650429E+03</rscale>
<asrwt>0</asrwt>
<pdfrwt beam="1">  1        2 0.46811900E-01 0.46650429E+03</pdfrwt>
<pdfrwt beam="2">  1       -2 0.23719141E-01 0.46650429E+03</pdfrwt>
<totfact> 0.16937388E+03</totfact>
</mgrwt>
</event>
<event>
 4    1  0.1390278E-004  0.3962367E+03  0.7818608E-02  0.1045091E+00
          2   -1    0    0  501    0  0.00000000000E+00  0.00000000000E+00  0.54182852717E+03  0.54182852718E+03  0.25500000000E-02 0.  1.
         -2   -1    0    0    0  501 -0.00000000000E+00 -0.00000000000E+00 -0.72441534546E+02  0.72441534591E+02  0.25500000000E-02 0. -1.
    5000001    1    1    2    0    0  0.59716264886E+02 -0.13700134914E+03  0.27816960413E+03  0.34035676961E+03  0.12700000000E+03 0.  0.
   -5000001    1    1    2    0    0 -0.59716264886E+02  0.13700134914E+03  0.19121738850E+03  0.27391329216E+03  0.12700000000E+03 0.  0.
<mgrwt>
<rscale>  0 0.39623675E+03</rscale>
<asrwt>0</asrwt>
<pdfrwt beam="1">  1        2 0.77404076E-01 0.39623675E+03</pdfrwt>
<pdfrwt beam="2">  1       -2 0.10348790E-01 0.39623675E+03</pdfrwt>
<totfact> 0.39088953E+03</totfact>
</mgrwt>
</event>
<event>
 4    1  0.1390278E-004  0.7381347E+03  0.7818608E-02  0.9654151E-01
          2   -1    0    0  501    0  0.00000000000E+00  0.00000000000E+00  0.43585604143E+03  0.43585604144E+03  0.25500000000E-02 0.  1.
         -2   -1    0    0    0  501 -0.00000000000E+00 -0.00000000000E+00 -0.31251307390E+03  0.31251307391E+03  0.25500000000E-02 0. -1.
    5000001    1    1    2    0    0 -0.25051018858E+02  0.30963652271E+03 -0.94013395831E+02  0.34852524778E+03  0.12700000000E+03 0.  0.
   -5000001    1    1    2    0    0  0.25051018858E+02 -0.30963652271E+03  0.21735636336E+03  0.39984386757E+03  0.12700000000E+03 0.  0.
<mgrwt>
<rscale>  0 0.73813471E+03</rscale>
<asrwt>0</asrwt>
<pdfrwt beam="1">  1        2 0.62265149E-01 0.73813471E+03</pdfrwt>
<pdfrwt beam="2">  1       -2 0.44644725E-01 0.73813471E+03</pdfrwt>
<totfact> 0.37616051E+02</totfact>
</mgrwt>
</event>
<event>
 4    1  0.1390278E-004  0.3807398E+03  0.7818608E-02  0.1050661E+00
          2   -1    0    0  501    0  0.00000000000E+00  0.00000000000E+00  0.14947242370E+04  0.14947242370E+04  0.25500000000E-02 0.  1.
         -2   -1    0    0    0  501 -0.00000000000E+00 -0.00000000000E+00 -0.24245745504E+02  0.24245745638E+02  0.25500000000E-02 0. -1.
    5000001    1    1    2    0    0  0.12205858996E+03  0.70390629726E+02  0.79939039257E+03  0.82158818143E+03  0.12700000000E+03 0.  0.
   -5000001    1    1    2    0    0 -0.12205858996E+03 -0.70390629726E+02  0.67108809892E+03  0.69738180120E+03  0.12700000000E+03 0.  0.
<mgrwt>
<rscale>  0 0.38073982E+03</rscale>
<asrwt>0</asrwt>
<pdfrwt beam="1">  1        2 0.21353209E+00 0.38073982E+03</pdfrwt>
<pdfrwt beam="2">  1       -2 0.34636770E-02 0.38073982E+03</pdfrwt>
<totfact> 0.53802546E+03</totfact>
</mgrwt>
</event>
<event>
 4    1  0.1390278E-004  0.4086850E+03  0.7818608E-02  0.1040813E+00
          2   -1    0    0  501    0  0.00000000000E+00  0.00000000000E+00  0.13956654979E+04  0.13956654979E+04  0.25500000000E-02 0.  1.
         -2   -1    0    0    0  501 -0.00000000000E+00 -0.00000000000E+00 -0.29918236631E+02  0.29918236739E+02  0.25500000000E-02 0. -1.
    5000001    1    1    2    0    0 -0.12209446701E+03  0.10217014825E+03  0.74135235608E+03  0.76881604688E+03  0.12700000000E+03 0.  0.
   -5000001    1    1    2    0    0  0.12209446701E+03 -0.10217014825E+03  0.62439490519E+03  0.65676768777E+03  0.12700000000E+03 0.  0.
<mgrwt>
<rscale>  0 0.40868497E+03</rscale>
<asrwt>0</asrwt>
<pdfrwt beam="1">  1        2 0.19938074E+00 0.40868497E+03</pdfrwt>
<pdfrwt beam="2">  1       -2 0.42740349E-02 0.40868497E+03</pdfrwt>
<totfact> 0.44027308E+03</totfact>
</mgrwt>
</event>
<event>
 4    1  0.1390278E-004  0.4655813E+03  0.7818608E-02  0.1023175E+00
         -2   -1    0    0    0  501 -0.00000000000E+00  0.00000000000E+00  0.13342155967E+03  0.13342155969E+03  0.25500000000E-02 0. -1.
          2   -1    0    0  501    0  0.00000000000E+00 -0.00000000000E+00 -0.40616745754E+03  0.40616745755E+03  0.25500000000E-02 0.  1.
    5000001    1    1    2    0    0 -0.10925589960E+03  0.35725369565E+02 -0.31906724320E+03  0.36214093847E+03  0.12700000000E+03 0.  0.
   -5000001    1    1    2    0    0  0.10925589960E+03 -0.35725369565E+02  0.46321345326E+02  0.17744807878E+03  0.12700000000E+03 0.  0.
<mgrwt>
<rscale>  0 0.46558134E+03</rscale>
<asrwt>0</asrwt>
<pdfrwt beam="1">  1        2 0.58023922E-01 0.46558134E+03</pdfrwt>
<pdfrwt beam="2">  1       -2 0.19060223E-01 0.46558134E+03</pdfrwt>
<totfact> 0.19598747E+03</totfact>
</mgrwt>
</event>
<event>
 4    1  0.1390278E-004  0.4479255E+03  0.7818608E-02  0.1028343E+00
          2   -1    0    0  501    0  0.00000000000E+00  0.00000000000E+00  0.13048816252E+04  0.13048816252E+04  0.25500000000E-02 0.  1.
         -2   -1    0    0    0  501 -0.00000000000E+00 -0.00000000000E+00 -0.38439734354E+02  0.38439734438E+02  0.25500000000E-02 0. -1.
    5000001    1    1    2    0    0  0.79435718416E+02 -0.15594030452E+03  0.45827728585E+03  0.50672920052E+03  0.12700000000E+03 0.  0.
   -5000001    1    1    2    0    0 -0.79435718416E+02  0.15594030452E+03  0.80816460501E+03  0.83659215914E+03  0.12700000000E+03 0.  0.
<mgrwt>
<rscale>  0 0.44792545E+03</rscale>
<asrwt>0</asrwt>
<pdfrwt beam="1">  1        2 0.18641165E+00 0.44792545E+03</pdfrwt>
<pdfrwt beam="2">  1       -2 0.54913911E-02 0.44792545E+03</pdfrwt>
<totfact> 0.33474290E+03</totfact>
</mgrwt>
</event>
<event>
 4    1  0.1390278E-004  0.4305306E+03  0.7818608E-02  0.1033692E+00
          2   -1    0    0  501    0  0.00000000000E+00  0.00000000000E+00  0.15058787780E+04  0.15058787780E+04  0.25500000000E-02 0.  1.
         -2   -1    0    0    0  501 -0.00000000000E+00 -0.00000000000E+00 -0.30772157818E+02  0.30772157924E+02  0.25500000000E-02 0. -1.
    5000001    1    1    2    0    0  0.39104336662E+02 -0.15899671824E+03  0.94570346081E+03  0.96813900930E+03  0.12700000000E+03 0.  0.
   -5000001    1    1    2    0    0 -0.39104336662E+02  0.15899671824E+03  0.52940315940E+03  0.56851192665E+03  0.12700000000E+03 0.  0.
<mgrwt>
<rscale>  0 0.43053055E+03</rscale>
<asrwt>0</asrwt>
<pdfrwt beam="1">  1        2 0.21512558E+00 0.43053055E+03</pdfrwt>
<pdfrwt beam="2">  1       -2 0.43960218E-02 0.43053055E+03</pdfrwt>
<totfact> 0.36976279E+03</totfact>
</mgrwt>
</event>
<event>
 4    1  0.1390278E-004  0.3244905E+03  0.7818608E-02  0.1073601E+00
         -2   -1    0    0    0  501 -0.00000000000E+00  0.00000000000E+00  0.58429406976E+02  0.58429407032E+02  0.25500000000E-02 0. -1.
          2   -1    0    0  501    0  0.00000000000E+00 -0.00000000000E+00 -0.45051839111E+03  0.45051839112E+03  0.25500000000E-02 0.  1.
    5000001    1    1    2    0    0  0.62376222970E+02  0.79375568936E+02 -0.19887132145E+03  0.25665166400E+03  0.12700000000E+03 0.  0.
   -5000001    1    1    2    0    0 -0.62376222970E+02 -0.79375568936E+02 -0.19321766268E+03  0.25229613415E+03  0.12700000000E+03 0.  0.
<mgrwt>
<rscale>  0 0.32449051E+03</rscale>
<asrwt>0</asrwt>
<pdfrwt beam="1">  1        2 0.64359768E-01 0.32449051E+03</pdfrwt>
<pdfrwt beam="2">  1       -2 0.83470584E-02 0.32449051E+03</pdfrwt>
<totfact> 0.67286103E+03</totfact>
</mgrwt>
</event>
<event>
 4    1  0.1390278E-004  0.3405661E+03  0.7818608E-02  0.1066555E+00
         -2   -1    0    0    0  501 -0.00000000000E+00  0.00000000000E+00  0.11366728476E+03  0.11366728479E+03  0.25500000000E-02 0. -1.
          2   -1    0    0  501    0  0.00000000000E+00 -0.00000000000E+00 -0.25509810668E+03  0.25509810669E+03  0.25500000000E-02 0.  1.
    5000001    1    1    2    0    0  0.87054629072E+02 -0.57106571656E+02 -0.11947322683E+03  0.20308254701E+03  0.12700000000E+03 0.  0.
   -5000001    1    1    2    0    0 -0.87054629072E+02  0.57106571656E+02 -0.21957595087E+02  0.16568284447E+03  0.12700000000E+03 0.  0.
<mgrwt>
<rscale>  0 0.34056605E+03</rscale>
<asrwt>0</asrwt>
<pdfrwt beam="1">  1        2 0.36442586E-01 0.34056605E+03</pdfrwt>
<pdfrwt beam="2">  1       -2 0.16238184E-01 0.34056605E+03</pdfrwt>
<totfact> 0.42532061E+03</totfact>
</mgrwt>
</event>
<event>
 4    1  0.1390278E-004  0.2699207E+03  0.7818608E-02  0.1101325E+00
          2   -1    0    0  501    0  0.00000000000E+00  0.00000000000E+00  0.12889127671E+04  0.12889127671E+04  0.25500000000E-02 0.  1.
         -2   -1    0    0    0  501 -0.00000000000E+00 -0.00000000000E+00 -0.14131522085E+02  0.14131522315E+02  0.25500000000E-02 0. -1.
    5000001    1    1    2    0    0 -0.22597835600E+02 -0.35231685917E+02  0.54924854457E+03  0.56529186937E+03  0.12700000000E+03 0.  0.
   -5000001    1    1    2    0    0  0.22597835600E+02  0.35231685917E+02  0.72553270045E+03  0.73775242005E+03  0.12700000000E+03 0.  0.
<mgrwt>
<rscale>  0 0.26992072E+03</rscale>
<asrwt>0</asrwt>
<pdfrwt beam="1">  1        2 0.18413042E+00 0.26992072E+03</pdfrwt>
<pdfrwt beam="2">  1       -2 0.20187886E-02 0.26992072E+03</pdfrwt>
<totfact> 0.15270590E+04</totfact>
</mgrwt>
</event>
<event>
 4    1  0.1390278E-004  0.3951285E+03  0.7818608E-02  0.1045480E+00
          2   -1    0    0  501    0  0.00000000000E+00  0.00000000000E+00  0.15260397487E+04  0.15260397487E+04  0.25500000000E-02 0.  1.
         -2   -1    0    0    0  501 -0.00000000000E+00 -0.00000000000E+00 -0.25577078360E+02  0.25577078487E+02  0.25500000000E-02 0. -1.
    5000001    1    1    2    0    0 -0.20117577021E+02  0.13598645867E+03  0.50170058710E+03  0.53547129983E+03  0.12700000000E+03 0.  0.
   -5000001    1    1    2    0    0  0.20117577021E+02 -0.13598645867E+03  0.99876208320E+03  0.10161455273E+04  0.12700000000E+03 0.  0.
<mgrwt>
<rscale>  0 0.39512853E+03</rscale>
<asrwt>0</asrwt>
<pdfrwt beam="1">  1        2 0.21800571E+00 0.39512853E+03</pdfrwt>
<pdfrwt beam="2">  1       -2 0.36538678E-02 0.39512853E+03</pdfrwt>
<totfact> 0.47836816E+03</totfact>
</mgrwt>
</event>
<event>
 4    1  0.1390278E-004  0.2958487E+03  0.7818608E-02  0.1087334E+00
         -2   -1    0    0    0  501 -0.00000000000E+00  0.00000000000E+00  0.14478302715E+02  0.14478302940E+02  0.25500000000E-02 0. -1.
          2   -1    0    0  501    0  0.00000000000E+00 -0.00000000000E+00 -0.15113377900E+04  0.15113377900E+04  0.25500000000E-02 0.  1.
    5000001    1    1    2    0    0  0.79333077287E+01 -0.75190964590E+02 -0.71749051464E+03  0.73255597542E+03  0.12700000000E+03 0.  0.
   -5000001    1    1    2    0    0 -0.79333077287E+01  0.75190964590E+02 -0.77936897264E+03  0.79326011751E+03  0.12700000000E+03 0.  0.
<mgrwt>
<rscale>  0 0.29584865E+03</rscale>
<asrwt>0</asrwt>
<pdfrwt beam="1">  1        2 0.21590530E+00 0.29584865E+03</pdfrwt>
<pdfrwt beam="2">  1       -2 0.20683299E-02 0.29584865E+03</pdfrwt>
<totfact> 0.11345162E+04</totfact>
</mgrwt>
</event>
<event>
 4    1  0.1390278E-004  0.3182199E+03  0.7818608E-02  0.1076471E+00
          2   -1    0    0  501    0  0.00000000000E+00  0.00000000000E+00  0.44665912174E+03  0.44665912175E+03  0.25500000000E-02 0.  1.
         -2   -1    0    0    0  501 -0.00000000000E+00 -0.00000000000E+00 -0.56678531434E+02  0.56678531491E+02  0.25500000000E-02 0. -1.
    5000001    1    1    2    0    0 -0.63796680268E+02 -0.53996147348E+01  0.30781325884E+03  0.33908284322E+03  0.12700000000E+03 0.  0.
   -5000001    1    1    2    0    0  0.63796680268E+02  0.53996147348E+01  0.82167331471E+02  0.16425481002E+03  0.12700000000E+03 0.  0.
<mgrwt>
<rscale>  0 0.31821994E+03</rscale>
<asrwt>0</asrwt>
<pdfrwt beam="1">  1        2 0.63808446E-01 0.31821994E+03</pdfrwt>
<pdfrwt beam="2">  1       -2 0.80969331E-02 0.31821994E+03</pdfrwt>
<totfact> 0.71206571E+03</totfact>
</mgrwt>
</event>
<event>
 4    1  0.1390278E-004  0.3898168E+03  0.7818608E-02  0.1047364E+00
          2   -1    0    0  501    0  0.00000000000E+00  0.00000000000E+00  0.40670448097E+03  0.40670448098E+03  0.25500000000E-02 0.  1.
         -2   -1    0    0    0  501 -0.00000000000E+00 -0.00000000000E+00 -0.93407608922E+02  0.93407608956E+02  0.25500000000E-02 0. -1.
    5000001    1    1    2    0    0  0.44433171926E+02  0.11399443146E+03  0.26314998926E+03  0.31677429508E+03  0.12700000000E+03 0.  0.
   -5000001    1    1    2    0    0 -0.44433171926E+02 -0.11399443146E+03  0.50146882789E+02  0.18333779486E+03  0.12700000000E+03 0.  0.
<mgrwt>
<rscale>  0 0.38981684E+03</rscale>
<asrwt>0</asrwt>
<pdfrwt beam="1">  1        2 0.58100641E-01 0.38981684E+03</pdfrwt>
<pdfrwt beam="2">  1       -2 0.13343944E-01 0.38981684E+03</pdfrwt>
<totfact> 0.35564655E+03</totfact>
</mgrwt>
</event>
<event>
 4    1  0.1390278E-004  0.5025932E+03  0.7818608E-02  0.1013104E+00
         -2   -1    0    0    0  501 -0.00000000000E+00  0.00000000000E+00  0.99050227269E+02  0.99050227302E+02  0.25500000000E-02 0. -1.
          2   -1    0    0  501    0  0.00000000000E+00 -0.00000000000E+00 -0.63755502593E+03  0.63755502593E+03  0.25500000000E-02 0.  1.
    5000001    1    1    2    0    0 -0.14126456510E+03 -0.15155956086E+01 -0.51035737695E+03  0.54456553929E+03  0.12700000000E+03 0.  0.
   -5000001    1    1    2    0    0  0.14126456510E+03  0.15155956086E+01 -0.28147421713E+02  0.19203971394E+03  0.12700000000E+03 0.  0.
<mgrwt>
<rscale>  0 0.50259316E+03</rscale>
<asrwt>0</asrwt>
<pdfrwt beam="1">  1        2 0.91079287E-01 0.50259316E+03</pdfrwt>
<pdfrwt beam="2">  1       -2 0.14150033E-01 0.50259316E+03</pdfrwt>
<totfact> 0.19445423E+03</totfact>
</mgrwt>
</event>
<event>
 4    1  0.1390278E-004  0.7170519E+03  0.7818608E-02  0.9688507E-01
          2   -1    0    0  501    0  0.00000000000E+00  0.00000000000E+00  0.17526723633E+04  0.17526723633E+04  0.25500000000E-02 0.  1.
         -2   -1    0    0    0  501 -0.00000000000E+00 -0.00000000000E+00 -0.73339927038E+02  0.73339927082E+02  0.25500000000E-02 0. -1.
    5000001    1    1    2    0    0  0.29256580818E+03  0.68731983735E+02  0.46115331199E+03  0.56489841110E+03  0.12700000000E+03 0.  0.
   -5000001    1    1    2    0    0 -0.29256580818E+03 -0.68731983735E+02  0.12181791242E+04  0.12611138793E+04  0.12700000000E+03 0.  0.
<mgrwt>
<rscale>  0 0.71705192E+03</rscale>
<asrwt>0</asrwt>
<pdfrwt beam="1">  1        2 0.25038174E+00 0.71705192E+03</pdfrwt>
<pdfrwt beam="2">  1       -2 0.10477134E-01 0.71705192E+03</pdfrwt>
<totfact> 0.69614436E+02</totfact>
</mgrwt>
</event>
<event>
 4    1  0.1390278E-004  0.4163113E+03  0.7818608E-02  0.1038274E+00
          2   -1    0    0  501    0  0.00000000000E+00  0.00000000000E+00  0.42606094607E+02  0.42606094683E+02  0.25500000000E-02 0.  1.
         -2   -1    0    0    0  501 -0.00000000000E+00 -0.00000000000E+00 -0.10169620494E+04  0.10169620494E+04  0.25500000000E-02 0. -1.
    5000001    1    1    2    0    0  0.71661665699E+02  0.13656212809E+03 -0.63591427325E+03  0.66655875366E+03  0.12700000000E+03 0.  0.
   -5000001    1    1    2    0    0 -0.71661665699E+02 -0.13656212809E+03 -0.33844168155E+03  0.39300939043E+03  0.12700000000E+03 0.  0.
<mgrwt>
<rscale>  0 0.41631133E+03</rscale>
<asrwt>0</asrwt>
<pdfrwt beam="1">  1        2 0.60865856E-02 0.41631133E+03</pdfrwt>
<pdfrwt beam="2">  1       -2 0.14528028E+00 0.41631133E+03</pdfrwt>
<totfact> 0.41948415E+02</totfact>
</mgrwt>
</event>
<event>
 4    1  0.1390278E-004  0.8381891E+03  0.7818608E-02  0.9506328E-01
         -2   -1    0    0    0  501 -0.00000000000E+00  0.00000000000E+00  0.79807068898E+02  0.79807068938E+02  0.25500000000E-02 0. -1.
          2   -1    0    0  501    0  0.00000000000E+00 -0.00000000000E+00 -0.22008107900E+04  0.22008107900E+04  0.25500000000E-02 0.  1.
    5000001    1    1    2    0    0 -0.25106370254E+03 -0.14603996136E+03 -0.31460851414E+03  0.44661859591E+03  0.12700000000E+03 0.  0.
   -5000001    1    1    2    0    0  0.25106370254E+03  0.14603996136E+03 -0.18063952070E+04  0.18339992630E+04  0.12700000000E+03 0.  0.
<mgrwt>
<rscale>  0 0.83818914E+03</rscale>
<asrwt>0</asrwt>
<pdfrwt beam="1">  1        2 0.31440151E+00 0.83818914E+03</pdfrwt>
<pdfrwt beam="2">  1       -2 0.11401011E-01 0.83818914E+03</pdfrwt>
<totfact> 0.35622869E+02</totfact>
</mgrwt>
</event>
<event>
 4    1  0.1390278E-004  0.3563870E+03  0.7818608E-02  0.1060024E+00
         -2   -1    0    0    0  501 -0.00000000000E+00  0.00000000000E+00  0.10342625264E+04  0.10342625264E+04  0.25500000000E-02 0. -1.
          2   -1    0    0  501    0  0.00000000000E+00 -0.00000000000E+00 -0.30701035777E+02  0.30701035883E+02  0.25500000000E-02 0.  1.
    5000001    1    1    2    0    0 -0.96951520509E+02  0.20352206404E+02  0.72955542356E+03  0.74712376865E+03  0.12700000000E+03 0.  0.
   -5000001    1    1    2    0    0  0.96951520509E+02 -0.20352206404E+02  0.27400606709E+03  0.31783979366E+03  0.12700000000E+03 0.  0.
<mgrwt>
<rscale>  0 0.35638704E+03</rscale>
<asrwt>0</asrwt>
<pdfrwt beam="1">  1        2 0.43858626E-02 0.35638704E+03</pdfrwt>
<pdfrwt beam="2">  1       -2 0.14775178E+00 0.35638704E+03</pdfrwt>
<totfact> 0.62098976E+02</totfact>
</mgrwt>
</event>
<event>
 4    1  0.1390278E-004  0.3317396E+03  0.7818608E-02  0.1070370E+00
         -2   -1    0    0    0  501 -0.00000000000E+00  0.00000000000E+00  0.75418445232E+02  0.75418445275E+02  0.25500000000E-02 0. -1.
          2   -1    0    0  501    0  0.00000000000E+00 -0.00000000000E+00 -0.36480186302E+03  0.36480186303E+03  0.25500000000E-02 0.  1.
    5000001    1    1    2    0    0  0.82587974369E+02  0.37250877534E+02 -0.69914170799E+02  0.17095435843E+03  0.12700000000E+03 0.  0.
   -5000001    1    1    2    0    0 -0.82587974369E+02 -0.37250877534E+02 -0.21946924699E+03  0.26926594987E+03  0.12700000000E+03 0.  0.
<mgrwt>
<rscale>  0 0.33173959E+03</rscale>
<asrwt>0</asrwt>
<pdfrwt beam="1">  1        2 0.52114551E-01 0.33173959E+03</pdfrwt>
<pdfrwt beam="2">  1       -2 0.10774064E-01 0.33173959E+03</pdfrwt>
<totfact> 0.56484559E+03</totfact>
</mgrwt>
</event>
<event>
 4    1  0.1390278E-004  0.4255884E+03  0.7818608E-02  0.1035263E+00
         -2   -1    0    0    0  501 -0.00000000000E+00  0.00000000000E+00  0.96373592013E+02  0.96373592047E+02  0.25500000000E-02 0. -1.
          2   -1    0    0  501    0  0.00000000000E+00 -0.00000000000E+00 -0.46985245897E+03  0.46985245898E+03  0.25500000000E-02 0.  1.
    5000001    1    1    2    0    0 -0.17069606669E+03 -0.39015123862E+01 -0.18675900698E+03  0.28312593606E+03  0.12700000000E+03 0.  0.
   -5000001    1    1    2    0    0  0.17069606669E+03  0.39015123862E+01 -0.18671985998E+03  0.28310011496E+03  0.12700000000E+03 0.  0.
<mgrwt>
<rscale>  0 0.42558839E+03</rscale>
<asrwt>0</asrwt>
<pdfrwt beam="1">  1        2 0.67121779E-01 0.42558839E+03</pdfrwt>
<pdfrwt beam="2">  1       -2 0.13767656E-01 0.42558839E+03</pdfrwt>
<totfact> 0.28838244E+03</totfact>
</mgrwt>
</event>
<event>
 4    1  0.1390278E-004  0.3647414E+03  0.7818608E-02  0.1056722E+00
         -2   -1    0    0    0  501 -0.00000000000E+00  0.00000000000E+00  0.10731696226E+02  0.10731696529E+02  0.25500000000E-02 0. -1.
          2   -1    0    0  501    0  0.00000000000E+00 -0.00000000000E+00 -0.30991447950E+04  0.30991447950E+04  0.25500000000E-02 0.  1.
    5000001    1    1    2    0    0  0.10658722825E+03 -0.56288443097E+02 -0.11093799660E+04  0.11231126992E+04  0.12700000000E+03 0.  0.
   -5000001    1    1    2    0    0 -0.10658722825E+03  0.56288443097E+02 -0.19790331328E+04  0.19867637924E+04  0.12700000000E+03 0.  0.
<mgrwt>
<rscale>  0 0.36474145E+03</rscale>
<asrwt>0</asrwt>
<pdfrwt beam="1">  1        2 0.44273440E+00 0.36474145E+03</pdfrwt>
<pdfrwt beam="2">  1       -2 0.15331015E-02 0.36474145E+03</pdfrwt>
<totfact> 0.27861207E+03</totfact>
</mgrwt>
</event>
<event>
 4    1  0.1390278E-004  0.3666902E+03  0.7818608E-02  0.1055966E+00
         -2   -1    0    0    0  501 -0.00000000000E+00  0.00000000000E+00  0.65099392843E+03  0.65099392844E+03  0.25500000000E-02 0. -1.
          2   -1    0    0  501    0  0.00000000000E+00 -0.00000000000E+00 -0.51637069227E+02  0.51637069289E+02  0.25500000000E-02 0.  1.
    5000001    1    1    2    0    0 -0.59795487578E+02  0.10564247754E+03  0.40017253703E+03  0.43703877721E+03  0.12700000000E+03 0.  0.
   -5000001    1    1    2    0    0  0.59795487578E+02 -0.10564247754E+03  0.19918432218E+03  0.26559222051E+03  0.12700000000E+03 0.  0.
<mgrwt>
<rscale>  0 0.36669016E+03</rscale>
<asrwt>0</asrwt>
<pdfrwt beam="1">  1        2 0.73767242E-02 0.36669016E+03</pdfrwt>
<pdfrwt beam="2">  1       -2 0.92999132E-01 0.36669016E+03</pdfrwt>
<totfact> 0.96405387E+02</totfact>
</mgrwt>
</event>
<event>
 4    1  0.1390278E-004  0.3562029E+03  0.7818608E-02  0.1060098E+00
         -2   -1    0    0    0  501 -0.00000000000E+00  0.00000000000E+00  0.84120349443E+03  0.84120349443E+03  0.25500000000E-02 0. -1.
          2   -1    0    0  501    0  0.00000000000E+00 -0.00000000000E+00 -0.37708023296E+02  0.37708023382E+02  0.25500000000E-02 0.  1.
    5000001    1    1    2    0    0  0.76726841800E+02 -0.55783799898E+02  0.60208677121E+03  0.62260446565E+03  0.12700000000E+03 0.  0.
   -5000001    1    1    2    0    0 -0.76726841800E+02  0.55783799898E+02  0.20140869992E+03  0.25630705216E+03  0.12700000000E+03 0.  0.
<mgrwt>
<rscale>  0 0.35620287E+03</rscale>
<asrwt>0</asrwt>
<pdfrwt beam="1">  1        2 0.53868597E-02 0.35620287E+03</pdfrwt>
<pdfrwt beam="2">  1       -2 0.12017195E+00 0.35620287E+03</pdfrwt>
<totfact> 0.79308159E+02</totfact>
</mgrwt>
</event>
<event>
 4    1  0.1390278E-004  0.3604443E+03  0.7818608E-02  0.1058408E+00
         -2   -1    0    0    0  501 -0.00000000000E+00  0.00000000000E+00  0.11358878595E+02  0.11358878881E+02  0.25500000000E-02 0. -1.
          2   -1    0    0  501    0  0.00000000000E+00 -0.00000000000E+00 -0.28594389689E+04  0.28594389689E+04  0.25500000000E-02 0.  1.
    5000001    1    1    2    0    0 -0.10808204394E+03  0.48163718682E+02 -0.10379783839E+04  0.10523923211E+04  0.12700000000E+03 0.  0.
   -5000001    1    1    2    0    0  0.10808204394E+03 -0.48163718682E+02 -0.18101017064E+04  0.18184055267E+04  0.12700000000E+03 0.  0.
<mgrwt>
<rscale>  0 0.36044428E+03</rscale>
<asrwt>0</asrwt>
<pdfrwt beam="1">  1        2 0.40849082E+00 0.36044428E+03</pdfrwt>
<pdfrwt beam="2">  1       -2 0.16226988E-02 0.36044428E+03</pdfrwt>
<totfact> 0.34409082E+03</totfact>
</mgrwt>
</event>
<event>
 4    1  0.1390278E-004  0.5838457E+03  0.7818608E-02  0.9939500E-01
          2   -1    0    0  501    0  0.00000000000E+00  0.00000000000E+00  0.17195793516E+03  0.17195793518E+03  0.25500000000E-02 0.  1.
         -2   -1    0    0    0  501 -0.00000000000E+00 -0.00000000000E+00 -0.49558017961E+03  0.49558017962E+03  0.25500000000E-02 0. -1.
    5000001    1    1    2    0    0 -0.25341934270E+03  0.69197756808E+02 -0.15156864874E+03  0.32880350984E+03  0.12700000000E+03 0.  0.
   -5000001    1    1    2    0    0  0.25341934270E+03 -0.69197756808E+02 -0.17205359570E+03  0.33873460496E+03  0.12700000000E+03 0.  0.
<mgrwt>
<rscale>  0 0.58384568E+03</rscale>
<asrwt>0</asrwt>
<pdfrwt beam="1">  1        2 0.24565420E-01 0.58384568E+03</pdfrwt>
<pdfrwt beam="2">  1       -2 0.70797168E-01 0.58384568E+03</pdfrwt>
<totfact> 0.40935354E+02</totfact>
</mgrwt>
</event>
<event>
 4    1  0.1390278E-004  0.6683586E+03  0.7818608E-02  0.9772928E-01
          2   -1    0    0  501    0  0.00000000000E+00  0.00000000000E+00  0.29013574381E+03  0.29013574382E+03  0.25500000000E-02 0.  1.
         -2   -1    0    0    0  501 -0.00000000000E+00 -0.00000000000E+00 -0.38490885195E+03  0.38490885195E+03  0.25500000000E-02 0. -1.
    5000001    1    1    2    0    0 -0.26535653392E+03 -0.14098690791E+03  0.25832906379E+02  0.32724262765E+03  0.12700000000E+03 0.  0.
   -5000001    1    1    2    0    0  0.26535653392E+03  0.14098690791E+03 -0.12060601452E+03  0.34780196813E+03  0.12700000000E+03 0.  0.
<mgrwt>
<rscale>  0 0.66835863E+03</rscale>
<asrwt>0</asrwt>
<pdfrwt beam="1">  1        2 0.41447964E-01 0.66835863E+03</pdfrwt>
<pdfrwt beam="2">  1       -2 0.54986978E-01 0.66835863E+03</pdfrwt>
<totfact> 0.38838906E+02</totfact>
</mgrwt>
</event>
<event>
 4    1  0.1390278E-004  0.6640354E+03  0.7818608E-02  0.9780793E-01
          2   -1    0    0  501    0  0.00000000000E+00  0.00000000000E+00  0.33980448549E+03  0.33980448550E+03  0.25500000000E-02 0.  1.
         -2   -1    0    0    0  501 -0.00000000000E+00 -0.00000000000E+00 -0.32440938076E+03  0.32440938077E+03  0.25500000000E-02 0. -1.
    5000001    1    1    2    0    0  0.26192658215E+03  0.15817939167E+03 -0.14228838438E+02  0.33159872471E+03  0.12700000000E+03 0.  0.
   -5000001    1    1    2    0    0 -0.26192658215E+03 -0.15817939167E+03  0.29623943169E+02  0.33261514156E+03  0.12700000000E+03 0.  0.
<mgrwt>
<rscale>  0 0.66403543E+03</rscale>
<asrwt>0</asrwt>
<pdfrwt beam="1">  1        2 0.48543498E-01 0.66403543E+03</pdfrwt>
<pdfrwt beam="2">  1       -2 0.46344198E-01 0.66403543E+03</pdfrwt>
<totfact> 0.46173563E+02</totfact>
</mgrwt>
</event>
<event>
 4    1  0.1390278E-004  0.3387640E+03  0.7818608E-02  0.1067324E+00
         -2   -1    0    0    0  501 -0.00000000000E+00  0.00000000000E+00  0.58407144418E+03  0.58407144419E+03  0.25500000000E-02 0. -1.
          2   -1    0    0  501    0  0.00000000000E+00 -0.00000000000E+00 -0.49121165323E+02  0.49121165389E+02  0.25500000000E-02 0.  1.
    5000001    1    1    2    0    0  0.27803000279E+02 -0.92386243490E+02  0.16086866732E+03  0.22653024728E+03  0.12700000000E+03 0.  0.
   -5000001    1    1    2    0    0 -0.27803000279E+02  0.92386243490E+02  0.37408161154E+03  0.40666236229E+03  0.12700000000E+03 0.  0.
<mgrwt>
<rscale>  0 0.33876405E+03</rscale>
<asrwt>0</asrwt>
<pdfrwt beam="1">  1        2 0.70173094E-02 0.33876405E+03</pdfrwt>
<pdfrwt beam="2">  1       -2 0.83438777E-01 0.33876405E+03</pdfrwt>
<totfact> 0.13131136E+03</totfact>
</mgrwt>
</event>
<event>
 4    1  0.1390278E-004  0.4310332E+03  0.7818608E-02  0.1033534E+00
         -2   -1    0    0    0  501 -0.00000000000E+00  0.00000000000E+00  0.52324083198E+02  0.52324083260E+02  0.25500000000E-02 0. -1.
          2   -1    0    0  501    0  0.00000000000E+00 -0.00000000000E+00 -0.88768673049E+03  0.88768673050E+03  0.25500000000E-02 0.  1.
    5000001    1    1    2    0    0 -0.38962985320E+02  0.14119151919E+03 -0.62301836670E+03  0.65248298411E+03  0.12700000000E+03 0.  0.
   -5000001    1    1    2    0    0  0.38962985320E+02 -0.14119151919E+03 -0.21234428060E+03  0.28752782964E+03  0.12700000000E+03 0.  0.
<mgrwt>
<rscale>  0 0.43103315E+03</rscale>
<asrwt>0</asrwt>
<pdfrwt beam="1">  1        2 0.12681238E+00 0.43103315E+03</pdfrwt>
<pdfrwt beam="2">  1       -2 0.74748696E-02 0.43103315E+03</pdfrwt>
<totfact> 0.36122352E+03</totfact>
</mgrwt>
</event>
<event>
 4    1  0.1390278E-004  0.4549069E+03  0.7818608E-02  0.1026269E+00
         -2   -1    0    0    0  501 -0.00000000000E+00  0.00000000000E+00  0.18601247410E+02  0.18601247585E+02  0.25500000000E-02 0. -1.
          2   -1    0    0  501    0  0.00000000000E+00 -0.00000000000E+00 -0.27812686293E+04  0.27812686293E+04  0.25500000000E-02 0.  1.
    5000001    1    1    2    0    0 -0.14236461534E+03 -0.11411679990E+03 -0.10851507112E+04  0.11076874080E+04  0.12700000000E+03 0.  0.
   -5000001    1    1    2    0    0  0.14236461534E+03  0.11411679990E+03 -0.16775166707E+04  0.16921824690E+04  0.12700000000E+03 0.  0.
<mgrwt>
<rscale>  0 0.45490687E+03</rscale>
<asrwt>0</asrwt>
<pdfrwt beam="1">  1        2 0.39732383E+00 0.45490687E+03</pdfrwt>
<pdfrwt beam="2">  1       -2 0.26573228E-02 0.45490687E+03</pdfrwt>
<totfact> 0.18016075E+03</totfact>
</mgrwt>
</event>
<event>
 4    1  0.1390278E-004  0.4106902E+03  0.7818608E-02  0.1040140E+00
         -2   -1    0    0    0  501 -0.00000000000E+00  0.00000000000E+00  0.48112592140E+02  0.48112592208E+02  0.25500000000E-02 0. -1.
          2   -1    0    0  501    0  0.00000000000E+00 -0.00000000000E+00 -0.87641528021E+03  0.87641528022E+03  0.25500000000E-02 0.  1.
    5000001    1    1    2    0    0 -0.13579556571E+03  0.61372543206E+02 -0.27482338156E+03  0.33743727681E+03  0.12700000000E+03 0.  0.
   -5000001    1    1    2    0    0  0.13579556571E+03 -0.61372543206E+02 -0.55347930651E+03  0.58709059562E+03  0.12700000000E+03 0.  0.
<mgrwt>
<rscale>  0 0.41069020E+03</rscale>
<asrwt>0</asrwt>
<pdfrwt beam="1">  1        2 0.12520217E+00 0.41069020E+03</pdfrwt>
<pdfrwt beam="2">  1       -2 0.68732280E-02 0.41069020E+03</pdfrwt>
<totfact> 0.41878334E+03</totfact>
</mgrwt>
</event>
<event>
 4    1  0.1390278E-004  0.3461950E+03  0.7818608E-02  0.1064188E+00
          2   -1    0    0  501    0  0.00000000000E+00  0.00000000000E+00  0.26735388217E+04  0.26735388217E+04  0.25500000000E-02 0.  1.
         -2   -1    0    0    0  501 -0.00000000000E+00 -0.00000000000E+00 -0.11207149039E+02  0.11207149329E+02  0.25500000000E-02 0. -1.
    5000001    1    1    2    0    0 -0.70178448888E+02 -0.86385982655E+02  0.16260801956E+04  0.16348251757E+04  0.12700000000E+03 0.  0.
   -5000001    1    1    2    0    0  0.70178448888E+02  0.86385982655E+02  0.10362514771E+04  0.10499207953E+04  0.12700000000E+03 0.  0.
<mgrwt>
<rscale>  0 0.34619502E+03</rscale>
<asrwt>0</asrwt>
<pdfrwt beam="1">  1        2 0.38193480E+00 0.34619502E+03</pdfrwt>
<pdfrwt beam="2">  1       -2 0.16010185E-02 0.34619502E+03</pdfrwt>
<totfact> 0.43845030E+03</totfact>
</mgrwt>
</event>
<event>
 4    1  0.1390278E-004  0.2776810E+03  0.7818608E-02  0.1096962E+00
          2   -1    0    0  501    0  0.00000000000E+00  0.00000000000E+00  0.78310465560E+03  0.78310465560E+03  0.25500000000E-02 0.  1.
         -2   -1    0    0    0  501 -0.00000000000E+00 -0.00000000000E+00 -0.24615718160E+02  0.24615718292E+02  0.25500000000E-02 0. -1.
    5000001    1    1    2    0    0 -0.10749405516E+02 -0.54521850799E+02  0.35680672130E+03  0.38279004467E+03  0.12700000000E+03 0.  0.
   -5000001    1    1    2    0    0  0.10749405516E+02  0.54521850799E+02  0.40168221614E+03  0.42493032923E+03  0.12700000000E+03 0.  0.
<mgrwt>
<rscale>  0 0.27768099E+03</rscale>
<asrwt>0</asrwt>
<pdfrwt beam="1">  1        2 0.11187211E+00 0.27768099E+03</pdfrwt>
<pdfrwt beam="2">  1       -2 0.35165307E-02 0.27768099E+03</pdfrwt>
<totfact> 0.13310841E+04</totfact>
</mgrwt>
</event>
<event>
 4    1  0.1390278E-004  0.3419135E+03  0.7818608E-02  0.1065984E+00
         -2   -1    0    0    0  501 -0.00000000000E+00  0.00000000000E+00  0.13129682976E+03  0.13129682978E+03  0.25500000000E-02 0. -1.
          2   -1    0    0  501    0  0.00000000000E+00 -0.00000000000E+00 -0.22259650969E+03  0.22259650971E+03  0.25500000000E-02 0.  1.
    5000001    1    1    2    0    0  0.89046105151E+02 -0.37608330980E+02  0.17763596306E+02  0.16058686358E+03  0.12700000000E+03 0.  0.
   -5000001    1    1    2    0    0 -0.89046105151E+02  0.37608330980E+02 -0.10906327624E+03  0.19330647590E+03  0.12700000000E+03 0.  0.
<mgrwt>
<rscale>  0 0.34191353E+03</rscale>
<asrwt>0</asrwt>
<pdfrwt beam="1">  1        2 0.31799501E-01 0.34191353E+03</pdfrwt>
<pdfrwt beam="2">  1       -2 0.18756690E-01 0.34191353E+03</pdfrwt>
<totfact> 0.38707743E+03</totfact>
</mgrwt>
</event>
<event>
 4    1  0.1390278E-004  0.1030087E+04  0.7818608E-02  0.9276148E-01
          2   -1    0    0  501    0  0.00000000000E+00  0.00000000000E+00  0.16820877755E+04  0.16820877755E+04  0.25500000000E-02 0.  1.
         -2   -1    0    0    0  501 -0.00000000000E+00 -0.00000000000E+00 -0.15770264616E+03  0.15770264618E+03  0.25500000000E-02 0. -1.
    5000001    1    1    2    0    0  0.98161484080E+02  0.47214472126E+03  0.53218392944E+03  0.72931820869E+03  0.12700000000E+03 0.  0.
   -5000001    1    1    2    0    0 -0.98161484080E+02 -0.47214472126E+03  0.99220119992E+03  0.11104722130E+04  0.12700000000E+03 0.  0.
<mgrwt>
<rscale>  0 0.10300868E+04</rscale>
<asrwt>0</asrwt>
<pdfrwt beam="1">  1        2 0.24029826E+00 0.10300868E+04</pdfrwt>
<pdfrwt beam="2">  1       -2 0.22528949E-01 0.10300868E+04</pdfrwt>
<totfact> 0.20188735E+02</totfact>
</mgrwt>
</event>
<event>
 4    1  0.1390278E-004  0.4154964E+03  0.7818608E-02  0.1038542E+00
         -2   -1    0    0    0  501 -0.00000000000E+00  0.00000000000E+00  0.83593700165E+02  0.83593700204E+02  0.25500000000E-02 0. -1.
          2   -1    0    0  501    0  0.00000000000E+00 -0.00000000000E+00 -0.51629854874E+03  0.51629854874E+03  0.25500000000E-02 0.  1.
    5000001    1    1    2    0    0 -0.15377784498E+01  0.12974036672E+03 -0.70569147927E+02  0.19479202283E+03  0.12700000000E+03 0.  0.
   -5000001    1    1    2    0    0  0.15377784498E+01 -0.12974036672E+03 -0.36213570064E+03  0.40510022612E+03  0.12700000000E+03 0.  0.
<mgrwt>
<rscale>  0 0.41549636E+03</rscale>
<asrwt>0</asrwt>
<pdfrwt beam="1">  1        2 0.73756934E-01 0.41549636E+03</pdfrwt>
<pdfrwt beam="2">  1       -2 0.11941957E-01 0.41549636E+03</pdfrwt>
<totfact> 0.32764779E+03</totfact>
</mgrwt>
</event>
<event>
 4    1  0.1390278E-004  0.3413404E+03  0.7818608E-02  0.1066226E+00
          2   -1    0    0  501    0  0.00000000000E+00  0.00000000000E+00  0.12252074918E+04  0.12252074918E+04  0.25500000000E-02 0. -1.
         -2   -1    0    0    0  501 -0.00000000000E+00 -0.00000000000E+00 -0.23774197813E+02  0.23774197950E+02  0.25500000000E-02 0.  1.
    5000001    1    1    2    0    0 -0.26379431126E+02 -0.10212432808E+02  0.19657534979E+03  0.23573509776E+03  0.12700000000E+03 0.  0.
   -5000001    1    1    2    0    0  0.26379431126E+02  0.10212432808E+02  0.10048579442E+04  0.10132465920E+04  0.12700000000E+03 0.  0.
<mgrwt>
<rscale>  0 0.34134045E+03</rscale>
<asrwt>0</asrwt>
<pdfrwt beam="1">  1        2 0.17502969E+00 0.34134045E+03</pdfrwt>
<pdfrwt beam="2">  1       -2 0.33963131E-02 0.34134045E+03</pdfrwt>
<totfact> 0.76703425E+03</totfact>
</mgrwt>
</event>
<event>
 4    1  0.1390278E-004  0.4140332E+03  0.7818608E-02  0.1039026E+00
         -2   -1    0    0    0  501 -0.00000000000E+00  0.00000000000E+00  0.10868234299E+03  0.10868234302E+03  0.25500000000E-02 0. -1.
          2   -1    0    0  501    0  0.00000000000E+00 -0.00000000000E+00 -0.39432228760E+03  0.39432228761E+03  0.25500000000E-02 0.  1.
    5000001    1    1    2    0    0 -0.28872639704E+01 -0.15838928951E+03 -0.93750358742E+02  0.22363728019E+03  0.12700000000E+03 0.  0.
   -5000001    1    1    2    0    0  0.28872639704E+01  0.15838928951E+03 -0.19188958588E+03  0.27936735044E+03  0.12700000000E+03 0.  0.
<mgrwt>
<rscale>  0 0.41403319E+03</rscale>
<asrwt>0</asrwt>
<pdfrwt beam="1">  1        2 0.56331755E-01 0.41403319E+03</pdfrwt>
<pdfrwt beam="2">  1       -2 0.15526049E-01 0.41403319E+03</pdfrwt>
<totfact> 0.28640629E+03</totfact>
</mgrwt>
</event>
<event>
 4    1  0.1390278E-004  0.6207868E+03  0.7818608E-02  0.9863195E-01
          2   -1    0    0  501    0  0.00000000000E+00  0.00000000000E+00  0.98272246669E+03  0.98272246669E+03  0.25500000000E-02 0.  1.
         -2   -1    0    0    0  501 -0.00000000000E+00 -0.00000000000E+00 -0.98037900850E+02  0.98037900883E+02  0.25500000000E-02 0. -1.
    5000001    1    1    2    0    0 -0.17470424255E+03  0.10696153135E+03  0.10184154857E+03  0.26165443350E+03  0.12700000000E+03 0.  0.
   -5000001    1    1    2    0    0  0.17470424255E+03 -0.10696153135E+03  0.78284301727E+03  0.81910593408E+03  0.12700000000E+03 0.  0.
<mgrwt>
<rscale>  0 0.62078675E+03</rscale>
<asrwt>0</asrwt>
<pdfrwt beam="1">  1        2 0.14038893E+00 0.62078675E+03</pdfrwt>
<pdfrwt beam="2">  1       -2 0.14005414E-01 0.62078675E+03</pdfrwt>
<totfact> 0.11374744E+03</totfact>
</mgrwt>
</event>
<event>
 4    1  0.1390278E-004  0.3365475E+03  0.7818608E-02  0.1068276E+00
          2   -1    0    0  501    0  0.00000000000E+00  0.00000000000E+00  0.22229196431E+04  0.22229196431E+04  0.25500000000E-02 0.  1.
         -2   -1    0    0    0  501 -0.00000000000E+00 -0.00000000000E+00 -0.12738224211E+02  0.12738224466E+02  0.25500000000E-02 0. -1.
    5000001    1    1    2    0    0 -0.94418284203E+02 -0.49333086808E+02  0.91273449753E+03  0.92766471790E+03  0.12700000000E+03 0.  0.
   -5000001    1    1    2    0    0  0.94418284203E+02  0.49333086808E+02  0.12974469213E+04  0.13079931496E+04  0.12700000000E+03 0.  0.
<mgrwt>
<rscale>  0 0.33654747E+03</rscale>
<asrwt>0</asrwt>
<pdfrwt beam="1">  1        2 0.31755984E+00 0.33654747E+03</pdfrwt>
<pdfrwt beam="2">  1       -2 0.18197470E-02 0.33654747E+03</pdfrwt>
<totfact> 0.61092767E+03</totfact>
</mgrwt>
</event>
<event>
 4    1  0.1390278E-004  0.4960306E+03  0.7818608E-02  0.1014820E+00
          2   -1    0    0  501    0  0.00000000000E+00  0.00000000000E+00  0.17870404310E+04  0.17870404310E+04  0.25500000000E-02 0.  1.
         -2   -1    0    0    0  501 -0.00000000000E+00 -0.00000000000E+00 -0.34420923627E+02  0.34420923722E+02  0.25500000000E-02 0. -1.
    5000001    1    1    2    0    0  0.35143278294E+02 -0.20996440884E+03  0.84728426277E+03  0.88280220034E+03  0.12700000000E+03 0.  0.
   -5000001    1    1    2    0    0 -0.35143278294E+02  0.20996440884E+03  0.90533524465E+03  0.93865915443E+03  0.12700000000E+03 0.  0.
<mgrwt>
<rscale>  0 0.49603057E+03</rscale>
<asrwt>0</asrwt>
<pdfrwt beam="1">  1        2 0.25529151E+00 0.49603057E+03</pdfrwt>
<pdfrwt beam="2">  1       -2 0.49172745E-02 0.49603057E+03</pdfrwt>
<totfact> 0.22393644E+03</totfact>
</mgrwt>
</event>
<event>
 4    1  0.1390278E-004  0.6360449E+03  0.7818608E-02  0.9833323E-01
         -2   -1    0    0    0  501 -0.00000000000E+00  0.00000000000E+00  0.72788502040E+02  0.72788502085E+02  0.25500000000E-02 0. -1.
          2   -1    0    0  501    0  0.00000000000E+00 -0.00000000000E+00 -0.13894814692E+04  0.13894814692E+04  0.25500000000E-02 0.  1.
    5000001    1    1    2    0    0  0.16460566222E+03  0.12514947990E+03 -0.18578023186E+03  0.30561529887E+03  0.12700000000E+03 0.  0.
   -5000001    1    1    2    0    0 -0.16460566222E+03 -0.12514947990E+03 -0.11309127353E+04  0.11566546724E+04  0.12700000000E+03 0.  0.
<mgrwt>
<rscale>  0 0.63604489E+03</rscale>
<asrwt>0</asrwt>
<pdfrwt beam="1">  1        2 0.19849734E+00 0.63604489E+03</pdfrwt>
<pdfrwt beam="2">  1       -2 0.10398358E-01 0.63604489E+03</pdfrwt>
<totfact> 0.10919738E+03</totfact>
</mgrwt>
</event>
<event>
 4    1  0.1390278E-004  0.3996527E+03  0.7818608E-02  0.1043900E+00
         -2   -1    0    0    0  501 -0.00000000000E+00  0.00000000000E+00  0.31519802668E+02  0.31519802772E+02  0.25500000000E-02 0. -1.
          2   -1    0    0  501    0  0.00000000000E+00 -0.00000000000E+00 -0.12668404669E+04  0.12668404669E+04  0.25500000000E-02 0.  1.
    5000001    1    1    2    0    0  0.15023409333E+02  0.12523755389E+03 -0.32906458763E+03  0.37459665050E+03  0.12700000000E+03 0.  0.
   -5000001    1    1    2    0    0 -0.15023409333E+02 -0.12523755389E+03 -0.90625607656E+03  0.92376361913E+03  0.12700000000E+03 0.  0.
<mgrwt>
<rscale>  0 0.39965266E+03</rscale>
<asrwt>0</asrwt>
<pdfrwt beam="1">  1        2 0.18097718E+00 0.39965266E+03</pdfrwt>
<pdfrwt beam="2">  1       -2 0.45028298E-02 0.39965266E+03</pdfrwt>
<totfact> 0.47592271E+03</totfact>
</mgrwt>
</event>
<event>
 4    1  0.1390278E-004  0.3330068E+03  0.7818608E-02  0.1069814E+00
          2   -1    0    0  501    0  0.00000000000E+00  0.00000000000E+00  0.32666822614E+03  0.32666822615E+03  0.25500000000E-02 0.  1.
         -2   -1    0    0    0  501 -0.00000000000E+00 -0.00000000000E+00 -0.84867075985E+02  0.84867076023E+02  0.25500000000E-02 0. -1.
    5000001    1    1    2    0    0 -0.76143498007E+02  0.74694220708E+02  0.13911863667E+03  0.21647183181E+03  0.12700000000E+03 0.  0.
   -5000001    1    1    2    0    0  0.76143498007E+02 -0.74694220708E+02  0.10268251348E+03  0.19506347036E+03  0.12700000000E+03 0.  0.
<mgrwt>
<rscale>  0 0.33300677E+03</rscale>
<asrwt>0</asrwt>
<pdfrwt beam="1">  1        2 0.46666889E-01 0.33300677E+03</pdfrwt>
<pdfrwt beam="2">  1       -2 0.12123868E-01 0.33300677E+03</pdfrwt>
<totfact> 0.52617706E+03</totfact>
</mgrwt>
</event>
<event>
 4    1  0.1390278E-004  0.4334067E+03  0.7818608E-02  0.1032789E+00
          2   -1    0    0  501    0  0.00000000000E+00  0.00000000000E+00  0.44171953534E+03  0.44171953534E+03  0.25500000000E-02 0.  1.
         -2   -1    0    0    0  501 -0.00000000000E+00 -0.00000000000E+00 -0.10631256736E+03  0.10631256739E+03  0.25500000000E-02 0. -1.
    5000001    1    1    2    0    0 -0.52872268416E+02  0.69656475244E+02 -0.24828572861E+02  0.15618245529E+03  0.12700000000E+03 0.  0.
   -5000001    1    1    2    0    0  0.52872268416E+02 -0.69656475244E+02  0.36023554084E+03  0.39184964744E+03  0.12700000000E+03 0.  0.
<mgrwt>
<rscale>  0 0.43340668E+03</rscale>
<asrwt>0</asrwt>
<pdfrwt beam="1">  1        2 0.63102792E-01 0.43340668E+03</pdfrwt>
<pdfrwt beam="2">  1       -2 0.15187509E-01 0.43340668E+03</pdfrwt>
<totfact> 0.26238688E+03</totfact>
</mgrwt>
</event>
<event>
 4    1  0.1390278E-004  0.2972876E+03  0.7818608E-02  0.1086604E+00
          2   -1    0    0  501    0  0.00000000000E+00  0.00000000000E+00  0.78937031901E+02  0.78937031942E+02  0.25500000000E-02 0.  1.
         -2   -1    0    0    0  501 -0.00000000000E+00 -0.00000000000E+00 -0.27990630128E+03  0.27990630129E+03  0.25500000000E-02 0. -1.
    5000001    1    1    2    0    0  0.53559919642E+02  0.27706063856E+02 -0.15874543476E+03  0.21205047518E+03  0.12700000000E+03 0.  0.
   -5000001    1    1    2    0    0 -0.53559919642E+02 -0.27706063856E+02 -0.42223834620E+02  0.14679285806E+03  0.12700000000E+03 0.  0.
<mgrwt>
<rscale>  0 0.29728756E+03</rscale>
<asrwt>0</asrwt>
<pdfrwt beam="1">  1        2 0.11276719E-01 0.29728756E+03</pdfrwt>
<pdfrwt beam="2">  1       -2 0.39986614E-01 0.29728756E+03</pdfrwt>
<totfact> 0.32858075E+03</totfact>
</mgrwt>
</event>
<event>
 4    1  0.1390278E-004  0.1036578E+04  0.7818608E-02  0.9269312E-01
          2   -1    0    0  501    0  0.00000000000E+00  0.00000000000E+00  0.21417075214E+04  0.21417075214E+04  0.25500000000E-02 0.  1.
         -2   -1    0    0    0  501 -0.00000000000E+00 -0.00000000000E+00 -0.12542488371E+03  0.12542488374E+03  0.25500000000E-02 0. -1.
    5000001    1    1    2    0    0  0.30762667716E+03  0.39273108132E+03  0.11397794403E+04  0.12506390555E+04  0.12700000000E+03 0.  0.
   -5000001    1    1    2    0    0 -0.30762667716E+03 -0.39273108132E+03  0.87650319741E+03  0.10164933496E+04  0.12700000000E+03 0.  0.
<mgrwt>
<rscale>  0 0.10365779E+04</rscale>
<asrwt>0</asrwt>
<pdfrwt beam="1">  1        2 0.30595821E+00 0.10365779E+04</pdfrwt>
<pdfrwt beam="2">  1       -2 0.17917841E-01 0.10365779E+04</pdfrwt>
<totfact> 0.17545961E+02</totfact>
</mgrwt>
</event>
<event>
 4    1  0.1390278E-004  0.3484097E+03  0.7818608E-02  0.1063270E+00
          2   -1    0    0  501    0  0.00000000000E+00  0.00000000000E+00  0.77275555319E+02  0.77275555361E+02  0.25500000000E-02 0.  1.
         -2   -1    0    0    0  501 -0.00000000000E+00 -0.00000000000E+00 -0.39271579433E+03  0.39271579434E+03  0.25500000000E-02 0. -1.
    5000001    1    1    2    0    0  0.99197228674E+02 -0.40884345215E+02 -0.22790128574E+03  0.28209859252E+03  0.12700000000E+03 0.  0.
   -5000001    1    1    2    0    0 -0.99197228674E+02  0.40884345215E+02 -0.87538953270E+02  0.18789275718E+03  0.12700000000E+03 0.  0.
<mgrwt>
<rscale>  0 0.34840971E+03</rscale>
<asrwt>0</asrwt>
<pdfrwt beam="1">  1        2 0.11039365E-01 0.34840971E+03</pdfrwt>
<pdfrwt beam="2">  1       -2 0.56102255E-01 0.34840971E+03</pdfrwt>
<totfact> 0.17311076E+03</totfact>
</mgrwt>
</event>
<event>
 4    1  0.1390278E-004  0.3637068E+03  0.7818608E-02  0.1057126E+00
         -2   -1    0    0    0  501 -0.00000000000E+00  0.00000000000E+00  0.23595674452E+03  0.23595674454E+03  0.25500000000E-02 0. -1.
          2   -1    0    0  501    0  0.00000000000E+00 -0.00000000000E+00 -0.14015557426E+03  0.14015557428E+03  0.25500000000E-02 0.  1.
    5000001    1    1    2    0    0  0.42209335679E+02 -0.11733595346E+03  0.93143470919E+01  0.17822769441E+03  0.12700000000E+03 0.  0.
   -5000001    1    1    2    0    0 -0.42209335679E+02  0.11733595346E+03  0.86486823172E+02  0.19788462441E+03  0.12700000000E+03 0.  0.
<mgrwt>
<rscale>  0 0.36370677E+03</rscale>
<asrwt>0</asrwt>
<pdfrwt beam="1">  1        2 0.20022225E-01 0.36370677E+03</pdfrwt>
<pdfrwt beam="2">  1       -2 0.33708107E-01 0.36370677E+03</pdfrwt>
<totfact> 0.22993393E+03</totfact>
</mgrwt>
</event>
<event>
 4    1  0.1390278E-004  0.3634713E+03  0.7818608E-02  0.1057218E+00
         -2   -1    0    0    0  501 -0.00000000000E+00  0.00000000000E+00  0.11937103306E+02  0.11937103579E+02  0.25500000000E-02 0.  1.
          2   -1    0    0  501    0  0.00000000000E+00 -0.00000000000E+00 -0.27668220157E+04  0.27668220157E+04  0.25500000000E-02 0. -1.
    5000001    1    1    2    0    0  0.16908943073E+02  0.12750941204E+03 -0.12335450496E+04  0.12467184734E+04  0.12700000000E+03 0.  0.
   -5000001    1    1    2    0    0 -0.16908943073E+02 -0.12750941204E+03 -0.15213398627E+04  0.15320406458E+04  0.12700000000E+03 0.  0.
<mgrwt>
<rscale>  0 0.36347127E+03</rscale>
<asrwt>0</asrwt>
<pdfrwt beam="1">  1        2 0.39525988E+00 0.36347127E+03</pdfrwt>
<pdfrwt beam="2">  1       -2 0.17053023E-02 0.36347127E+03</pdfrwt>
<totfact> 0.35731090E+03</totfact>
</mgrwt>
</event>
<event>
 4    1  0.1390278E-004  0.3900545E+03  0.7818608E-02  0.1047279E+00
          2   -1    0    0  501    0  0.00000000000E+00  0.00000000000E+00  0.52735935025E+02  0.52735935087E+02  0.25500000000E-02 0.  1.
         -2   -1    0    0    0  501 -0.00000000000E+00 -0.00000000000E+00 -0.72124682980E+03  0.72124682981E+03  0.25500000000E-02 0. -1.
    5000001    1    1    2    0    0 -0.14768920202E+02 -0.12589574469E+03 -0.48587896291E+03  0.51795291884E+03  0.12700000000E+03 0.  0.
   -5000001    1    1    2    0    0  0.14768920202E+02  0.12589574469E+03 -0.18263193187E+03  0.25602984606E+03  0.12700000000E+03 0.  0.
<mgrwt>
<rscale>  0 0.39005449E+03</rscale>
<asrwt>0</asrwt>
<pdfrwt beam="1">  1        2 0.75337054E-02 0.39005449E+03</pdfrwt>
<pdfrwt beam="2">  1       -2 0.10303526E+00 0.39005449E+03</pdfrwt>
<totfact> 0.73968081E+02</totfact>
</mgrwt>
</event>
<event>
 4    1  0.1390278E-004  0.3070051E+03  0.7818608E-02  0.1081790E+00
          2   -1    0    0  501    0  0.00000000000E+00  0.00000000000E+00  0.20937703678E+04  0.20937703678E+04  0.25500000000E-02 0.  1.
         -2   -1    0    0    0  501 -0.00000000000E+00 -0.00000000000E+00 -0.11253877604E+02  0.11253877893E+02  0.25500000000E-02 0. -1.
    5000001    1    1    2    0    0  0.42507525494E+01 -0.59214090388E+02  0.61253119087E+03  0.62836918860E+03  0.12700000000E+03 0.  0.
   -5000001    1    1    2    0    0 -0.42507525494E+01  0.59214090388E+02  0.14699852994E+04  0.14766550571E+04  0.12700000000E+03 0.  0.
<mgrwt>
<rscale>  0 0.30700512E+03</rscale>
<asrwt>0</asrwt>
<pdfrwt beam="1">  1        2 0.29911019E+00 0.30700512E+03</pdfrwt>
<pdfrwt beam="2">  1       -2 0.16076961E-02 0.30700512E+03</pdfrwt>
<totfact> 0.84845069E+03</totfact>
</mgrwt>
</event>
<event>
 4    1  0.1390278E-004  0.3240465E+03  0.7818608E-02  0.1073802E+00
         -2   -1    0    0    0  501 -0.00000000000E+00  0.00000000000E+00  0.72503200527E+02  0.72503200572E+02  0.25500000000E-02 0. -1.
          2   -1    0    0  501    0  0.00000000000E+00 -0.00000000000E+00 -0.36207415468E+03  0.36207415469E+03  0.25500000000E-02 0.  1.
    5000001    1    1    2    0    0  0.52604243683E+01  0.92020800316E+02 -0.19888061501E+03  0.25333376953E+03  0.12700000000E+03 0.  0.
   -5000001    1    1    2    0    0 -0.52604243683E+01 -0.92020800316E+02 -0.90690339138E+02  0.18124358573E+03  0.12700000000E+03 0.  0.
<mgrwt>
<rscale>  0 0.32404651E+03</rscale>
<asrwt>0</asrwt>
<pdfrwt beam="1">  1        2 0.51724878E-01 0.32404651E+03</pdfrwt>
<pdfrwt beam="2">  1       -2 0.10357600E-01 0.32404651E+03</pdfrwt>
<totfact> 0.60619089E+03</totfact>
</mgrwt>
</event>
<event>
 4    1  0.1390278E-004  0.5576359E+03  0.7818608E-02  0.9997418E-01
          2   -1    0    0  501    0  0.00000000000E+00  0.00000000000E+00  0.13950102509E+04  0.13950102509E+04  0.25500000000E-02 0.  1.
         -2   -1    0    0    0  501 -0.00000000000E+00 -0.00000000000E+00 -0.55726802671E+02  0.55726802729E+02  0.25500000000E-02 0. -1.
    5000001    1    1    2    0    0 -0.20989863867E+03 -0.12325319404E+03  0.79607104253E+03  0.84208484912E+03  0.12700000000E+03 0.  0.
   -5000001    1    1    2    0    0  0.20989863867E+03  0.12325319404E+03  0.54321240570E+03  0.60865220451E+03  0.12700000000E+03 0.  0.
<mgrwt>
<rscale>  0 0.55763594E+03</rscale>
<asrwt>0</asrwt>
<pdfrwt beam="1">  1        2 0.19928720E+00 0.55763594E+03</pdfrwt>
<pdfrwt beam="2">  1       -2 0.79609711E-02 0.55763594E+03</pdfrwt>
<totfact> 0.16710330E+03</totfact>
</mgrwt>
</event>
<event>
 4    1  0.1390278E-004  0.8450041E+03  0.7818608E-02  0.9497067E-01
         -2   -1    0    0    0  501 -0.00000000000E+00  0.00000000000E+00  0.60927158096E+02  0.60927158150E+02  0.25500000000E-02 0. -1.
          2   -1    0    0  501    0  0.00000000000E+00 -0.00000000000E+00 -0.29298588035E+04  0.29298588036E+04  0.25500000000E-02 0.  1.
    5000001    1    1    2    0    0 -0.31242037255E+03  0.25204049411E+03 -0.13094266380E+04  0.13754482978E+04  0.12700000000E+03 0.  0.
   -5000001    1    1    2    0    0  0.31242037255E+03 -0.25204049411E+03 -0.15595050075E+04  0.16153376639E+04  0.12700000000E+03 0.  0.
<mgrwt>
<rscale>  0 0.84500407E+03</rscale>
<asrwt>0</asrwt>
<pdfrwt beam="1">  1        2 0.41855117E+00 0.84500407E+03</pdfrwt>
<pdfrwt beam="2">  1       -2 0.87038815E-02 0.84500407E+03</pdfrwt>
<totfact> 0.22974324E+02</totfact>
</mgrwt>
</event>
<event>
 4    1  0.1390278E-004  0.5584665E+03  0.7818608E-02  0.9995530E-01
          2   -1    0    0  501    0  0.00000000000E+00  0.00000000000E+00  0.60669208878E+03  0.60669208879E+03  0.25500000000E-02 0.  1.
         -2   -1    0    0    0  501 -0.00000000000E+00 -0.00000000000E+00 -0.12851859513E+03  0.12851859516E+03  0.25500000000E-02 0. -1.
    5000001    1    1    2    0    0  0.76933101764E+02  0.23400709628E+03  0.19416807471E+03  0.33839069800E+03  0.12700000000E+03 0.  0.
   -5000001    1    1    2    0    0 -0.76933101764E+02 -0.23400709628E+03  0.28400541893E+03  0.39681998594E+03  0.12700000000E+03 0.  0.
<mgrwt>
<rscale>  0 0.55846653E+03</rscale>
<asrwt>0</asrwt>
<pdfrwt beam="1">  1        2 0.86670299E-01 0.55846653E+03</pdfrwt>
<pdfrwt beam="2">  1       -2 0.18359799E-01 0.55846653E+03</pdfrwt>
<totfact> 0.13268653E+03</totfact>
</mgrwt>
</event>
<event>
 4    1  0.1390278E-004  0.2645266E+03  0.7818608E-02  0.1104454E+00
         -2   -1    0    0    0  501 -0.00000000000E+00  0.00000000000E+00  0.61137182233E+02  0.61137182286E+02  0.25500000000E-02 0. -1.
          2   -1    0    0  501    0  0.00000000000E+00 -0.00000000000E+00 -0.28613644490E+03  0.28613644491E+03  0.25500000000E-02 0.  1.
    5000001    1    1    2    0    0 -0.21263944561E+02 -0.12724058923E+02 -0.76534359482E+02  0.15033484358E+03  0.12700000000E+03 0.  0.
   -5000001    1    1    2    0    0  0.21263944561E+02  0.12724058923E+02 -0.14846490318E+03  0.19693878361E+03  0.12700000000E+03 0.  0.
<mgrwt>
<rscale>  0 0.26452657E+03</rscale>
<asrwt>0</asrwt>
<pdfrwt beam="1">  1        2 0.40876634E-01 0.26452657E+03</pdfrwt>
<pdfrwt beam="2">  1       -2 0.87338833E-02 0.26452657E+03</pdfrwt>
<totfact> 0.10161092E+04</totfact>
</mgrwt>
</event>
<event>
 4    1  0.1390278E-004  0.5092665E+03  0.7818608E-02  0.1011388E+00
         -2   -1    0    0    0  501 -0.00000000000E+00  0.00000000000E+00  0.21493342209E+03  0.21493342211E+03  0.25500000000E-02 0. -1.
          2   -1    0    0  501    0  0.00000000000E+00 -0.00000000000E+00 -0.30166597720E+03  0.30166597721E+03  0.25500000000E-02 0.  1.
    5000001    1    1    2    0    0 -0.11315515654E+02  0.17100481404E+03  0.97698692028E+02  0.23461611570E+03  0.12700000000E+03 0.  0.
   -5000001    1    1    2    0    0  0.11315515654E+02 -0.17100481404E+03 -0.18443124713E+03  0.28198328362E+03  0.12700000000E+03 0.  0.
<mgrwt>
<rscale>  0 0.50926653E+03</rscale>
<asrwt>0</asrwt>
<pdfrwt beam="1">  1        2 0.43095139E-01 0.50926653E+03</pdfrwt>
<pdfrwt beam="2">  1       -2 0.30704775E-01 0.50926653E+03</pdfrwt>
<totfact> 0.11630564E+03</totfact>
</mgrwt>
</event>
<event>
 4    1  0.1390278E-004  0.3476281E+03  0.7818608E-02  0.1063593E+00
         -2   -1    0    0    0  501 -0.00000000000E+00  0.00000000000E+00  0.46552352431E+02  0.46552352501E+02  0.25500000000E-02 0. -1.
          2   -1    0    0  501    0  0.00000000000E+00 -0.00000000000E+00 -0.64897508918E+03  0.64897508919E+03  0.25500000000E-02 0.  1.
    5000001    1    1    2    0    0  0.93793612914E+02 -0.72618504558E+02 -0.29438871606E+03  0.34185436252E+03  0.12700000000E+03 0.  0.
   -5000001    1    1    2    0    0 -0.93793612914E+02  0.72618504558E+02 -0.30803402069E+03  0.35367307917E+03  0.12700000000E+03 0.  0.
<mgrwt>
<rscale>  0 0.34762806E+03</rscale>
<asrwt>0</asrwt>
<pdfrwt beam="1">  1        2 0.92710722E-01 0.34762806E+03</pdfrwt>
<pdfrwt beam="2">  1       -2 0.66503365E-02 0.34762806E+03</pdfrwt>
<totfact> 0.63648562E+03</totfact>
</mgrwt>
</event>
<event>
 4    1  0.1390278E-004  0.3546594E+03  0.7818608E-02  0.1060719E+00
         -2   -1    0    0    0  501 -0.00000000000E+00  0.00000000000E+00  0.30657540205E+02  0.30657540311E+02  0.25500000000E-02 0. -1.
          2   -1    0    0  501    0  0.00000000000E+00 -0.00000000000E+00 -0.10257123473E+04  0.10257123473E+04  0.25500000000E-02 0.  1.
    5000001    1    1    2    0    0  0.42993666743E+02  0.55165016097E+02 -0.19340639667E+03  0.24171609101E+03  0.12700000000E+03 0.  0.
   -5000001    1    1    2    0    0 -0.42993666743E+02 -0.55165016097E+02 -0.80164841041E+03  0.81465379658E+03  0.12700000000E+03 0.  0.
<mgrwt>
<rscale>  0 0.35465937E+03</rscale>
<asrwt>0</asrwt>
<pdfrwt beam="1">  1        2 0.14653031E+00 0.35465937E+03</pdfrwt>
<pdfrwt beam="2">  1       -2 0.43796492E-02 0.35465937E+03</pdfrwt>
<totfact> 0.67716187E+03</totfact>
</mgrwt>
</event>
<event>
 4    1  0.1390278E-004  0.6665170E+03  0.7818608E-02  0.9776270E-01
         -2   -1    0    0    0  501 -0.00000000000E+00  0.00000000000E+00  0.15303879360E+03  0.15303879362E+03  0.25500000000E-02 0. -1.
          2   -1    0    0  501    0  0.00000000000E+00 -0.00000000000E+00 -0.72570643909E+03  0.72570643910E+03  0.25500000000E-02 0.  1.
    5000001    1    1    2    0    0  0.16983619301E+03 -0.25183636672E+03 -0.35441237341E+03  0.48373858486E+03  0.12700000000E+03 0.  0.
   -5000001    1    1    2    0    0 -0.16983619301E+03  0.25183636672E+03 -0.21825527208E+03  0.39500664785E+03  0.12700000000E+03 0.  0.
<mgrwt>
<rscale>  0 0.66651703E+03</rscale>
<asrwt>0</asrwt>
<pdfrwt beam="1">  1        2 0.10367235E+00 0.66651703E+03</pdfrwt>
<pdfrwt beam="2">  1       -2 0.21862685E-01 0.66651703E+03</pdfrwt>
<totfact> 0.78708868E+02</totfact>
</mgrwt>
</event>
<event>
 4    1  0.1390278E-004  0.6149603E+03  0.7818608E-02  0.9874845E-01
         -2   -1    0    0    0  501 -0.00000000000E+00  0.00000000000E+00  0.63843781271E+03  0.63843781271E+03  0.25500000000E-02 0. -1.
          2   -1    0    0  501    0  0.00000000000E+00 -0.00000000000E+00 -0.14808651452E+03  0.14808651454E+03  0.25500000000E-02 0.  1.
    5000001    1    1    2    0    0  0.28966584007E+02 -0.27542040724E+03  0.19213917759E+03  0.36019706729E+03  0.12700000000E+03 0.  0.
   -5000001    1    1    2    0    0 -0.28966584007E+02  0.27542040724E+03  0.29821212060E+03  0.42632725996E+03  0.12700000000E+03 0.  0.
<mgrwt>
<rscale>  0 0.61496026E+03</rscale>
<asrwt>0</asrwt>
<pdfrwt beam="1">  1        2 0.21155216E-01 0.61496026E+03</pdfrwt>
<pdfrwt beam="2">  1       -2 0.91205402E-01 0.61496026E+03</pdfrwt>
<totfact> 0.27559637E+02</totfact>
</mgrwt>
</event>
<event>
 4    1  0.1390278E-004  0.6144445E+03  0.7818608E-02  0.9875883E-01
          2   -1    0    0  501    0  0.00000000000E+00  0.00000000000E+00  0.23121534286E+04  0.23121534286E+04  0.25500000000E-02 0.  1.
         -2   -1    0    0    0  501 -0.00000000000E+00 -0.00000000000E+00 -0.40821480273E+02  0.40821480353E+02  0.25500000000E-02 0. -1.
    5000001    1    1    2    0    0 -0.23997447774E+03 -0.68747189981E+02  0.65214627765E+03  0.70974480875E+03  0.12700000000E+03 0.  0.
   -5000001    1    1    2    0    0  0.23997447774E+03  0.68747189981E+02  0.16191856707E+04  0.16432301002E+04  0.12700000000E+03 0.  0.
<mgrwt>
<rscale>  0 0.61444455E+03</rscale>
<asrwt>0</asrwt>
<pdfrwt beam="1">  1        2 0.33030772E+00 0.61444455E+03</pdfrwt>
<pdfrwt beam="2">  1       -2 0.58316384E-02 0.61444455E+03</pdfrwt>
<totfact> 0.93072906E+02</totfact>
</mgrwt>
</event>
<event>
 4    1  0.1390278E-004  0.3635197E+03  0.7818608E-02  0.1057199E+00
         -2   -1    0    0    0  501 -0.00000000000E+00  0.00000000000E+00  0.43854149755E+02  0.43854149829E+02  0.25500000000E-02 0. -1.
          2   -1    0    0  501    0  0.00000000000E+00 -0.00000000000E+00 -0.75332979417E+03  0.75332979418E+03  0.25500000000E-02 0.  1.
    5000001    1    1    2    0    0 -0.12470022894E+03 -0.64722384611E+01 -0.27519652480E+03  0.32780201987E+03  0.12700000000E+03 0.  0.
   -5000001    1    1    2    0    0  0.12470022894E+03  0.64722384611E+01 -0.43427911962E+03  0.46938192414E+03  0.12700000000E+03 0.  0.
<mgrwt>
<rscale>  0 0.36351967E+03</rscale>
<asrwt>0</asrwt>
<pdfrwt beam="1">  1        2 0.10761853E+00 0.36351967E+03</pdfrwt>
<pdfrwt beam="2">  1       -2 0.62648790E-02 0.36351967E+03</pdfrwt>
<totfact> 0.58451292E+03</totfact>
</mgrwt>
</event>
<event>
 4    1  0.1390278E-004  0.4484355E+03  0.7818608E-02  0.1028190E+00
         -2   -1    0    0    0  501 -0.00000000000E+00  0.00000000000E+00  0.15529266170E+03  0.15529266172E+03  0.25500000000E-02 0. -1.
          2   -1    0    0  501    0  0.00000000000E+00 -0.00000000000E+00 -0.32373461094E+03  0.32373461095E+03  0.25500000000E-02 0.  1.
    5000001    1    1    2    0    0  0.11632035350E+03  0.14188061110E+03 -0.60718292498E+02  0.23124931025E+03  0.12700000000E+03 0.  0.
   -5000001    1    1    2    0    0 -0.11632035350E+03 -0.14188061110E+03 -0.10772365674E+03  0.24777796243E+03  0.12700000000E+03 0.  0.
<mgrwt>
<rscale>  0 0.44843554E+03</rscale>
<asrwt>0</asrwt>
<pdfrwt beam="1">  1        2 0.46247801E-01 0.44843554E+03</pdfrwt>
<pdfrwt beam="2">  1       -2 0.22184666E-01 0.44843554E+03</pdfrwt>
<totfact> 0.19305537E+03</totfact>
</mgrwt>
</event>
<event>
 4    1  0.1390278E-004  0.5349752E+03  0.7818608E-02  0.1005033E+00
          2   -1    0    0  501    0  0.00000000000E+00  0.00000000000E+00  0.48025303142E+03  0.48025303143E+03  0.25500000000E-02 0.  1.
         -2   -1    0    0    0  501 -0.00000000000E+00 -0.00000000000E+00 -0.14898316417E+03  0.14898316420E+03  0.25500000000E-02 0. -1.
    5000001    1    1    2    0    0 -0.84769494647E+02  0.14125128968E+03  0.36344182511E+03  0.41875619912E+03  0.12700000000E+03 0.  0.
   -5000001    1    1    2    0    0  0.84769494647E+02 -0.14125128968E+03 -0.32171957861E+02  0.21047999651E+03  0.12700000000E+03 0.  0.
<mgrwt>
<rscale>  0 0.53497520E+03</rscale>
<asrwt>0</asrwt>
<pdfrwt beam="1">  1        2 0.68607576E-01 0.53497520E+03</pdfrwt>
<pdfrwt beam="2">  1       -2 0.21283309E-01 0.53497520E+03</pdfrwt>
<totfact> 0.13433413E+03</totfact>
</mgrwt>
</event>
<event>
 4    1  0.1390278E-004  0.4226633E+03  0.7818608E-02  0.1036203E+00
          2   -1    0    0  501    0  0.00000000000E+00  0.00000000000E+00  0.30374322642E+04  0.30374322642E+04  0.25500000000E-02 0.  1.
         -2   -1    0    0    0  501 -0.00000000000E+00 -0.00000000000E+00 -0.14703556127E+02  0.14703556348E+02  0.25500000000E-02 0. -1.
    5000001    1    1    2    0    0  0.65055514849E+02  0.11515487996E+03  0.22700781212E+04  0.22774715241E+04  0.12700000000E+03 0.  0.
   -5000001    1    1    2    0    0 -0.65055514849E+02 -0.11515487996E+03  0.75265058685E+03  0.77466429650E+03  0.12700000000E+03 0.  0.
<mgrwt>
<rscale>  0 0.42266325E+03</rscale>
<asrwt>0</asrwt>
<pdfrwt beam="1">  1        2 0.43391941E+00 0.42266325E+03</pdfrwt>
<pdfrwt beam="2">  1       -2 0.21005056E-02 0.42266325E+03</pdfrwt>
<totfact> 0.18771189E+03</totfact>
</mgrwt>
</event>
<event>
 4    1  0.1390278E-004  0.3107915E+03  0.7818608E-02  0.1079967E+00
          2   -1    0    0  501    0  0.00000000000E+00  0.00000000000E+00  0.34015980545E+03  0.34015980545E+03  0.25500000000E-02 0.  1.
         -2   -1    0    0    0  501 -0.00000000000E+00 -0.00000000000E+00 -0.70989670617E+02  0.70989670663E+02  0.25500000000E-02 0. -1.
    5000001    1    1    2    0    0 -0.74043880000E+02  0.43222040514E+02  0.10038860546E+03  0.18318709850E+03  0.12700000000E+03 0.  0.
   -5000001    1    1    2    0    0  0.74043880000E+02 -0.43222040514E+02  0.16878152937E+03  0.22796237762E+03  0.12700000000E+03 0.  0.
<mgrwt>
<rscale>  0 0.31079146E+03</rscale>
<asrwt>0</asrwt>
<pdfrwt beam="1">  1        2 0.48594258E-01 0.31079146E+03</pdfrwt>
<pdfrwt beam="2">  1       -2 0.10141381E-01 0.31079146E+03</pdfrwt>
<totfact> 0.66989794E+03</totfact>
</mgrwt>
</event>
<event>
 4    1  0.1390278E-004  0.4227518E+03  0.7818608E-02  0.1036174E+00
          2   -1    0    0  501    0  0.00000000000E+00  0.00000000000E+00  0.31804802408E+03  0.31804802409E+03  0.25500000000E-02 0.  1.
         -2   -1    0    0    0  501 -0.00000000000E+00 -0.00000000000E+00 -0.14048122746E+03  0.14048122748E+03  0.25500000000E-02 0. -1.
    5000001    1    1    2    0    0  0.15152601568E+03 -0.14142993942E+02  0.91489681456E+01  0.19842595930E+03  0.12700000000E+03 0.  0.
   -5000001    1    1    2    0    0 -0.15152601568E+03  0.14142993942E+02  0.16841782847E+03  0.26010329227E+03  0.12700000000E+03 0.  0.
<mgrwt>
<rscale>  0 0.42275183E+03</rscale>
<asrwt>0</asrwt>
<pdfrwt beam="1">  1        2 0.45435433E-01 0.42275183E+03</pdfrwt>
<pdfrwt beam="2">  1       -2 0.20068746E-01 0.42275183E+03</pdfrwt>
<totfact> 0.23422002E+03</totfact>
</mgrwt>
</event>
<event>
 4    1  0.1390278E-004  0.7442122E+03  0.7818608E-02  0.9644474E-01
          2   -1    0    0  501    0  0.00000000000E+00  0.00000000000E+00  0.36179921872E+03  0.36179921873E+03  0.25500000000E-02 0.  1.
         -2   -1    0    0    0  501 -0.00000000000E+00 -0.00000000000E+00 -0.38270661839E+03  0.38270661840E+03  0.25500000000E-02 0. -1.
    5000001    1    1    2    0    0 -0.13787910887E+03  0.25542884405E+03 -0.20567015948E+03  0.37773503615E+03  0.12700000000E+03 0.  0.
   -5000001    1    1    2    0    0  0.13787910887E+03 -0.25542884405E+03  0.18476275982E+03  0.36677080098E+03  0.12700000000E+03 0.  0.
<mgrwt>
<rscale>  0 0.74421222E+03</rscale>
<asrwt>0</asrwt>
<pdfrwt beam="1">  1        2 0.51685603E-01 0.74421222E+03</pdfrwt>
<pdfrwt beam="2">  1       -2 0.54672374E-01 0.74421222E+03</pdfrwt>
<totfact> 0.30705883E+02</totfact>
</mgrwt>
</event>
<event>
 4    1  0.1390278E-004  0.8951734E+03  0.7818608E-02  0.9431635E-01
         -2   -1    0    0    0  501 -0.00000000000E+00  0.00000000000E+00  0.50565226644E+03  0.50565226645E+03  0.25500000000E-02 0. -1.
          2   -1    0    0  501    0  0.00000000000E+00 -0.00000000000E+00 -0.39618895938E+03  0.39618895939E+03  0.25500000000E-02 0.  1.
    5000001    1    1    2    0    0  0.94705100608E+02  0.39837647496E+03  0.18426610002E+03  0.46664319078E+03  0.12700000000E+03 0.  0.
   -5000001    1    1    2    0    0 -0.94705100608E+02 -0.39837647496E+03 -0.74802792964E+02  0.43519803506E+03  0.12700000000E+03 0.  0.
<mgrwt>
<rscale>  0 0.89517338E+03</rscale>
<asrwt>0</asrwt>
<pdfrwt beam="1">  1        2 0.56598422E-01 0.89517338E+03</pdfrwt>
<pdfrwt beam="2">  1       -2 0.72236039E-01 0.89517338E+03</pdfrwt>
<totfact> 0.15228582E+02</totfact>
</mgrwt>
</event>
<event>
 4    1  0.1390278E-004  0.5211923E+03  0.7818608E-02  0.1008391E+00
          2   -1    0    0  501    0  0.00000000000E+00  0.00000000000E+00  0.22331383653E+03  0.22331383655E+03  0.25500000000E-02 0.  1.
         -2   -1    0    0    0  501 -0.00000000000E+00 -0.00000000000E+00 -0.30410275787E+03  0.30410275788E+03  0.25500000000E-02 0. -1.
    5000001    1    1    2    0    0 -0.15041477778E+03  0.14544155160E+03  0.50136235857E+02  0.24984093430E+03  0.12700000000E+03 0.  0.
   -5000001    1    1    2    0    0  0.15041477778E+03 -0.14544155160E+03 -0.13092515720E+03  0.27757566013E+03  0.12700000000E+03 0.  0.
<mgrwt>
<rscale>  0 0.52119230E+03</rscale>
<asrwt>0</asrwt>
<pdfrwt beam="1">  1        2 0.31901977E-01 0.52119230E+03</pdfrwt>
<pdfrwt beam="2">  1       -2 0.43443251E-01 0.52119230E+03</pdfrwt>
<totfact> 0.83722946E+02</totfact>
</mgrwt>
</event>
<event>
 4    1  0.1390278E-004  0.5321643E+03  0.7818608E-02  0.1005709E+00
         -2   -1    0    0    0  501 -0.00000000000E+00  0.00000000000E+00  0.31389018837E+02  0.31389018941E+02  0.25500000000E-02 0. -1.
          2   -1    0    0  501    0  0.00000000000E+00 -0.00000000000E+00 -0.22555566425E+04  0.22555566425E+04  0.25500000000E-02 0.  1.
    5000001    1    1    2    0    0 -0.18505462690E+03 -0.13868011667E+03 -0.96363092874E+03  0.99909506881E+03  0.12700000000E+03 0.  0.
   -5000001    1    1    2    0    0  0.18505462690E+03  0.13868011667E+03 -0.12605366949E+04  0.12878505926E+04  0.12700000000E+03 0.  0.
<mgrwt>
<rscale>  0 0.53216430E+03</rscale>
<asrwt>0</asrwt>
<pdfrwt beam="1">  1        2 0.32222228E+00 0.53216430E+03</pdfrwt>
<pdfrwt beam="2">  1       -2 0.44841470E-02 0.53216430E+03</pdfrwt>
<totfact> 0.15021318E+03</totfact>
</mgrwt>
</event>
<event>
 4    1  0.1390278E-004  0.4386231E+03  0.7818608E-02  0.1031170E+00
          2   -1    0    0  501    0  0.00000000000E+00  0.00000000000E+00  0.37637129179E+04  0.37637129179E+04  0.25500000000E-02 0.  1.
         -2   -1    0    0    0  501 -0.00000000000E+00 -0.00000000000E+00 -0.12779281100E+02  0.12779281354E+02  0.25500000000E-02 0. -1.
    5000001    1    1    2    0    0  0.17381182604E+03  0.18815053620E+02  0.15528559846E+04  0.15678186330E+04  0.12700000000E+03 0.  0.
   -5000001    1    1    2    0    0 -0.17381182604E+03 -0.18815053620E+02  0.21980776522E+04  0.22086735663E+04  0.12700000000E+03 0.  0.
<mgrwt>
<rscale>  0 0.43862305E+03</rscale>
<asrwt>0</asrwt>
<pdfrwt beam="1">  1        2 0.53767405E+00 0.43862305E+03</pdfrwt>
<pdfrwt beam="2">  1       -2 0.18256090E-02 0.43862305E+03</pdfrwt>
<totfact> 0.87786913E+02</totfact>
</mgrwt>
</event>
<event>
 4    1  0.1390278E-004  0.3782168E+03  0.7818608E-02  0.1051595E+00
         -2   -1    0    0    0  501 -0.00000000000E+00  0.00000000000E+00  0.20868673060E+03  0.20868673062E+03  0.25500000000E-02 0. -1.
          2   -1    0    0  501    0  0.00000000000E+00 -0.00000000000E+00 -0.17136687689E+03  0.17136687691E+03  0.25500000000E-02 0.  1.
    5000001    1    1    2    0    0  0.28349012968E+02 -0.13493915971E+03  0.43695776855E+02  0.19248523131E+03  0.12700000000E+03 0.  0.
   -5000001    1    1    2    0    0 -0.28349012968E+02  0.13493915971E+03 -0.63759231383E+01  0.18756837621E+03  0.12700000000E+03 0.  0.
<mgrwt>
<rscale>  0 0.37821683E+03</rscale>
<asrwt>0</asrwt>
<pdfrwt beam="1">  1        2 0.24480982E-01 0.37821683E+03</pdfrwt>
<pdfrwt beam="2">  1       -2 0.29812390E-01 0.37821683E+03</pdfrwt>
<totfact> 0.22938233E+03</totfact>
</mgrwt>
</event>
<event>
 4    1  0.1390278E-004  0.3495825E+03  0.7818608E-02  0.1062787E+00
          2   -1    0    0  501    0  0.00000000000E+00  0.00000000000E+00  0.19306024366E+04  0.19306024366E+04  0.25500000000E-02 0.  1.
         -2   -1    0    0    0  501 -0.00000000000E+00 -0.00000000000E+00 -0.15825103092E+02  0.15825103298E+02  0.25500000000E-02 0. -1.
    5000001    1    1    2    0    0  0.15069940914E+02 -0.11756236640E+03  0.84957182152E+03  0.86715009833E+03  0.12700000000E+03 0.  0.
   -5000001    1    1    2    0    0 -0.15069940914E+02  0.11756236640E+03  0.10652055120E+04  0.10792774416E+04  0.12700000000E+03 0.  0.
<mgrwt>
<rscale>  0 0.34958251E+03</rscale>
<asrwt>0</asrwt>
<pdfrwt beam="1">  1        2 0.27580012E+00 0.34958251E+03</pdfrwt>
<pdfrwt beam="2">  1       -2 0.22607309E-02 0.34958251E+03</pdfrwt>
<totfact> 0.61701934E+03</totfact>
</mgrwt>
</event>
<event>
 4    1  0.1390278E-004  0.3837115E+03  0.7818608E-02  0.1049570E+00
         -2   -1    0    0    0  501 -0.00000000000E+00  0.00000000000E+00  0.20457125722E+02  0.20457125881E+02  0.25500000000E-02 0. -1.
          2   -1    0    0  501    0  0.00000000000E+00 -0.00000000000E+00 -0.17993063601E+04  0.17993063601E+04  0.25500000000E-02 0.  1.
    5000001    1    1    2    0    0  0.35024454366E+02 -0.98767843926E+02 -0.13564575752E+04  0.13664142683E+04  0.12700000000E+03 0.  0.
   -5000001    1    1    2    0    0 -0.35024454366E+02  0.98767843926E+02 -0.42239165919E+03  0.45334921766E+03  0.12700000000E+03 0.  0.
<mgrwt>
<rscale>  0 0.38371154E+03</rscale>
<asrwt>0</asrwt>
<pdfrwt beam="1">  1        2 0.25704366E+00 0.38371154E+03</pdfrwt>
<pdfrwt beam="2">  1       -2 0.29224477E-02 0.38371154E+03</pdfrwt>
<totfact> 0.48831720E+03</totfact>
</mgrwt>
</event>
<event>
 4    1  0.1390278E-004  0.3193372E+03  0.7818608E-02  0.1075955E+00
         -2   -1    0    0    0  501 -0.00000000000E+00  0.00000000000E+00  0.23830296764E+02  0.23830296901E+02  0.25500000000E-02 0. -1.
          2   -1    0    0  501    0  0.00000000000E+00 -0.00000000000E+00 -0.10698172140E+04  0.10698172140E+04  0.25500000000E-02 0.  1.
    5000001    1    1    2    0    0  0.87380004157E+02 -0.18818387662E+02 -0.65001699188E+03  0.66831166874E+03  0.12700000000E+03 0.  0.
   -5000001    1    1    2    0    0 -0.87380004157E+02  0.18818387662E+02 -0.39596992531E+03  0.42533584212E+03  0.12700000000E+03 0.  0.
<mgrwt>
<rscale>  0 0.31933720E+03</rscale>
<asrwt>0</asrwt>
<pdfrwt beam="1">  1        2 0.15283100E+00 0.31933720E+03</pdfrwt>
<pdfrwt beam="2">  1       -2 0.34043288E-02 0.31933720E+03</pdfrwt>
<totfact> 0.93174456E+03</totfact>
</mgrwt>
</event>
<event>
 4    1  0.1390278E-004  0.5267002E+03  0.7818608E-02  0.1007036E+00
          2   -1    0    0  501    0  0.00000000000E+00  0.00000000000E+00  0.32408702853E+03  0.32408702854E+03  0.25500000000E-02 0.  1.
         -2   -1    0    0    0  501 -0.00000000000E+00 -0.00000000000E+00 -0.21399585878E+03  0.21399585880E+03  0.25500000000E-02 0. -1.
    5000001    1    1    2    0    0  0.10012343045E+03 -0.11458776162E+03  0.23219788567E+03  0.30528661050E+03  0.12700000000E+03 0.  0.
   -5000001    1    1    2    0    0 -0.10012343045E+03  0.11458776162E+03 -0.12210671592E+03  0.23279627684E+03  0.12700000000E+03 0.  0.
<mgrwt>
<rscale>  0 0.52670023E+03</rscale>
<asrwt>0</asrwt>
<pdfrwt beam="1">  1        2 0.46298147E-01 0.52670023E+03</pdfrwt>
<pdfrwt beam="2">  1       -2 0.30570837E-01 0.52670023E+03</pdfrwt>
<totfact> 0.10836816E+03</totfact>
</mgrwt>
</event>
<event>
 4    1  0.1390278E-004  0.3169697E+03  0.7818608E-02  0.1077052E+00
         -2   -1    0    0    0  501 -0.00000000000E+00  0.00000000000E+00  0.23246215276E+02  0.23246215416E+02  0.25500000000E-02 0. -1.
          2   -1    0    0  501    0  0.00000000000E+00 -0.00000000000E+00 -0.10804960611E+04  0.10804960611E+04  0.25500000000E-02 0.  1.
    5000001    1    1    2    0    0 -0.87732886650E+02 -0.25188304518E+02 -0.61787546056E+03  0.63736221636E+03  0.12700000000E+03 0.  0.
   -5000001    1    1    2    0    0  0.87732886650E+02  0.25188304518E+02 -0.43937438523E+03  0.46638006013E+03  0.12700000000E+03 0.  0.
<mgrwt>
<rscale>  0 0.31696968E+03</rscale>
<asrwt>0</asrwt>
<pdfrwt beam="1">  1        2 0.15435655E+00 0.31696968E+03</pdfrwt>
<pdfrwt beam="2">  1       -2 0.33208886E-02 0.31696968E+03</pdfrwt>
<totfact> 0.95337478E+03</totfact>
</mgrwt>
</event>
<event>
 4    1  0.1390278E-004  0.2939729E+03  0.7818608E-02  0.1088293E+00
          2   -1    0    0  501    0  0.00000000000E+00  0.00000000000E+00  0.11340634493E+03  0.11340634495E+03  0.25500000000E-02 0.  1.
         -2   -1    0    0    0  501 -0.00000000000E+00 -0.00000000000E+00 -0.19050977185E+03  0.19050977187E+03  0.25500000000E-02 0. -1.
    5000001    1    1    2    0    0  0.33915955479E+02  0.63973114921E+02 -0.22765480144E+02  0.14795309579E+03  0.12700000000E+03 0.  0.
   -5000001    1    1    2    0    0 -0.33915955479E+02 -0.63973114921E+02 -0.54337946785E+02  0.15596302103E+03  0.12700000000E+03 0.  0.
<mgrwt>
<rscale>  0 0.29397290E+03</rscale>
<asrwt>0</asrwt>
<pdfrwt beam="1">  1        2 0.16200906E-01 0.29397290E+03</pdfrwt>
<pdfrwt beam="2">  1       -2 0.27215682E-01 0.29397290E+03</pdfrwt>
<totfact> 0.43274924E+03</totfact>
</mgrwt>
</event>
<event>
 4    1  0.1390278E-004  0.3272413E+03  0.7818608E-02  0.1072364E+00
         -2   -1    0    0    0  501 -0.00000000000E+00  0.00000000000E+00  0.27474113572E+02  0.27474113690E+02  0.25500000000E-02 0. -1.
          2   -1    0    0  501    0  0.00000000000E+00 -0.00000000000E+00 -0.97443414013E+03  0.97443414014E+03  0.25500000000E-02 0.  1.
    5000001    1    1    2    0    0 -0.69758067155E+02 -0.39760759551E+02 -0.27516420284E+03  0.31351466387E+03  0.12700000000E+03 0.  0.
   -5000001    1    1    2    0    0  0.69758067155E+02  0.39760759551E+02 -0.67179582372E+03  0.68839358996E+03  0.12700000000E+03 0.  0.
<mgrwt>
<rscale>  0 0.32724128E+03</rscale>
<asrwt>0</asrwt>
<pdfrwt beam="1">  1        2 0.13920486E+00 0.32724128E+03</pdfrwt>
<pdfrwt beam="2">  1       -2 0.39248740E-02 0.32724128E+03</pdfrwt>
<totfact> 0.85627505E+03</totfact>
</mgrwt>
</event>
<event>
 4    1  0.1390278E-004  0.2880018E+03  0.7818608E-02  0.1091397E+00
          2   -1    0    0  501    0  0.00000000000E+00  0.00000000000E+00  0.20427445318E+04  0.20427445318E+04  0.25500000000E-02 0.  1.
         -2   -1    0    0    0  501 -0.00000000000E+00 -0.00000000000E+00 -0.10151177756E+02  0.10151178076E+02  0.25500000000E-02 0. -1.
    5000001    1    1    2    0    0 -0.66116612838E+02  0.14616683543E+02  0.98270446498E+03  0.99318785707E+03  0.12700000000E+03 0.  0.
   -5000001    1    1    2    0    0  0.66116612838E+02 -0.14616683543E+02  0.10498888891E+04  0.10597078528E+04  0.12700000000E+03 0.  0.
<mgrwt>
<rscale>  0 0.28800183E+03</rscale>
<asrwt>0</asrwt>
<pdfrwt beam="1">  1        2 0.29182090E+00 0.28800183E+03</pdfrwt>
<pdfrwt beam="2">  1       -2 0.14501670E-02 0.28800183E+03</pdfrwt>
<totfact> 0.10445841E+04</totfact>
</mgrwt>
</event>
<event>
 4    1  0.1390278E-004  0.3798406E+03  0.7818608E-02  0.1050993E+00
          2   -1    0    0  501    0  0.00000000000E+00  0.00000000000E+00  0.17612098795E+03  0.17612098797E+03  0.25500000000E-02 0.  1.
         -2   -1    0    0    0  501 -0.00000000000E+00 -0.00000000000E+00 -0.20480075389E+03  0.20480075390E+03  0.25500000000E-02 0. -1.
    5000001    1    1    2    0    0  0.14034516721E+03  0.96143191186E+00  0.12936149387E+01  0.18928381798E+03  0.12700000000E+03 0.  0.
   -5000001    1    1    2    0    0 -0.14034516721E+03 -0.96143191186E+00 -0.29973380876E+02  0.19163792389E+03  0.12700000000E+03 0.  0.
<mgrwt>
<rscale>  0 0.37984055E+03</rscale>
<asrwt>0</asrwt>
<pdfrwt beam="1">  1        2 0.25160141E-01 0.37984055E+03</pdfrwt>
<pdfrwt beam="2">  1       -2 0.29257251E-01 0.37984055E+03</pdfrwt>
<totfact> 0.23017801E+03</totfact>
</mgrwt>
</event>
<event>
 4    1  0.1390278E-004  0.4070359E+03  0.7818608E-02  0.1041370E+00
          2   -1    0    0  501    0  0.00000000000E+00  0.00000000000E+00  0.70247815565E+03  0.70247815565E+03  0.25500000000E-02 0.  1.
         -2   -1    0    0    0  501 -0.00000000000E+00 -0.00000000000E+00 -0.58962061967E+02  0.58962062022E+02  0.25500000000E-02 0. -1.
    5000001    1    1    2    0    0 -0.14372751887E+03  0.30648653648E+02  0.43544987049E+03  0.47680449805E+03  0.12700000000E+03 0.  0.
   -5000001    1    1    2    0    0  0.14372751887E+03 -0.30648653648E+02  0.20806622319E+03  0.28463571962E+03  0.12700000000E+03 0.  0.
<mgrwt>
<rscale>  0 0.40703592E+03</rscale>
<asrwt>0</asrwt>
<pdfrwt beam="1">  1        2 0.10035402E+00 0.40703592E+03</pdfrwt>
<pdfrwt beam="2">  1       -2 0.84231520E-02 0.40703592E+03</pdfrwt>
<totfact> 0.40110150E+03</totfact>
</mgrwt>
</event>
<event>
 4    1  0.1390278E-004  0.3608597E+03  0.7818608E-02  0.1058244E+00
          2   -1    0    0  501    0  0.00000000000E+00  0.00000000000E+00  0.17194821807E+04  0.17194821807E+04  0.25500000000E-02 0.  1.
         -2   -1    0    0    0  501 -0.00000000000E+00 -0.00000000000E+00 -0.18932989152E+02  0.18932989324E+02  0.25500000000E-02 0. -1.
    5000001    1    1    2    0    0 -0.61066589757E+02  0.58489255834E+02  0.38630327050E+03  0.41534243491E+03  0.12700000000E+03 0.  0.
   -5000001    1    1    2    0    0  0.61066589757E+02 -0.58489255834E+02  0.13142459210E+04  0.13230727351E+04  0.12700000000E+03 0.  0.
<mgrwt>
<rscale>  0 0.36085974E+03</rscale>
<asrwt>0</asrwt>
<pdfrwt beam="1">  1        2 0.24564028E+00 0.36085974E+03</pdfrwt>
<pdfrwt beam="2">  1       -2 0.27047131E-02 0.36085974E+03</pdfrwt>
<totfact> 0.60075142E+03</totfact>
</mgrwt>
</event>
<event>
 4    1  0.1390278E-004  0.3656412E+03  0.7818608E-02  0.1056372E+00
         -2   -1    0    0    0  501 -0.00000000000E+00  0.00000000000E+00  0.24058147173E+02  0.24058147308E+02  0.25500000000E-02 0. -1.
          2   -1    0    0  501    0  0.00000000000E+00 -0.00000000000E+00 -0.13892748495E+04  0.13892748495E+04  0.25500000000E-02 0.  1.
    5000001    1    1    2    0    0 -0.97689565009E+02  0.88040166782E+02 -0.68352966409E+03  0.70755644564E+03  0.12700000000E+03 0.  0.
   -5000001    1    1    2    0    0  0.97689565009E+02 -0.88040166782E+02 -0.68168703824E+03  0.70577655117E+03  0.12700000000E+03 0.  0.
<mgrwt>
<rscale>  0 0.36564124E+03</rscale>
<asrwt>0</asrwt>
<pdfrwt beam="1">  1        2 0.19846779E+00 0.36564124E+03</pdfrwt>
<pdfrwt beam="2">  1       -2 0.34368791E-02 0.36564124E+03</pdfrwt>
<totfact> 0.61693960E+03</totfact>
</mgrwt>
</event>
<event>
 4    1  0.1390278E-004  0.3706978E+03  0.7818608E-02  0.1054426E+00
         -2   -1    0    0    0  501 -0.00000000000E+00  0.00000000000E+00  0.23944606822E+02  0.23944606958E+02  0.25500000000E-02 0. -1.
          2   -1    0    0  501    0  0.00000000000E+00 -0.00000000000E+00 -0.14347366790E+04  0.14347366790E+04  0.25500000000E-02 0.  1.
    5000001    1    1    2    0    0 -0.98403955168E+02 -0.74717087569E+02 -0.49133905578E+03  0.52231125711E+03  0.12700000000E+03 0.  0.
   -5000001    1    1    2    0    0  0.98403955168E+02  0.74717087569E+02 -0.91945301638E+03  0.93637002883E+03  0.12700000000E+03 0.  0.
<mgrwt>
<rscale>  0 0.37069775E+03</rscale>
<asrwt>0</asrwt>
<pdfrwt beam="1">  1        2 0.20496233E+00 0.37069775E+03</pdfrwt>
<pdfrwt beam="2">  1       -2 0.34206590E-02 0.37069775E+03</pdfrwt>
<totfact> 0.58854863E+03</totfact>
</mgrwt>
</event>
<event>
 4    1  0.1390278E-004  0.5301201E+03  0.7818608E-02  0.1006203E+00
          2   -1    0    0  501    0  0.00000000000E+00  0.00000000000E+00  0.16793452593E+04  0.16793452593E+04  0.25500000000E-02 0.  1.
         -2   -1    0    0    0  501 -0.00000000000E+00 -0.00000000000E+00 -0.41835851335E+02  0.41835851413E+02  0.25500000000E-02 0. -1.
    5000001    1    1    2    0    0 -0.12148184632E+03  0.18931370052E+03  0.10116668014E+04  0.10441246254E+04  0.12700000000E+03 0.  0.
   -5000001    1    1    2    0    0  0.12148184632E+03 -0.18931370052E+03  0.62584260654E+03  0.67705648535E+03  0.12700000000E+03 0.  0.
<mgrwt>
<rscale>  0 0.53012013E+03</rscale>
<asrwt>0</asrwt>
<pdfrwt beam="1">  1        2 0.23990643E+00 0.53012013E+03</pdfrwt>
<pdfrwt beam="2">  1       -2 0.59765511E-02 0.53012013E+03</pdfrwt>
<totfact> 0.18727497E+03</totfact>
</mgrwt>
</event>
<event>
 4    1  0.1390278E-004  0.1339891E+04  0.7818608E-02  0.8998516E-01
          2   -1    0    0  501    0  0.00000000000E+00  0.00000000000E+00  0.23766905767E+04  0.23766905767E+04  0.25500000000E-02 0.  1.
         -2   -1    0    0    0  501 -0.00000000000E+00 -0.00000000000E+00 -0.18884548630E+03  0.18884548632E+03  0.25500000000E-02 0. -1.
    5000001    1    1    2    0    0  0.65066502703E+03  0.43647334872E+02  0.12589479838E+04  0.14234988912E+04  0.12700000000E+03 0.  0.
   -5000001    1    1    2    0    0 -0.65066502703E+03 -0.43647334872E+02  0.92889710655E+03  0.11420371718E+04  0.12700000000E+03 0.  0.
<mgrwt>
<rscale>  0 0.13398915E+04</rscale>
<asrwt>0</asrwt>
<pdfrwt beam="1">  1        2 0.33952718E+00 0.13398915E+04</pdfrwt>
<pdfrwt beam="2">  1       -2 0.26977930E-01 0.13398915E+04</pdfrwt>
<totfact> 0.62612462E+01</totfact>
</mgrwt>
</event>
<event>
 4    1  0.1390278E-004  0.3305682E+03  0.7818608E-02  0.1070886E+00
         -2   -1    0    0    0  501 -0.00000000000E+00  0.00000000000E+00  0.95772370224E+02  0.95772370258E+02  0.25500000000E-02 0. -1.
          2   -1    0    0  501    0  0.00000000000E+00 -0.00000000000E+00 -0.28524749658E+03  0.28524749659E+03  0.25500000000E-02 0.  1.
    5000001    1    1    2    0    0  0.28362133596E+02 -0.10181848955E+03 -0.89791566452E+02  0.18805036783E+03  0.12700000000E+03 0.  0.
   -5000001    1    1    2    0    0 -0.28362133596E+02  0.10181848955E+03 -0.99683559902E+02  0.19296949902E+03  0.12700000000E+03 0.  0.
<mgrwt>
<rscale>  0 0.33056817E+03</rscale>
<asrwt>0</asrwt>
<pdfrwt beam="1">  1        2 0.40749642E-01 0.33056817E+03</pdfrwt>
<pdfrwt beam="2">  1       -2 0.13681767E-01 0.33056817E+03</pdfrwt>
<totfact> 0.50006210E+03</totfact>
</mgrwt>
</event>
<event>
 4    1  0.1390278E-004  0.4399925E+03  0.7818608E-02  0.1030749E+00
          2   -1    0    0  501    0  0.00000000000E+00  0.00000000000E+00  0.76302135944E+03  0.76302135944E+03  0.25500000000E-02 0.  1.
         -2   -1    0    0    0  501 -0.00000000000E+00 -0.00000000000E+00 -0.63429877893E+02  0.63429877944E+02  0.25500000000E-02 0. -1.
    5000001    1    1    2    0    0  0.16877110137E+03  0.57586102371E+02  0.30909583761E+03  0.37877312560E+03  0.12700000000E+03 0.  0.
   -5000001    1    1    2    0    0 -0.16877110137E+03 -0.57586102371E+02  0.39049564393E+03  0.44767811179E+03  0.12700000000E+03 0.  0.
<mgrwt>
<rscale>  0 0.43999251E+03</rscale>
<asrwt>0</asrwt>
<pdfrwt beam="1">  1        2 0.10900305E+00 0.43999251E+03</pdfrwt>
<pdfrwt beam="2">  1       -2 0.90614111E-02 0.43999251E+03</pdfrwt>
<totfact> 0.32303853E+03</totfact>
</mgrwt>
</event>
<event>
 4    1  0.1390278E-004  0.4297741E+03  0.7818608E-02  0.1033931E+00
         -2   -1    0    0    0  501 -0.00000000000E+00  0.00000000000E+00  0.19477422762E+03  0.19477422764E+03  0.25500000000E-02 0. -1.
          2   -1    0    0  501    0  0.00000000000E+00 -0.00000000000E+00 -0.23707674113E+03  0.23707674114E+03  0.25500000000E-02 0.  1.
    5000001    1    1    2    0    0  0.20430380100E+02  0.16803637373E+03  0.16363002677E+02  0.21225072717E+03  0.12700000000E+03 0.  0.
   -5000001    1    1    2    0    0 -0.20430380100E+02 -0.16803637373E+03 -0.58665516183E+02  0.21960024161E+03  0.12700000000E+03 0.  0.
<mgrwt>
<rscale>  0 0.42977408E+03</rscale>
<asrwt>0</asrwt>
<pdfrwt beam="1">  1        2 0.33868106E-01 0.42977408E+03</pdfrwt>
<pdfrwt beam="2">  1       -2 0.27824890E-01 0.42977408E+03</pdfrwt>
<totfact> 0.18136834E+03</totfact>
</mgrwt>
</event>
<event>
 4    1  0.1390278E-004  0.4223151E+03  0.7818608E-02  0.1036315E+00
         -2   -1    0    0    0  501 -0.00000000000E+00  0.00000000000E+00  0.31374848542E+03  0.31374848543E+03  0.25500000000E-02 0. -1.
          2   -1    0    0  501    0  0.00000000000E+00 -0.00000000000E+00 -0.14211225221E+03  0.14211225223E+03  0.25500000000E-02 0.  1.
    5000001    1    1    2    0    0 -0.16383573854E+03  0.32766869026E+02  0.11096419756E+03  0.23739812567E+03  0.12700000000E+03 0.  0.
   -5000001    1    1    2    0    0  0.16383573854E+03 -0.32766869026E+02  0.60672035655E+02  0.21846261200E+03  0.12700000000E+03 0.  0.
<mgrwt>
<rscale>  0 0.42231507E+03</rscale>
<asrwt>0</asrwt>
<pdfrwt beam="1">  1        2 0.20301750E-01 0.42231507E+03</pdfrwt>
<pdfrwt beam="2">  1       -2 0.44821212E-01 0.42231507E+03</pdfrwt>
<totfact> 0.13137750E+03</totfact>
</mgrwt>
</event>
<event>
 4    1  0.1390278E-004  0.4331490E+03  0.7818608E-02  0.1032870E+00
          2   -1    0    0  501    0  0.00000000000E+00  0.00000000000E+00  0.11603034430E+03  0.11603034433E+03  0.25500000000E-02 0.  1.
         -2   -1    0    0    0  501 -0.00000000000E+00 -0.00000000000E+00 -0.40424356515E+03  0.40424356516E+03  0.25500000000E-02 0. -1.
    5000001    1    1    2    0    0 -0.12612458299E+03  0.72029910791E+02 -0.25930979116E+02  0.19467186279E+03  0.12700000000E+03 0.  0.
   -5000001    1    1    2    0    0  0.12612458299E+03 -0.72029910791E+02 -0.26228224173E+03  0.32560204669E+03  0.12700000000E+03 0.  0.
<mgrwt>
<rscale>  0 0.43314903E+03</rscale>
<asrwt>0</asrwt>
<pdfrwt beam="1">  1        2 0.16575764E-01 0.43314903E+03</pdfrwt>
<pdfrwt beam="2">  1       -2 0.57749080E-01 0.43314903E+03</pdfrwt>
<totfact> 0.99870549E+02</totfact>
</mgrwt>
</event>
<event>
 4    1  0.1390278E-004  0.4535071E+03  0.7818608E-02  0.1026681E+00
          2   -1    0    0  501    0  0.00000000000E+00  0.00000000000E+00  0.25163159860E+03  0.25163159861E+03  0.25500000000E-02 0.  1.
         -2   -1    0    0    0  501 -0.00000000000E+00 -0.00000000000E+00 -0.20433515853E+03  0.20433515854E+03  0.25500000000E-02 0. -1.
    5000001    1    1    2    0    0  0.12852921441E+02 -0.17912062581E+03  0.79072382068E+02  0.23373240637E+03  0.12700000000E+03 0.  0.
   -5000001    1    1    2    0    0 -0.12852921441E+02  0.17912062581E+03 -0.31775941993E+02  0.22223435079E+03  0.12700000000E+03 0.  0.
<mgrwt>
<rscale>  0 0.45350714E+03</rscale>
<asrwt>0</asrwt>
<pdfrwt beam="1">  1        2 0.35947371E-01 0.45350714E+03</pdfrwt>
<pdfrwt beam="2">  1       -2 0.29190737E-01 0.45350714E+03</pdfrwt>
<totfact> 0.15571846E+03</totfact>
</mgrwt>
</event>
<event>
 4    1  0.1390278E-004  0.5560000E+03  0.7818608E-02  0.1000115E+00
         -2   -1    0    0    0  501 -0.00000000000E+00  0.00000000000E+00  0.34447422103E+03  0.34447422104E+03  0.25500000000E-02 0. -1.
          2   -1    0    0  501    0  0.00000000000E+00 -0.00000000000E+00 -0.22435349245E+03  0.22435349246E+03  0.25500000000E-02 0.  1.
    5000001    1    1    2    0    0  0.19983172723E+03  0.87961862826E+02 -0.58743679013E+02  0.25932571863E+03  0.12700000000E+03 0.  0.
   -5000001    1    1    2    0    0 -0.19983172723E+03 -0.87961862826E+02  0.17886440760E+03  0.30950199487E+03  0.12700000000E+03 0.  0.
<mgrwt>
<rscale>  0 0.55599998E+03</rscale>
<asrwt>0</asrwt>
<pdfrwt beam="1">  1        2 0.32050499E-01 0.55599998E+03</pdfrwt>
<pdfrwt beam="2">  1       -2 0.49210602E-01 0.55599998E+03</pdfrwt>
<totfact> 0.64966535E+02</totfact>
</mgrwt>
</event>
<event>
 4    1  0.1390278E-004  0.4188175E+03  0.7818608E-02  0.1037452E+00
          2   -1    0    0  501    0  0.00000000000E+00  0.00000000000E+00  0.42109552323E+03  0.42109552323E+03  0.25500000000E-02 0.  1.
         -2   -1    0    0    0  501 -0.00000000000E+00 -0.00000000000E+00 -0.10413794270E+03  0.10413794273E+03  0.25500000000E-02 0. -1.
    5000001    1    1    2    0    0 -0.95273089414E+01  0.90310535078E+02  0.33349583940E+03  0.36823258582E+03  0.12700000000E+03 0.  0.
   -5000001    1    1    2    0    0  0.95273089414E+01 -0.90310535078E+02 -0.16538258872E+02  0.15700088015E+03  0.12700000000E+03 0.  0.
<mgrwt>
<rscale>  0 0.41881749E+03</rscale>
<asrwt>0</asrwt>
<pdfrwt beam="1">  1        2 0.60156503E-01 0.41881749E+03</pdfrwt>
<pdfrwt beam="2">  1       -2 0.14876849E-01 0.41881749E+03</pdfrwt>
<totfact> 0.28621440E+03</totfact>
</mgrwt>
</event>
<event>
 4    1  0.1390278E-004  0.7154410E+03  0.7818608E-02  0.9691184E-01
          2   -1    0    0  501    0  0.00000000000E+00  0.00000000000E+00  0.16352859786E+04  0.16352859786E+04  0.25500000000E-02 0.  1.
         -2   -1    0    0    0  501 -0.00000000000E+00 -0.00000000000E+00 -0.78251735273E+02  0.78251735315E+02  0.25500000000E-02 0. -1.
    5000001    1    1    2    0    0 -0.11931522359E+03 -0.30738523092E+03  0.64488196096E+03  0.73533906896E+03  0.12700000000E+03 0.  0.
   -5000001    1    1    2    0    0  0.11931522359E+03  0.30738523092E+03  0.91215228237E+03  0.97819864496E+03  0.12700000000E+03 0.  0.
<mgrwt>
<rscale>  0 0.71544103E+03</rscale>
<asrwt>0</asrwt>
<pdfrwt beam="1">  1        2 0.23361229E+00 0.71544103E+03</pdfrwt>
<pdfrwt beam="2">  1       -2 0.11178819E-01 0.71544103E+03</pdfrwt>
<totfact> 0.71905452E+02</totfact>
</mgrwt>
</event>
<event>
 4    1  0.1390278E-004  0.3645613E+03  0.7818608E-02  0.1056792E+00
          2   -1    0    0  501    0  0.00000000000E+00  0.00000000000E+00  0.36960132963E+03  0.36960132964E+03  0.25500000000E-02 0.  1.
         -2   -1    0    0    0  501 -0.00000000000E+00 -0.00000000000E+00 -0.89897511325E+02  0.89897511361E+02  0.25500000000E-02 0. -1.
    5000001    1    1    2    0    0  0.11232949463E+03  0.35384542986E+02  0.21145482411E+03  0.27333518596E+03  0.12700000000E+03 0.  0.
   -5000001    1    1    2    0    0 -0.11232949463E+03 -0.35384542986E+02  0.68248994194E+02  0.18616365503E+03  0.12700000000E+03 0.  0.
<mgrwt>
<rscale>  0 0.36456132E+03</rscale>
<asrwt>0</asrwt>
<pdfrwt beam="1">  1        2 0.52800190E-01 0.36456132E+03</pdfrwt>
<pdfrwt beam="2">  1       -2 0.12842502E-01 0.36456132E+03</pdfrwt>
<totfact> 0.41988903E+03</totfact>
</mgrwt>
</event>
<event>
 4    1  0.1390278E-004  0.3113526E+03  0.7818608E-02  0.1079699E+00
          2   -1    0    0  501    0  0.00000000000E+00  0.00000000000E+00  0.85014900360E+03  0.85014900360E+03  0.25500000000E-02 0.  1.
         -2   -1    0    0    0  501 -0.00000000000E+00 -0.00000000000E+00 -0.28506888643E+02  0.28506888757E+02  0.25500000000E-02 0. -1.
    5000001    1    1    2    0    0 -0.13999719566E+02  0.76212874232E+02  0.28144537495E+03  0.31834712725E+03  0.12700000000E+03 0.  0.
   -5000001    1    1    2    0    0  0.13999719566E+02 -0.76212874232E+02  0.54019674001E+03  0.56030876511E+03  0.12700000000E+03 0.  0.
<mgrwt>
<rscale>  0 0.31135255E+03</rscale>
<asrwt>0</asrwt>
<pdfrwt beam="1">  1        2 0.12144983E+00 0.31135255E+03</pdfrwt>
<pdfrwt beam="2">  1       -2 0.40724135E-02 0.31135255E+03</pdfrwt>
<totfact> 0.96713499E+03</totfact>
</mgrwt>
</event>
<event>
 4    1  0.1390278E-004  0.3047523E+03  0.7818608E-02  0.1082889E+00
         -2   -1    0    0    0  501 -0.00000000000E+00  0.00000000000E+00  0.12247640952E+03  0.12247640954E+03  0.25500000000E-02 0. -1.
          2   -1    0    0  501    0  0.00000000000E+00 -0.00000000000E+00 -0.18957516825E+03  0.18957516826E+03  0.25500000000E-02 0.  1.
    5000001    1    1    2    0    0 -0.65348445076E+02 -0.13693693957E+02 -0.86076694633E+02  0.16732045269E+03  0.12700000000E+03 0.  0.
   -5000001    1    1    2    0    0  0.65348445076E+02  0.13693693957E+02  0.18977935905E+02  0.14473112512E+03  0.12700000000E+03 0.  0.
<mgrwt>
<rscale>  0 0.30475227E+03</rscale>
<asrwt>0</asrwt>
<pdfrwt beam="1">  1        2 0.27082167E-01 0.30475227E+03</pdfrwt>
<pdfrwt beam="2">  1       -2 0.17496630E-01 0.30475227E+03</pdfrwt>
<totfact> 0.51834691E+03</totfact>
</mgrwt>
</event>
<event>
 4    1  0.1390278E-004  0.3959303E+03  0.7818608E-02  0.1045198E+00
         -2   -1    0    0    0  501 -0.00000000000E+00  0.00000000000E+00  0.12347882774E+03  0.12347882776E+03  0.25500000000E-02 0. -1.
          2   -1    0    0  501    0  0.00000000000E+00 -0.00000000000E+00 -0.31738390457E+03  0.31738390458E+03  0.25500000000E-02 0.  1.
    5000001    1    1    2    0    0 -0.14720824633E+03 -0.20482807830E+02 -0.62248572171E+02  0.20516748754E+03  0.12700000000E+03 0.  0.
   -5000001    1    1    2    0    0  0.14720824633E+03  0.20482807830E+02 -0.13165650466E+03  0.23569524481E+03  0.12700000000E+03 0.  0.
<mgrwt>
<rscale>  0 0.39593026E+03</rscale>
<asrwt>0</asrwt>
<pdfrwt beam="1">  1        2 0.45340557E-01 0.39593026E+03</pdfrwt>
<pdfrwt beam="2">  1       -2 0.17639833E-01 0.39593026E+03</pdfrwt>
<totfact> 0.29252358E+03</totfact>
</mgrwt>
</event>
<event>
 4    1  0.1390278E-004  0.3592808E+03  0.7818608E-02  0.1058869E+00
          2   -1    0    0  501    0  0.00000000000E+00  0.00000000000E+00  0.16798352429E+03  0.16798352431E+03  0.25500000000E-02 0.  1.
         -2   -1    0    0    0  501 -0.00000000000E+00 -0.00000000000E+00 -0.19210622388E+03  0.19210622390E+03  0.25500000000E-02 0. -1.
    5000001    1    1    2    0    0 -0.27836778907E+02 -0.12122971780E+03  0.13884185987E+02  0.17830676196E+03  0.12700000000E+03 0.  0.
   -5000001    1    1    2    0    0  0.27836778907E+02  0.12122971780E+03 -0.38006885582E+02  0.18178298625E+03  0.12700000000E+03 0.  0.
<mgrwt>
<rscale>  0 0.35928084E+03</rscale>
<asrwt>0</asrwt>
<pdfrwt beam="1">  1        2 0.23997646E-01 0.35928084E+03</pdfrwt>
<pdfrwt beam="2">  1       -2 0.27443746E-01 0.35928084E+03</pdfrwt>
<totfact> 0.27238128E+03</totfact>
</mgrwt>
</event>
<event>
 4    1  0.1390278E-004  0.2965782E+03  0.7818608E-02  0.1086964E+00
         -2   -1    0    0    0  501 -0.00000000000E+00  0.00000000000E+00  0.16657018303E+02  0.16657018499E+02  0.25500000000E-02 0. -1.
          2   -1    0    0  501    0  0.00000000000E+00 -0.00000000000E+00 -0.13201433875E+04  0.13201433875E+04  0.25500000000E-02 0.  1.
    5000001    1    1    2    0    0 -0.73550481059E+02  0.42153715639E+01 -0.74555913095E+03  0.75987818785E+03  0.12700000000E+03 0.  0.
   -5000001    1    1    2    0    0  0.73550481059E+02 -0.42153715639E+01 -0.55792723820E+03  0.57692221811E+03  0.12700000000E+03 0.  0.
<mgrwt>
<rscale>  0 0.29657817E+03</rscale>
<asrwt>0</asrwt>
<pdfrwt beam="1">  1        2 0.18859185E+00 0.29657817E+03</pdfrwt>
<pdfrwt beam="2">  1       -2 0.23795749E-02 0.29657817E+03</pdfrwt>
<totfact> 0.11568066E+04</totfact>
</mgrwt>
</event>
<event>
 4    1  0.1390278E-004  0.4432014E+03  0.7818608E-02  0.1029769E+00
         -2   -1    0    0    0  501 -0.00000000000E+00  0.00000000000E+00  0.79960750067E+02  0.79960750107E+02  0.25500000000E-02 0. -1.
          2   -1    0    0  501    0  0.00000000000E+00 -0.00000000000E+00 -0.61413712437E+03  0.61413712438E+03  0.25500000000E-02 0.  1.
    5000001    1    1    2    0    0  0.63623445957E+02  0.32942280956E+02 -0.52841929309E+03  0.54816884813E+03  0.12700000000E+03 0.  0.
   -5000001    1    1    2    0    0 -0.63623445957E+02 -0.32942280956E+02 -0.57570812198E+01  0.14592902636E+03  0.12700000000E+03 0.  0.
<mgrwt>
<rscale>  0 0.44320138E+03</rscale>
<asrwt>0</asrwt>
<pdfrwt beam="1">  1        2 0.87733872E-01 0.44320138E+03</pdfrwt>
<pdfrwt beam="2">  1       -2 0.11422965E-01 0.44320138E+03</pdfrwt>
<totfact> 0.28884116E+03</totfact>
</mgrwt>
</event>
<event>
 4    1  0.1390278E-004  0.4111311E+03  0.7818608E-02  0.1039992E+00
          2   -1    0    0  501    0  0.00000000000E+00  0.00000000000E+00  0.70781792618E+02  0.70781792664E+02  0.25500000000E-02 0.  1.
         -2   -1    0    0    0  501 -0.00000000000E+00 -0.00000000000E+00 -0.59700653269E+03  0.59700653270E+03  0.25500000000E-02 0. -1.
    5000001    1    1    2    0    0 -0.52228789008E+02  0.14734852917E+03 -0.32986096178E+03  0.38649280660E+03  0.12700000000E+03 0.  0.
   -5000001    1    1    2    0    0  0.52228789008E+02 -0.14734852917E+03 -0.19636377829E+03  0.28129551876E+03  0.12700000000E+03 0.  0.
<mgrwt>
<rscale>  0 0.41113109E+03</rscale>
<asrwt>0</asrwt>
<pdfrwt beam="1">  1        2 0.10111685E-01 0.41113109E+03</pdfrwt>
<pdfrwt beam="2">  1       -2 0.85286645E-01 0.41113109E+03</pdfrwt>
<totfact> 0.78614922E+02</totfact>
</mgrwt>
</event>
<event>
 4    1  0.1390278E-004  0.6188186E+03  0.7818608E-02  0.9867115E-01
         -2   -1    0    0    0  501 -0.00000000000E+00  0.00000000000E+00  0.17451017159E+03  0.17451017161E+03  0.25500000000E-02 0. -1.
          2   -1    0    0  501    0  0.00000000000E+00 -0.00000000000E+00 -0.54858762873E+03  0.54858762874E+03  0.25500000000E-02 0.  1.
    5000001    1    1    2    0    0 -0.65631295293E+02 -0.27422818069E+03 -0.19852107250E+03  0.36748901784E+03  0.12700000000E+03 0.  0.
   -5000001    1    1    2    0    0  0.65631295293E+02  0.27422818069E+03 -0.17555638464E+03  0.35560878250E+03  0.12700000000E+03 0.  0.
<mgrwt>
<rscale>  0 0.61881862E+03</rscale>
<asrwt>0</asrwt>
<pdfrwt beam="1">  1        2 0.78369660E-01 0.61881862E+03</pdfrwt>
<pdfrwt beam="2">  1       -2 0.24930025E-01 0.61881862E+03</pdfrwt>
<totfact> 0.87121998E+02</totfact>
</mgrwt>
</event>
<event>
 4    1  0.1390278E-004  0.4777998E+03  0.7818608E-02  0.1019742E+00
         -2   -1    0    0    0  501 -0.00000000000E+00  0.00000000000E+00  0.12299260362E+03  0.12299260365E+03  0.25500000000E-02 0. -1.
          2   -1    0    0  501    0  0.00000000000E+00 -0.00000000000E+00 -0.46403743121E+03  0.46403743122E+03  0.25500000000E-02 0.  1.
    5000001    1    1    2    0    0 -0.19779599173E+03  0.42471891023E+02 -0.17559643937E+03  0.29646285668E+03  0.12700000000E+03 0.  0.
   -5000001    1    1    2    0    0  0.19779599173E+03 -0.42471891023E+02 -0.16544838822E+03  0.29056717818E+03  0.12700000000E+03 0.  0.
<mgrwt>
<rscale>  0 0.47779984E+03</rscale>
<asrwt>0</asrwt>
<pdfrwt beam="1">  1        2 0.66291060E-01 0.47779984E+03</pdfrwt>
<pdfrwt beam="2">  1       -2 0.17570372E-01 0.47779984E+03</pdfrwt>
<totfact> 0.19437619E+03</totfact>
</mgrwt>
</event>
<event>
 4    1  0.1390278E-004  0.3104742E+03  0.7818608E-02  0.1080119E+00
          2   -1    0    0  501    0  0.00000000000E+00  0.00000000000E+00  0.43652219935E+04  0.43652219935E+04  0.25500000000E-02 0. -1.
         -2   -1    0    0    0  501 -0.00000000000E+00 -0.00000000000E+00 -0.55205802297E+01  0.55205808187E+01  0.25500000000E-02 0.  1.
    5000001    1    1    2    0    0  0.70834183359E+02  0.38978787659E+02  0.27127095617E+04  0.27168840596E+04  0.12700000000E+03 0.  0.
   -5000001    1    1    2    0    0 -0.70834183359E+02 -0.38978787659E+02  0.16469918516E+04  0.16538585147E+04  0.12700000000E+03 0.  0.
<mgrwt>
<rscale>  0 0.31047421E+03</rscale>
<asrwt>0</asrwt>
<pdfrwt beam="1">  1        2 0.62360055E+00 0.31047421E+03</pdfrwt>
<pdfrwt beam="2">  1       -2 0.78865764E-03 0.31047421E+03</pdfrwt>
<totfact> 0.12145770E+03</totfact>
</mgrwt>
</event>
<event>
 4    1  0.1390278E-004  0.5302353E+03  0.7818608E-02  0.1006175E+00
         -2   -1    0    0    0  501 -0.00000000000E+00  0.00000000000E+00  0.40318300948E+03  0.40318300949E+03  0.25500000000E-02 0. -1.
          2   -1    0    0  501    0  0.00000000000E+00 -0.00000000000E+00 -0.17433118176E+03  0.17433118177E+03  0.25500000000E-02 0.  1.
    5000001    1    1    2    0    0  0.16891020010E+03  0.11159548517E+03  0.23943901391E+03  0.33829609722E+03  0.12700000000E+03 0.  0.
   -5000001    1    1    2    0    0 -0.16891020010E+03 -0.11159548517E+03 -0.10587186189E+02  0.23921809405E+03  0.12700000000E+03 0.  0.
<mgrwt>
<rscale>  0 0.53023531E+03</rscale>
<asrwt>0</asrwt>
<pdfrwt beam="1">  1        2 0.24904455E-01 0.53023531E+03</pdfrwt>
<pdfrwt beam="2">  1       -2 0.57597571E-01 0.53023531E+03</pdfrwt>
<totfact> 0.62558866E+02</totfact>
</mgrwt>
</event>
<event>
 4    1  0.1390278E-004  0.2792337E+03  0.7818608E-02  0.1096108E+00
         -2   -1    0    0    0  501 -0.00000000000E+00  0.00000000000E+00  0.83925646966E+01  0.83925650840E+01  0.25500000000E-02 0. -1.
          2   -1    0    0  501    0  0.00000000000E+00 -0.00000000000E+00 -0.23226354027E+04  0.23226354027E+04  0.25500000000E-02 0.  1.
    5000001    1    1    2    0    0 -0.52673570417E+02  0.35649391882E+01 -0.95665692321E+03  0.96649298111E+03  0.12700000000E+03 0.  0.
   -5000001    1    1    2    0    0  0.52673570417E+02 -0.35649391882E+01 -0.13575859148E+04  0.13645349867E+04  0.12700000000E+03 0.  0.
<mgrwt>
<rscale>  0 0.27923373E+03</rscale>
<asrwt>0</asrwt>
<pdfrwt beam="1">  1        2 0.33180465E+00 0.27923373E+03</pdfrwt>
<pdfrwt beam="2">  1       -2 0.11989393E-02 0.27923373E+03</pdfrwt>
<totfact> 0.10052853E+04</totfact>
</mgrwt>
</event>
<event>
 4    1  0.1390278E-004  0.4320693E+03  0.7818608E-02  0.1033208E+00
         -2   -1    0    0    0  501 -0.00000000000E+00  0.00000000000E+00  0.27749154625E+03  0.27749154626E+03  0.25500000000E-02 0. -1.
          2   -1    0    0  501    0  0.00000000000E+00 -0.00000000000E+00 -0.16818881733E+03  0.16818881735E+03  0.25500000000E-02 0.  1.
    5000001    1    1    2    0    0 -0.15860774014E+03 -0.86595007273E+01 -0.20517977915E+02  0.20440496472E+03  0.12700000000E+03 0.  0.
   -5000001    1    1    2    0    0  0.15860774014E+03  0.86595007273E+01  0.12982070684E+03  0.24127539889E+03  0.12700000000E+03 0.  0.
<mgrwt>
<rscale>  0 0.43206932E+03</rscale>
<asrwt>0</asrwt>
<pdfrwt beam="1">  1        2 0.24026974E-01 0.43206932E+03</pdfrwt>
<pdfrwt beam="2">  1       -2 0.39641649E-01 0.43206932E+03</pdfrwt>
<totfact> 0.13755758E+03</totfact>
</mgrwt>
</event>
<event>
 4    1  0.1390278E-004  0.4769675E+03  0.7818608E-02  0.1019972E+00
          2   -1    0    0  501    0  0.00000000000E+00  0.00000000000E+00  0.66061090104E+03  0.66061090104E+03  0.25500000000E-02 0.  1.
         -2   -1    0    0    0  501 -0.00000000000E+00 -0.00000000000E+00 -0.86093796168E+02  0.86093796206E+02  0.25500000000E-02 0. -1.
    5000001    1    1    2    0    0  0.18480570855E+03  0.62245661453E+02  0.20564334765E+03  0.31055733563E+03  0.12700000000E+03 0.  0.
   -5000001    1    1    2    0    0 -0.18480570855E+03 -0.62245661453E+02  0.36887375722E+03  0.43614736162E+03  0.12700000000E+03 0.  0.
<mgrwt>
<rscale>  0 0.47696751E+03</rscale>
<asrwt>0</asrwt>
<pdfrwt beam="1">  1        2 0.94372993E-01 0.47696751E+03</pdfrwt>
<pdfrwt beam="2">  1       -2 0.12299113E-01 0.47696751E+03</pdfrwt>
<totfact> 0.23498561E+03</totfact>
</mgrwt>
</event>
<event>
 4    1  0.1390278E-004  0.2662546E+03  0.7818608E-02  0.1103442E+00
         -2   -1    0    0    0  501 -0.00000000000E+00  0.00000000000E+00  0.11566934361E+02  0.11566934642E+02  0.25500000000E-02 0. -1.
          2   -1    0    0  501    0  0.00000000000E+00 -0.00000000000E+00 -0.15322023805E+04  0.15322023805E+04  0.25500000000E-02 0.  1.
    5000001    1    1    2    0    0 -0.14737246994E+02  0.12440072258E+02 -0.55763784665E+03  0.57224200289E+03  0.12700000000E+03 0.  0.
   -5000001    1    1    2    0    0  0.14737246994E+02 -0.12440072258E+02 -0.96299759947E+03  0.97152731225E+03  0.12700000000E+03 0.  0.
<mgrwt>
<rscale>  0 0.26625465E+03</rscale>
<asrwt>0</asrwt>
<pdfrwt beam="1">  1        2 0.21888592E+00 0.26625465E+03</pdfrwt>
<pdfrwt beam="2">  1       -2 0.16524202E-02 0.26625465E+03</pdfrwt>
<totfact> 0.15357961E+04</totfact>
</mgrwt>
</event>
<event>
 4    1  0.1390278E-004  0.5325638E+03  0.7818608E-02  0.1005612E+00
         -2   -1    0    0    0  501 -0.00000000000E+00  0.00000000000E+00  0.10785707094E+03  0.10785707097E+03  0.25500000000E-02 0. -1.
          2   -1    0    0  501    0  0.00000000000E+00 -0.00000000000E+00 -0.65740751948E+03  0.65740751948E+03  0.25500000000E-02 0.  1.
    5000001    1    1    2    0    0 -0.19123106612E+03  0.13486266590E+03 -0.26838281124E+03  0.37804178694E+03  0.12700000000E+03 0.  0.
   -5000001    1    1    2    0    0  0.19123106612E+03 -0.13486266590E+03 -0.28116763729E+03  0.38722280352E+03  0.12700000000E+03 0.  0.
<mgrwt>
<rscale>  0 0.53256380E+03</rscale>
<asrwt>0</asrwt>
<pdfrwt beam="1">  1        2 0.93915358E-01 0.53256380E+03</pdfrwt>
<pdfrwt beam="2">  1       -2 0.15408153E-01 0.53256380E+03</pdfrwt>
<totfact> 0.16255206E+03</totfact>
</mgrwt>
</event>
<event>
 4    1  0.1390278E-004  0.5147807E+03  0.7818608E-02  0.1009991E+00
         -2   -1    0    0    0  501 -0.00000000000E+00  0.00000000000E+00  0.56750671658E+02  0.56750671715E+02  0.25500000000E-02 0. -1.
          2   -1    0    0  501    0  0.00000000000E+00 -0.00000000000E+00 -0.11673834579E+04  0.11673834579E+04  0.25500000000E-02 0.  1.
    5000001    1    1    2    0    0 -0.18250230616E+03 -0.20528277501E+02 -0.25085894705E+03  0.33583882033E+03  0.12700000000E+03 0.  0.
   -5000001    1    1    2    0    0  0.18250230616E+03  0.20528277501E+02 -0.85977383919E+03  0.88829530928E+03  0.12700000000E+03 0.  0.
<mgrwt>
<rscale>  0 0.51478071E+03</rscale>
<asrwt>0</asrwt>
<pdfrwt beam="1">  1        2 0.16676905E+00 0.51478071E+03</pdfrwt>
<pdfrwt beam="2">  1       -2 0.81072395E-02 0.51478071E+03</pdfrwt>
<totfact> 0.21620702E+03</totfact>
</mgrwt>
</event>
<event>
 4    1  0.1390278E-004  0.5559766E+03  0.7818608E-02  0.1000120E+00
          2   -1    0    0  501    0  0.00000000000E+00  0.00000000000E+00  0.60175859328E+03  0.60175859329E+03  0.25500000000E-02 0.  1.
         -2   -1    0    0    0  501 -0.00000000000E+00 -0.00000000000E+00 -0.12841943502E+03  0.12841943505E+03  0.25500000000E-02 0. -1.
    5000001    1    1    2    0    0 -0.19923015778E+03 -0.59568168367E+02  0.60921969271E+02  0.25116032487E+03  0.12700000000E+03 0.  0.
   -5000001    1    1    2    0    0  0.19923015778E+03  0.59568168367E+02  0.41241718899E+03  0.47901770346E+03  0.12700000000E+03 0.  0.
<mgrwt>
<rscale>  0 0.55597661E+03</rscale>
<asrwt>0</asrwt>
<pdfrwt beam="1">  1        2 0.85965513E-01 0.55597661E+03</pdfrwt>
<pdfrwt beam="2">  1       -2 0.18345634E-01 0.55597661E+03</pdfrwt>
<totfact> 0.13414580E+03</totfact>
</mgrwt>
</event>
<event>
 4    1  0.1390278E-004  0.5921659E+03  0.7818608E-02  0.9921794E-01
          2   -1    0    0  501    0  0.00000000000E+00  0.00000000000E+00  0.50165275697E+02  0.50165275762E+02  0.25500000000E-02 0.  1.
         -2   -1    0    0    0  501 -0.00000000000E+00 -0.00000000000E+00 -0.17475256503E+04  0.17475256503E+04  0.25500000000E-02 0. -1.
    5000001    1    1    2    0    0 -0.11295620379E+03 -0.23978109321E+03 -0.73998241312E+03  0.79621419754E+03  0.12700000000E+03 0.  0.
   -5000001    1    1    2    0    0  0.11295620379E+03  0.23978109321E+03 -0.95737796144E+03  0.10014767285E+04  0.12700000000E+03 0.  0.
<mgrwt>
<rscale>  0 0.59216588E+03</rscale>
<asrwt>0</asrwt>
<pdfrwt beam="1">  1        2 0.71664690E-02 0.59216588E+03</pdfrwt>
<pdfrwt beam="2">  1       -2 0.24964648E+00 0.59216588E+03</pdfrwt>
<totfact> 0.68722126E+01</totfact>
</mgrwt>
</event>
<event>
 4    1  0.1390278E-004  0.3357147E+03  0.7818608E-02  0.1068636E+00
         -2   -1    0    0    0  501 -0.00000000000E+00  0.00000000000E+00  0.67414422925E+02  0.67414422973E+02  0.25500000000E-02 0. -1.
          2   -1    0    0  501    0  0.00000000000E+00 -0.00000000000E+00 -0.41795337095E+03  0.41795337096E+03  0.25500000000E-02 0.  1.
    5000001    1    1    2    0    0 -0.38444375915E+02 -0.86859709481E+02 -0.95758354273E+02  0.18525992978E+03  0.12700000000E+03 0.  0.
   -5000001    1    1    2    0    0  0.38444375915E+02  0.86859709481E+02 -0.25478059375E+03  0.30010786415E+03  0.12700000000E+03 0.  0.
<mgrwt>
<rscale>  0 0.33571467E+03</rscale>
<asrwt>0</asrwt>
<pdfrwt beam="1">  1        2 0.59707623E-01 0.33571467E+03</pdfrwt>
<pdfrwt beam="2">  1       -2 0.96306321E-02 0.33571467E+03</pdfrwt>
<totfact> 0.58307487E+03</totfact>
</mgrwt>
</event>
<event>
 4    1  0.1390278E-004  0.3864789E+03  0.7818608E-02  0.1048565E+00
          2   -1    0    0  501    0  0.00000000000E+00  0.00000000000E+00  0.12288748651E+03  0.12288748654E+03  0.25500000000E-02 0.  1.
         -2   -1    0    0    0  501 -0.00000000000E+00 -0.00000000000E+00 -0.30386731373E+03  0.30386731374E+03  0.25500000000E-02 0. -1.
    5000001    1    1    2    0    0  0.14713493140E+02 -0.31210793024E+02 -0.24673455446E+03  0.27963823209E+03  0.12700000000E+03 0.  0.
   -5000001    1    1    2    0    0 -0.14713493140E+02  0.31210793024E+02  0.65754727236E+02  0.14711656819E+03  0.12700000000E+03 0.  0.
<mgrwt>
<rscale>  0 0.38647893E+03</rscale>
<asrwt>0</asrwt>
<pdfrwt beam="1">  1        2 0.17555355E-01 0.38647893E+03</pdfrwt>
<pdfrwt beam="2">  1       -2 0.43409616E-01 0.38647893E+03</pdfrwt>
<totfact> 0.16557320E+03</totfact>
</mgrwt>
</event>
<event>
 4    1  0.1390278E-004  0.3719909E+03  0.7818608E-02  0.1053934E+00
          2   -1    0    0  501    0  0.00000000000E+00  0.00000000000E+00  0.50721498887E+03  0.50721498888E+03  0.25500000000E-02 0.  1.
         -2   -1    0    0    0  501 -0.00000000000E+00 -0.00000000000E+00 -0.68204441366E+02  0.68204441414E+02  0.25500000000E-02 0. -1.
    5000001    1    1    2    0    0  0.17843215184E+02  0.10256703906E+03  0.84414016583E+02  0.18464318028E+03  0.12700000000E+03 0.  0.
   -5000001    1    1    2    0    0 -0.17843215184E+02 -0.10256703906E+03  0.35459653092E+03  0.39077625001E+03  0.12700000000E+03 0.  0.
<mgrwt>
<rscale>  0 0.37199094E+03</rscale>
<asrwt>0</asrwt>
<pdfrwt beam="1">  1        2 0.72459284E-01 0.37199094E+03</pdfrwt>
<pdfrwt beam="2">  1       -2 0.97434917E-02 0.37199094E+03</pdfrwt>
<totfact> 0.46326520E+03</totfact>
</mgrwt>
</event>
<event>
 4    1  0.1390278E-004  0.3101282E+03  0.7818608E-02  0.1080284E+00
          2   -1    0    0  501    0  0.00000000000E+00  0.00000000000E+00  0.20139053644E+04  0.20139053644E+04  0.25500000000E-02 0.  1.
         -2   -1    0    0    0  501 -0.00000000000E+00 -0.00000000000E+00 -0.11939427660E+02  0.11939427932E+02  0.25500000000E-02 0. -1.
    5000001    1    1    2    0    0 -0.70812138009E+02 -0.51845110808E+02  0.10964533924E+04  0.11072674998E+04  0.12700000000E+03 0.  0.
   -5000001    1    1    2    0    0  0.70812138009E+02  0.51845110808E+02  0.90551254431E+03  0.91857729251E+03  0.12700000000E+03 0.  0.
<mgrwt>
<rscale>  0 0.31012822E+03</rscale>
<asrwt>0</asrwt>
<pdfrwt beam="1">  1        2 0.28770071E+00 0.31012822E+03</pdfrwt>
<pdfrwt beam="2">  1       -2 0.17056329E-02 0.31012822E+03</pdfrwt>
<totfact> 0.85118424E+03</totfact>
</mgrwt>
</event>
<event>
 4    1  0.1390278E-004  0.4245992E+03  0.7818608E-02  0.1035580E+00
          2   -1    0    0  501    0  0.00000000000E+00  0.00000000000E+00  0.12961687203E+04  0.12961687203E+04  0.25500000000E-02 0.  1.
         -2   -1    0    0    0  501 -0.00000000000E+00 -0.00000000000E+00 -0.34772579294E+02  0.34772579387E+02  0.25500000000E-02 0. -1.
    5000001    1    1    2    0    0 -0.49688117965E+02  0.15568511545E+03  0.77890003117E+03  0.80592867104E+03  0.12700000000E+03 0.  0.
   -5000001    1    1    2    0    0  0.49688117965E+02 -0.15568511545E+03  0.48249610980E+03  0.52501262862E+03  0.12700000000E+03 0.  0.
<mgrwt>
<rscale>  0 0.42459924E+03</rscale>
<asrwt>0</asrwt>
<pdfrwt beam="1">  1        2 0.18516693E+00 0.42459924E+03</pdfrwt>
<pdfrwt beam="2">  1       -2 0.49675122E-02 0.42459924E+03</pdfrwt>
<totfact> 0.39492215E+03</totfact>
</mgrwt>
</event>
<event>
 4    1  0.1390278E-004  0.5247140E+03  0.7818608E-02  0.1007522E+00
         -2   -1    0    0    0  501 -0.00000000000E+00  0.00000000000E+00  0.14235324073E+04  0.14235324073E+04  0.25500000000E-02 0. -1.
          2   -1    0    0  501    0  0.00000000000E+00 -0.00000000000E+00 -0.48352387414E+02  0.48352387482E+02  0.25500000000E-02 0.  1.
    5000001    1    1    2    0    0 -0.66060869111E+00 -0.18403794664E+03  0.10725334865E+04  0.10955945791E+04  0.12700000000E+03 0.  0.
   -5000001    1    1    2    0    0  0.66060869111E+00  0.18403794664E+03  0.30264653338E+03  0.37629021563E+03  0.12700000000E+03 0.  0.
<mgrwt>
<rscale>  0 0.52471398E+03</rscale>
<asrwt>0</asrwt>
<pdfrwt beam="1">  1        2 0.69074822E-02 0.52471398E+03</pdfrwt>
<pdfrwt beam="2">  1       -2 0.20336182E+00 0.52471398E+03</pdfrwt>
<totfact> 0.13971588E+02</totfact>
</mgrwt>
</event>
<event>
 4    1  0.1390278E-004  0.3028077E+03  0.7818608E-02  0.1083845E+00
         -2   -1    0    0    0  501 -0.00000000000E+00  0.00000000000E+00  0.33328080810E+02  0.33328080907E+02  0.25500000000E-02 0. -1.
          2   -1    0    0  501    0  0.00000000000E+00 -0.00000000000E+00 -0.68780214240E+03  0.68780214241E+03  0.25500000000E-02 0.  1.
    5000001    1    1    2    0    0 -0.17620602412E+02  0.35979577985E+02 -0.49878801546E+03  0.51625914038E+03  0.12700000000E+03 0.  0.
   -5000001    1    1    2    0    0  0.17620602412E+02 -0.35979577985E+02 -0.15568604613E+03  0.20487108293E+03  0.12700000000E+03 0.  0.
<mgrwt>
<rscale>  0 0.30280770E+03</rscale>
<asrwt>0</asrwt>
<pdfrwt beam="1">  1        2 0.98257441E-01 0.30280770E+03</pdfrwt>
<pdfrwt beam="2">  1       -2 0.47611548E-02 0.30280770E+03</pdfrwt>
<totfact> 0.98885578E+03</totfact>
</mgrwt>
</event>
<event>
 4    1  0.1390278E-004  0.3518907E+03  0.7818608E-02  0.1061842E+00
          2   -1    0    0  501    0  0.00000000000E+00  0.00000000000E+00  0.10211655653E+04  0.10211655653E+04  0.25500000000E-02 0.  1.
         -2   -1    0    0    0  501 -0.00000000000E+00 -0.00000000000E+00 -0.30315127599E+02  0.30315127706E+02  0.25500000000E-02 0. -1.
    5000001    1    1    2    0    0 -0.92924852179E+02  0.19387287170E+02  0.26752844217E+03  0.31098450512E+03  0.12700000000E+03 0.  0.
   -5000001    1    1    2    0    0  0.92924852179E+02 -0.19387287170E+02  0.72332199557E+03  0.74049618792E+03  0.12700000000E+03 0.  0.
<mgrwt>
<rscale>  0 0.35189069E+03</rscale>
<asrwt>0</asrwt>
<pdfrwt beam="1">  1        2 0.14588078E+00 0.35189069E+03</pdfrwt>
<pdfrwt beam="2">  1       -2 0.43307330E-02 0.35189069E+03</pdfrwt>
<totfact> 0.69298519E+03</totfact>
</mgrwt>
</event>
<event>
 4    1  0.1390278E-004  0.3123096E+03  0.7818608E-02  0.1079244E+00
         -2   -1    0    0    0  501 -0.00000000000E+00  0.00000000000E+00  0.41603053473E+02  0.41603053551E+02  0.25500000000E-02 0. -1.
          2   -1    0    0  501    0  0.00000000000E+00 -0.00000000000E+00 -0.58611858739E+03  0.58611858739E+03  0.25500000000E-02 0.  1.
    5000001    1    1    2    0    0 -0.28669483269E+02 -0.85171343592E+02 -0.29916581303E+03  0.33720213630E+03  0.12700000000E+03 0.  0.
   -5000001    1    1    2    0    0  0.28669483269E+02  0.85171343592E+02 -0.24534972088E+03  0.29051950464E+03  0.12700000000E+03 0.  0.
<mgrwt>
<rscale>  0 0.31230961E+03</rscale>
<asrwt>0</asrwt>
<pdfrwt beam="1">  1        2 0.83731222E-01 0.31230961E+03</pdfrwt>
<pdfrwt beam="2">  1       -2 0.59432937E-02 0.31230961E+03</pdfrwt>
<totfact> 0.84935105E+03</totfact>
</mgrwt>
</event>
<event>
 4    1  0.1390278E-004  0.5676461E+03  0.7818608E-02  0.9974901E-01
         -2   -1    0    0    0  501 -0.00000000000E+00  0.00000000000E+00  0.62050554735E+02  0.62050554787E+02  0.25500000000E-02 0. -1.
          2   -1    0    0  501    0  0.00000000000E+00 -0.00000000000E+00 -0.12982240936E+04  0.12982240936E+04  0.25500000000E-02 0.  1.
    5000001    1    1    2    0    0  0.20938537836E+03  0.14155743312E+03 -0.56210347964E+03  0.62926152383E+03  0.12700000000E+03 0.  0.
   -5000001    1    1    2    0    0 -0.20938537836E+03 -0.14155743312E+03 -0.67407005921E+03  0.73101312455E+03  0.12700000000E+03 0.  0.
<mgrwt>
<rscale>  0 0.56764611E+03</rscale>
<asrwt>0</asrwt>
<pdfrwt beam="1">  1        2 0.18546057E+00 0.56764611E+03</pdfrwt>
<pdfrwt beam="2">  1       -2 0.88643657E-02 0.56764611E+03</pdfrwt>
<totfact> 0.15857415E+03</totfact>
</mgrwt>
</event>
<event>
 4    1  0.1390278E-004  0.4092121E+03  0.7818608E-02  0.1040636E+00
          2   -1    0    0  501    0  0.00000000000E+00  0.00000000000E+00  0.32297365705E+04  0.32297365705E+04  0.25500000000E-02 0.  1.
         -2   -1    0    0    0  501 -0.00000000000E+00 -0.00000000000E+00 -0.12961934415E+02  0.12961934666E+02  0.25500000000E-02 0. -1.
    5000001    1    1    2    0    0  0.76897812836E+02  0.90111612218E+02  0.75120266688E+03  0.77101739475E+03  0.12700000000E+03 0.  0.
   -5000001    1    1    2    0    0 -0.76897812836E+02 -0.90111612218E+02  0.24655719692E+04  0.24716811104E+04  0.12700000000E+03 0.  0.
<mgrwt>
<rscale>  0 0.40921209E+03</rscale>
<asrwt>0</asrwt>
<pdfrwt beam="1">  1        2 0.46139062E+00 0.40921209E+03</pdfrwt>
<pdfrwt beam="2">  1       -2 0.18517062E-02 0.40921209E+03</pdfrwt>
<totfact> 0.17779434E+03</totfact>
</mgrwt>
</event>
<event>
 4    1  0.1390278E-004  0.3387391E+03  0.7818608E-02  0.1067334E+00
          2   -1    0    0  501    0  0.00000000000E+00  0.00000000000E+00  0.20335304475E+04  0.20335304475E+04  0.25500000000E-02 0.  1.
         -2   -1    0    0    0  501 -0.00000000000E+00 -0.00000000000E+00 -0.14106523162E+02  0.14106523393E+02  0.25500000000E-02 0. -1.
    5000001    1    1    2    0    0  0.34526003522E+02 -0.10468467842E+03  0.11315305707E+04  0.11439586352E+04  0.12700000000E+03 0.  0.
   -5000001    1    1    2    0    0 -0.34526003522E+02  0.10468467842E+03  0.88789335373E+03  0.90367833570E+03  0.12700000000E+03 0.  0.
<mgrwt>
<rscale>  0 0.33873910E+03</rscale>
<asrwt>0</asrwt>
<pdfrwt beam="1">  1        2 0.29050431E+00 0.33873910E+03</pdfrwt>
<pdfrwt beam="2">  1       -2 0.20152179E-02 0.33873910E+03</pdfrwt>
<totfact> 0.65118609E+03</totfact>
</mgrwt>
</event>
<event>
 4    1  0.1390278E-004  0.4692202E+03  0.7818608E-02  0.1022141E+00
         -2   -1    0    0    0  501 -0.00000000000E+00  0.00000000000E+00  0.19067549178E+02  0.19067549349E+02  0.25500000000E-02 0. -1.
          2   -1    0    0  501    0  0.00000000000E+00 -0.00000000000E+00 -0.28866796820E+04  0.28866796820E+04  0.25500000000E-02 0.  1.
    5000001    1    1    2    0    0  0.10480490983E+03  0.14825692632E+03 -0.19114375293E+04  0.19242366315E+04  0.12700000000E+03 0.  0.
   -5000001    1    1    2    0    0 -0.10480490983E+03 -0.14825692632E+03 -0.95617460343E+03  0.98151059982E+03  0.12700000000E+03 0.  0.
<mgrwt>
<rscale>  0 0.46922023E+03</rscale>
<asrwt>0</asrwt>
<pdfrwt beam="1">  1        2 0.41238253E+00 0.46922023E+03</pdfrwt>
<pdfrwt beam="2">  1       -2 0.27239374E-02 0.46922023E+03</pdfrwt>
<totfact> 0.15254111E+03</totfact>
</mgrwt>
</event>
<event>
 4    1  0.1390278E-004  0.4364905E+03  0.7818608E-02  0.1031829E+00
          2   -1    0    0  501    0  0.00000000000E+00  0.00000000000E+00  0.14355843719E+04  0.14355843719E+04  0.25500000000E-02 0.  1.
         -2   -1    0    0    0  501 -0.00000000000E+00 -0.00000000000E+00 -0.33178815724E+02  0.33178815822E+02  0.25500000000E-02 0. -1.
    5000001    1    1    2    0    0  0.90447216603E+02 -0.13185571825E+03  0.96044188339E+03  0.98190846864E+03  0.12700000000E+03 0.  0.
   -5000001    1    1    2    0    0 -0.90447216603E+02  0.13185571825E+03  0.44196367278E+03  0.48685471907E+03  0.12700000000E+03 0.  0.
<mgrwt>
<rscale>  0 0.43649050E+03</rscale>
<asrwt>0</asrwt>
<pdfrwt beam="1">  1        2 0.20508347E+00 0.43649050E+03</pdfrwt>
<pdfrwt beam="2">  1       -2 0.47398312E-02 0.43649050E+03</pdfrwt>
<totfact> 0.35823217E+03</totfact>
</mgrwt>
</event>
<event>
 4    1  0.1390278E-004  0.2699302E+03  0.7818608E-02  0.1101320E+00
          2   -1    0    0  501    0  0.00000000000E+00  0.00000000000E+00  0.59565236420E+03  0.59565236421E+03  0.25500000000E-02 0.  1.
         -2   -1    0    0    0  501 -0.00000000000E+00 -0.00000000000E+00 -0.30580877406E+02  0.30580877512E+02  0.25500000000E-02 0. -1.
    5000001    1    1    2    0    0 -0.25586467188E+02 -0.37817161716E+02  0.28561960831E+03  0.31589929673E+03  0.12700000000E+03 0.  0.
   -5000001    1    1    2    0    0  0.25586467188E+02  0.37817161716E+02  0.27945187848E+03  0.31033394499E+03  0.12700000000E+03 0.  0.
<mgrwt>
<rscale>  0 0.26993015E+03</rscale>
<asrwt>0</asrwt>
<pdfrwt beam="1">  1        2 0.85093184E-01 0.26993015E+03</pdfrwt>
<pdfrwt beam="2">  1       -2 0.43686974E-02 0.26993015E+03</pdfrwt>
<totfact> 0.13253032E+04</totfact>
</mgrwt>
</event>
<event>
 4    1  0.1390278E-004  0.3870198E+03  0.7818608E-02  0.1048369E+00
          2   -1    0    0  501    0  0.00000000000E+00  0.00000000000E+00  0.87114060817E+03  0.87114060817E+03  0.25500000000E-02 0.  1.
         -2   -1    0    0    0  501 -0.00000000000E+00 -0.00000000000E+00 -0.42985116048E+02  0.42985116123E+02  0.25500000000E-02 0. -1.
    5000001    1    1    2    0    0 -0.94914622595E+02 -0.52141046951E+02  0.64537641379E+03  0.66660872320E+03  0.12700000000E+03 0.  0.
   -5000001    1    1    2    0    0  0.94914622595E+02  0.52141046951E+02  0.18277907833E+03  0.24751700110E+03  0.12700000000E+03 0.  0.
<mgrwt>
<rscale>  0 0.38701979E+03</rscale>
<asrwt>0</asrwt>
<pdfrwt beam="1">  1        2 0.12444866E+00 0.38701979E+03</pdfrwt>
<pdfrwt beam="2">  1       -2 0.61407310E-02 0.38701979E+03</pdfrwt>
<totfact> 0.50260420E+03</totfact>
</mgrwt>
</event>
<event>
 4    1  0.1390278E-004  0.4579342E+03  0.7818608E-02  0.1025382E+00
          2   -1    0    0  501    0  0.00000000000E+00  0.00000000000E+00  0.10213465765E+04  0.10213465765E+04  0.25500000000E-02 0.  1.
         -2   -1    0    0    0  501 -0.00000000000E+00 -0.00000000000E+00 -0.51330206905E+02  0.51330206969E+02  0.25500000000E-02 0. -1.
    5000001    1    1    2    0    0 -0.10227539118E+03  0.10614346356E+03  0.76775594360E+03  0.79202580730E+03  0.12700000000E+03 0.  0.
   -5000001    1    1    2    0    0  0.10227539118E+03 -0.10614346356E+03  0.20226042596E+03  0.28065097614E+03  0.12700000000E+03 0.  0.
<mgrwt>
<rscale>  0 0.45793419E+03</rscale>
<asrwt>0</asrwt>
<pdfrwt beam="1">  1        2 0.14590665E+00 0.45793419E+03</pdfrwt>
<pdfrwt beam="2">  1       -2 0.73328867E-02 0.45793419E+03</pdfrwt>
<totfact> 0.30792325E+03</totfact>
</mgrwt>
</event>
<event>
 4    1  0.1390278E-004  0.4534464E+03  0.7818608E-02  0.1026699E+00
         -2   -1    0    0    0  501 -0.00000000000E+00  0.00000000000E+00  0.32546096427E+02  0.32546096527E+02  0.25500000000E-02 0. -1.
          2   -1    0    0  501    0  0.00000000000E+00 -0.00000000000E+00 -0.15794030583E+04  0.15794030583E+04  0.25500000000E-02 0.  1.
    5000001    1    1    2    0    0 -0.17078162044E+03  0.75114576330E+02 -0.85015493384E+03  0.87960273590E+03  0.12700000000E+03 0.  0.
   -5000001    1    1    2    0    0  0.17078162044E+03 -0.75114576330E+02 -0.69670202798E+03  0.73234641888E+03  0.12700000000E+03 0.  0.
<mgrwt>
<rscale>  0 0.45344638E+03</rscale>
<asrwt>0</asrwt>
<pdfrwt beam="1">  1        2 0.22562896E+00 0.45344638E+03</pdfrwt>
<pdfrwt beam="2">  1       -2 0.46494433E-02 0.45344638E+03</pdfrwt>
<totfact> 0.31110075E+03</totfact>
</mgrwt>
</event>
<event>
 4    1  0.1390278E-004  0.5218068E+03  0.7818608E-02  0.1008239E+00
          2   -1    0    0  501    0  0.00000000000E+00  0.00000000000E+00  0.23574783942E+04  0.23574783942E+04  0.25500000000E-02 0.  1.
         -2   -1    0    0    0  501 -0.00000000000E+00 -0.00000000000E+00 -0.28874319315E+02  0.28874319428E+02  0.25500000000E-02 0. -1.
    5000001    1    1    2    0    0  0.20206675521E+03 -0.66309583472E+02  0.15390197631E+04  0.15588260858E+04  0.12700000000E+03 0.  0.
   -5000001    1    1    2    0    0 -0.20206675521E+03  0.66309583472E+02  0.78958431175E+03  0.82752662784E+03  0.12700000000E+03 0.  0.
<mgrwt>
<rscale>  0 0.52180680E+03</rscale>
<asrwt>0</asrwt>
<pdfrwt beam="1">  1        2 0.33678270E+00 0.52180680E+03</pdfrwt>
<pdfrwt beam="2">  1       -2 0.41249019E-02 0.52180680E+03</pdfrwt>
<totfact> 0.15181583E+03</totfact>
</mgrwt>
</event>
<event>
 4    1  0.1390278E-004  0.6754705E+03  0.7818608E-02  0.9760125E-01
         -2   -1    0    0    0  501 -0.00000000000E+00  0.00000000000E+00  0.16506692589E+03  0.16506692590E+03  0.25500000000E-02 0. -1.
          2   -1    0    0  501    0  0.00000000000E+00 -0.00000000000E+00 -0.69102336370E+03  0.69102336371E+03  0.25500000000E-02 0.  1.
    5000001    1    1    2    0    0 -0.24020986711E+02  0.26143725173E+03 -0.47112100527E+02  0.29542341548E+03  0.12700000000E+03 0.  0.
   -5000001    1    1    2    0    0  0.24020986711E+02 -0.26143725173E+03 -0.47884433729E+03  0.56066687414E+03  0.12700000000E+03 0.  0.
<mgrwt>
<rscale>  0 0.67547051E+03</rscale>
<asrwt>0</asrwt>
<pdfrwt beam="1">  1        2 0.98717622E-01 0.67547051E+03</pdfrwt>
<pdfrwt beam="2">  1       -2 0.23580990E-01 0.67547051E+03</pdfrwt>
<totfact> 0.73083844E+02</totfact>
</mgrwt>
</event>
<event>
 4    1  0.1390278E-004  0.3640077E+03  0.7818608E-02  0.1057008E+00
          2   -1    0    0  501    0  0.00000000000E+00  0.00000000000E+00  0.19284285262E+03  0.19284285264E+03  0.25500000000E-02 0.  1.
         -2   -1    0    0    0  501 -0.00000000000E+00 -0.00000000000E+00 -0.17177406150E+03  0.17177406152E+03  0.25500000000E-02 0. -1.
    5000001    1    1    2    0    0  0.78086517130E+00  0.11660879138E+03 -0.47857079058E+02  0.17893440137E+03  0.12700000000E+03 0.  0.
   -5000001    1    1    2    0    0 -0.78086517130E+00 -0.11660879138E+03  0.68925870182E+02  0.18568251279E+03  0.12700000000E+03 0.  0.
<mgrwt>
<rscale>  0 0.36400769E+03</rscale>
<asrwt>0</asrwt>
<pdfrwt beam="1">  1        2 0.27548979E-01 0.36400769E+03</pdfrwt>
<pdfrwt beam="2">  1       -2 0.24539152E-01 0.36400769E+03</pdfrwt>
<totfact> 0.28489118E+03</totfact>
</mgrwt>
</event>
<event>
 4    1  0.1390278E-004  0.2994270E+03  0.7818608E-02  0.1085527E+00
          2   -1    0    0  501    0  0.00000000000E+00  0.00000000000E+00  0.51466428268E+03  0.51466428269E+03  0.25500000000E-02 0.  1.
         -2   -1    0    0    0  501 -0.00000000000E+00 -0.00000000000E+00 -0.43550989345E+02  0.43550989420E+02  0.25500000000E-02 0. -1.
    5000001    1    1    2    0    0 -0.27198317606E+02  0.35440814173E+01  0.37422723017E+03  0.39614054172E+03  0.12700000000E+03 0.  0.
   -5000001    1    1    2    0    0  0.27198317606E+02 -0.35440814173E+01  0.96886063162E+02  0.16207473038E+03  0.12700000000E+03 0.  0.
<mgrwt>
<rscale>  0 0.29942704E+03</rscale>
<asrwt>0</asrwt>
<pdfrwt beam="1">  1        2 0.73523464E-01 0.29942704E+03</pdfrwt>
<pdfrwt beam="2">  1       -2 0.62215703E-02 0.29942704E+03</pdfrwt>
<totfact> 0.91521507E+03</totfact>
</mgrwt>
</event>
<event>
 4    1  0.1390278E-004  0.3520077E+03  0.7818608E-02  0.1061794E+00
          2   -1    0    0  501    0  0.00000000000E+00  0.00000000000E+00  0.20388112995E+03  0.20388112996E+03  0.25500000000E-02 0.  1.
         -2   -1    0    0    0  501 -0.00000000000E+00 -0.00000000000E+00 -0.15193831130E+03  0.15193831132E+03  0.25500000000E-02 0. -1.
    5000001    1    1    2    0    0  0.60353767682E+02 -0.60931732712E+02  0.11347146217E+03  0.19068305130E+03  0.12700000000E+03 0.  0.
   -5000001    1    1    2    0    0 -0.60353767682E+02  0.60931732712E+02 -0.61528643521E+02  0.16513638999E+03  0.12700000000E+03 0.  0.
<mgrwt>
<rscale>  0 0.35200770E+03</rscale>
<asrwt>0</asrwt>
<pdfrwt beam="1">  1        2 0.29125876E-01 0.35200770E+03</pdfrwt>
<pdfrwt beam="2">  1       -2 0.21705473E-01 0.35200770E+03</pdfrwt>
<totfact> 0.33190352E+03</totfact>
</mgrwt>
</event>
<event>
 4    1  0.1390278E-004  0.2737674E+03  0.7818608E-02  0.1099143E+00
         -2   -1    0    0    0  501 -0.00000000000E+00  0.00000000000E+00  0.12262288261E+03  0.12262288263E+03  0.25500000000E-02 0. -1.
          2   -1    0    0  501    0  0.00000000000E+00 -0.00000000000E+00 -0.15280301710E+03  0.15280301712E+03  0.25500000000E-02 0.  1.
    5000001    1    1    2    0    0 -0.36038769615E+02  0.32101118484E+02  0.17105518687E+01  0.13587200120E+03  0.12700000000E+03 0.  0.
   -5000001    1    1    2    0    0  0.36038769615E+02 -0.32101118484E+02 -0.31890686359E+02  0.13955389855E+03  0.12700000000E+03 0.  0.
<mgrwt>
<rscale>  0 0.27376739E+03</rscale>
<asrwt>0</asrwt>
<pdfrwt beam="1">  1        2 0.21829003E-01 0.27376739E+03</pdfrwt>
<pdfrwt beam="2">  1       -2 0.17517555E-01 0.27376739E+03</pdfrwt>
<totfact> 0.65649665E+03</totfact>
</mgrwt>
</event>
<event>
 4    1  0.1390278E-004  0.3211293E+03  0.7818608E-02  0.1075131E+00
          2   -1    0    0  501    0  0.00000000000E+00  0.00000000000E+00  0.94031741027E+01  0.94031744485E+01  0.25500000000E-02 0.  1.
         -2   -1    0    0    0  501 -0.00000000000E+00 -0.00000000000E+00 -0.27417341725E+04  0.27417341725E+04  0.25500000000E-02 0. -1.
    5000001    1    1    2    0    0 -0.91565651229E+02  0.68103704735E+01 -0.16655665018E+04  0.16729230172E+04  0.12700000000E+03 0.  0.
   -5000001    1    1    2    0    0  0.91565651229E+02 -0.68103704735E+01 -0.10667644966E+04  0.10782143297E+04  0.12700000000E+03 0.  0.
<mgrwt>
<rscale>  0 0.32112928E+03</rscale>
<asrwt>0</asrwt>
<pdfrwt beam="1">  1        2 0.13433124E-02 0.32112928E+03</pdfrwt>
<pdfrwt beam="2">  1       -2 0.39167580E+00 0.32112928E+03</pdfrwt>
<totfact> 0.96731836E+01</totfact>
</mgrwt>
</event>
<event>
 4    1  0.1390278E-004  0.4322253E+03  0.7818608E-02  0.1033159E+00
         -2   -1    0    0    0  501 -0.00000000000E+00  0.00000000000E+00  0.43956975549E+02  0.43956975623E+02  0.25500000000E-02 0. -1.
          2   -1    0    0  501    0  0.00000000000E+00 -0.00000000000E+00 -0.10625091354E+04  0.10625091354E+04  0.25500000000E-02 0.  1.
    5000001    1    1    2    0    0 -0.16896150945E+03  0.44986327521E+02 -0.50420329418E+03  0.54856332652E+03  0.12700000000E+03 0.  0.
   -5000001    1    1    2    0    0  0.16896150945E+03 -0.44986327521E+02 -0.51434886564E+03  0.55790278448E+03  0.12700000000E+03 0.  0.
<mgrwt>
<rscale>  0 0.43222535E+03</rscale>
<asrwt>0</asrwt>
<pdfrwt beam="1">  1        2 0.15178700E+00 0.43222535E+03</pdfrwt>
<pdfrwt beam="2">  1       -2 0.62795686E-02 0.43222535E+03</pdfrwt>
<totfact> 0.37109112E+03</totfact>
</mgrwt>
</event>
<event>
 4    1  0.1390278E-004  0.3782061E+03  0.7818608E-02  0.1051599E+00
         -2   -1    0    0    0  501 -0.00000000000E+00  0.00000000000E+00  0.18027119563E+02  0.18027119743E+02  0.25500000000E-02 0. -1.
          2   -1    0    0  501    0  0.00000000000E+00 -0.00000000000E+00 -0.19836764007E+04  0.19836764007E+04  0.25500000000E-02 0.  1.
    5000001    1    1    2    0    0 -0.24283227543E+02  0.13665273833E+03 -0.10842617555E+04  0.11004618124E+04  0.12700000000E+03 0.  0.
   -5000001    1    1    2    0    0  0.24283227543E+02 -0.13665273833E+03 -0.88138752562E+03  0.90124170807E+03  0.12700000000E+03 0.  0.
<mgrwt>
<rscale>  0 0.37820614E+03</rscale>
<asrwt>0</asrwt>
<pdfrwt beam="1">  1        2 0.28338220E+00 0.37820614E+03</pdfrwt>
<pdfrwt beam="2">  1       -2 0.25753041E-02 0.37820614E+03</pdfrwt>
<totfact> 0.47838948E+03</totfact>
</mgrwt>
</event>
<event>
 4    1  0.1390278E-004  0.3166539E+03  0.7818608E-02  0.1077200E+00
          2   -1    0    0  501    0  0.00000000000E+00  0.00000000000E+00  0.41166667111E+03  0.41166667111E+03  0.25500000000E-02 0.  1.
         -2   -1    0    0    0  501 -0.00000000000E+00 -0.00000000000E+00 -0.60892526528E+02  0.60892526581E+02  0.25500000000E-02 0. -1.
    5000001    1    1    2    0    0 -0.31739441229E+02  0.88127012104E+02  0.19453700100E+03  0.25049432559E+03  0.12700000000E+03 0.  0.
   -5000001    1    1    2    0    0  0.31739441229E+02 -0.88127012104E+02  0.15623714358E+03  0.22206487211E+03  0.12700000000E+03 0.  0.
<mgrwt>
<rscale>  0 0.31665390E+03</rscale>
<asrwt>0</asrwt>
<pdfrwt beam="1">  1        2 0.58809521E-01 0.31665390E+03</pdfrwt>
<pdfrwt beam="2">  1       -2 0.86989329E-02 0.31665390E+03</pdfrwt>
<totfact> 0.69526925E+03</totfact>
</mgrwt>
</event>
<event>
 4    1  0.1390278E-004  0.4005859E+03  0.7818608E-02  0.1043577E+00
          2   -1    0    0  501    0  0.00000000000E+00  0.00000000000E+00  0.52462504713E+03  0.52462504714E+03  0.25500000000E-02 0.  1.
         -2   -1    0    0    0  501 -0.00000000000E+00 -0.00000000000E+00 -0.76468441692E+02  0.76468441734E+02  0.25500000000E-02 0. -1.
    5000001    1    1    2    0    0  0.11654022280E+03 -0.90598843763E+02  0.29443545154E+03  0.35300284581E+03  0.12700000000E+03 0.  0.
   -5000001    1    1    2    0    0 -0.11654022280E+03  0.90598843763E+02  0.15372115390E+03  0.24809064307E+03  0.12700000000E+03 0.  0.
<mgrwt>
<rscale>  0 0.40058587E+03</rscale>
<asrwt>0</asrwt>
<pdfrwt beam="1">  1        2 0.74946439E-01 0.40058587E+03</pdfrwt>
<pdfrwt beam="2">  1       -2 0.10924063E-01 0.40058587E+03</pdfrwt>
<totfact> 0.37164411E+03</totfact>
</mgrwt>
</event>
<event>
 4    1  0.1390278E-004  0.5295793E+03  0.7818608E-02  0.1006334E+00
          2   -1    0    0  501    0  0.00000000000E+00  0.00000000000E+00  0.43672697666E+03  0.43672697667E+03  0.25500000000E-02 0.  1.
         -2   -1    0    0    0  501 -0.00000000000E+00 -0.00000000000E+00 -0.16054324755E+03  0.16054324757E+03  0.25500000000E-02 0. -1.
    5000001    1    1    2    0    0  0.22254469788E+03 -0.54046011047E+02  0.93869618236E+02  0.27818630285E+03  0.12700000000E+03 0.  0.
   -5000001    1    1    2    0    0 -0.22254469788E+03  0.54046011047E+02  0.18231411087E+03  0.31908392139E+03  0.12700000000E+03 0.  0.
<mgrwt>
<rscale>  0 0.52957933E+03</rscale>
<asrwt>0</asrwt>
<pdfrwt beam="1">  1        2 0.62389568E-01 0.52957933E+03</pdfrwt>
<pdfrwt beam="2">  1       -2 0.22934750E-01 0.52957933E+03</pdfrwt>
<totfact> 0.13100884E+03</totfact>
</mgrwt>
</event>
<event>
 4    1  0.1390278E-004  0.3471181E+03  0.7818608E-02  0.1063804E+00
         -2   -1    0    0    0  501 -0.00000000000E+00  0.00000000000E+00  0.41286259543E+03  0.41286259544E+03  0.25500000000E-02 0. -1.
          2   -1    0    0  501    0  0.00000000000E+00 -0.00000000000E+00 -0.72960706043E+02  0.72960706087E+02  0.25500000000E-02 0.  1.
    5000001    1    1    2    0    0 -0.11732642442E+03 -0.81917042926E+01  0.18771817380E+03  0.25534233229E+03  0.12700000000E+03 0.  0.
   -5000001    1    1    2    0    0  0.11732642442E+03  0.81917042926E+01  0.15218371559E+03  0.23048096923E+03  0.12700000000E+03 0.  0.
<mgrwt>
<rscale>  0 0.34711812E+03</rscale>
<asrwt>0</asrwt>
<pdfrwt beam="1">  1        2 0.10422958E-01 0.34711812E+03</pdfrwt>
<pdfrwt beam="2">  1       -2 0.58980372E-01 0.34711812E+03</pdfrwt>
<totfact> 0.16767075E+03</totfact>
</mgrwt>
</event>
<event>
 4    1  0.1390278E-004  0.3180510E+03  0.7818608E-02  0.1076550E+00
         -2   -1    0    0    0  501 -0.00000000000E+00  0.00000000000E+00  0.80687503998E+02  0.80687504039E+02  0.25500000000E-02 0. -1.
          2   -1    0    0  501    0  0.00000000000E+00 -0.00000000000E+00 -0.31342035514E+03  0.31342035515E+03  0.25500000000E-02 0.  1.
    5000001    1    1    2    0    0  0.36154479400E+02 -0.51645228538E+02 -0.27133872872E+02  0.14435935393E+03  0.12700000000E+03 0.  0.
   -5000001    1    1    2    0    0 -0.36154479400E+02  0.51645228538E+02 -0.20559897827E+03  0.24974850526E+03  0.12700000000E+03 0.  0.
<mgrwt>
<rscale>  0 0.31805098E+03</rscale>
<asrwt>0</asrwt>
<pdfrwt beam="1">  1        2 0.44774336E-01 0.31805098E+03</pdfrwt>
<pdfrwt beam="2">  1       -2 0.11526786E-01 0.31805098E+03</pdfrwt>
<totfact> 0.59632527E+03</totfact>
</mgrwt>
</event>
<event>
 4    1  0.1390278E-004  0.5043484E+03  0.7818608E-02  0.1012650E+00
         -2   -1    0    0    0  501 -0.00000000000E+00  0.00000000000E+00  0.66609792632E+02  0.66609792681E+02  0.25500000000E-02 0. -1.
          2   -1    0    0  501    0  0.00000000000E+00 -0.00000000000E+00 -0.95469189358E+03  0.95469189359E+03  0.25500000000E-02 0.  1.
    5000001    1    1    2    0    0 -0.11023521712E+03  0.14650523591E+03 -0.20575148048E+03  0.30344399642E+03  0.12700000000E+03 0.  0.
   -5000001    1    1    2    0    0  0.11023521712E+03 -0.14650523591E+03 -0.68233062047E+03  0.71785768985E+03  0.12700000000E+03 0.  0.
<mgrwt>
<rscale>  0 0.50434841E+03</rscale>
<asrwt>0</asrwt>
<pdfrwt beam="1">  1        2 0.13638455E+00 0.50434841E+03</pdfrwt>
<pdfrwt beam="2">  1       -2 0.95156853E-02 0.50434841E+03</pdfrwt>
<totfact> 0.22337898E+03</totfact>
</mgrwt>
</event>
<event>
 4    1  0.1390278E-004  0.6230706E+03  0.7818608E-02  0.9858665E-01
         -2   -1    0    0    0  501 -0.00000000000E+00  0.00000000000E+00  0.88426338382E+02  0.88426338419E+02  0.25500000000E-02 0. -1.
          2   -1    0    0  501    0  0.00000000000E+00 -0.00000000000E+00 -0.10975718372E+04  0.10975718372E+04  0.25500000000E-02 0.  1.
    5000001    1    1    2    0    0  0.17202881468E+03 -0.22295543612E+03 -0.42790698236E+03  0.52776550202E+03  0.12700000000E+03 0.  0.
   -5000001    1    1    2    0    0 -0.17202881468E+03  0.22295543612E+03 -0.58123851645E+03  0.65823267359E+03  0.12700000000E+03 0.  0.
<mgrwt>
<rscale>  0 0.62307065E+03</rscale>
<asrwt>0</asrwt>
<pdfrwt beam="1">  1        2 0.15679597E+00 0.62307065E+03</pdfrwt>
<pdfrwt beam="2">  1       -2 0.12632335E-01 0.62307065E+03</pdfrwt>
<totfact> 0.11527574E+03</totfact>
</mgrwt>
</event>
<event>
 4    1  0.1390278E-004  0.3236753E+03  0.7818608E-02  0.1073970E+00
          2   -1    0    0  501    0  0.00000000000E+00  0.00000000000E+00  0.14692775593E+04  0.14692775593E+04  0.25500000000E-02 0.  1.
         -2   -1    0    0    0  501 -0.00000000000E+00 -0.00000000000E+00 -0.17826052624E+02  0.17826052806E+02  0.25500000000E-02 0. -1.
    5000001    1    1    2    0    0  0.35160124584E+02 -0.81343270737E+02  0.94168634602E+03  0.95433491832E+03  0.12700000000E+03 0.  0.
   -5000001    1    1    2    0    0 -0.35160124584E+02  0.81343270737E+02  0.50976516061E+03  0.53276869374E+03  0.12700000000E+03 0.  0.
<mgrwt>
<rscale>  0 0.32367526E+03</rscale>
<asrwt>0</asrwt>
<pdfrwt beam="1">  1        2 0.20989683E+00 0.32367526E+03</pdfrwt>
<pdfrwt beam="2">  1       -2 0.25465786E-02 0.32367526E+03</pdfrwt>
<totfact> 0.87729519E+03</totfact>
</mgrwt>
</event>
<event>
 4    1  0.1390278E-004  0.3397555E+03  0.7818608E-02  0.1066900E+00
          2   -1    0    0  501    0  0.00000000000E+00  0.00000000000E+00  0.36531300801E+03  0.36531300802E+03  0.25500000000E-02 0.  1.
         -2   -1    0    0    0  501 -0.00000000000E+00 -0.00000000000E+00 -0.78996508059E+02  0.78996508100E+02  0.25500000000E-02 0. -1.
    5000001    1    1    2    0    0 -0.88207112072E+02  0.17341079614E+02  0.53999580709E+02  0.16470021973E+03  0.12700000000E+03 0.  0.
   -5000001    1    1    2    0    0  0.88207112072E+02 -0.17341079614E+02  0.23231691925E+03  0.27960929639E+03  0.12700000000E+03 0.  0.
<mgrwt>
<rscale>  0 0.33975551E+03</rscale>
<asrwt>0</asrwt>
<pdfrwt beam="1">  1        2 0.52187573E-01 0.33975551E+03</pdfrwt>
<pdfrwt beam="2">  1       -2 0.11285215E-01 0.33975551E+03</pdfrwt>
<totfact> 0.52378178E+03</totfact>
</mgrwt>
</event>
<event>
 4    1  0.1390278E-004  0.4048939E+03  0.7818608E-02  0.1042098E+00
         -2   -1    0    0    0  501 -0.00000000000E+00  0.00000000000E+00  0.11381144012E+03  0.11381144015E+03  0.25500000000E-02 0. -1.
          2   -1    0    0  501    0  0.00000000000E+00 -0.00000000000E+00 -0.36011118123E+03  0.36011118124E+03  0.25500000000E-02 0.  1.
    5000001    1    1    2    0    0 -0.14573384312E+02 -0.15698197790E+03 -0.12340425308E+03  0.23709351445E+03  0.12700000000E+03 0.  0.
   -5000001    1    1    2    0    0  0.14573384312E+02  0.15698197790E+03 -0.12289548802E+03  0.23682910694E+03  0.12700000000E+03 0.  0.
<mgrwt>
<rscale>  0 0.40489392E+03</rscale>
<asrwt>0</asrwt>
<pdfrwt beam="1">  1        2 0.51444454E-01 0.40489392E+03</pdfrwt>
<pdfrwt beam="2">  1       -2 0.16258777E-01 0.40489392E+03</pdfrwt>
<totfact> 0.29266377E+03</totfact>
</mgrwt>
</event>
<event>
 4    1  0.1390278E-004  0.2759183E+03  0.7818608E-02  0.1097939E+00
         -2   -1    0    0    0  501 -0.00000000000E+00  0.00000000000E+00  0.83674706773E+01  0.83674710658E+01  0.25500000000E-02 0.  1.
          2   -1    0    0  501    0  0.00000000000E+00 -0.00000000000E+00 -0.22746097451E+04  0.22746097451E+04  0.25500000000E-02 0. -1.
    5000001    1    1    2    0    0 -0.52527598759E+02 -0.87991252980E+01 -0.10653150853E+04  0.10741795959E+04  0.12700000000E+03 0.  0.
   -5000001    1    1    2    0    0  0.52527598759E+02  0.87991252980E+01 -0.12009271891E+04  0.12087976203E+04  0.12700000000E+03 0.  0.
<mgrwt>
<rscale>  0 0.27591833E+03</rscale>
<asrwt>0</asrwt>
<pdfrwt beam="1">  1        2 0.32494385E+00 0.27591833E+03</pdfrwt>
<pdfrwt beam="2">  1       -2 0.11953544E-02 0.27591833E+03</pdfrwt>
<totfact> 0.10660059E+04</totfact>
</mgrwt>
</event>
<event>
 4    1  0.1390278E-004  0.3668569E+03  0.7818608E-02  0.1055901E+00
         -2   -1    0    0    0  501 -0.00000000000E+00  0.00000000000E+00  0.78789897214E+02  0.78789897255E+02  0.25500000000E-02 0. -1.
          2   -1    0    0  501    0  0.00000000000E+00 -0.00000000000E+00 -0.42703435320E+03  0.42703435320E+03  0.25500000000E-02 0.  1.
    5000001    1    1    2    0    0 -0.15266256924E+02  0.11241732423E+03 -0.26810659896E+03  0.31761747716E+03  0.12700000000E+03 0.  0.
   -5000001    1    1    2    0    0  0.15266256924E+02 -0.11241732423E+03 -0.80137857017E+02  0.18820677330E+03  0.12700000000E+03 0.  0.
<mgrwt>
<rscale>  0 0.36685688E+03</rscale>
<asrwt>0</asrwt>
<pdfrwt beam="1">  1        2 0.61004906E-01 0.36685688E+03</pdfrwt>
<pdfrwt beam="2">  1       -2 0.11255700E-01 0.36685688E+03</pdfrwt>
<totfact> 0.44442579E+03</totfact>
</mgrwt>
</event>
<event>
 4    1  0.1390278E-004  0.4112300E+03  0.7818608E-02  0.1039959E+00
         -2   -1    0    0    0  501 -0.00000000000E+00  0.00000000000E+00  0.74984177574E+02  0.74984177617E+02  0.25500000000E-02 0. -1.
          2   -1    0    0  501    0  0.00000000000E+00 -0.00000000000E+00 -0.56381933216E+03  0.56381933217E+03  0.25500000000E-02 0.  1.
    5000001    1    1    2    0    0 -0.13139437632E+03 -0.46879099195E+02 -0.11739568583E+03  0.22220008803E+03  0.12700000000E+03 0.  0.
   -5000001    1    1    2    0    0  0.13139437632E+03  0.46879099195E+02 -0.37143946875E+03  0.41660342175E+03  0.12700000000E+03 0.  0.
<mgrwt>
<rscale>  0 0.41123000E+03</rscale>
<asrwt>0</asrwt>
<pdfrwt beam="1">  1        2 0.80545617E-01 0.41123000E+03</pdfrwt>
<pdfrwt beam="2">  1       -2 0.10712026E-01 0.41123000E+03</pdfrwt>
<totfact> 0.35356273E+03</totfact>
</mgrwt>
</event>
<event>
 4    1  0.1390278E-004  0.2834116E+03  0.7818608E-02  0.1093840E+00
          2   -1    0    0  501    0  0.00000000000E+00  0.00000000000E+00  0.25479672599E+04  0.25479672599E+04  0.25500000000E-02 0.  1.
         -2   -1    0    0    0  501 -0.00000000000E+00 -0.00000000000E+00 -0.78810013789E+01  0.78810017915E+01  0.25500000000E-02 0. -1.
    5000001    1    1    2    0    0  0.62445047886E+02  0.66294501805E+01  0.12958678140E+04  0.13035895539E+04  0.12700000000E+03 0.  0.
   -5000001    1    1    2    0    0 -0.62445047886E+02 -0.66294501805E+01  0.12442184446E+04  0.12522587079E+04  0.12700000000E+03 0.  0.
<mgrwt>
<rscale>  0 0.28341160E+03</rscale>
<asrwt>0</asrwt>
<pdfrwt beam="1">  1        2 0.36399576E+00 0.28341160E+03</pdfrwt>
<pdfrwt beam="2">  1       -2 0.11258560E-02 0.28341160E+03</pdfrwt>
<totfact> 0.85138426E+03</totfact>
</mgrwt>
</event>
<event>
 4    1  0.1390278E-004  0.2900727E+03  0.7818608E-02  0.1090311E+00
         -2   -1    0    0    0  501 -0.00000000000E+00  0.00000000000E+00  0.17976283889E+02  0.17976284070E+02  0.25500000000E-02 0. -1.
          2   -1    0    0  501    0  0.00000000000E+00 -0.00000000000E+00 -0.11701832423E+04  0.11701832423E+04  0.25500000000E-02 0.  1.
    5000001    1    1    2    0    0 -0.26460484834E+02 -0.54553968699E+02 -0.71977317387E+03  0.73340215065E+03  0.12700000000E+03 0.  0.
   -5000001    1    1    2    0    0  0.26460484834E+02  0.54553968699E+02 -0.43243378450E+03  0.45475737568E+03  0.12700000000E+03 0.  0.
<mgrwt>
<rscale>  0 0.29007272E+03</rscale>
<asrwt>0</asrwt>
<pdfrwt beam="1">  1        2 0.16716899E+00 0.29007272E+03</pdfrwt>
<pdfrwt beam="2">  1       -2 0.25680413E-02 0.29007272E+03</pdfrwt>
<totfact> 0.12428723E+04</totfact>
</mgrwt>
</event>
<event>
 4    1  0.1390278E-004  0.3038828E+03  0.7818608E-02  0.1083316E+00
         -2   -1    0    0    0  501 -0.00000000000E+00  0.00000000000E+00  0.18672453090E+02  0.18672453264E+02  0.25500000000E-02 0. -1.
          2   -1    0    0  501    0  0.00000000000E+00 -0.00000000000E+00 -0.12363771113E+04  0.12363771113E+04  0.25500000000E-02 0.  1.
    5000001    1    1    2    0    0  0.49786956632E+02 -0.34979877406E+02 -0.37322756806E+03  0.39891120620E+03  0.12700000000E+03 0.  0.
   -5000001    1    1    2    0    0 -0.49786956632E+02  0.34979877406E+02 -0.84447709015E+03  0.85613835837E+03  0.12700000000E+03 0.  0.
<mgrwt>
<rscale>  0 0.30388283E+03</rscale>
<asrwt>0</asrwt>
<pdfrwt beam="1">  1        2 0.17662525E+00 0.30388283E+03</pdfrwt>
<pdfrwt beam="2">  1       -2 0.26674941E-02 0.30388283E+03</pdfrwt>
<totfact> 0.10826517E+04</totfact>
</mgrwt>
</event>
<event>
 4    1  0.1390278E-004  0.4492128E+03  0.7818608E-02  0.1027957E+00
          2   -1    0    0  501    0  0.00000000000E+00  0.00000000000E+00  0.97997771613E+03  0.97997771613E+03  0.25500000000E-02 0.  1.
         -2   -1    0    0    0  501 -0.00000000000E+00 -0.00000000000E+00 -0.51478753675E+02  0.51478753738E+02  0.25500000000E-02 0. -1.
    5000001    1    1    2    0    0  0.12698773525E+03  0.11176114871E+03  0.63764383650E+03  0.67181478213E+03  0.12700000000E+03 0.  0.
   -5000001    1    1    2    0    0 -0.12698773525E+03 -0.11176114871E+03  0.29085512595E+03  0.35964168774E+03  0.12700000000E+03 0.  0.
<mgrwt>
<rscale>  0 0.44921278E+03</rscale>
<asrwt>0</asrwt>
<pdfrwt beam="1">  1        2 0.13999681E+00 0.44921278E+03</pdfrwt>
<pdfrwt beam="2">  1       -2 0.73541082E-02 0.44921278E+03</pdfrwt>
<totfact> 0.32460828E+03</totfact>
</mgrwt>
</event>
<event>
 4    1  0.1390278E-004  0.4836565E+03  0.7818608E-02  0.1018135E+00
         -2   -1    0    0    0  501 -0.00000000000E+00  0.00000000000E+00  0.97966221052E+02  0.97966221085E+02  0.25500000000E-02 0. -1.
          2   -1    0    0  501    0  0.00000000000E+00 -0.00000000000E+00 -0.59694963243E+03  0.59694963243E+03  0.25500000000E-02 0.  1.
    5000001    1    1    2    0    0  0.11812757126E+03 -0.16834825920E+03 -0.26030498865E+03  0.35522239032E+03  0.12700000000E+03 0.  0.
   -5000001    1    1    2    0    0 -0.11812757126E+03  0.16834825920E+03 -0.23867842273E+03  0.33969346320E+03  0.12700000000E+03 0.  0.
<mgrwt>
<rscale>  0 0.48365649E+03</rscale>
<asrwt>0</asrwt>
<pdfrwt beam="1">  1        2 0.85278517E-01 0.48365649E+03</pdfrwt>
<pdfrwt beam="2">  1       -2 0.13995175E-01 0.48365649E+03</pdfrwt>
<totfact> 0.21394886E+03</totfact>
</mgrwt>
</event>
<event>
 4    1  0.1390278E-004  0.3485769E+03  0.7818608E-02  0.1063201E+00
          2   -1    0    0  501    0  0.00000000000E+00  0.00000000000E+00  0.14279292516E+04  0.14279292516E+04  0.25500000000E-02 0.  1.
         -2   -1    0    0    0  501 -0.00000000000E+00 -0.00000000000E+00 -0.21273091962E+02  0.21273092115E+02  0.25500000000E-02 0. -1.
    5000001    1    1    2    0    0 -0.87752539009E+02 -0.80463764536E+02  0.73873872123E+03  0.75897221540E+03  0.12700000000E+03 0.  0.
   -5000001    1    1    2    0    0  0.87752539009E+02  0.80463764536E+02  0.66791743838E+03  0.69023012829E+03  0.12700000000E+03 0.  0.
<mgrwt>
<rscale>  0 0.34857694E+03</rscale>
<asrwt>0</asrwt>
<pdfrwt beam="1">  1        2 0.20398989E+00 0.34857694E+03</pdfrwt>
<pdfrwt beam="2">  1       -2 0.30390131E-02 0.34857694E+03</pdfrwt>
<totfact> 0.70835161E+03</totfact>
</mgrwt>
</event>
<event>
 4    1  0.1390278E-004  0.3155492E+03  0.7818608E-02  0.1077716E+00
         -2   -1    0    0    0  501 -0.00000000000E+00  0.00000000000E+00  0.11022409229E+03  0.11022409231E+03  0.25500000000E-02 0. -1.
          2   -1    0    0  501    0  0.00000000000E+00 -0.00000000000E+00 -0.22583825979E+03  0.22583825980E+03  0.25500000000E-02 0.  1.
    5000001    1    1    2    0    0 -0.60117780227E+02  0.55886390670E+02 -0.98653872578E+01  0.15153798873E+03  0.12700000000E+03 0.  0.
   -5000001    1    1    2    0    0  0.60117780227E+02 -0.55886390670E+02 -0.10574878025E+03  0.18452436339E+03  0.12700000000E+03 0.  0.
<mgrwt>
<rscale>  0 0.31554915E+03</rscale>
<asrwt>0</asrwt>
<pdfrwt beam="1">  1        2 0.32262608E-01 0.31554915E+03</pdfrwt>
<pdfrwt beam="2">  1       -2 0.15746299E-01 0.31554915E+03</pdfrwt>
<totfact> 0.51043125E+03</totfact>
</mgrwt>
</event>
<event>
 4    1  0.1390278E-004  0.7788766E+03  0.7818608E-02  0.9591106E-01
          2   -1    0    0  501    0  0.00000000000E+00  0.00000000000E+00  0.29335531561E+03  0.29335531562E+03  0.25500000000E-02 0. -1.
         -2   -1    0    0    0  501 -0.00000000000E+00 -0.00000000000E+00 -0.51699144264E+03  0.51699144265E+03  0.25500000000E-02 0.  1.
    5000001    1    1    2    0    0  0.16739686924E+03  0.13462067261E+03 -0.42287771309E+03  0.49101832711E+03  0.12700000000E+03 0.  0.
   -5000001    1    1    2    0    0 -0.16739686924E+03 -0.13462067261E+03  0.19924158606E+03  0.31932843115E+03  0.12700000000E+03 0.  0.
<mgrwt>
<rscale>  0 0.77887660E+03</rscale>
<asrwt>0</asrwt>
<pdfrwt beam="1">  1        2 0.41907903E-01 0.77887660E+03</pdfrwt>
<pdfrwt beam="2">  1       -2 0.73855920E-01 0.77887660E+03</pdfrwt>
<totfact> 0.20360521E+02</totfact>
</mgrwt>
</event>
<event>
 4    1  0.1390278E-004  0.3919587E+03  0.7818608E-02  0.1046600E+00
         -2   -1    0    0    0  501 -0.00000000000E+00  0.00000000000E+00  0.47265682477E+02  0.47265682545E+02  0.25500000000E-02 0. -1.
          2   -1    0    0  501    0  0.00000000000E+00 -0.00000000000E+00 -0.81259585300E+03  0.81259585301E+03  0.25500000000E-02 0.  1.
    5000001    1    1    2    0    0 -0.26996354950E+02  0.99375989481E+02 -0.14563278222E+03  0.21895729657E+03  0.12700000000E+03 0.  0.
   -5000001    1    1    2    0    0  0.26996354950E+02 -0.99375989481E+02 -0.61969738831E+03  0.64090423898E+03  0.12700000000E+03 0.  0.
<mgrwt>
<rscale>  0 0.39195866E+03</rscale>
<asrwt>0</asrwt>
<pdfrwt beam="1">  1        2 0.11608511E+00 0.39195866E+03</pdfrwt>
<pdfrwt beam="2">  1       -2 0.67522408E-02 0.39195866E+03</pdfrwt>
<totfact> 0.47410302E+03</totfact>
</mgrwt>
</event>
<event>
 4    1  0.1390278E-004  0.3887549E+03  0.7818608E-02  0.1047745E+00
          2   -1    0    0  501    0  0.00000000000E+00  0.00000000000E+00  0.26749798157E+04  0.26749798157E+04  0.25500000000E-02 0.  1.
         -2   -1    0    0    0  501 -0.00000000000E+00 -0.00000000000E+00 -0.14124439517E+02  0.14124439747E+02  0.25500000000E-02 0. -1.
    5000001    1    1    2    0    0  0.87245936978E+02 -0.10114536395E+03  0.17574704346E+04  0.17671088158E+04  0.12700000000E+03 0.  0.
   -5000001    1    1    2    0    0 -0.87245936978E+02  0.10114536395E+03  0.90338494155E+03  0.92199543968E+03  0.12700000000E+03 0.  0.
<mgrwt>
<rscale>  0 0.38875489E+03</rscale>
<asrwt>0</asrwt>
<pdfrwt beam="1">  1        2 0.38213981E+00 0.38875489E+03</pdfrwt>
<pdfrwt beam="2">  1       -2 0.20177779E-02 0.38875489E+03</pdfrwt>
<totfact> 0.31012469E+03</totfact>
</mgrwt>
</event>
<event>
 4    1  0.1390278E-004  0.2578706E+03  0.7818608E-02  0.1108429E+00
          2   -1    0    0  501    0  0.00000000000E+00  0.00000000000E+00  0.18533836036E+04  0.18533836036E+04  0.25500000000E-02 0.  1.
         -2   -1    0    0    0  501 -0.00000000000E+00 -0.00000000000E+00 -0.89697065422E+01  0.89697069046E+01  0.25500000000E-02 0. -1.
    5000001    1    1    2    0    0  0.27550179242E-01 -0.19792652287E+02  0.99570082272E+03  0.10039625881E+04  0.12700000000E+03 0.  0.
   -5000001    1    1    2    0    0 -0.27550179242E-01  0.19792652287E+02  0.84871307436E+03  0.85839072248E+03  0.12700000000E+03 0.  0.
<mgrwt>
<rscale>  0 0.25787057E+03</rscale>
<asrwt>0</asrwt>
<pdfrwt beam="1">  1        2 0.26476930E+00 0.25787057E+03</pdfrwt>
<pdfrwt beam="2">  1       -2 0.12813857E-02 0.25787057E+03</pdfrwt>
<totfact> 0.15442393E+04</totfact>
</mgrwt>
</event>
<event>
 4    1  0.1390278E-004  0.4259581E+03  0.7818608E-02  0.1035144E+00
         -2   -1    0    0    0  501 -0.00000000000E+00  0.00000000000E+00  0.20830251528E+02  0.20830251684E+02  0.25500000000E-02 0. -1.
          2   -1    0    0  501    0  0.00000000000E+00 -0.00000000000E+00 -0.21776055285E+04  0.21776055285E+04  0.25500000000E-02 0.  1.
    5000001    1    1    2    0    0  0.16858261225E+03  0.13643772810E+02 -0.12073980802E+04  0.12257835754E+04  0.12700000000E+03 0.  0.
   -5000001    1    1    2    0    0 -0.16858261225E+03 -0.13643772810E+02 -0.94937719680E+03  0.97265220480E+03  0.12700000000E+03 0.  0.
<mgrwt>
<rscale>  0 0.42595808E+03</rscale>
<asrwt>0</asrwt>
<pdfrwt beam="1">  1        2 0.31108636E+00 0.42595808E+03</pdfrwt>
<pdfrwt beam="2">  1       -2 0.29757516E-02 0.42595808E+03</pdfrwt>
<totfact> 0.30836409E+03</totfact>
</mgrwt>
</event>
<event>
 4    1  0.1390278E-004  0.3720324E+03  0.7818608E-02  0.1053919E+00
          2   -1    0    0  501    0  0.00000000000E+00  0.00000000000E+00  0.12484947759E+04  0.12484947759E+04  0.25500000000E-02 0.  1.
         -2   -1    0    0    0  501 -0.00000000000E+00 -0.00000000000E+00 -0.27715001877E+02  0.27715001994E+02  0.25500000000E-02 0. -1.
    5000001    1    1    2    0    0  0.13086848378E+03  0.11129727091E+02  0.49044431964E+03  0.52336895355E+03  0.12700000000E+03 0.  0.
   -5000001    1    1    2    0    0 -0.13086848378E+03 -0.11129727091E+02  0.73033545437E+03  0.75284082433E+03  0.12700000000E+03 0.  0.
<mgrwt>
<rscale>  0 0.37203245E+03</rscale>
<asrwt>0</asrwt>
<pdfrwt beam="1">  1        2 0.17835637E+00 0.37203245E+03</pdfrwt>
<pdfrwt beam="2">  1       -2 0.39592865E-02 0.37203245E+03</pdfrwt>
<totfact> 0.59179968E+03</totfact>
</mgrwt>
</event>
<event>
 4    1  0.1390278E-004  0.2744317E+03  0.7818608E-02  0.1098770E+00
         -2   -1    0    0    0  501 -0.00000000000E+00  0.00000000000E+00  0.13503910175E+02  0.13503910416E+02  0.25500000000E-02 0. -1.
          2   -1    0    0  501    0  0.00000000000E+00 -0.00000000000E+00 -0.13942771133E+04  0.13942771133E+04  0.25500000000E-02 0.  1.
    5000001    1    1    2    0    0  0.46537916992E+02 -0.22875802748E+02 -0.70669986143E+03  0.71989080714E+03  0.12700000000E+03 0.  0.
   -5000001    1    1    2    0    0 -0.46537916992E+02  0.22875802748E+02 -0.67407334167E+03  0.68789021655E+03  0.12700000000E+03 0.  0.
<mgrwt>
<rscale>  0 0.27443173E+03</rscale>
<asrwt>0</asrwt>
<pdfrwt beam="1">  1        2 0.19918235E+00 0.27443173E+03</pdfrwt>
<pdfrwt beam="2">  1       -2 0.19291309E-02 0.27443173E+03</pdfrwt>
<totfact> 0.14394354E+04</totfact>
</mgrwt>
</event>
<event>
 4    1  0.1390278E-004  0.3215997E+03  0.7818608E-02  0.1074915E+00
         -2   -1    0    0    0  501 -0.00000000000E+00  0.00000000000E+00  0.26128242193E+02  0.26128242318E+02  0.25500000000E-02 0. -1.
          2   -1    0    0  501    0  0.00000000000E+00 -0.00000000000E+00 -0.98960348919E+03  0.98960348919E+03  0.25500000000E-02 0.  1.
    5000001    1    1    2    0    0 -0.78232607481E+02 -0.59467460177E+02 -0.45514720265E+03  0.48264344580E+03  0.12700000000E+03 0.  0.
   -5000001    1    1    2    0    0  0.78232607481E+02  0.59467460177E+02 -0.50832804435E+03  0.53308828571E+03  0.12700000000E+03 0.  0.
<mgrwt>
<rscale>  0 0.32159975E+03</rscale>
<asrwt>0</asrwt>
<pdfrwt beam="1">  1        2 0.14137190E+00 0.32159975E+03</pdfrwt>
<pdfrwt beam="2">  1       -2 0.37326067E-02 0.32159975E+03</pdfrwt>
<totfact> 0.90409794E+03</totfact>
</mgrwt>
</event>
<event>
 4    1  0.1390278E-004  0.3100667E+03  0.7818608E-02  0.1080314E+00
         -2   -1    0    0    0  501 -0.00000000000E+00  0.00000000000E+00  0.17689800877E+02  0.17689801061E+02  0.25500000000E-02 0. -1.
          2   -1    0    0  501    0  0.00000000000E+00 -0.00000000000E+00 -0.13587114668E+04  0.13587114668E+04  0.25500000000E-02 0.  1.
    5000001    1    1    2    0    0  0.83034215794E+01  0.80126316554E+02 -0.50340187708E+03  0.52538711753E+03  0.12700000000E+03 0.  0.
   -5000001    1    1    2    0    0 -0.83034215794E+01 -0.80126316554E+02 -0.83761978885E+03  0.85101415035E+03  0.12700000000E+03 0.  0.
<mgrwt>
<rscale>  0 0.31006667E+03</rscale>
<asrwt>0</asrwt>
<pdfrwt beam="1">  1        2 0.19410157E+00 0.31006667E+03</pdfrwt>
<pdfrwt beam="2">  1       -2 0.25271153E-02 0.31006667E+03</pdfrwt>
<totfact> 0.10110889E+04</totfact>
</mgrwt>
</event>
<event>
 4    1  0.1390278E-004  0.6857778E+03  0.7818608E-02  0.9741868E-01
         -2   -1    0    0    0  501 -0.00000000000E+00  0.00000000000E+00  0.71635285824E+02  0.71635285869E+02  0.25500000000E-02 0. -1.
          2   -1    0    0  501    0  0.00000000000E+00 -0.00000000000E+00 -0.16412694747E+04  0.16412694747E+04  0.25500000000E-02 0.  1.
    5000001    1    1    2    0    0  0.24650481268E+03  0.58116836300E+01 -0.12883820837E+04  0.13178982480E+04  0.12700000000E+03 0.  0.
   -5000001    1    1    2    0    0 -0.24650481268E+03 -0.58116836300E+01 -0.28125210513E+03  0.39500651258E+03  0.12700000000E+03 0.  0.
<mgrwt>
<rscale>  0 0.68577783E+03</rscale>
<asrwt>0</asrwt>
<pdfrwt beam="1">  1        2 0.23446704E+00 0.68577783E+03</pdfrwt>
<pdfrwt beam="2">  1       -2 0.10233613E-01 0.68577783E+03</pdfrwt>
<totfact> 0.82613149E+02</totfact>
</mgrwt>
</event>
<event>
 4    1  0.1390278E-004  0.5132792E+03  0.7818608E-02  0.1010370E+00
          2   -1    0    0  501    0  0.00000000000E+00  0.00000000000E+00  0.67607138450E+03  0.67607138450E+03  0.25500000000E-02 0. -1.
         -2   -1    0    0    0  501 -0.00000000000E+00 -0.00000000000E+00 -0.97421511227E+02  0.97421511261E+02  0.25500000000E-02 0.  1.
    5000001    1    1    2    0    0 -0.14780664048E+03  0.15179079483E+03  0.39424731994E+03  0.46523886085E+03  0.12700000000E+03 0.  0.
   -5000001    1    1    2    0    0  0.14780664048E+03 -0.15179079483E+03  0.18440255333E+03  0.30825403491E+03  0.12700000000E+03 0.  0.
<mgrwt>
<rscale>  0 0.51327925E+03</rscale>
<asrwt>0</asrwt>
<pdfrwt beam="1">  1        2 0.96581625E-01 0.51327925E+03</pdfrwt>
<pdfrwt beam="2">  1       -2 0.13917359E-01 0.51327925E+03</pdfrwt>
<totfact> 0.18636901E+03</totfact>
</mgrwt>
</event>
<event>
 4    1  0.1390278E-004  0.7637582E+03  0.7818608E-02  0.9614010E-01
          2   -1    0    0  501    0  0.00000000000E+00  0.00000000000E+00  0.12715841362E+04  0.12715841362E+04  0.25500000000E-02 0.  1.
         -2   -1    0    0    0  501 -0.00000000000E+00 -0.00000000000E+00 -0.11468502576E+03  0.11468502578E+03  0.25500000000E-02 0. -1.
    5000001    1    1    2    0    0 -0.32738863726E+03  0.12865058364E+03  0.43822650286E+03  0.57611262812E+03  0.12700000000E+03 0.  0.
   -5000001    1    1    2    0    0  0.32738863726E+03 -0.12865058364E+03  0.71867260762E+03  0.81015653389E+03  0.12700000000E+03 0.  0.
<mgrwt>
<rscale>  0 0.76375823E+03</rscale>
<asrwt>0</asrwt>
<pdfrwt beam="1">  1        2 0.18165486E+00 0.76375823E+03</pdfrwt>
<pdfrwt beam="2">  1       -2 0.16383576E-01 0.76375823E+03</pdfrwt>
<totfact> 0.59033044E+02</totfact>
</mgrwt>
</event>
<event>
 4    1  0.1390278E-004  0.3387309E+03  0.7818608E-02  0.1067338E+00
          2   -1    0    0  501    0  0.00000000000E+00  0.00000000000E+00  0.59744467982E+03  0.59744467982E+03  0.25500000000E-02 0.  1.
         -2   -1    0    0    0  501 -0.00000000000E+00 -0.00000000000E+00 -0.48012226439E+02  0.48012226507E+02  0.25500000000E-02 0. -1.
    5000001    1    1    2    0    0  0.18157533691E+02 -0.88072800055E+02  0.14732948545E+03  0.21429300367E+03  0.12700000000E+03 0.  0.
   -5000001    1    1    2    0    0 -0.18157533691E+02  0.88072800055E+02  0.40210296793E+03  0.43116390266E+03  0.12700000000E+03 0.  0.
<mgrwt>
<rscale>  0 0.33873086E+03</rscale>
<asrwt>0</asrwt>
<pdfrwt beam="1">  1        2 0.85349231E-01 0.33873086E+03</pdfrwt>
<pdfrwt beam="2">  1       -2 0.68588902E-02 0.33873086E+03</pdfrwt>
<totfact> 0.66741775E+03</totfact>
</mgrwt>
</event>
<event>
 4    1  0.1390278E-004  0.4636536E+03  0.7818608E-02  0.1023727E+00
         -2   -1    0    0    0  501 -0.00000000000E+00  0.00000000000E+00  0.18244334207E+03  0.18244334208E+03  0.25500000000E-02 0. -1.
          2   -1    0    0  501    0  0.00000000000E+00 -0.00000000000E+00 -0.29457727653E+03  0.29457727654E+03  0.25500000000E-02 0.  1.
    5000001    1    1    2    0    0  0.64571361627E+02 -0.17343447013E+03 -0.11575405171E+03  0.25254103955E+03  0.12700000000E+03 0.  0.
   -5000001    1    1    2    0    0 -0.64571361627E+02  0.17343447013E+03  0.36201172456E+01  0.22447957907E+03  0.12700000000E+03 0.  0.
<mgrwt>
<rscale>  0 0.46365359E+03</rscale>
<asrwt>0</asrwt>
<pdfrwt beam="1">  1        2 0.42082468E-01 0.46365359E+03</pdfrwt>
<pdfrwt beam="2">  1       -2 0.26063335E-01 0.46365359E+03</pdfrwt>
<totfact> 0.16085754E+03</totfact>
</mgrwt>
</event>
<event>
 4    1  0.1390278E-004  0.3258131E+03  0.7818608E-02  0.1073005E+00
          2   -1    0    0  501    0  0.00000000000E+00  0.00000000000E+00  0.12575144347E+04  0.12575144347E+04  0.25500000000E-02 0.  1.
         -2   -1    0    0    0  501 -0.00000000000E+00 -0.00000000000E+00 -0.21103965973E+02  0.21103966127E+02  0.25500000000E-02 0. -1.
    5000001    1    1    2    0    0  0.62619939853E+02  0.60299844790E+02  0.40861865819E+03  0.43664119820E+03  0.12700000000E+03 0.  0.
   -5000001    1    1    2    0    0 -0.62619939853E+02 -0.60299844790E+02  0.82779181058E+03  0.84197720267E+03  0.12700000000E+03 0.  0.
<mgrwt>
<rscale>  0 0.32581309E+03</rscale>
<asrwt>0</asrwt>
<pdfrwt beam="1">  1        2 0.17964497E+00 0.32581309E+03</pdfrwt>
<pdfrwt beam="2">  1       -2 0.30148514E-02 0.32581309E+03</pdfrwt>
<totfact> 0.88016928E+03</totfact>
</mgrwt>
</event>
<event>
 4    1  0.1390278E-004  0.7194724E+03  0.7818608E-02  0.9684499E-01
          2   -1    0    0  501    0  0.00000000000E+00  0.00000000000E+00  0.42830590931E+03  0.42830590932E+03  0.25500000000E-02 0.  1.
         -2   -1    0    0    0  501 -0.00000000000E+00 -0.00000000000E+00 -0.30214413185E+03  0.30214413186E+03  0.25500000000E-02 0. -1.
    5000001    1    1    2    0    0 -0.11716552362E+03  0.25722632969E+03 -0.12243086493E+03  0.33318382508E+03  0.12700000000E+03 0.  0.
   -5000001    1    1    2    0    0  0.11716552362E+03 -0.25722632969E+03  0.24859264239E+03  0.39726621610E+03  0.12700000000E+03 0.  0.
<mgrwt>
<rscale>  0 0.71947235E+03</rscale>
<asrwt>0</asrwt>
<pdfrwt beam="1">  1        2 0.61186558E-01 0.71947235E+03</pdfrwt>
<pdfrwt beam="2">  1       -2 0.43163448E-01 0.71947235E+03</pdfrwt>
<totfact> 0.41037105E+02</totfact>
</mgrwt>
</event>
<event>
 4    1  0.1390278E-004  0.6223316E+03  0.7818608E-02  0.9860128E-01
         -2   -1    0    0    0  501 -0.00000000000E+00  0.00000000000E+00  0.15724070620E+03  0.15724070622E+03  0.25500000000E-02 0. -1.
          2   -1    0    0  501    0  0.00000000000E+00 -0.00000000000E+00 -0.61577033924E+03  0.61577033925E+03  0.25500000000E-02 0.  1.
    5000001    1    1    2    0    0  0.28966752148E+02  0.19291658256E+03 -0.48575383285E+03  0.53864799887E+03  0.12700000000E+03 0.  0.
   -5000001    1    1    2    0    0 -0.28966752148E+02 -0.19291658256E+03  0.27224199808E+02  0.23436304660E+03  0.12700000000E+03 0.  0.
<mgrwt>
<rscale>  0 0.62233163E+03</rscale>
<asrwt>0</asrwt>
<pdfrwt beam="1">  1        2 0.87967190E-01 0.62233163E+03</pdfrwt>
<pdfrwt beam="2">  1       -2 0.22462958E-01 0.62233163E+03</pdfrwt>
<totfact> 0.91635298E+02</totfact>
</mgrwt>
</event>
<event>
 4    1  0.1390278E-004  0.6232368E+03  0.7818608E-02  0.9858336E-01
         -2   -1    0    0    0  501 -0.00000000000E+00  0.00000000000E+00  0.65060002959E+02  0.65060003009E+02  0.25500000000E-02 0. -1.
          2   -1    0    0  501    0  0.00000000000E+00 -0.00000000000E+00 -0.14925611548E+04  0.14925611548E+04  0.25500000000E-02 0.  1.
    5000001    1    1    2    0    0  0.22020197541E+03  0.91820384170E+02 -0.11013924956E+04  0.11340698048E+04  0.12700000000E+03 0.  0.
   -5000001    1    1    2    0    0 -0.22020197541E+03 -0.91820384170E+02 -0.32610865631E+03  0.42355135302E+03  0.12700000000E+03 0.  0.
<mgrwt>
<rscale>  0 0.62323682E+03</rscale>
<asrwt>0</asrwt>
<pdfrwt beam="1">  1        2 0.21322300E+00 0.62323682E+03</pdfrwt>
<pdfrwt beam="2">  1       -2 0.92942871E-02 0.62323682E+03</pdfrwt>
<totfact> 0.11561449E+03</totfact>
</mgrwt>
</event>
<event>
 4    1  0.1390278E-004  0.7780098E+03  0.7818608E-02  0.9592404E-01
         -2   -1    0    0    0  501 -0.00000000000E+00  0.00000000000E+00  0.86086821865E+02  0.86086821902E+02  0.25500000000E-02 0. -1.
          2   -1    0    0  501    0  0.00000000000E+00 -0.00000000000E+00 -0.17578160974E+04  0.17578160974E+04  0.25500000000E-02 0.  1.
    5000001    1    1    2    0    0  0.12514290738E+03 -0.40542251519E+02 -0.22108971626E+02  0.18417987961E+03  0.12700000000E+03 0.  0.
   -5000001    1    1    2    0    0 -0.12514290738E+03  0.40542251519E+02 -0.16496203039E+04  0.16597230397E+04  0.12700000000E+03 0.  0.
<mgrwt>
<rscale>  0 0.77800977E+03</rscale>
<asrwt>0</asrwt>
<pdfrwt beam="1">  1        2 0.25111656E+00 0.77800977E+03</pdfrwt>
<pdfrwt beam="2">  1       -2 0.12298118E-01 0.77800977E+03</pdfrwt>
<totfact> 0.52979738E+02</totfact>
</mgrwt>
</event>
<event>
 4    1  0.1390278E-004  0.2854860E+03  0.7818608E-02  0.1092730E+00
          2   -1    0    0  501    0  0.00000000000E+00  0.00000000000E+00  0.29160836465E+04  0.29160836465E+04  0.25500000000E-02 0.  1.
         -2   -1    0    0    0  501 -0.00000000000E+00 -0.00000000000E+00 -0.69873057481E+01  0.69873062134E+01  0.25500000000E-02 0. -1.
    5000001    1    1    2    0    0  0.51964919051E+02 -0.39230556097E+02  0.14271136450E+04  0.14342321099E+04  0.12700000000E+03 0.  0.
   -5000001    1    1    2    0    0 -0.51964919051E+02  0.39230556097E+02  0.14819826958E+04  0.14888388428E+04  0.12700000000E+03 0.  0.
<mgrwt>
<rscale>  0 0.28548603E+03</rscale>
<asrwt>0</asrwt>
<pdfrwt beam="1">  1        2 0.41658402E+00 0.28548603E+03</pdfrwt>
<pdfrwt beam="2">  1       -2 0.99818504E-03 0.28548603E+03</pdfrwt>
<totfact> 0.65702578E+03</totfact>
</mgrwt>
</event>
<event>
 4    1  0.1390278E-004  0.2998096E+03  0.7818608E-02  0.1085336E+00
          2   -1    0    0  501    0  0.00000000000E+00  0.00000000000E+00  0.17529378206E+04  0.17529378206E+04  0.25500000000E-02 0.  1.
         -2   -1    0    0    0  501 -0.00000000000E+00 -0.00000000000E+00 -0.12819305677E+02  0.12819305930E+02  0.25500000000E-02 0. -1.
    5000001    1    1    2    0    0  0.67648244196E+02 -0.14854602917E+02  0.11015961612E+04  0.11110535750E+04  0.12700000000E+03 0.  0.
   -5000001    1    1    2    0    0 -0.67648244196E+02  0.14854602917E+02  0.63852235369E+03  0.65470355149E+03  0.12700000000E+03 0.  0.
<mgrwt>
<rscale>  0 0.29980958E+03</rscale>
<asrwt>0</asrwt>
<pdfrwt beam="1">  1        2 0.25041952E+00 0.29980958E+03</pdfrwt>
<pdfrwt beam="2">  1       -2 0.18313306E-02 0.29980958E+03</pdfrwt>
<totfact> 0.10289904E+04</totfact>
</mgrwt>
</event>
<event>
 4    1  0.1390278E-004  0.8451121E+03  0.7818608E-02  0.9496921E-01
         -2   -1    0    0    0  501 -0.00000000000E+00  0.00000000000E+00  0.17415795754E+04  0.17415795754E+04  0.25500000000E-02 0. -1.
          2   -1    0    0  501    0  0.00000000000E+00 -0.00000000000E+00 -0.10252395885E+03  0.10252395888E+03  0.25500000000E-02 0.  1.
    5000001    1    1    2    0    0 -0.14631639291E+03 -0.31738223915E+03  0.38156139005E+03  0.53278332081E+03  0.12700000000E+03 0.  0.
   -5000001    1    1    2    0    0  0.14631639291E+03  0.31738223915E+03  0.12574942265E+04  0.13113202134E+04  0.12700000000E+03 0.  0.
<mgrwt>
<rscale>  0 0.84511214E+03</rscale>
<asrwt>0</asrwt>
<pdfrwt beam="1">  1        2 0.14646280E-01 0.84511214E+03</pdfrwt>
<pdfrwt beam="2">  1       -2 0.24879708E+00 0.84511214E+03</pdfrwt>
<totfact> 0.27533511E+01</totfact>
</mgrwt>
</event>
<event>
 4    1  0.1390278E-004  0.1008042E+04  0.7818608E-02  0.9299769E-01
         -2   -1    0    0    0  501 -0.00000000000E+00  0.00000000000E+00  0.74058186388E+02  0.74058186432E+02  0.25500000000E-02 0. -1.
          2   -1    0    0  501    0  0.00000000000E+00 -0.00000000000E+00 -0.34302352109E+04  0.34302352109E+04  0.25500000000E-02 0.  1.
    5000001    1    1    2    0    0  0.32300636873E+03  0.35482417664E+03 -0.19826341239E+04  0.20438200459E+04  0.12700000000E+03 0.  0.
   -5000001    1    1    2    0    0 -0.32300636873E+03 -0.35482417664E+03 -0.13735429006E+04  0.14604733515E+04  0.12700000000E+03 0.  0.
<mgrwt>
<rscale>  0 0.10080417E+04</rscale>
<asrwt>0</asrwt>
<pdfrwt beam="1">  1        2 0.49003350E+00 0.10080417E+04</pdfrwt>
<pdfrwt beam="2">  1       -2 0.10579743E-01 0.10080417E+04</pdfrwt>
<totfact> 0.85590873E+01</totfact>
</mgrwt>
</event>
<event>
 4    1  0.1390278E-004  0.4244589E+03  0.7818608E-02  0.1035625E+00
         -2   -1    0    0    0  501 -0.00000000000E+00  0.00000000000E+00  0.57915707807E+02  0.57915707863E+02  0.25500000000E-02 0. -1.
          2   -1    0    0  501    0  0.00000000000E+00 -0.00000000000E+00 -0.77770502588E+03  0.77770502588E+03  0.25500000000E-02 0.  1.
    5000001    1    1    2    0    0 -0.16304521271E+03 -0.40374284504E+02 -0.30786382740E+03  0.37299190401E+03  0.12700000000E+03 0.  0.
   -5000001    1    1    2    0    0  0.16304521271E+03  0.40374284504E+02 -0.41192549067E+03  0.46262882973E+03  0.12700000000E+03 0.  0.
<mgrwt>
<rscale>  0 0.42445889E+03</rscale>
<asrwt>0</asrwt>
<pdfrwt beam="1">  1        2 0.11110071E+00 0.42445889E+03</pdfrwt>
<pdfrwt beam="2">  1       -2 0.82736730E-02 0.42445889E+03</pdfrwt>
<totfact> 0.36440743E+03</totfact>
</mgrwt>
</event>
<event>
 4    1  0.1390278E-004  0.4614381E+03  0.7818608E-02  0.1024365E+00
         -2   -1    0    0    0  501 -0.00000000000E+00  0.00000000000E+00  0.25607728832E+02  0.25607728959E+02  0.25500000000E-02 0. -1.
          2   -1    0    0  501    0  0.00000000000E+00 -0.00000000000E+00 -0.20787192825E+04  0.20787192825E+04  0.25500000000E-02 0.  1.
    5000001    1    1    2    0    0  0.77859286072E+02  0.48241918475E+02 -0.17993049100E+04  0.18061053431E+04  0.12700000000E+03 0.  0.
   -5000001    1    1    2    0    0 -0.77859286072E+02 -0.48241918475E+02 -0.25380664367E+03  0.29822166839E+03  0.12700000000E+03 0.  0.
<mgrwt>
<rscale>  0 0.46143810E+03</rscale>
<asrwt>0</asrwt>
<pdfrwt beam="1">  1        2 0.29695979E+00 0.46143810E+03</pdfrwt>
<pdfrwt beam="2">  1       -2 0.36582483E-02 0.46143810E+03</pdfrwt>
<totfact> 0.25229441E+03</totfact>
</mgrwt>
</event>
<event>
 4    1  0.1390278E-004  0.4173166E+03  0.7818608E-02  0.1037943E+00
          2   -1    0    0  501    0  0.00000000000E+00  0.00000000000E+00  0.64871855387E+03  0.64871855388E+03  0.25500000000E-02 0.  1.
         -2   -1    0    0    0  501 -0.00000000000E+00 -0.00000000000E+00 -0.67114305817E+02  0.67114305865E+02  0.25500000000E-02 0. -1.
    5000001    1    1    2    0    0  0.11897888648E+03  0.11512122400E+03  0.28968546421E+03  0.35700915929E+03  0.12700000000E+03 0.  0.
   -5000001    1    1    2    0    0 -0.11897888648E+03 -0.11512122400E+03  0.29191878385E+03  0.35882370045E+03  0.12700000000E+03 0.  0.
<mgrwt>
<rscale>  0 0.41731664E+03</rscale>
<asrwt>0</asrwt>
<pdfrwt beam="1">  1        2 0.92674075E-01 0.41731664E+03</pdfrwt>
<pdfrwt beam="2">  1       -2 0.95877584E-02 0.41731664E+03</pdfrwt>
<totfact> 0.35903283E+03</totfact>
</mgrwt>
</event>
<event>
 4    1  0.1390278E-004  0.4913747E+03  0.7818608E-02  0.1016055E+00
          2   -1    0    0  501    0  0.00000000000E+00  0.00000000000E+00  0.39631387466E+03  0.39631387466E+03  0.25500000000E-02 0.  1.
         -2   -1    0    0    0  501 -0.00000000000E+00 -0.00000000000E+00 -0.15230928849E+03  0.15230928851E+03  0.25500000000E-02 0. -1.
    5000001    1    1    2    0    0  0.85924733519E+02  0.19165710699E+03  0.13411923452E+03  0.27970068923E+03  0.12700000000E+03 0.  0.
   -5000001    1    1    2    0    0 -0.85924733519E+02 -0.19165710699E+03  0.10988535164E+03  0.26892247395E+03  0.12700000000E+03 0.  0.
<mgrwt>
<rscale>  0 0.49137474E+03</rscale>
<asrwt>0</asrwt>
<pdfrwt beam="1">  1        2 0.56616267E-01 0.49137474E+03</pdfrwt>
<pdfrwt beam="2">  1       -2 0.21758470E-01 0.49137474E+03</pdfrwt>
<totfact> 0.16005556E+03</totfact>
</mgrwt>
</event>
<event>
 4    1  0.1390278E-004  0.4574204E+03  0.7818608E-02  0.1025532E+00
          2   -1    0    0  501    0  0.00000000000E+00  0.00000000000E+00  0.21091662582E+04  0.21091662582E+04  0.25500000000E-02 0.  1.
         -2   -1    0    0    0  501 -0.00000000000E+00 -0.00000000000E+00 -0.24800492137E+02  0.24800492268E+02  0.25500000000E-02 0. -1.
    5000001    1    1    2    0    0 -0.17107950539E+03 -0.27173798264E+02  0.67565130270E+03  0.70897129372E+03  0.12700000000E+03 0.  0.
   -5000001    1    1    2    0    0  0.17107950539E+03  0.27173798264E+02  0.14087144634E+04  0.14249954567E+04  0.12700000000E+03 0.  0.
<mgrwt>
<rscale>  0 0.45742043E+03</rscale>
<asrwt>0</asrwt>
<pdfrwt beam="1">  1        2 0.30130956E+00 0.45742043E+03</pdfrwt>
<pdfrwt beam="2">  1       -2 0.35429264E-02 0.45742043E+03</pdfrwt>
<totfact> 0.25584007E+03</totfact>
</mgrwt>
</event>
<event>
 4    1  0.1390278E-004  0.5159651E+03  0.7818608E-02  0.1009694E+00
         -2   -1    0    0    0  501 -0.00000000000E+00  0.00000000000E+00  0.28122543422E+02  0.28122543538E+02  0.25500000000E-02 0. -1.
          2   -1    0    0  501    0  0.00000000000E+00 -0.00000000000E+00 -0.23666061174E+04  0.23666061174E+04  0.25500000000E-02 0.  1.
    5000001    1    1    2    0    0 -0.62894110622E+02 -0.15451649877E+03 -0.18668986512E+04  0.18786353003E+04  0.12700000000E+03 0.  0.
   -5000001    1    1    2    0    0  0.62894110622E+02  0.15451649877E+03 -0.47158492277E+03  0.51609336067E+03  0.12700000000E+03 0.  0.
<mgrwt>
<rscale>  0 0.51596505E+03</rscale>
<asrwt>0</asrwt>
<pdfrwt beam="1">  1        2 0.33808646E+00 0.51596505E+03</pdfrwt>
<pdfrwt beam="2">  1       -2 0.40175077E-02 0.51596505E+03</pdfrwt>
<totfact> 0.15646235E+03</totfact>
</mgrwt>
</event>
<event>
 4    1  0.1390278E-004  0.4154736E+03  0.7818608E-02  0.1038550E+00
         -2   -1    0    0    0  501 -0.00000000000E+00  0.00000000000E+00  0.29464961125E+02  0.29464961236E+02  0.25500000000E-02 0. -1.
          2   -1    0    0  501    0  0.00000000000E+00 -0.00000000000E+00 -0.14646067873E+04  0.14646067873E+04  0.25500000000E-02 0.  1.
    5000001    1    1    2    0    0  0.15293216965E+03  0.42336417945E+02 -0.87203290637E+03  0.89540550064E+03  0.12700000000E+03 0.  0.
   -5000001    1    1    2    0    0 -0.15293216965E+03 -0.42336417945E+02 -0.56310891980E+03  0.59866624788E+03  0.12700000000E+03 0.  0.
<mgrwt>
<rscale>  0 0.41547362E+03</rscale>
<asrwt>0</asrwt>
<pdfrwt beam="1">  1        2 0.20922950E+00 0.41547362E+03</pdfrwt>
<pdfrwt beam="2">  1       -2 0.42092811E-02 0.41547362E+03</pdfrwt>
<totfact> 0.41494800E+03</totfact>
</mgrwt>
</event>
<event>
 4    1  0.1390278E-004  0.6261352E+03  0.7818608E-02  0.9852620E-01
          2   -1    0    0  501    0  0.00000000000E+00  0.00000000000E+00  0.11241114313E+04  0.11241114313E+04  0.25500000000E-02 0.  1.
         -2   -1    0    0    0  501 -0.00000000000E+00 -0.00000000000E+00 -0.87190045093E+02  0.87190045130E+02  0.25500000000E-02 0. -1.
    5000001    1    1    2    0    0 -0.86335420681E+02  0.23053993249E+03  0.23625321890E+03  0.36407011519E+03  0.12700000000E+03 0.  0.
   -5000001    1    1    2    0    0  0.86335420681E+02 -0.23053993249E+03  0.80066816735E+03  0.84723136128E+03  0.12700000000E+03 0.  0.
<mgrwt>
<rscale>  0 0.62613521E+03</rscale>
<asrwt>0</asrwt>
<pdfrwt beam="1">  1        2 0.16058735E+00 0.62613521E+03</pdfrwt>
<pdfrwt beam="2">  1       -2 0.12455721E-01 0.62613521E+03</pdfrwt>
<totfact> 0.11387360E+03</totfact>
</mgrwt>
</event>
<event>
 4    1  0.1390278E-004  0.3969870E+03  0.7818608E-02  0.1044828E+00
          2   -1    0    0  501    0  0.00000000000E+00  0.00000000000E+00  0.90564898015E+03  0.90564898015E+03  0.25500000000E-02 0.  1.
         -2   -1    0    0    0  501 -0.00000000000E+00 -0.00000000000E+00 -0.43504348122E+02  0.43504348197E+02  0.25500000000E-02 0. -1.
    5000001    1    1    2    0    0 -0.10161655389E+03  0.53788057551E+02  0.67077752116E+03  0.69230814097E+03  0.12700000000E+03 0.  0.
   -5000001    1    1    2    0    0  0.10161655389E+03 -0.53788057551E+02  0.19136711087E+03  0.25684518739E+03  0.12700000000E+03 0.  0.
<mgrwt>
<rscale>  0 0.39698699E+03</rscale>
<asrwt>0</asrwt>
<pdfrwt beam="1">  1        2 0.12937842E+00 0.39698699E+03</pdfrwt>
<pdfrwt beam="2">  1       -2 0.62149071E-02 0.39698699E+03</pdfrwt>
<totfact> 0.46906281E+03</totfact>
</mgrwt>
</event>
<event>
 4    1  0.1390278E-004  0.1282502E+04  0.7818608E-02  0.9043558E-01
          2   -1    0    0  501    0  0.00000000000E+00  0.00000000000E+00  0.37367626301E+04  0.37367626301E+04  0.25500000000E-02 0.  1.
         -2   -1    0    0    0  501 -0.00000000000E+00 -0.00000000000E+00 -0.11004249586E+03  0.11004249589E+03  0.25500000000E-02 0. -1.
    5000001    1    1    2    0    0 -0.42733957348E+03 -0.44175625380E+03  0.14187752129E+04  0.15513928592E+04  0.12700000000E+03 0.  0.
   -5000001    1    1    2    0    0  0.42733957348E+03  0.44175625380E+03  0.22079449213E+04  0.22954122668E+04  0.12700000000E+03 0.  0.
<mgrwt>
<rscale>  0 0.12825018E+04</rscale>
<asrwt>0</asrwt>
<pdfrwt beam="1">  1        2 0.53382318E+00 0.12825018E+04</pdfrwt>
<pdfrwt beam="2">  1       -2 0.15720358E-01 0.12825018E+04</pdfrwt>
<totfact> 0.27769689E+01</totfact>
</mgrwt>
</event>
<event>
 4    1  0.1390278E-004  0.3402200E+03  0.7818608E-02  0.1066702E+00
         -2   -1    0    0    0  501 -0.00000000000E+00  0.00000000000E+00  0.63875402803E+02  0.63875402854E+02  0.25500000000E-02 0. -1.
          2   -1    0    0  501    0  0.00000000000E+00 -0.00000000000E+00 -0.45302913503E+03  0.45302913504E+03  0.25500000000E-02 0.  1.
    5000001    1    1    2    0    0 -0.14522644076E+02  0.80628662054E+02 -0.31320612574E+03  0.34776280068E+03  0.12700000000E+03 0.  0.
   -5000001    1    1    2    0    0  0.14522644076E+02 -0.80628662054E+02 -0.75947606485E+02  0.16914173721E+03  0.12700000000E+03 0.  0.
<mgrwt>
<rscale>  0 0.34022004E+03</rscale>
<asrwt>0</asrwt>
<pdfrwt beam="1">  1        2 0.64718446E-01 0.34022004E+03</pdfrwt>
<pdfrwt beam="2">  1       -2 0.91250578E-02 0.34022004E+03</pdfrwt>
<totfact> 0.58175768E+03</totfact>
</mgrwt>
</event>
<event>
 4    1  0.1390278E-004  0.4431195E+03  0.7818608E-02  0.1029794E+00
          2   -1    0    0  501    0  0.00000000000E+00  0.00000000000E+00  0.83852475931E+03  0.83852475932E+03  0.25500000000E-02 0.  1.
         -2   -1    0    0    0  501 -0.00000000000E+00 -0.00000000000E+00 -0.58541756918E+02  0.58541756974E+02  0.25500000000E-02 0. -1.
    5000001    1    1    2    0    0 -0.17417715834E+03  0.43896867303E+02  0.33661796501E+03  0.40212594024E+03  0.12700000000E+03 0.  0.
   -5000001    1    1    2    0    0  0.17417715834E+03 -0.43896867303E+02  0.44336503738E+03  0.49494057605E+03  0.12700000000E+03 0.  0.
<mgrwt>
<rscale>  0 0.44311945E+03</rscale>
<asrwt>0</asrwt>
<pdfrwt beam="1">  1        2 0.11978924E+00 0.44311945E+03</pdfrwt>
<pdfrwt beam="2">  1       -2 0.83631089E-02 0.44311945E+03</pdfrwt>
<totfact> 0.32580362E+03</totfact>
</mgrwt>
</event>
<event>
 4    1  0.1390278E-004  0.2992446E+03  0.7818608E-02  0.1085619E+00
         -2   -1    0    0    0  501 -0.00000000000E+00  0.00000000000E+00  0.23184176098E+02  0.23184176239E+02  0.25500000000E-02 0. -1.
          2   -1    0    0  501    0  0.00000000000E+00 -0.00000000000E+00 -0.96560798294E+03  0.96560798295E+03  0.25500000000E-02 0.  1.
    5000001    1    1    2    0    0  0.73990634809E+02  0.27302538306E+02 -0.45090111867E+03  0.47503774740E+03  0.12700000000E+03 0.  0.
   -5000001    1    1    2    0    0 -0.73990634809E+02 -0.27302538306E+02 -0.49152268817E+03  0.51375441178E+03  0.12700000000E+03 0.  0.
<mgrwt>
<rscale>  0 0.29924455E+03</rscale>
<asrwt>0</asrwt>
<pdfrwt beam="1">  1        2 0.13794397E+00 0.29924455E+03</pdfrwt>
<pdfrwt beam="2">  1       -2 0.33120258E-02 0.29924455E+03</pdfrwt>
<totfact> 0.11160178E+04</totfact>
</mgrwt>
</event>
<event>
 4    1  0.1390278E-004  0.4852921E+03  0.7818608E-02  0.1017691E+00
         -2   -1    0    0    0  501 -0.00000000000E+00  0.00000000000E+00  0.81022610014E+02  0.81022610054E+02  0.25500000000E-02 0. -1.
          2   -1    0    0  501    0  0.00000000000E+00 -0.00000000000E+00 -0.72667511458E+03  0.72667511458E+03  0.25500000000E-02 0.  1.
    5000001    1    1    2    0    0 -0.15536121593E+03 -0.12516486608E+03 -0.23250898216E+03  0.33165159113E+03  0.12700000000E+03 0.  0.
   -5000001    1    1    2    0    0  0.15536121593E+03  0.12516486608E+03 -0.41314352241E+03  0.47604613350E+03  0.12700000000E+03 0.  0.
<mgrwt>
<rscale>  0 0.48529214E+03</rscale>
<asrwt>0</asrwt>
<pdfrwt beam="1">  1        2 0.10381073E+00 0.48529214E+03</pdfrwt>
<pdfrwt beam="2">  1       -2 0.11574659E-01 0.48529214E+03</pdfrwt>
<totfact> 0.23127399E+03</totfact>
</mgrwt>
</event>
<event>
 4    1  0.1390278E-004  0.3063333E+03  0.7818608E-02  0.1082117E+00
          2   -1    0    0  501    0  0.00000000000E+00  0.00000000000E+00  0.30374093182E+02  0.30374093289E+02  0.25500000000E-02 0.  1.
         -2   -1    0    0    0  501 -0.00000000000E+00 -0.00000000000E+00 -0.77236971691E+03  0.77236971692E+03  0.25500000000E-02 0. -1.
    5000001    1    1    2    0    0 -0.77080321880E+02  0.36426893449E+02 -0.39175355881E+03  0.42055694671E+03  0.12700000000E+03 0.  0.
   -5000001    1    1    2    0    0  0.77080321880E+02 -0.36426893449E+02 -0.35024206492E+03  0.38218686350E+03  0.12700000000E+03 0.  0.
<mgrwt>
<rscale>  0 0.30633335E+03</rscale>
<asrwt>0</asrwt>
<pdfrwt beam="1">  1        2 0.43391567E-02 0.30633335E+03</pdfrwt>
<pdfrwt beam="2">  1       -2 0.11033852E+00 0.30633335E+03</pdfrwt>
<totfact> 0.12959401E+03</totfact>
</mgrwt>
</event>
<event>
 4    1  0.1390278E-004  0.6122146E+03  0.7818608E-02  0.9880384E-01
          2   -1    0    0  501    0  0.00000000000E+00  0.00000000000E+00  0.11217744346E+04  0.11217744346E+04  0.25500000000E-02 0.  1.
         -2   -1    0    0    0  501 -0.00000000000E+00 -0.00000000000E+00 -0.83529881711E+02  0.83529881750E+02  0.25500000000E-02 0. -1.
    5000001    1    1    2    0    0  0.18712882726E+03  0.19986294589E+03  0.41853629599E+03  0.51600777726E+03  0.12700000000E+03 0.  0.
   -5000001    1    1    2    0    0 -0.18712882726E+03 -0.19986294589E+03  0.61970825687E+03  0.68929653906E+03  0.12700000000E+03 0.  0.
<mgrwt>
<rscale>  0 0.61221462E+03</rscale>
<asrwt>0</asrwt>
<pdfrwt beam="1">  1        2 0.16025350E+00 0.61221462E+03</pdfrwt>
<pdfrwt beam="2">  1       -2 0.11932839E-01 0.61221462E+03</pdfrwt>
<totfact> 0.12264757E+03</totfact>
</mgrwt>
</event>
<event>
 4    1  0.1390278E-004  0.3164402E+03  0.7818608E-02  0.1077299E+00
          2   -1    0    0  501    0  0.00000000000E+00  0.00000000000E+00  0.11856599158E+03  0.11856599161E+03  0.25500000000E-02 0.  1.
         -2   -1    0    0    0  501 -0.00000000000E+00 -0.00000000000E+00 -0.21113636943E+03  0.21113636944E+03  0.25500000000E-02 0. -1.
    5000001    1    1    2    0    0 -0.88811760813E+02 -0.35703372530E+01 -0.13266042631E+02  0.15558041025E+03  0.12700000000E+03 0.  0.
   -5000001    1    1    2    0    0  0.88811760813E+02  0.35703372530E+01 -0.79304335212E+02  0.17412195080E+03  0.12700000000E+03 0.  0.
<mgrwt>
<rscale>  0 0.31644016E+03</rscale>
<asrwt>0</asrwt>
<pdfrwt beam="1">  1        2 0.16937999E-01 0.31644016E+03</pdfrwt>
<pdfrwt beam="2">  1       -2 0.30162338E-01 0.31644016E+03</pdfrwt>
<totfact> 0.34180925E+03</totfact>
</mgrwt>
</event>
<event>
 4    1  0.1390278E-004  0.4314502E+03  0.7818608E-02  0.1033403E+00
         -2   -1    0    0    0  501 -0.00000000000E+00  0.00000000000E+00  0.49515820620E+02  0.49515820686E+02  0.25500000000E-02 0. -1.
          2   -1    0    0  501    0  0.00000000000E+00 -0.00000000000E+00 -0.93984731447E+03  0.93984731448E+03  0.25500000000E-02 0.  1.
    5000001    1    1    2    0    0  0.13590326875E+03 -0.10855444180E+03 -0.41665860633E+03  0.46902788778E+03  0.12700000000E+03 0.  0.
   -5000001    1    1    2    0    0 -0.13590326875E+03  0.10855444180E+03 -0.47367288752E+03  0.52033524738E+03  0.12700000000E+03 0.  0.
<mgrwt>
<rscale>  0 0.43145016E+03</rscale>
<asrwt>0</asrwt>
<pdfrwt beam="1">  1        2 0.13426389E+00 0.43145016E+03</pdfrwt>
<pdfrwt beam="2">  1       -2 0.70736893E-02 0.43145016E+03</pdfrwt>
<totfact> 0.36514078E+03</totfact>
</mgrwt>
</event>
<event>
 4    1  0.1390278E-004  0.2864779E+03  0.7818608E-02  0.1092203E+00
          2   -1    0    0  501    0  0.00000000000E+00  0.00000000000E+00  0.72569648065E+03  0.72569648066E+03  0.25500000000E-02 0. -1.
         -2   -1    0    0    0  501 -0.00000000000E+00 -0.00000000000E+00 -0.28272700164E+02  0.28272700279E+02  0.25500000000E-02 0.  1.
    5000001    1    1    2    0    0  0.55054765918E+02 -0.32720357320E+02  0.30414481096E+03  0.33575990688E+03  0.12700000000E+03 0.  0.
   -5000001    1    1    2    0    0 -0.55054765918E+02  0.32720357320E+02  0.39327896953E+03  0.41820927406E+03  0.12700000000E+03 0.  0.
<mgrwt>
<rscale>  0 0.28647792E+03</rscale>
<asrwt>0</asrwt>
<pdfrwt beam="1">  1        2 0.10367093E+00 0.28647792E+03</pdfrwt>
<pdfrwt beam="2">  1       -2 0.40389571E-02 0.28647792E+03</pdfrwt>
<totfact> 0.11873553E+04</totfact>
</mgrwt>
</event>
<event>
 4    1  0.1390278E-004  0.3693182E+03  0.7818608E-02  0.1054954E+00
          2   -1    0    0  501    0  0.00000000000E+00  0.00000000000E+00  0.36960248251E+03  0.36960248252E+03  0.25500000000E-02 0.  1.
         -2   -1    0    0    0  501 -0.00000000000E+00 -0.00000000000E+00 -0.92258554763E+02  0.92258554798E+02  0.25500000000E-02 0. -1.
    5000001    1    1    2    0    0  0.41697037848E+02  0.12664742475E+03  0.15599043876E+03  0.24133012689E+03  0.12700000000E+03 0.  0.
   -5000001    1    1    2    0    0 -0.41697037848E+02 -0.12664742475E+03  0.12135348898E+03  0.22053091042E+03  0.12700000000E+03 0.  0.
<mgrwt>
<rscale>  0 0.36931824E+03</rscale>
<asrwt>0</asrwt>
<pdfrwt beam="1">  1        2 0.52800356E-01 0.36931824E+03</pdfrwt>
<pdfrwt beam="2">  1       -2 0.13179793E-01 0.36931824E+03</pdfrwt>
<totfact> 0.40252967E+03</totfact>
</mgrwt>
</event>
<event>
 4    1  0.1390278E-004  0.4232609E+03  0.7818608E-02  0.1036010E+00
         -2   -1    0    0    0  501 -0.00000000000E+00  0.00000000000E+00  0.23963600050E+02  0.23963600185E+02  0.25500000000E-02 0. -1.
          2   -1    0    0  501    0  0.00000000000E+00 -0.00000000000E+00 -0.18689779718E+04  0.18689779718E+04  0.25500000000E-02 0.  1.
    5000001    1    1    2    0    0  0.92274231853E+01 -0.16037179929E+03 -0.11614367419E+04  0.11793509082E+04  0.12700000000E+03 0.  0.
   -5000001    1    1    2    0    0 -0.92274231853E+01  0.16037179929E+03 -0.68357762988E+03  0.71359066377E+03  0.12700000000E+03 0.  0.
<mgrwt>
<rscale>  0 0.42326087E+03</rscale>
<asrwt>0</asrwt>
<pdfrwt beam="1">  1        2 0.26699676E+00 0.42326087E+03</pdfrwt>
<pdfrwt beam="2">  1       -2 0.34233726E-02 0.42326087E+03</pdfrwt>
<totfact> 0.35508485E+03</totfact>
</mgrwt>
</event>
<event>
 4    1  0.1390278E-004  0.4214421E+03  0.7818608E-02  0.1036598E+00
          2   -1    0    0  501    0  0.00000000000E+00  0.00000000000E+00  0.12225531302E+04  0.12225531302E+04  0.25500000000E-02 0.  1.
         -2   -1    0    0    0  501 -0.00000000000E+00 -0.00000000000E+00 -0.36320183312E+02  0.36320183402E+02  0.25500000000E-02 0. -1.
    5000001    1    1    2    0    0  0.93633518668E+02  0.29524032043E+02  0.18534759043E+03  0.24519713205E+03  0.12700000000E+03 0.  0.
   -5000001    1    1    2    0    0 -0.93633518668E+02 -0.29524032043E+02  0.10008853565E+04  0.10136761816E+04  0.12700000000E+03 0.  0.
<mgrwt>
<rscale>  0 0.42144207E+03</rscale>
<asrwt>0</asrwt>
<pdfrwt beam="1">  1        2 0.17465046E+00 0.42144207E+03</pdfrwt>
<pdfrwt beam="2">  1       -2 0.51885972E-02 0.42144207E+03</pdfrwt>
<totfact> 0.40489446E+03</totfact>
</mgrwt>
</event>
<event>
 4    1  0.1390278E-004  0.4651649E+03  0.7818608E-02  0.1023294E+00
         -2   -1    0    0    0  501 -0.00000000000E+00  0.00000000000E+00  0.12678510972E+02  0.12678511229E+02  0.25500000000E-02 0. -1.
          2   -1    0    0  501    0  0.00000000000E+00 -0.00000000000E+00 -0.42666361531E+04  0.42666361531E+04  0.25500000000E-02 0.  1.
    5000001    1    1    2    0    0  0.95411452035E+02 -0.16909283442E+03 -0.22781044639E+04  0.22898874820E+04  0.12700000000E+03 0.  0.
   -5000001    1    1    2    0    0 -0.95411452035E+02  0.16909283442E+03 -0.19758531782E+04  0.19894271823E+04  0.12700000000E+03 0.  0.
<mgrwt>
<rscale>  0 0.46516489E+03</rscale>
<asrwt>0</asrwt>
<pdfrwt beam="1">  1        2 0.60951853E+00 0.46516489E+03</pdfrwt>
<pdfrwt beam="2">  1       -2 0.18112186E-02 0.46516489E+03</pdfrwt>
<totfact> 0.40918005E+02</totfact>
</mgrwt>
</event>
<event>
 4    1  0.1390278E-004  0.3424709E+03  0.7818608E-02  0.1065748E+00
          2   -1    0    0  501    0  0.00000000000E+00  0.00000000000E+00  0.22666229343E+04  0.22666229343E+04  0.25500000000E-02 0.  1.
         -2   -1    0    0    0  501 -0.00000000000E+00 -0.00000000000E+00 -0.12936239734E+02  0.12936239986E+02  0.25500000000E-02 0. -1.
    5000001    1    1    2    0    0  0.28480919681E+01 -0.11262570740E+03  0.97801835137E+03  0.99264372119E+03  0.12700000000E+03 0.  0.
   -5000001    1    1    2    0    0 -0.28480919681E+01  0.11262570740E+03  0.12756683432E+04  0.12869154531E+04  0.12700000000E+03 0.  0.
<mgrwt>
<rscale>  0 0.34247089E+03</rscale>
<asrwt>0</asrwt>
<pdfrwt beam="1">  1        2 0.32380295E+00 0.34247089E+03</pdfrwt>
<pdfrwt beam="2">  1       -2 0.18480361E-02 0.34247089E+03</pdfrwt>
<totfact> 0.56815554E+03</totfact>
</mgrwt>
</event>
<event>
 4    1  0.1390278E-004  0.2736379E+03  0.7818608E-02  0.1099215E+00
         -2   -1    0    0    0  501 -0.00000000000E+00  0.00000000000E+00  0.96886851487E+01  0.96886854843E+01  0.25500000000E-02 0. -1.
          2   -1    0    0  501    0  0.00000000000E+00 -0.00000000000E+00 -0.19320916465E+04  0.19320916465E+04  0.25500000000E-02 0.  1.
    5000001    1    1    2    0    0 -0.43594768173E+02 -0.91545632670E+01 -0.78649764013E+03  0.79792972608E+03  0.12700000000E+03 0.  0.
   -5000001    1    1    2    0    0  0.43594768173E+02  0.91545632670E+01 -0.11359053212E+04  0.11438506059E+04  0.12700000000E+03 0.  0.
<mgrwt>
<rscale>  0 0.27363792E+03</rscale>
<asrwt>0</asrwt>
<pdfrwt beam="1">  1        2 0.27601285E+00 0.27363792E+03</pdfrwt>
<pdfrwt beam="2">  1       -2 0.13840991E-02 0.27363792E+03</pdfrwt>
<totfact> 0.12651706E+04</totfact>
</mgrwt>
</event>
<event>
 4    1  0.1390278E-004  0.2838958E+03  0.7818608E-02  0.1093580E+00
          2   -1    0    0  501    0  0.00000000000E+00  0.00000000000E+00  0.31084501077E+03  0.31084501078E+03  0.25500000000E-02 0.  1.
         -2   -1    0    0    0  501 -0.00000000000E+00 -0.00000000000E+00 -0.64820730859E+02  0.64820730909E+02  0.25500000000E-02 0. -1.
    5000001    1    1    2    0    0 -0.26702566429E+02 -0.51316578267E+02  0.15736022730E+03  0.21032750509E+03  0.12700000000E+03 0.  0.
   -5000001    1    1    2    0    0  0.26702566429E+02  0.51316578267E+02  0.88664052612E+02  0.16533823661E+03  0.12700000000E+03 0.  0.
<mgrwt>
<rscale>  0 0.28389576E+03</rscale>
<asrwt>0</asrwt>
<pdfrwt beam="1">  1        2 0.44406430E-01 0.28389576E+03</pdfrwt>
<pdfrwt beam="2">  1       -2 0.92601044E-02 0.28389576E+03</pdfrwt>
<totfact> 0.85019427E+03</totfact>
</mgrwt>
</event>
<event>
 4    1  0.1390278E-004  0.7198065E+03  0.7818608E-02  0.9683947E-01
         -2   -1    0    0    0  501 -0.00000000000E+00  0.00000000000E+00  0.81056100450E+02  0.81056100490E+02  0.25500000000E-02 0. -1.
          2   -1    0    0  501    0  0.00000000000E+00 -0.00000000000E+00 -0.15980331105E+04  0.15980331105E+04  0.25500000000E-02 0.  1.
    5000001    1    1    2    0    0  0.29900310011E+03  0.56576070493E+02 -0.42208158165E+03  0.53561699674E+03  0.12700000000E+03 0.  0.
   -5000001    1    1    2    0    0 -0.29900310011E+03 -0.56576070493E+02 -0.10948954284E+04  0.11434722142E+04  0.12700000000E+03 0.  0.
<mgrwt>
<rscale>  0 0.71980645E+03</rscale>
<asrwt>0</asrwt>
<pdfrwt beam="1">  1        2 0.22829043E+00 0.71980645E+03</pdfrwt>
<pdfrwt beam="2">  1       -2 0.11579444E-01 0.71980645E+03</pdfrwt>
<totfact> 0.70917081E+02</totfact>
</mgrwt>
</event>
<event>
 4    1  0.1390278E-004  0.5352867E+03  0.7818608E-02  0.1004958E+00
          2   -1    0    0  501    0  0.00000000000E+00  0.00000000000E+00  0.37177438308E+03  0.37177438309E+03  0.25500000000E-02 0.  1.
         -2   -1    0    0    0  501 -0.00000000000E+00 -0.00000000000E+00 -0.19267860899E+03  0.19267860900E+03  0.25500000000E-02 0. -1.
    5000001    1    1    2    0    0 -0.19189485362E+03 -0.10565799766E+02 -0.54143935078E+02  0.23663439453E+03  0.12700000000E+03 0.  0.
   -5000001    1    1    2    0    0  0.19189485362E+03  0.10565799766E+02  0.23323970918E+03  0.32781859756E+03  0.12700000000E+03 0.  0.
<mgrwt>
<rscale>  0 0.53528673E+03</rscale>
<asrwt>0</asrwt>
<pdfrwt beam="1">  1        2 0.53110625E-01 0.53528673E+03</pdfrwt>
<pdfrwt beam="2">  1       -2 0.27525516E-01 0.53528673E+03</pdfrwt>
<totfact> 0.11291967E+03</totfact>
</mgrwt>
</event>
<event>
 4    1  0.1390278E-004  0.3450876E+03  0.7818608E-02  0.1064650E+00
         -2   -1    0    0    0  501 -0.00000000000E+00  0.00000000000E+00  0.28054968878E+02  0.28054968994E+02  0.25500000000E-02 0. -1.
          2   -1    0    0  501    0  0.00000000000E+00 -0.00000000000E+00 -0.10611796235E+04  0.10611796235E+04  0.25500000000E-02 0.  1.
    5000001    1    1    2    0    0 -0.60245324633E+02  0.84719444199E+02 -0.68463814171E+03  0.70403499092E+03  0.12700000000E+03 0.  0.
   -5000001    1    1    2    0    0  0.60245324633E+02 -0.84719444199E+02 -0.34848651288E+03  0.38519960154E+03  0.12700000000E+03 0.  0.
<mgrwt>
<rscale>  0 0.34508759E+03</rscale>
<asrwt>0</asrwt>
<pdfrwt beam="1">  1        2 0.15159706E+00 0.34508759E+03</pdfrwt>
<pdfrwt beam="2">  1       -2 0.40078534E-02 0.34508759E+03</pdfrwt>
<totfact> 0.73827688E+03</totfact>
</mgrwt>
</event>
<event>
 4    1  0.1390278E-004  0.2810880E+03  0.7818608E-02  0.1095096E+00
         -2   -1    0    0    0  501 -0.00000000000E+00  0.00000000000E+00  0.98771747953E+01  0.98771751245E+01  0.25500000000E-02 0. -1.
          2   -1    0    0  501    0  0.00000000000E+00 -0.00000000000E+00 -0.19998245477E+04  0.19998245477E+04  0.25500000000E-02 0.  1.
    5000001    1    1    2    0    0  0.22857465859E+02 -0.42035294973E+02 -0.12561282805E+04  0.12634384381E+04  0.12700000000E+03 0.  0.
   -5000001    1    1    2    0    0 -0.22857465859E+02  0.42035294973E+02 -0.73381909239E+03  0.74626328473E+03  0.12700000000E+03 0.  0.
<mgrwt>
<rscale>  0 0.28108801E+03</rscale>
<asrwt>0</asrwt>
<pdfrwt beam="1">  1        2 0.28568896E+00 0.28108801E+03</pdfrwt>
<pdfrwt beam="2">  1       -2 0.14110263E-02 0.28108801E+03</pdfrwt>
<totfact> 0.11405307E+04</totfact>
</mgrwt>
</event>
<event>
 4    1  0.1390278E-004  0.3114672E+03  0.7818608E-02  0.1079645E+00
          2   -1    0    0  501    0  0.00000000000E+00  0.00000000000E+00  0.26085850508E+03  0.26085850509E+03  0.25500000000E-02 0.  1.
         -2   -1    0    0    0  501 -0.00000000000E+00 -0.00000000000E+00 -0.92973583923E+02  0.92973583958E+02  0.25500000000E-02 0. -1.
    5000001    1    1    2    0    0  0.51430385574E+02  0.60306131866E+02  0.13269912576E+03  0.20004992397E+03  0.12700000000E+03 0.  0.
   -5000001    1    1    2    0    0 -0.51430385574E+02 -0.60306131866E+02  0.35185795398E+02  0.15378216509E+03  0.12700000000E+03 0.  0.
<mgrwt>
<rscale>  0 0.31146717E+03</rscale>
<asrwt>0</asrwt>
<pdfrwt beam="1">  1        2 0.37265500E-01 0.31146717E+03</pdfrwt>
<pdfrwt beam="2">  1       -2 0.13281941E-01 0.31146717E+03</pdfrwt>
<totfact> 0.57740492E+03</totfact>
</mgrwt>
</event>
<event>
 4    1  0.1390278E-004  0.5008657E+03  0.7818608E-02  0.1013553E+00
         -2   -1    0    0    0  501 -0.00000000000E+00  0.00000000000E+00  0.22905337277E+03  0.22905337279E+03  0.25500000000E-02 0. -1.
          2   -1    0    0  501    0  0.00000000000E+00 -0.00000000000E+00 -0.27380780271E+03  0.27380780272E+03  0.25500000000E-02 0.  1.
    5000001    1    1    2    0    0  0.64582747694E+02  0.18534135856E+03 -0.11254175629E+03  0.25945519344E+03  0.12700000000E+03 0.  0.
   -5000001    1    1    2    0    0 -0.64582747694E+02 -0.18534135856E+03  0.67787326360E+02  0.24340598207E+03  0.12700000000E+03 0.  0.
<mgrwt>
<rscale>  0 0.50086565E+03</rscale>
<asrwt>0</asrwt>
<pdfrwt beam="1">  1        2 0.39115400E-01 0.50086565E+03</pdfrwt>
<pdfrwt beam="2">  1       -2 0.32721911E-01 0.50086565E+03</pdfrwt>
<totfact> 0.11495246E+03</totfact>
</mgrwt>
</event>
<event>
 4    1  0.1390278E-004  0.4860094E+03  0.7818608E-02  0.1017497E+00
          2   -1    0    0  501    0  0.00000000000E+00  0.00000000000E+00  0.37157007212E+03  0.37157007213E+03  0.25500000000E-02 0.  1.
         -2   -1    0    0    0  501 -0.00000000000E+00 -0.00000000000E+00 -0.15892368496E+03  0.15892368499E+03  0.25500000000E-02 0. -1.
    5000001    1    1    2    0    0  0.19972116015E+03  0.22542224271E+02  0.51468075955E+02  0.24325841512E+03  0.12700000000E+03 0.  0.
   -5000001    1    1    2    0    0 -0.19972116015E+03 -0.22542224271E+02  0.16117831120E+03  0.28723534199E+03  0.12700000000E+03 0.  0.
<mgrwt>
<rscale>  0 0.48600940E+03</rscale>
<asrwt>0</asrwt>
<pdfrwt beam="1">  1        2 0.53081439E-01 0.48600940E+03</pdfrwt>
<pdfrwt beam="2">  1       -2 0.22703384E-01 0.48600940E+03</pdfrwt>
<totfact> 0.15946150E+03</totfact>
</mgrwt>
</event>
<event>
 4    1  0.1390278E-004  0.2845508E+03  0.7818608E-02  0.1093229E+00
          2   -1    0    0  501    0  0.00000000000E+00  0.00000000000E+00  0.22295024936E+04  0.22295024936E+04  0.25500000000E-02 0.  1.
         -2   -1    0    0    0  501 -0.00000000000E+00 -0.00000000000E+00 -0.90792836106E+01  0.90792839687E+01  0.25500000000E-02 0. -1.
    5000001    1    1    2    0    0 -0.36856070011E+02  0.52476964146E+02  0.11020200598E+04  0.11111657905E+04  0.12700000000E+03 0.  0.
   -5000001    1    1    2    0    0  0.36856070011E+02 -0.52476964146E+02  0.11184031502E+04  0.11274159871E+04  0.12700000000E+03 0.  0.
<mgrwt>
<rscale>  0 0.28455077E+03</rscale>
<asrwt>0</asrwt>
<pdfrwt beam="1">  1        2 0.31850023E+00 0.28455077E+03</pdfrwt>
<pdfrwt beam="2">  1       -2 0.12970411E-02 0.28455077E+03</pdfrwt>
<totfact> 0.99619404E+03</totfact>
</mgrwt>
</event>
<event>
 4    1  0.1390278E-004  0.4246384E+03  0.7818608E-02  0.1035567E+00
          2   -1    0    0  501    0  0.00000000000E+00  0.00000000000E+00  0.11482602024E+04  0.11482602024E+04  0.25500000000E-02 0.  1.
         -2   -1    0    0    0  501 -0.00000000000E+00 -0.00000000000E+00 -0.39258914138E+02  0.39258914221E+02  0.25500000000E-02 0. -1.
    5000001    1    1    2    0    0  0.16200661898E+03  0.18498073483E+02  0.41858395305E+03  0.46682957176E+03  0.12700000000E+03 0.  0.
   -5000001    1    1    2    0    0 -0.16200661898E+03 -0.18498073483E+02  0.69041733520E+03  0.72068954485E+03  0.12700000000E+03 0.  0.
<mgrwt>
<rscale>  0 0.42463843E+03</rscale>
<asrwt>0</asrwt>
<pdfrwt beam="1">  1        2 0.16403718E+00 0.42463843E+03</pdfrwt>
<pdfrwt beam="2">  1       -2 0.56084160E-02 0.42463843E+03</pdfrwt>
<totfact> 0.39489416E+03</totfact>
</mgrwt>
</event>
<event>
 4    1  0.1390278E-004  0.4232220E+03  0.7818608E-02  0.1036023E+00
         -2   -1    0    0    0  501 -0.00000000000E+00  0.00000000000E+00  0.43076445968E+02  0.43076446044E+02  0.25500000000E-02 0. -1.
          2   -1    0    0  501    0  0.00000000000E+00 -0.00000000000E+00 -0.10395288718E+04  0.10395288718E+04  0.25500000000E-02 0.  1.
    5000001    1    1    2    0    0 -0.45903291849E+01  0.16730543863E+03 -0.56283951787E+03  0.60077408715E+03  0.12700000000E+03 0.  0.
   -5000001    1    1    2    0    0  0.45903291849E+01 -0.16730543863E+03 -0.43361290793E+03  0.48183123066E+03  0.12700000000E+03 0.  0.
<mgrwt>
<rscale>  0 0.42322197E+03</rscale>
<asrwt>0</asrwt>
<pdfrwt beam="1">  1        2 0.14850411E+00 0.42322197E+03</pdfrwt>
<pdfrwt beam="2">  1       -2 0.61537786E-02 0.42322197E+03</pdfrwt>
<totfact> 0.39497603E+03</totfact>
</mgrwt>
</event>
<event>
 4    1  0.1390278E-004  0.3209963E+03  0.7818608E-02  0.1075192E+00
          2   -1    0    0  501    0  0.00000000000E+00  0.00000000000E+00  0.18216222063E+04  0.18216222063E+04  0.25500000000E-02 0.  1.
         -2   -1    0    0    0  501 -0.00000000000E+00 -0.00000000000E+00 -0.14141056110E+02  0.14141056340E+02  0.25500000000E-02 0. -1.
    5000001    1    1    2    0    0 -0.87530993727E+02 -0.44173916742E+02  0.92776852658E+03  0.94153940369E+03  0.12700000000E+03 0.  0.
   -5000001    1    1    2    0    0  0.87530993727E+02  0.44173916742E+02  0.87971262359E+03  0.89422385894E+03  0.12700000000E+03 0.  0.
<mgrwt>
<rscale>  0 0.32099634E+03</rscale>
<asrwt>0</asrwt>
<pdfrwt beam="1">  1        2 0.26023158E+00 0.32099634E+03</pdfrwt>
<pdfrwt beam="2">  1       -2 0.20201522E-02 0.32099634E+03</pdfrwt>
<totfact> 0.82438818E+03</totfact>
</mgrwt>
</event>
<event>
 4    1  0.1390278E-004  0.3571915E+03  0.7818608E-02  0.1059701E+00
         -2   -1    0    0    0  501 -0.00000000000E+00  0.00000000000E+00  0.21632207579E+03  0.21632207581E+03  0.25500000000E-02 0. -1.
          2   -1    0    0  501    0  0.00000000000E+00 -0.00000000000E+00 -0.14744883205E+03  0.14744883208E+03  0.25500000000E-02 0.  1.
    5000001    1    1    2    0    0 -0.11303786595E+02  0.11488943757E+03  0.84743668291E+02  0.19141015588E+03  0.12700000000E+03 0.  0.
   -5000001    1    1    2    0    0  0.11303786595E+02 -0.11488943757E+03 -0.15870424550E+02  0.17236075201E+03  0.12700000000E+03 0.  0.
<mgrwt>
<rscale>  0 0.35719147E+03</rscale>
<asrwt>0</asrwt>
<pdfrwt beam="1">  1        2 0.21064119E-01 0.35719147E+03</pdfrwt>
<pdfrwt beam="2">  1       -2 0.30903154E-01 0.35719147E+03</pdfrwt>
<totfact> 0.25461699E+03</totfact>
</mgrwt>
</event>
<event>
 4    1  0.1390278E-004  0.5177288E+03  0.7818608E-02  0.1009252E+00
          2   -1    0    0  501    0  0.00000000000E+00  0.00000000000E+00  0.15505561259E+04  0.15505561259E+04  0.25500000000E-02 0.  1.
         -2   -1    0    0    0  501 -0.00000000000E+00 -0.00000000000E+00 -0.43217249924E+02  0.43217249999E+02  0.25500000000E-02 0. -1.
    5000001    1    1    2    0    0 -0.20576890360E+03  0.92409635112E+02  0.75004094650E+03  0.79345497905E+03  0.12700000000E+03 0.  0.
   -5000001    1    1    2    0    0  0.20576890360E+03 -0.92409635112E+02  0.75729792946E+03  0.80031839683E+03  0.12700000000E+03 0.  0.
<mgrwt>
<rscale>  0 0.51772878E+03</rscale>
<asrwt>0</asrwt>
<pdfrwt beam="1">  1        2 0.22150798E+00 0.51772878E+03</pdfrwt>
<pdfrwt beam="2">  1       -2 0.61738939E-02 0.51772878E+03</pdfrwt>
<totfact> 0.20718473E+03</totfact>
</mgrwt>
</event>
<event>
 4    1  0.1390278E-004  0.3598279E+03  0.7818608E-02  0.1058652E+00
         -2   -1    0    0    0  501 -0.00000000000E+00  0.00000000000E+00  0.57719594533E+02  0.57719594589E+02  0.25500000000E-02 0. -1.
          2   -1    0    0  501    0  0.00000000000E+00 -0.00000000000E+00 -0.56079794550E+03  0.56079794551E+03  0.25500000000E-02 0.  1.
    5000001    1    1    2    0    0 -0.42077203731E+02  0.11829540106E+03 -0.28903135384E+03  0.33975346428E+03  0.12700000000E+03 0.  0.
   -5000001    1    1    2    0    0  0.42077203731E+02 -0.11829540106E+03 -0.21404699713E+03  0.27876407582E+03  0.12700000000E+03 0.  0.
<mgrwt>
<rscale>  0 0.35982790E+03</rscale>
<asrwt>0</asrwt>
<pdfrwt beam="1">  1        2 0.80113989E-01 0.35982790E+03</pdfrwt>
<pdfrwt beam="2">  1       -2 0.82456567E-02 0.35982790E+03</pdfrwt>
<totfact> 0.53864264E+03</totfact>
</mgrwt>
</event>
<event>
 4    1  0.1390278E-004  0.5547414E+03  0.7818608E-02  0.1000402E+00
         -2   -1    0    0    0  501 -0.00000000000E+00  0.00000000000E+00  0.37424257579E+02  0.37424257666E+02  0.25500000000E-02 0. -1.
          2   -1    0    0  501    0  0.00000000000E+00 -0.00000000000E+00 -0.20557388413E+04  0.20557388413E+04  0.25500000000E-02 0.  1.
    5000001    1    1    2    0    0  0.16028770573E+03  0.39997591325E+02 -0.31840444265E+03  0.38052903308E+03  0.12700000000E+03 0.  0.
   -5000001    1    1    2    0    0 -0.16028770573E+03 -0.39997591325E+02 -0.16999101410E+04  0.17126340658E+04  0.12700000000E+03 0.  0.
<mgrwt>
<rscale>  0 0.55474138E+03</rscale>
<asrwt>0</asrwt>
<pdfrwt beam="1">  1        2 0.29367691E+00 0.55474138E+03</pdfrwt>
<pdfrwt beam="2">  1       -2 0.53463238E-02 0.55474138E+03</pdfrwt>
<totfact> 0.14396873E+03</totfact>
</mgrwt>
</event>
<event>
 4    1  0.1390278E-004  0.5273181E+03  0.7818608E-02  0.1006885E+00
         -2   -1    0    0    0  501 -0.00000000000E+00  0.00000000000E+00  0.21269565393E+03  0.21269565394E+03  0.25500000000E-02 0. -1.
          2   -1    0    0  501    0  0.00000000000E+00 -0.00000000000E+00 -0.32683367285E+03  0.32683367286E+03  0.25500000000E-02 0.  1.
    5000001    1    1    2    0    0  0.11909983296E+01  0.80881755579E+02 -0.27851536129E+03  0.31661188123E+03  0.12700000000E+03 0.  0.
   -5000001    1    1    2    0    0 -0.11909983296E+01 -0.80881755579E+02  0.16437734236E+03  0.22291744558E+03  0.12700000000E+03 0.  0.
<mgrwt>
<rscale>  0 0.52731813E+03</rscale>
<asrwt>0</asrwt>
<pdfrwt beam="1">  1        2 0.46690525E-01 0.52731813E+03</pdfrwt>
<pdfrwt beam="2">  1       -2 0.30385093E-01 0.52731813E+03</pdfrwt>
<totfact> 0.10858271E+03</totfact>
</mgrwt>
</event>
<event>
 4    1  0.1390278E-004  0.3390562E+03  0.7818608E-02  0.1067199E+00
          2   -1    0    0  501    0  0.00000000000E+00  0.00000000000E+00  0.12483407921E+03  0.12483407924E+03  0.25500000000E-02 0.  1.
         -2   -1    0    0    0  501 -0.00000000000E+00 -0.00000000000E+00 -0.23022385057E+03  0.23022385058E+03  0.25500000000E-02 0. -1.
    5000001    1    1    2    0    0  0.63339199979E+02  0.26962940927E+02  0.40216307804E+02  0.14995067806E+03  0.12700000000E+03 0.  0.
   -5000001    1    1    2    0    0 -0.63339199979E+02 -0.26962940927E+02 -0.14560607916E+03  0.20510725176E+03  0.12700000000E+03 0.  0.
<mgrwt>
<rscale>  0 0.33905623E+03</rscale>
<asrwt>0</asrwt>
<pdfrwt beam="1">  1        2 0.17833440E-01 0.33905623E+03</pdfrwt>
<pdfrwt beam="2">  1       -2 0.32889122E-01 0.33905623E+03</pdfrwt>
<totfact> 0.27495261E+03</totfact>
</mgrwt>
</event>
<event>
 4    1  0.1390278E-004  0.3767925E+03  0.7818608E-02  0.1052126E+00
          2   -1    0    0  501    0  0.00000000000E+00  0.00000000000E+00  0.27673789419E+03  0.27673789420E+03  0.25500000000E-02 0.  1.
         -2   -1    0    0    0  501 -0.00000000000E+00 -0.00000000000E+00 -0.12825549784E+03  0.12825549786E+03  0.25500000000E-02 0. -1.
    5000001    1    1    2    0    0 -0.97227522780E+02  0.25395038840E+02 -0.29223720071E+02  0.16456343761E+03  0.12700000000E+03 0.  0.
   -5000001    1    1    2    0    0  0.97227522780E+02 -0.25395038840E+02  0.17770611642E+03  0.24042995445E+03  0.12700000000E+03 0.  0.
<mgrwt>
<rscale>  0 0.37679255E+03</rscale>
<asrwt>0</asrwt>
<pdfrwt beam="1">  1        2 0.39533984E-01 0.37679255E+03</pdfrwt>
<pdfrwt beam="2">  1       -2 0.18322214E-01 0.37679255E+03</pdfrwt>
<totfact> 0.31807288E+03</totfact>
</mgrwt>
</event>
<event>
 4    1  0.1390278E-004  0.4433494E+03  0.7818608E-02  0.1029724E+00
         -2   -1    0    0    0  501 -0.00000000000E+00  0.00000000000E+00  0.43785154842E+02  0.43785154916E+02  0.25500000000E-02 0. -1.
          2   -1    0    0  501    0  0.00000000000E+00 -0.00000000000E+00 -0.11222909487E+04  0.11222909487E+04  0.25500000000E-02 0.  1.
    5000001    1    1    2    0    0 -0.13362531586E+03 -0.10503424158E+03 -0.37037412151E+03  0.42684178196E+03  0.12700000000E+03 0.  0.
   -5000001    1    1    2    0    0  0.13362531586E+03  0.10503424158E+03 -0.70813167237E+03  0.73923432168E+03  0.12700000000E+03 0.  0.
<mgrwt>
<rscale>  0 0.44334945E+03</rscale>
<asrwt>0</asrwt>
<pdfrwt beam="1">  1        2 0.16032726E+00 0.44334945E+03</pdfrwt>
<pdfrwt beam="2">  1       -2 0.62550228E-02 0.44334945E+03</pdfrwt>
<totfact> 0.34492161E+03</totfact>
</mgrwt>
</event>
<event>
 4    1  0.1390278E-004  0.6090360E+03  0.7818608E-02  0.9886835E-01
         -2   -1    0    0    0  501 -0.00000000000E+00  0.00000000000E+00  0.22469848389E+02  0.22469848534E+02  0.25500000000E-02 0. -1.
          2   -1    0    0  501    0  0.00000000000E+00 -0.00000000000E+00 -0.41269168934E+04  0.41269168934E+04  0.25500000000E-02 0.  1.
    5000001    1    1    2    0    0  0.21086045883E+03  0.15732990128E+03 -0.26378029384E+04  0.26539307023E+04  0.12700000000E+03 0.  0.
   -5000001    1    1    2    0    0 -0.21086045883E+03 -0.15732990128E+03 -0.14666441066E+04  0.14954560396E+04  0.12700000000E+03 0.  0.
<mgrwt>
<rscale>  0 0.60903595E+03</rscale>
<asrwt>0</asrwt>
<pdfrwt beam="1">  1        2 0.58955907E+00 0.60903595E+03</pdfrwt>
<pdfrwt beam="2">  1       -2 0.32099810E-02 0.60903595E+03</pdfrwt>
<totfact> 0.21156505E+02</totfact>
</mgrwt>
</event>
<event>
 4    1  0.1390278E-004  0.4012928E+03  0.7818608E-02  0.1043333E+00
          2   -1    0    0  501    0  0.00000000000E+00  0.00000000000E+00  0.41500480020E+03  0.41500480021E+03  0.25500000000E-02 0.  1.
         -2   -1    0    0    0  501 -0.00000000000E+00 -0.00000000000E+00 -0.97008455353E+02  0.97008455386E+02  0.25500000000E-02 0. -1.
    5000001    1    1    2    0    0 -0.46335119716E+02 -0.91049884971E+02  0.30830111310E+03  0.34873428453E+03  0.12700000000E+03 0.  0.
   -5000001    1    1    2    0    0  0.46335119716E+02  0.91049884971E+02  0.96952317525E+01  0.16327897106E+03  0.12700000000E+03 0.  0.
<mgrwt>
<rscale>  0 0.40129278E+03</rscale>
<asrwt>0</asrwt>
<pdfrwt beam="1">  1        2 0.59286399E-01 0.40129278E+03</pdfrwt>
<pdfrwt beam="2">  1       -2 0.13858351E-01 0.40129278E+03</pdfrwt>
<totfact> 0.32697627E+03</totfact>
</mgrwt>
</event>
<event>
 4    1  0.1390278E-004  0.4674398E+03  0.7818608E-02  0.1022645E+00
          2   -1    0    0  501    0  0.00000000000E+00  0.00000000000E+00  0.12497197111E+03  0.12497197113E+03  0.25500000000E-02 0.  1.
         -2   -1    0    0    0  501 -0.00000000000E+00 -0.00000000000E+00 -0.43709797617E+03  0.43709797617E+03  0.25500000000E-02 0. -1.
    5000001    1    1    2    0    0  0.15158446006E+03  0.11906162812E+03 -0.20012030472E+03  0.30550066479E+03  0.12700000000E+03 0.  0.
   -5000001    1    1    2    0    0 -0.15158446006E+03 -0.11906162812E+03 -0.11200570034E+03  0.25656928252E+03  0.12700000000E+03 0.  0.
<mgrwt>
<rscale>  0 0.46743982E+03</rscale>
<asrwt>0</asrwt>
<pdfrwt beam="1">  1        2 0.17853139E-01 0.46743982E+03</pdfrwt>
<pdfrwt beam="2">  1       -2 0.62442567E-01 0.46743982E+03</pdfrwt>
<totfact> 0.77699228E+02</totfact>
</mgrwt>
</event>
<event>
 4    1  0.1390278E-004  0.3718311E+03  0.7818608E-02  0.1053995E+00
         -2   -1    0    0    0  501 -0.00000000000E+00  0.00000000000E+00  0.12160740479E+02  0.12160740746E+02  0.25500000000E-02 0. -1.
          2   -1    0    0  501    0  0.00000000000E+00 -0.00000000000E+00 -0.28423093559E+04  0.28423093559E+04  0.25500000000E-02 0.  1.
    5000001    1    1    2    0    0 -0.67400422030E+02  0.63097236197E+02 -0.65079922495E+03  0.66947196304E+03  0.12700000000E+03 0.  0.
   -5000001    1    1    2    0    0  0.67400422030E+02 -0.63097236197E+02 -0.21793493905E+04  0.21849981336E+04  0.12700000000E+03 0.  0.
<mgrwt>
<rscale>  0 0.37183107E+03</rscale>
<asrwt>0</asrwt>
<pdfrwt beam="1">  1        2 0.40604377E+00 0.37183107E+03</pdfrwt>
<pdfrwt beam="2">  1       -2 0.17372505E-02 0.37183107E+03</pdfrwt>
<totfact> 0.31736786E+03</totfact>
</mgrwt>
</event>
<event>
 4    1  0.1390278E-004  0.6533880E+03  0.7818608E-02  0.9800443E-01
         -2   -1    0    0    0  501 -0.00000000000E+00  0.00000000000E+00  0.55650871622E+02  0.55650871681E+02  0.25500000000E-02 0. -1.
          2   -1    0    0  501    0  0.00000000000E+00 -0.00000000000E+00 -0.19178310682E+04  0.19178310682E+04  0.25500000000E-02 0.  1.
    5000001    1    1    2    0    0 -0.29321997531E+03  0.66300701431E+02 -0.97651987935E+03  0.10296085721E+04  0.12700000000E+03 0.  0.
   -5000001    1    1    2    0    0  0.29321997531E+03 -0.66300701431E+02 -0.88566031720E+03  0.94387336777E+03  0.12700000000E+03 0.  0.
<mgrwt>
<rscale>  0 0.65338800E+03</rscale>
<asrwt>0</asrwt>
<pdfrwt beam="1">  1        2 0.27397582E+00 0.65338800E+03</pdfrwt>
<pdfrwt beam="2">  1       -2 0.79501257E-02 0.65338800E+03</pdfrwt>
<totfact> 0.89949410E+02</totfact>
</mgrwt>
</event>
<event>
 4    1  0.1390278E-004  0.4981988E+03  0.7818608E-02  0.1014250E+00
         -2   -1    0    0    0  501 -0.00000000000E+00  0.00000000000E+00  0.92731080178E+02  0.92731080214E+02  0.25500000000E-02 0. -1.
          2   -1    0    0  501    0  0.00000000000E+00 -0.00000000000E+00 -0.66914458548E+03  0.66914458549E+03  0.25500000000E-02 0.  1.
    5000001    1    1    2    0    0  0.15614430214E+03  0.14084158757E+03 -0.22507765885E+03  0.33317615220E+03  0.12700000000E+03 0.  0.
   -5000001    1    1    2    0    0 -0.15614430214E+03 -0.14084158757E+03 -0.35133584645E+03  0.42869951350E+03  0.12700000000E+03 0.  0.
<mgrwt>
<rscale>  0 0.49819876E+03</rscale>
<asrwt>0</asrwt>
<pdfrwt beam="1">  1        2 0.95592081E-01 0.49819876E+03</pdfrwt>
<pdfrwt beam="2">  1       -2 0.13247298E-01 0.49819876E+03</pdfrwt>
<totfact> 0.20478786E+03</totfact>
</mgrwt>
</event>
<event>
 4    1  0.1390278E-004  0.3399028E+03  0.7818608E-02  0.1066837E+00
         -2   -1    0    0    0  501 -0.00000000000E+00  0.00000000000E+00  0.19176129317E+02  0.19176129487E+02  0.25500000000E-02 0. -1.
          2   -1    0    0  501    0  0.00000000000E+00 -0.00000000000E+00 -0.15062203930E+04  0.15062203930E+04  0.25500000000E-02 0.  1.
    5000001    1    1    2    0    0 -0.46611444611E+02  0.90820458417E+02 -0.52673603250E+03  0.55136270310E+03  0.12700000000E+03 0.  0.
   -5000001    1    1    2    0    0  0.46611444611E+02 -0.90820458417E+02 -0.96030823118E+03  0.97403381938E+03  0.12700000000E+03 0.  0.
<mgrwt>
<rscale>  0 0.33990279E+03</rscale>
<asrwt>0</asrwt>
<pdfrwt beam="1">  1        2 0.21517427E+00 0.33990279E+03</pdfrwt>
<pdfrwt beam="2">  1       -2 0.27394480E-02 0.33990279E+03</pdfrwt>
<totfact> 0.75402679E+03</totfact>
</mgrwt>
</event>
<event>
 4    1  0.1390278E-004  0.2655256E+03  0.7818608E-02  0.1103868E+00
         -2   -1    0    0    0  501 -0.00000000000E+00  0.00000000000E+00  0.27498920184E+02  0.27498920302E+02  0.25500000000E-02 0. -1.
          2   -1    0    0  501    0  0.00000000000E+00 -0.00000000000E+00 -0.64096901673E+03  0.64096901673E+03  0.25500000000E-02 0.  1.
    5000001    1    1    2    0    0  0.13134822455E+02 -0.36160611200E+02 -0.31706688767E+03  0.34371576138E+03  0.12700000000E+03 0.  0.
   -5000001    1    1    2    0    0 -0.13134822455E+02  0.36160611200E+02 -0.29640320887E+03  0.32475217566E+03  0.12700000000E+03 0.  0.
<mgrwt>
<rscale>  0 0.26552556E+03</rscale>
<asrwt>0</asrwt>
<pdfrwt beam="1">  1        2 0.91566994E-01 0.26552556E+03</pdfrwt>
<pdfrwt beam="2">  1       -2 0.39284176E-02 0.26552556E+03</pdfrwt>
<totfact> 0.14284993E+04</totfact>
</mgrwt>
</event>
<event>
 4    1  0.1390278E-004  0.3041666E+03  0.7818608E-02  0.1083176E+00
         -2   -1    0    0    0  501 -0.00000000000E+00  0.00000000000E+00  0.17485404511E+02  0.17485404697E+02  0.25500000000E-02 0. -1.
          2   -1    0    0  501    0  0.00000000000E+00 -0.00000000000E+00 -0.13227789856E+04  0.13227789856E+04  0.25500000000E-02 0.  1.
    5000001    1    1    2    0    0 -0.36157596583E+02 -0.31065501114E+02 -0.95562585140E+03  0.96520578376E+03  0.12700000000E+03 0.  0.
   -5000001    1    1    2    0    0  0.36157596583E+02  0.31065501114E+02 -0.34966772971E+03  0.37505860655E+03  0.12700000000E+03 0.  0.
<mgrwt>
<rscale>  0 0.30416657E+03</rscale>
<asrwt>0</asrwt>
<pdfrwt beam="1">  1        2 0.18896836E+00 0.30416657E+03</pdfrwt>
<pdfrwt beam="2">  1       -2 0.24979158E-02 0.30416657E+03</pdfrwt>
<totfact> 0.10737553E+04</totfact>
</mgrwt>
</event>
<event>
 4    1  0.1390278E-004  0.4587748E+03  0.7818608E-02  0.1025137E+00
          2   -1    0    0  501    0  0.00000000000E+00  0.00000000000E+00  0.60008004099E+03  0.60008004099E+03  0.25500000000E-02 0.  1.
         -2   -1    0    0    0  501 -0.00000000000E+00 -0.00000000000E+00 -0.87685941851E+02  0.87685941888E+02  0.25500000000E-02 0. -1.
    5000001    1    1    2    0    0 -0.25167309966E+02  0.12769124317E+03  0.46581434993E+03  0.50005045313E+03  0.12700000000E+03 0.  0.
   -5000001    1    1    2    0    0  0.25167309966E+02 -0.12769124317E+03  0.46579749206E+02  0.18771552975E+03  0.12700000000E+03 0.  0.
<mgrwt>
<rscale>  0 0.45877482E+03</rscale>
<asrwt>0</asrwt>
<pdfrwt beam="1">  1        2 0.85725719E-01 0.45877482E+03</pdfrwt>
<pdfrwt beam="2">  1       -2 0.12526563E-01 0.45877482E+03</pdfrwt>
<totfact> 0.25531050E+03</totfact>
</mgrwt>
</event>
<event>
 4    1  0.1390278E-004  0.3409709E+03  0.7818608E-02  0.1066383E+00
         -2   -1    0    0    0  501 -0.00000000000E+00  0.00000000000E+00  0.18138524719E+02  0.18138524898E+02  0.25500000000E-02 0. -1.
          2   -1    0    0  501    0  0.00000000000E+00 -0.00000000000E+00 -0.16024060670E+04  0.16024060670E+04  0.25500000000E-02 0.  1.
    5000001    1    1    2    0    0  0.12369486996E+02  0.10991210395E+03 -0.66615421385E+03  0.68711288115E+03  0.12700000000E+03 0.  0.
   -5000001    1    1    2    0    0 -0.12369486996E+02 -0.10991210395E+03 -0.91811332847E+03  0.93343171079E+03  0.12700000000E+03 0.  0.
<mgrwt>
<rscale>  0 0.34097086E+03</rscale>
<asrwt>0</asrwt>
<pdfrwt beam="1">  1        2 0.22891506E+00 0.34097086E+03</pdfrwt>
<pdfrwt beam="2">  1       -2 0.25912188E-02 0.34097086E+03</pdfrwt>
<totfact> 0.73251307E+03</totfact>
</mgrwt>
</event>
<event>
 4    1  0.1390278E-004  0.3095503E+03  0.7818608E-02  0.1080562E+00
          2   -1    0    0  501    0  0.00000000000E+00  0.00000000000E+00  0.84738920269E+03  0.84738920269E+03  0.25500000000E-02 0.  1.
         -2   -1    0    0    0  501 -0.00000000000E+00 -0.00000000000E+00 -0.28269586756E+02  0.28269586871E+02  0.25500000000E-02 0. -1.
    5000001    1    1    2    0    0  0.77949953505E+02 -0.15881038035E+02  0.51904387784E+03  0.54024434263E+03  0.12700000000E+03 0.  0.
   -5000001    1    1    2    0    0 -0.77949953505E+02  0.15881038035E+02  0.30007573810E+03  0.33541444694E+03  0.12700000000E+03 0.  0.
<mgrwt>
<rscale>  0 0.30955027E+03</rscale>
<asrwt>0</asrwt>
<pdfrwt beam="1">  1        2 0.12105559E+00 0.30955027E+03</pdfrwt>
<pdfrwt beam="2">  1       -2 0.40385127E-02 0.30955027E+03</pdfrwt>
<totfact> 0.98330307E+03</totfact>
</mgrwt>
</event>
<event>
 4    1  0.1390278E-004  0.3505888E+03  0.7818608E-02  0.1062374E+00
         -2   -1    0    0    0  501 -0.00000000000E+00  0.00000000000E+00  0.35914914712E+03  0.35914914713E+03  0.25500000000E-02 0. -1.
          2   -1    0    0  501    0  0.00000000000E+00 -0.00000000000E+00 -0.85558114646E+02  0.85558114684E+02  0.25500000000E-02 0.  1.
    5000001    1    1    2    0    0  0.62964686468E+02  0.50067111815E+02  0.22438131132E+02  0.15199913538E+03  0.12700000000E+03 0.  0.
   -5000001    1    1    2    0    0 -0.62964686468E+02 -0.50067111815E+02  0.25115290134E+03  0.29270812643E+03  0.12700000000E+03 0.  0.
<mgrwt>
<rscale>  0 0.35058878E+03</rscale>
<asrwt>0</asrwt>
<pdfrwt beam="1">  1        2 0.12222588E-01 0.35058878E+03</pdfrwt>
<pdfrwt beam="2">  1       -2 0.51307021E-01 0.35058878E+03</pdfrwt>
<totfact> 0.18318147E+03</totfact>
</mgrwt>
</event>
<event>
 4    1  0.1390278E-004  0.5019224E+03  0.7818608E-02  0.1013278E+00
         -2   -1    0    0    0  501 -0.00000000000E+00  0.00000000000E+00  0.42825890474E+03  0.42825890474E+03  0.25500000000E-02 0. -1.
          2   -1    0    0  501    0  0.00000000000E+00 -0.00000000000E+00 -0.14706410388E+03  0.14706410390E+03  0.25500000000E-02 0.  1.
    5000001    1    1    2    0    0  0.16055537655E+03  0.14244116143E+03  0.17271252874E+03  0.30335809037E+03  0.12700000000E+03 0.  0.
   -5000001    1    1    2    0    0 -0.16055537655E+03 -0.14244116143E+03  0.10848227212E+03  0.27196491827E+03  0.12700000000E+03 0.  0.
<mgrwt>
<rscale>  0 0.50192235E+03</rscale>
<asrwt>0</asrwt>
<pdfrwt beam="1">  1        2 0.21009158E-01 0.50192235E+03</pdfrwt>
<pdfrwt beam="2">  1       -2 0.61179843E-01 0.50192235E+03</pdfrwt>
<totfact> 0.67060796E+02</totfact>
</mgrwt>
</event>
<event>
 4    1  0.1390278E-004  0.4420882E+03  0.7818608E-02  0.1030108E+00
          2   -1    0    0  501    0  0.00000000000E+00  0.00000000000E+00  0.12567344601E+04  0.12567344601E+04  0.25500000000E-02 0.  1.
         -2   -1    0    0    0  501 -0.00000000000E+00 -0.00000000000E+00 -0.38878936749E+02  0.38878936833E+02  0.25500000000E-02 0. -1.
    5000001    1    1    2    0    0 -0.13340809855E+03 -0.84127750730E+02  0.34916581864E+03  0.40363469636E+03  0.12700000000E+03 0.  0.
   -5000001    1    1    2    0    0  0.13340809855E+03  0.84127750730E+02  0.86868970471E+03  0.89197870057E+03  0.12700000000E+03 0.  0.
<mgrwt>
<rscale>  0 0.44208822E+03</rscale>
<asrwt>0</asrwt>
<pdfrwt beam="1">  1        2 0.17953352E+00 0.44208822E+03</pdfrwt>
<pdfrwt beam="2">  1       -2 0.55541331E-02 0.44208822E+03</pdfrwt>
<totfact> 0.34921252E+03</totfact>
</mgrwt>
</event>
<event>
 4    1  0.1390278E-004  0.7264261E+03  0.7818608E-02  0.9673078E-01
         -2   -1    0    0    0  501 -0.00000000000E+00  0.00000000000E+00  0.75264623334E+02  0.75264623377E+02  0.25500000000E-02 0. -1.
          2   -1    0    0  501    0  0.00000000000E+00 -0.00000000000E+00 -0.17527986504E+04  0.17527986504E+04  0.25500000000E-02 0.  1.
    5000001    1    1    2    0    0  0.27405390494E+03  0.18659936825E+03 -0.10315699999E+04  0.10909585380E+04  0.12700000000E+03 0.  0.
   -5000001    1    1    2    0    0 -0.27405390494E+03 -0.18659936825E+03 -0.64596402715E+03  0.73710473571E+03  0.12700000000E+03 0.  0.
<mgrwt>
<rscale>  0 0.72642613E+03</rscale>
<asrwt>0</asrwt>
<pdfrwt beam="1">  1        2 0.25039978E+00 0.72642613E+03</pdfrwt>
<pdfrwt beam="2">  1       -2 0.10752090E-01 0.72642613E+03</pdfrwt>
<totfact> 0.66684243E+02</totfact>
</mgrwt>
</event>
<event>
 4    1  0.1390278E-004  0.4624416E+03  0.7818608E-02  0.1024075E+00
         -2   -1    0    0    0  501 -0.00000000000E+00  0.00000000000E+00  0.55319436540E+02  0.55319436599E+02  0.25500000000E-02 0. -1.
          2   -1    0    0  501    0  0.00000000000E+00 -0.00000000000E+00 -0.96644241284E+03  0.96644241284E+03  0.25500000000E-02 0.  1.
    5000001    1    1    2    0    0 -0.17852631140E+03 -0.64829664607E+02 -0.37714715741E+03  0.44095748958E+03  0.12700000000E+03 0.  0.
   -5000001    1    1    2    0    0  0.17852631140E+03  0.64829664607E+02 -0.53397581888E+03  0.58080435985E+03  0.12700000000E+03 0.  0.
<mgrwt>
<rscale>  0 0.46244156E+03</rscale>
<asrwt>0</asrwt>
<pdfrwt beam="1">  1        2 0.13806319E+00 0.46244156E+03</pdfrwt>
<pdfrwt beam="2">  1       -2 0.79027772E-02 0.46244156E+03</pdfrwt>
<totfact> 0.29537824E+03</totfact>
</mgrwt>
</event>
<event>
 4    1  0.1390278E-004  0.4109682E+03  0.7818608E-02  0.1040047E+00
         -2   -1    0    0    0  501 -0.00000000000E+00  0.00000000000E+00  0.32817660888E+02  0.32817660987E+02  0.25500000000E-02 0. -1.
          2   -1    0    0  501    0  0.00000000000E+00 -0.00000000000E+00 -0.12866156722E+04  0.12866156722E+04  0.25500000000E-02 0.  1.
    5000001    1    1    2    0    0  0.41270216842E+02 -0.92643614688E+02 -0.10305690971E+04  0.10433061555E+04  0.12700000000E+03 0.  0.
   -5000001    1    1    2    0    0 -0.41270216842E+02  0.92643614688E+02 -0.22322891425E+03  0.27612717776E+03  0.12700000000E+03 0.  0.
<mgrwt>
<rscale>  0 0.41096821E+03</rscale>
<asrwt>0</asrwt>
<pdfrwt beam="1">  1        2 0.18380221E+00 0.41096821E+03</pdfrwt>
<pdfrwt beam="2">  1       -2 0.46882381E-02 0.41096821E+03</pdfrwt>
<totfact> 0.43666841E+03</totfact>
</mgrwt>
</event>
<event>
 4    1  0.1390278E-004  0.4975385E+03  0.7818608E-02  0.1014423E+00
          2   -1    0    0  501    0  0.00000000000E+00  0.00000000000E+00  0.25146959354E+04  0.25146959354E+04  0.25500000000E-02 0.  1.
         -2   -1    0    0    0  501 -0.00000000000E+00 -0.00000000000E+00 -0.24609788214E+02  0.24609788346E+02  0.25500000000E-02 0. -1.
    5000001    1    1    2    0    0  0.47542124918E+02  0.20846476687E+03  0.12770471673E+04  0.13010366176E+04  0.12700000000E+03 0.  0.
   -5000001    1    1    2    0    0 -0.47542124918E+02 -0.20846476687E+03  0.12130389799E+04  0.12382691062E+04  0.12700000000E+03 0.  0.
<mgrwt>
<rscale>  0 0.49753848E+03</rscale>
<asrwt>0</asrwt>
<pdfrwt beam="1">  1        2 0.35924224E+00 0.49753848E+03</pdfrwt>
<pdfrwt beam="2">  1       -2 0.35156844E-02 0.49753848E+03</pdfrwt>
<totfact> 0.16148844E+03</totfact>
</mgrwt>
</event>
<event>
 4    1  0.1390278E-004  0.9618213E+03  0.7818608E-02  0.9351439E-01
         -2   -1    0    0    0  501 -0.00000000000E+00  0.00000000000E+00  0.20181988730E+03  0.20181988731E+03  0.25500000000E-02 0. -1.
          2   -1    0    0  501    0  0.00000000000E+00 -0.00000000000E+00 -0.11459477169E+04  0.11459477169E+04  0.25500000000E-02 0.  1.
    5000001    1    1    2    0    0 -0.45502967431E+03  0.15906084636E+02 -0.34798236104E+03  0.58696314333E+03  0.12700000000E+03 0.  0.
   -5000001    1    1    2    0    0  0.45502967431E+03 -0.15906084636E+02 -0.59614546860E+03  0.76080446093E+03  0.12700000000E+03 0.  0.
<mgrwt>
<rscale>  0 0.96182127E+03</rscale>
<asrwt>0</asrwt>
<pdfrwt beam="1">  1        2 0.16370681E+00 0.96182127E+03</pdfrwt>
<pdfrwt beam="2">  1       -2 0.28831413E-01 0.96182127E+03</pdfrwt>
<totfact> 0.25278814E+02</totfact>
</mgrwt>
</event>
<event>
 4    1  0.1390278E-004  0.5308819E+03  0.7818608E-02  0.1006018E+00
         -2   -1    0    0    0  501 -0.00000000000E+00  0.00000000000E+00  0.13249943281E+03  0.13249943283E+03  0.25500000000E-02 0. -1.
          2   -1    0    0  501    0  0.00000000000E+00 -0.00000000000E+00 -0.53176747217E+03  0.53176747217E+03  0.25500000000E-02 0.  1.
    5000001    1    1    2    0    0  0.12023454202E+03 -0.19285502831E+03 -0.26441553861E+03  0.37107140027E+03  0.12700000000E+03 0.  0.
   -5000001    1    1    2    0    0 -0.12023454202E+03  0.19285502831E+03 -0.13485250075E+03  0.29319550474E+03  0.12700000000E+03 0.  0.
<mgrwt>
<rscale>  0 0.53088186E+03</rscale>
<asrwt>0</asrwt>
<pdfrwt beam="1">  1        2 0.75966780E-01 0.53088186E+03</pdfrwt>
<pdfrwt beam="2">  1       -2 0.18928491E-01 0.53088186E+03</pdfrwt>
<totfact> 0.14670582E+03</totfact>
</mgrwt>
</event>
<event>
 4    1  0.1390278E-004  0.3194317E+03  0.7818608E-02  0.1075911E+00
          2   -1    0    0  501    0  0.00000000000E+00  0.00000000000E+00  0.19391273693E+03  0.19391273694E+03  0.25500000000E-02 0.  1.
         -2   -1    0    0    0  501 -0.00000000000E+00 -0.00000000000E+00 -0.13154967413E+03  0.13154967416E+03  0.25500000000E-02 0. -1.
    5000001    1    1    2    0    0  0.10338574584E+02  0.93901608314E+02  0.94299667013E+01  0.15856330736E+03  0.12700000000E+03 0.  0.
   -5000001    1    1    2    0    0 -0.10338574584E+02 -0.93901608314E+02  0.52933096093E+02  0.16689910374E+03  0.12700000000E+03 0.  0.
<mgrwt>
<rscale>  0 0.31943173E+03</rscale>
<asrwt>0</asrwt>
<pdfrwt beam="1">  1        2 0.27701819E-01 0.31943173E+03</pdfrwt>
<pdfrwt beam="2">  1       -2 0.18792811E-01 0.31943173E+03</pdfrwt>
<totfact> 0.44850313E+03</totfact>
</mgrwt>
</event>
<event>
 4    1  0.1390278E-004  0.6097609E+03  0.7818608E-02  0.9885360E-01
         -2   -1    0    0    0  501 -0.00000000000E+00  0.00000000000E+00  0.63636917627E+02  0.63636917678E+02  0.25500000000E-02 0. -1.
          2   -1    0    0  501    0  0.00000000000E+00 -0.00000000000E+00 -0.14606628397E+04  0.14606628397E+04  0.25500000000E-02 0.  1.
    5000001    1    1    2    0    0 -0.18124104708E+02  0.26918639366E+03 -0.53975329284E+03  0.61664610178E+03  0.12700000000E+03 0.  0.
   -5000001    1    1    2    0    0  0.18124104708E+02 -0.26918639366E+03 -0.85727262921E+03  0.90765365558E+03  0.12700000000E+03 0.  0.
<mgrwt>
<rscale>  0 0.60976087E+03</rscale>
<asrwt>0</asrwt>
<pdfrwt beam="1">  1        2 0.20866610E+00 0.60976087E+03</pdfrwt>
<pdfrwt beam="2">  1       -2 0.90909891E-02 0.60976087E+03</pdfrwt>
<totfact> 0.12457069E+03</totfact>
</mgrwt>
</event>
<event>
 4    1  0.1390278E-004  0.3320749E+03  0.7818608E-02  0.1070222E+00
          2   -1    0    0  501    0  0.00000000000E+00  0.00000000000E+00  0.18268476799E+03  0.18268476800E+03  0.25500000000E-02 0.  1.
         -2   -1    0    0    0  501 -0.00000000000E+00 -0.00000000000E+00 -0.15090713302E+03  0.15090713304E+03  0.25500000000E-02 0. -1.
    5000001    1    1    2    0    0  0.96185337266E+02 -0.10703088547E+02 -0.29852247172E+02  0.16243870189E+03  0.12700000000E+03 0.  0.
   -5000001    1    1    2    0    0 -0.96185337266E+02  0.10703088547E+02  0.61629882141E+02  0.17115319916E+03  0.12700000000E+03 0.  0.
<mgrwt>
<rscale>  0 0.33207490E+03</rscale>
<asrwt>0</asrwt>
<pdfrwt beam="1">  1        2 0.26097824E-01 0.33207490E+03</pdfrwt>
<pdfrwt beam="2">  1       -2 0.21558162E-01 0.33207490E+03</pdfrwt>
<totfact> 0.37900265E+03</totfact>
</mgrwt>
</event>
<event>
 4    1  0.1390278E-004  0.6716841E+03  0.7818608E-02  0.9766920E-01
          2   -1    0    0  501    0  0.00000000000E+00  0.00000000000E+00  0.33449609450E+04  0.33449609450E+04  0.25500000000E-02 0.  1.
         -2   -1    0    0    0  501 -0.00000000000E+00 -0.00000000000E+00 -0.33719339639E+02  0.33719339735E+02  0.25500000000E-02 0. -1.
    5000001    1    1    2    0    0  0.15252441322E+03  0.26910037244E+03  0.18132638328E+04  0.18438366073E+04  0.12700000000E+03 0.  0.
   -5000001    1    1    2    0    0 -0.15252441322E+03 -0.26910037244E+03  0.14979777725E+04  0.15348436774E+04  0.12700000000E+03 0.  0.
<mgrwt>
<rscale>  0 0.67168408E+03</rscale>
<asrwt>0</asrwt>
<pdfrwt beam="1">  1        2 0.47785126E+00 0.67168408E+03</pdfrwt>
<pdfrwt beam="2">  1       -2 0.48170515E-02 0.67168408E+03</pdfrwt>
<totfact> 0.34881076E+02</totfact>
</mgrwt>
</event>
<event>
 4    1  0.1390278E-004  0.4303773E+03  0.7818608E-02  0.1033741E+00
          2   -1    0    0  501    0  0.00000000000E+00  0.00000000000E+00  0.10653849279E+04  0.10653849279E+04  0.25500000000E-02 0.  1.
         -2   -1    0    0    0  501 -0.00000000000E+00 -0.00000000000E+00 -0.43464253613E+02  0.43464253688E+02  0.25500000000E-02 0. -1.
    5000001    1    1    2    0    0 -0.12063109864E+03 -0.12429136291E+03  0.47668706164E+03  0.52283817724E+03  0.12700000000E+03 0.  0.
   -5000001    1    1    2    0    0  0.12063109864E+03  0.12429136291E+03  0.54523361265E+03  0.58601100434E+03  0.12700000000E+03 0.  0.
<mgrwt>
<rscale>  0 0.43037733E+03</rscale>
<asrwt>0</asrwt>
<pdfrwt beam="1">  1        2 0.15219786E+00 0.43037733E+03</pdfrwt>
<pdfrwt beam="2">  1       -2 0.62091785E-02 0.43037733E+03</pdfrwt>
<totfact> 0.37619514E+03</totfact>
</mgrwt>
</event>
<event>
 4    1  0.1390278E-004  0.3596764E+03  0.7818608E-02  0.1058712E+00
         -2   -1    0    0    0  501 -0.00000000000E+00  0.00000000000E+00  0.16384506324E+04  0.16384506324E+04  0.25500000000E-02 0. -1.
          2   -1    0    0  501    0  0.00000000000E+00 -0.00000000000E+00 -0.19739249315E+02  0.19739249480E+02  0.25500000000E-02 0.  1.
    5000001    1    1    2    0    0 -0.13870024816E+02 -0.10076202558E+03  0.45621648208E+03  0.48436333667E+03  0.12700000000E+03 0.  0.
   -5000001    1    1    2    0    0  0.13870024816E+02  0.10076202558E+03  0.11624949010E+04  0.11738265452E+04  0.12700000000E+03 0.  0.
<mgrwt>
<rscale>  0 0.35967644E+03</rscale>
<asrwt>0</asrwt>
<pdfrwt beam="1">  1        2 0.28198925E-02 0.35967644E+03</pdfrwt>
<pdfrwt beam="2">  1       -2 0.23406440E+00 0.35967644E+03</pdfrwt>
<totfact> 0.30408511E+02</totfact>
</mgrwt>
</event>
<event>
 4    1  0.1390278E-004  0.4077548E+03  0.7818608E-02  0.1041127E+00
         -2   -1    0    0    0  501 -0.00000000000E+00  0.00000000000E+00  0.41042785949E+02  0.41042786029E+02  0.25500000000E-02 0. -1.
          2   -1    0    0  501    0  0.00000000000E+00 -0.00000000000E+00 -0.10127479210E+04  0.10127479210E+04  0.25500000000E-02 0.  1.
    5000001    1    1    2    0    0 -0.88900016950E+02 -0.50855187221E+02 -0.80181833595E+03  0.81824880504E+03  0.12700000000E+03 0.  0.
   -5000001    1    1    2    0    0  0.88900016950E+02  0.50855187221E+02 -0.16988679906E+03  0.23554190196E+03  0.12700000000E+03 0.  0.
<mgrwt>
<rscale>  0 0.40775481E+03</rscale>
<asrwt>0</asrwt>
<pdfrwt beam="1">  1        2 0.14467826E+00 0.40775481E+03</pdfrwt>
<pdfrwt beam="2">  1       -2 0.58632558E-02 0.40775481E+03</pdfrwt>
<totfact> 0.44145500E+03</totfact>
</mgrwt>
</event>
<event>
 4    1  0.1390278E-004  0.2725676E+03  0.7818608E-02  0.1099819E+00
         -2   -1    0    0    0  501 -0.00000000000E+00  0.00000000000E+00  0.12672303606E+02  0.12672303863E+02  0.25500000000E-02 0. -1.
          2   -1    0    0  501    0  0.00000000000E+00 -0.00000000000E+00 -0.14656583265E+04  0.14656583265E+04  0.25500000000E-02 0.  1.
    5000001    1    1    2    0    0 -0.42397547740E+01  0.34842258141E+02 -0.53764862033E+03  0.55355848600E+03  0.12700000000E+03 0.  0.
   -5000001    1    1    2    0    0  0.42397547740E+01 -0.34842258141E+02 -0.91533740258E+03  0.92477214438E+03  0.12700000000E+03 0.  0.
<mgrwt>
<rscale>  0 0.27256755E+03</rscale>
<asrwt>0</asrwt>
<pdfrwt beam="1">  1        2 0.20937965E+00 0.27256755E+03</pdfrwt>
<pdfrwt beam="2">  1       -2 0.18103300E-02 0.27256755E+03</pdfrwt>
<totfact> 0.14525935E+04</totfact>
</mgrwt>
</event>
<event>
 4    1  0.1390278E-004  0.7451537E+03  0.7818608E-02  0.9642984E-01
         -2   -1    0    0    0  501 -0.00000000000E+00  0.00000000000E+00  0.95112867350E+02  0.95112867384E+02  0.25500000000E-02 0. -1.
          2   -1    0    0  501    0  0.00000000000E+00 -0.00000000000E+00 -0.14594610413E+04  0.14594610413E+04  0.25500000000E-02 0.  1.
    5000001    1    1    2    0    0 -0.32734986885E+03  0.59049032594E+02 -0.91108954303E+03  0.97819112667E+03  0.12700000000E+03 0.  0.
   -5000001    1    1    2    0    0  0.32734986885E+03 -0.59049032594E+02 -0.45325863089E+03  0.57638278198E+03  0.12700000000E+03 0.  0.
<mgrwt>
<rscale>  0 0.74515374E+03</rscale>
<asrwt>0</asrwt>
<pdfrwt beam="1">  1        2 0.20849442E+00 0.74515374E+03</pdfrwt>
<pdfrwt beam="2">  1       -2 0.13587553E-01 0.74515374E+03</pdfrwt>
<totfact> 0.64177276E+02</totfact>
</mgrwt>
</event>
<event>
 4    1  0.1390278E-004  0.4435297E+03  0.7818608E-02  0.1029669E+00
          2   -1    0    0  501    0  0.00000000000E+00  0.00000000000E+00  0.10549315720E+03  0.10549315723E+03  0.25500000000E-02 0.  1.
         -2   -1    0    0    0  501 -0.00000000000E+00 -0.00000000000E+00 -0.46618809127E+03  0.46618809128E+03  0.25500000000E-02 0. -1.
    5000001    1    1    2    0    0 -0.17118484162E+03 -0.50798457054E+02 -0.22435891566E+03  0.31360908194E+03  0.12700000000E+03 0.  0.
   -5000001    1    1    2    0    0  0.17118484162E+03  0.50798457054E+02 -0.13633601841E+03  0.25807216656E+03  0.12700000000E+03 0.  0.
<mgrwt>
<rscale>  0 0.44352972E+03</rscale>
<asrwt>0</asrwt>
<pdfrwt beam="1">  1        2 0.15070451E-01 0.44352972E+03</pdfrwt>
<pdfrwt beam="2">  1       -2 0.66598298E-01 0.44352972E+03</pdfrwt>
<totfact> 0.82894083E+02</totfact>
</mgrwt>
</event>
<event>
 4    1  0.1390278E-004  0.3397756E+03  0.7818608E-02  0.1066892E+00
          2   -1    0    0  501    0  0.00000000000E+00  0.00000000000E+00  0.27017426890E+03  0.27017426892E+03  0.25500000000E-02 0.  1.
         -2   -1    0    0    0  501 -0.00000000000E+00 -0.00000000000E+00 -0.10682685621E+03  0.10682685624E+03  0.25500000000E-02 0. -1.
    5000001    1    1    2    0    0 -0.15741140274E+02  0.93861841919E+02  0.14893750740E+03  0.21764468745E+03  0.12700000000E+03 0.  0.
   -5000001    1    1    2    0    0  0.15741140274E+02 -0.93861841919E+02  0.14409905293E+02  0.15935643770E+03  0.12700000000E+03 0.  0.
<mgrwt>
<rscale>  0 0.33977562E+03</rscale>
<asrwt>0</asrwt>
<pdfrwt beam="1">  1        2 0.38596323E-01 0.33977562E+03</pdfrwt>
<pdfrwt beam="2">  1       -2 0.15260980E-01 0.33977562E+03</pdfrwt>
<totfact> 0.44311649E+03</totfact>
</mgrwt>
</event>
<event>
 4    1  0.1390278E-004  0.5479774E+03  0.7818608E-02  0.1001963E+00
          2   -1    0    0  501    0  0.00000000000E+00  0.00000000000E+00  0.17207231936E+04  0.17207231936E+04  0.25500000000E-02 0.  1.
         -2   -1    0    0    0  501 -0.00000000000E+00 -0.00000000000E+00 -0.43626887229E+02  0.43626887304E+02  0.25500000000E-02 0. -1.
    5000001    1    1    2    0    0 -0.18508344704E+03  0.13196325242E+03  0.11130894640E+04  0.11431392467E+04  0.12700000000E+03 0.  0.
   -5000001    1    1    2    0    0  0.18508344704E+03 -0.13196325242E+03  0.56400684233E+03  0.62121083422E+03  0.12700000000E+03 0.  0.
<mgrwt>
<rscale>  0 0.54797736E+03</rscale>
<asrwt>0</asrwt>
<pdfrwt beam="1">  1        2 0.24581757E+00 0.54797736E+03</pdfrwt>
<pdfrwt beam="2">  1       -2 0.62324131E-02 0.54797736E+03</pdfrwt>
<totfact> 0.16702217E+03</totfact>
</mgrwt>
</event>
<event>
 4    1  0.1390278E-004  0.3943979E+03  0.7818608E-02  0.1045737E+00
          2   -1    0    0  501    0  0.00000000000E+00  0.00000000000E+00  0.18181427061E+04  0.18181427061E+04  0.25500000000E-02 0.  1.
         -2   -1    0    0    0  501 -0.00000000000E+00 -0.00000000000E+00 -0.21388540792E+02  0.21388540944E+02  0.25500000000E-02 0. -1.
    5000001    1    1    2    0    0 -0.84806714206E+02  0.72201445776E+02  0.42379674021E+03  0.45622133287E+03  0.12700000000E+03 0.  0.
   -5000001    1    1    2    0    0  0.84806714206E+02 -0.72201445776E+02  0.13729574251E+04  0.13833099142E+04  0.12700000000E+03 0.  0.
<mgrwt>
<rscale>  0 0.39439787E+03</rscale>
<asrwt>0</asrwt>
<pdfrwt beam="1">  1        2 0.25973468E+00 0.39439787E+03</pdfrwt>
<pdfrwt beam="2">  1       -2 0.30555057E-02 0.39439787E+03</pdfrwt>
<totfact> 0.44695395E+03</totfact>
</mgrwt>
</event>
<event>
 4    1  0.1390278E-004  0.2774445E+03  0.7818608E-02  0.1097093E+00
         -2   -1    0    0    0  501 -0.00000000000E+00  0.00000000000E+00  0.33315018648E+02  0.33315018746E+02  0.25500000000E-02 0. -1.
          2   -1    0    0  501    0  0.00000000000E+00 -0.00000000000E+00 -0.57763317536E+03  0.57763317536E+03  0.25500000000E-02 0.  1.
    5000001    1    1    2    0    0 -0.16108410764E+02  0.50451810523E+02 -0.23338826522E+03  0.27093163054E+03  0.12700000000E+03 0.  0.
   -5000001    1    1    2    0    0  0.16108410764E+02 -0.50451810523E+02 -0.31092989149E+03  0.34001656357E+03  0.12700000000E+03 0.  0.
<mgrwt>
<rscale>  0 0.27744448E+03</rscale>
<asrwt>0</asrwt>
<pdfrwt beam="1">  1        2 0.82519019E-01 0.27744448E+03</pdfrwt>
<pdfrwt beam="2">  1       -2 0.47592887E-02 0.27744448E+03</pdfrwt>
<totfact> 0.12070721E+04</totfact>
</mgrwt>
</event>
<event>
 4    1  0.1390278E-004  0.3976555E+03  0.7818608E-02  0.1044595E+00
         -2   -1    0    0    0  501 -0.00000000000E+00  0.00000000000E+00  0.27421403740E+02  0.27421403859E+02  0.25500000000E-02 0. -1.
          2   -1    0    0  501    0  0.00000000000E+00 -0.00000000000E+00 -0.14416649197E+04  0.14416649197E+04  0.25500000000E-02 0.  1.
    5000001    1    1    2    0    0  0.68082657413E+02  0.11091188283E+03 -0.10042092861E+04  0.10205400454E+04  0.12700000000E+03 0.  0.
   -5000001    1    1    2    0    0 -0.68082657413E+02 -0.11091188283E+03 -0.41003422992E+03  0.44854627822E+03  0.12700000000E+03 0.  0.
<mgrwt>
<rscale>  0 0.39765551E+03</rscale>
<asrwt>0</asrwt>
<pdfrwt beam="1">  1        2 0.20595208E+00 0.39765551E+03</pdfrwt>
<pdfrwt beam="2">  1       -2 0.39173443E-02 0.39765551E+03</pdfrwt>
<totfact> 0.47567463E+03</totfact>
</mgrwt>
</event>
<event>
 4    1  0.1390278E-004  0.2959764E+03  0.7818608E-02  0.1087269E+00
          2   -1    0    0  501    0  0.00000000000E+00  0.00000000000E+00  0.93727690232E+03  0.93727690232E+03  0.25500000000E-02 0.  1.
         -2   -1    0    0    0  501 -0.00000000000E+00 -0.00000000000E+00 -0.23366100499E+02  0.23366100639E+02  0.25500000000E-02 0. -1.
    5000001    1    1    2    0    0 -0.59565106554E+02 -0.22541739901E+02  0.59138175293E+03  0.60820844260E+03  0.12700000000E+03 0.  0.
   -5000001    1    1    2    0    0  0.59565106554E+02  0.22541739901E+02  0.32252904889E+03  0.35243456036E+03  0.12700000000E+03 0.  0.
<mgrwt>
<rscale>  0 0.29597639E+03</rscale>
<asrwt>0</asrwt>
<pdfrwt beam="1">  1        2 0.13389669E+00 0.29597639E+03</pdfrwt>
<pdfrwt beam="2">  1       -2 0.33380147E-02 0.29597639E+03</pdfrwt>
<totfact> 0.11472663E+04</totfact>
</mgrwt>
</event>
<event>
 4    1  0.1390278E-004  0.5620983E+03  0.7818608E-02  0.9987318E-01
         -2   -1    0    0    0  501 -0.00000000000E+00  0.00000000000E+00  0.10081035679E+03  0.10081035682E+03  0.25500000000E-02 0. -1.
          2   -1    0    0  501    0  0.00000000000E+00 -0.00000000000E+00 -0.78353692014E+03  0.78353692015E+03  0.25500000000E-02 0.  1.
    5000001    1    1    2    0    0  0.97963609835E+02  0.14813835045E+03 -0.61978694249E+03  0.65711999955E+03  0.12700000000E+03 0.  0.
   -5000001    1    1    2    0    0 -0.97963609835E+02 -0.14813835045E+03 -0.62939620864E+02  0.22722727741E+03  0.12700000000E+03 0.  0.
<mgrwt>
<rscale>  0 0.56209834E+03</rscale>
<asrwt>0</asrwt>
<pdfrwt beam="1">  1        2 0.11193384E+00 0.56209834E+03</pdfrwt>
<pdfrwt beam="2">  1       -2 0.14401480E-01 0.56209834E+03</pdfrwt>
<totfact> 0.14670574E+03</totfact>
</mgrwt>
</event>
<event>
 4    1  0.1390278E-004  0.3727296E+03  0.7818608E-02  0.1053654E+00
         -2   -1    0    0    0  501 -0.00000000000E+00  0.00000000000E+00  0.41780195240E+02  0.41780195318E+02  0.25500000000E-02 0. -1.
          2   -1    0    0  501    0  0.00000000000E+00 -0.00000000000E+00 -0.83129904149E+03  0.83129904150E+03  0.25500000000E-02 0.  1.
    5000001    1    1    2    0    0 -0.11499954358E+03  0.65550136653E+02 -0.31774059362E+03  0.36689208260E+03  0.12700000000E+03 0.  0.
   -5000001    1    1    2    0    0  0.11499954358E+03 -0.65550136653E+02 -0.47177825263E+03  0.50618715421E+03  0.12700000000E+03 0.  0.
<mgrwt>
<rscale>  0 0.37272959E+03</rscale>
<asrwt>0</asrwt>
<pdfrwt beam="1">  1        2 0.11875700E+00 0.37272959E+03</pdfrwt>
<pdfrwt beam="2">  1       -2 0.59685998E-02 0.37272959E+03</pdfrwt>
<totfact> 0.55740204E+03</totfact>
</mgrwt>
</event>
<event>
 4    1  0.1390278E-004  0.3576656E+03  0.7818608E-02  0.1059512E+00
          2   -1    0    0  501    0  0.00000000000E+00  0.00000000000E+00  0.84084439244E+03  0.84084439244E+03  0.25500000000E-02 0.  1.
         -2   -1    0    0    0  501 -0.00000000000E+00 -0.00000000000E+00 -0.38034593629E+02  0.38034593714E+02  0.25500000000E-02 0. -1.
    5000001    1    1    2    0    0 -0.45811533688E+02 -0.10980647701E+03  0.30020808880E+03  0.34700152102E+03  0.12700000000E+03 0.  0.
   -5000001    1    1    2    0    0  0.45811533688E+02  0.10980647701E+03  0.50260171001E+03  0.53187746513E+03  0.12700000000E+03 0.  0.
<mgrwt>
<rscale>  0 0.35766562E+03</rscale>
<asrwt>0</asrwt>
<pdfrwt beam="1">  1        2 0.12012063E+00 0.35766562E+03</pdfrwt>
<pdfrwt beam="2">  1       -2 0.54335131E-02 0.35766562E+03</pdfrwt>
<totfact> 0.63442003E+03</totfact>
</mgrwt>
</event>
<event>
 4    1  0.1390278E-004  0.5429961E+03  0.7818608E-02  0.1003128E+00
         -2   -1    0    0    0  501 -0.00000000000E+00  0.00000000000E+00  0.62720306179E+02  0.62720306231E+02  0.25500000000E-02 0.  1.
          2   -1    0    0  501    0  0.00000000000E+00 -0.00000000000E+00 -0.11752363651E+04  0.11752363651E+04  0.25500000000E-02 0. -1.
    5000001    1    1    2    0    0  0.23721320297E+03  0.36177367191E+02 -0.56038648422E+03  0.62268845923E+03  0.12700000000E+03 0.  0.
   -5000001    1    1    2    0    0 -0.23721320297E+03 -0.36177367191E+02 -0.55212957465E+03  0.61526821206E+03  0.12700000000E+03 0.  0.
<mgrwt>
<rscale>  0 0.54299608E+03</rscale>
<asrwt>0</asrwt>
<pdfrwt beam="1">  1        2 0.16789090E+00 0.54299608E+03</pdfrwt>
<pdfrwt beam="2">  1       -2 0.89600445E-02 0.54299608E+03</pdfrwt>
<totfact> 0.18236085E+03</totfact>
</mgrwt>
</event>
<event>
 4    1  0.1390278E-004  0.2874535E+03  0.7818608E-02  0.1091686E+00
         -2   -1    0    0    0  501 -0.00000000000E+00  0.00000000000E+00  0.20287315366E+03  0.20287315367E+03  0.25500000000E-02 0. -1.
          2   -1    0    0  501    0  0.00000000000E+00 -0.00000000000E+00 -0.10182414279E+03  0.10182414282E+03  0.25500000000E-02 0.  1.
    5000001    1    1    2    0    0  0.66345686221E+02 -0.92188661128E+01  0.43683894612E+02  0.15008004605E+03  0.12700000000E+03 0.  0.
   -5000001    1    1    2    0    0 -0.66345686221E+02  0.92188661128E+01  0.57365116257E+02  0.15461725045E+03  0.12700000000E+03 0.  0.
<mgrwt>
<rscale>  0 0.28745354E+03</rscale>
<asrwt>0</asrwt>
<pdfrwt beam="1">  1        2 0.14546306E-01 0.28745354E+03</pdfrwt>
<pdfrwt beam="2">  1       -2 0.28981879E-01 0.28745354E+03</pdfrwt>
<totfact> 0.43873379E+03</totfact>
</mgrwt>
</event>
<event>
 4    1  0.1390278E-004  0.2716021E+03  0.7818608E-02  0.1100366E+00
         -2   -1    0    0    0  501 -0.00000000000E+00  0.00000000000E+00  0.17159775446E+02  0.17159775636E+02  0.25500000000E-02 0. -1.
          2   -1    0    0  501    0  0.00000000000E+00 -0.00000000000E+00 -0.10747184263E+04  0.10747184263E+04  0.25500000000E-02 0.  1.
    5000001    1    1    2    0    0 -0.12085113820E+02 -0.42584967237E+02 -0.45320525335E+03  0.47274044790E+03  0.12700000000E+03 0.  0.
   -5000001    1    1    2    0    0  0.12085113820E+02  0.42584967237E+02 -0.60435339753E+03  0.61913775408E+03  0.12700000000E+03 0.  0.
<mgrwt>
<rscale>  0 0.27160211E+03</rscale>
<asrwt>0</asrwt>
<pdfrwt beam="1">  1        2 0.15353116E+00 0.27160211E+03</pdfrwt>
<pdfrwt beam="2">  1       -2 0.24513972E-02 0.27160211E+03</pdfrwt>
<totfact> 0.15021162E+04</totfact>
</mgrwt>
</event>
<event>
 4    1  0.1390278E-004  0.4286026E+03  0.7818608E-02  0.1034302E+00
         -2   -1    0    0    0  501 -0.00000000000E+00  0.00000000000E+00  0.15103125227E+03  0.15103125230E+03  0.25500000000E-02 0. -1.
          2   -1    0    0  501    0  0.00000000000E+00 -0.00000000000E+00 -0.30407638264E+03  0.30407638265E+03  0.25500000000E-02 0.  1.
    5000001    1    1    2    0    0 -0.40085731790E+02  0.11960550685E+03  0.48593155199E+02  0.18547948106E+03  0.12700000000E+03 0.  0.
   -5000001    1    1    2    0    0  0.40085731790E+02 -0.11960550685E+03 -0.20163828557E+03  0.26962815389E+03  0.12700000000E+03 0.  0.
<mgrwt>
<rscale>  0 0.42860255E+03</rscale>
<asrwt>0</asrwt>
<pdfrwt beam="1">  1        2 0.43439483E-01 0.42860255E+03</pdfrwt>
<pdfrwt beam="2">  1       -2 0.21575893E-01 0.42860255E+03</pdfrwt>
<totfact> 0.21694883E+03</totfact>
</mgrwt>
</event>
<event>
 4    1  0.1390278E-004  0.4726850E+03  0.7818608E-02  0.1021165E+00
          2   -1    0    0  501    0  0.00000000000E+00  0.00000000000E+00  0.90846206584E+03  0.90846206584E+03  0.25500000000E-02 0.  1.
         -2   -1    0    0    0  501 -0.00000000000E+00 -0.00000000000E+00 -0.61486091235E+02  0.61486091287E+02  0.25500000000E-02 0. -1.
    5000001    1    1    2    0    0 -0.51023758389E+02 -0.17789759584E+03  0.27161522623E+03  0.35235608360E+03  0.12700000000E+03 0.  0.
   -5000001    1    1    2    0    0  0.51023758389E+02  0.17789759584E+03  0.57536074837E+03  0.61759207353E+03  0.12700000000E+03 0.  0.
<mgrwt>
<rscale>  0 0.47268502E+03</rscale>
<asrwt>0</asrwt>
<pdfrwt beam="1">  1        2 0.12978030E+00 0.47268502E+03</pdfrwt>
<pdfrwt beam="2">  1       -2 0.87837271E-02 0.47268502E+03</pdfrwt>
<totfact> 0.27147216E+03</totfact>
</mgrwt>
</event>
<event>
 4    1  0.1390278E-004  0.4487834E+03  0.7818608E-02  0.1028085E+00
         -2   -1    0    0    0  501 -0.00000000000E+00  0.00000000000E+00  0.35820558249E+02  0.35820558340E+02  0.25500000000E-02 0. -1.
          2   -1    0    0  501    0  0.00000000000E+00 -0.00000000000E+00 -0.14056628996E+04  0.14056628996E+04  0.25500000000E-02 0.  1.
    5000001    1    1    2    0    0 -0.27041330817E+02  0.83339811790E+02 -0.16159627069E+03  0.22342585460E+03  0.12700000000E+03 0.  0.
   -5000001    1    1    2    0    0  0.27041330817E+02 -0.83339811790E+02 -0.12082460707E+04  0.12180576034E+04  0.12700000000E+03 0.  0.
<mgrwt>
<rscale>  0 0.44878338E+03</rscale>
<asrwt>0</asrwt>
<pdfrwt beam="1">  1        2 0.20080895E+00 0.44878338E+03</pdfrwt>
<pdfrwt beam="2">  1       -2 0.51172235E-02 0.44878338E+03</pdfrwt>
<totfact> 0.33005862E+03</totfact>
</mgrwt>
</event>
<event>
 4    1  0.1390278E-004  0.3506112E+03  0.7818608E-02  0.1062364E+00
          2   -1    0    0  501    0  0.00000000000E+00  0.00000000000E+00  0.37830651349E+03  0.37830651349E+03  0.25500000000E-02 0.  1.
         -2   -1    0    0    0  501 -0.00000000000E+00 -0.00000000000E+00 -0.81235876639E+02  0.81235876679E+02  0.25500000000E-02 0. -1.
    5000001    1    1    2    0    0  0.88831117115E+02  0.73450620159E+02  0.19610269092E+03  0.26052106701E+03  0.12700000000E+03 0.  0.
   -5000001    1    1    2    0    0 -0.88831117115E+02 -0.73450620159E+02  0.10096794593E+03  0.19902132317E+03  0.12700000000E+03 0.  0.
<mgrwt>
<rscale>  0 0.35061124E+03</rscale>
<asrwt>0</asrwt>
<pdfrwt beam="1">  1        2 0.54043788E-01 0.35061124E+03</pdfrwt>
<pdfrwt beam="2">  1       -2 0.11605125E-01 0.35061124E+03</pdfrwt>
<totfact> 0.48234559E+03</totfact>
</mgrwt>
</event>
<event>
 4    1  0.1390278E-004  0.3004329E+03  0.7818608E-02  0.1085024E+00
         -2   -1    0    0    0  501 -0.00000000000E+00  0.00000000000E+00  0.20859118557E+02  0.20859118713E+02  0.25500000000E-02 0. -1.
          2   -1    0    0  501    0  0.00000000000E+00 -0.00000000000E+00 -0.10817803693E+04  0.10817803693E+04  0.25500000000E-02 0.  1.
    5000001    1    1    2    0    0 -0.28318969979E+02  0.72290232242E+02 -0.60460741796E+03  0.62266120129E+03  0.12700000000E+03 0.  0.
   -5000001    1    1    2    0    0  0.28318969979E+02 -0.72290232242E+02 -0.45631383274E+03  0.47997828668E+03  0.12700000000E+03 0.  0.
<mgrwt>
<rscale>  0 0.30043292E+03</rscale>
<asrwt>0</asrwt>
<pdfrwt beam="1">  1        2 0.15454002E+00 0.30043292E+03</pdfrwt>
<pdfrwt beam="2">  1       -2 0.29798748E-02 0.30043292E+03</pdfrwt>
<totfact> 0.11175265E+04</totfact>
</mgrwt>
</event>
<event>
 4    1  0.1390278E-004  0.3276352E+03  0.7818608E-02  0.1072188E+00
         -2   -1    0    0    0  501 -0.00000000000E+00  0.00000000000E+00  0.22594438368E+03  0.22594438370E+03  0.25500000000E-02 0. -1.
          2   -1    0    0  501    0  0.00000000000E+00 -0.00000000000E+00 -0.11877346977E+03  0.11877346980E+03  0.25500000000E-02 0.  1.
    5000001    1    1    2    0    0 -0.10232604625E+03  0.86058705853E+01  0.66998384966E+02  0.17652893343E+03  0.12700000000E+03 0.  0.
   -5000001    1    1    2    0    0  0.10232604625E+03 -0.86058705853E+01  0.40172528950E+02  0.16818892006E+03  0.12700000000E+03 0.  0.
<mgrwt>
<rscale>  0 0.32763515E+03</rscale>
<asrwt>0</asrwt>
<pdfrwt beam="1">  1        2 0.16967639E-01 0.32763515E+03</pdfrwt>
<pdfrwt beam="2">  1       -2 0.32277769E-01 0.32763515E+03</pdfrwt>
<totfact> 0.30149723E+03</totfact>
</mgrwt>
</event>
<event>
 4    1  0.1390278E-004  0.4464208E+03  0.7818608E-02  0.1028795E+00
          2   -1    0    0  501    0  0.00000000000E+00  0.00000000000E+00  0.96364980974E+03  0.96364980974E+03  0.25500000000E-02 0.  1.
         -2   -1    0    0    0  501 -0.00000000000E+00 -0.00000000000E+00 -0.51702265748E+02  0.51702265811E+02  0.25500000000E-02 0. -1.
    5000001    1    1    2    0    0 -0.13579327710E+03  0.32636576572E+02  0.18505013190E+03  0.26434354835E+03  0.12700000000E+03 0.  0.
   -5000001    1    1    2    0    0  0.13579327710E+03 -0.32636576572E+02  0.72689741209E+03  0.75100852721E+03  0.12700000000E+03 0.  0.
<mgrwt>
<rscale>  0 0.44642078E+03</rscale>
<asrwt>0</asrwt>
<pdfrwt beam="1">  1        2 0.13766426E+00 0.44642078E+03</pdfrwt>
<pdfrwt beam="2">  1       -2 0.73860377E-02 0.44642078E+03</pdfrwt>
<totfact> 0.32988980E+03</totfact>
</mgrwt>
</event>
<event>
 4    1  0.1390278E-004  0.3437617E+03  0.7818608E-02  0.1065205E+00
         -2   -1    0    0    0  501 -0.00000000000E+00  0.00000000000E+00  0.33771088913E+02  0.33771089009E+02  0.25500000000E-02 0. -1.
          2   -1    0    0  501    0  0.00000000000E+00 -0.00000000000E+00 -0.87480249911E+03  0.87480249911E+03  0.25500000000E-02 0.  1.
    5000001    1    1    2    0    0  0.91180328731E+02 -0.44020651181E+00 -0.60926576682E+03  0.62900542188E+03  0.12700000000E+03 0.  0.
   -5000001    1    1    2    0    0 -0.91180328731E+02  0.44020651181E+00 -0.23176564338E+03  0.27956816625E+03  0.12700000000E+03 0.  0.
<mgrwt>
<rscale>  0 0.34376174E+03</rscale>
<asrwt>0</asrwt>
<pdfrwt beam="1">  1        2 0.12497177E+00 0.34376174E+03</pdfrwt>
<pdfrwt beam="2">  1       -2 0.48244418E-02 0.34376174E+03</pdfrwt>
<totfact> 0.72276739E+03</totfact>
</mgrwt>
</event>
<event>
 4    1  0.1390278E-004  0.3695874E+03  0.7818608E-02  0.1054851E+00
          2   -1    0    0  501    0  0.00000000000E+00  0.00000000000E+00  0.41178450691E+03  0.41178450692E+03  0.25500000000E-02 0.  1.
         -2   -1    0    0    0  501 -0.00000000000E+00 -0.00000000000E+00 -0.82928592172E+02  0.82928592211E+02  0.25500000000E-02 0. -1.
    5000001    1    1    2    0    0  0.88477316386E+02 -0.94636531042E+02  0.21147585568E+03  0.27863120080E+03  0.12700000000E+03 0.  0.
   -5000001    1    1    2    0    0 -0.88477316386E+02  0.94636531042E+02  0.11738005906E+03  0.21608189833E+03  0.12700000000E+03 0.  0.
<mgrwt>
<rscale>  0 0.36958739E+03</rscale>
<asrwt>0</asrwt>
<pdfrwt beam="1">  1        2 0.58826357E-01 0.36958739E+03</pdfrwt>
<pdfrwt beam="2">  1       -2 0.11846942E-01 0.36958739E+03</pdfrwt>
<totfact> 0.42573968E+03</totfact>
</mgrwt>
</event>
<event>
 4    1  0.1390278E-004  0.9151413E+03  0.7818608E-02  0.9406850E-01
          2   -1    0    0  501    0  0.00000000000E+00  0.00000000000E+00  0.20185940719E+04  0.20185940719E+04  0.25500000000E-02 0.  1.
         -2   -1    0    0    0  501 -0.00000000000E+00 -0.00000000000E+00 -0.10372114169E+03  0.10372114172E+03  0.25500000000E-02 0. -1.
    5000001    1    1    2    0    0  0.24944910181E+03  0.17721105988E+03  0.16893846597E+04  0.17215627036E+04  0.12700000000E+03 0.  0.
   -5000001    1    1    2    0    0 -0.24944910181E+03 -0.17721105988E+03  0.22548827057E+03  0.40075251004E+03  0.12700000000E+03 0.  0.
<mgrwt>
<rscale>  0 0.91514126E+03</rscale>
<asrwt>0</asrwt>
<pdfrwt beam="1">  1        2 0.28837057E+00 0.91514126E+03</pdfrwt>
<pdfrwt beam="2">  1       -2 0.14817307E-01 0.91514126E+03</pdfrwt>
<totfact> 0.28312182E+02</totfact>
</mgrwt>
</event>
<event>
 4    1  0.1390278E-004  0.2876896E+03  0.7818608E-02  0.1091562E+00
         -2   -1    0    0    0  501 -0.00000000000E+00  0.00000000000E+00  0.15237062638E+03  0.15237062640E+03  0.25500000000E-02 0. -1.
          2   -1    0    0  501    0  0.00000000000E+00 -0.00000000000E+00 -0.13579600682E+03  0.13579600685E+03  0.25500000000E-02 0.  1.
    5000001    1    1    2    0    0  0.62113778440E+02 -0.18429346306E+02 -0.10837815388E+02  0.14298328755E+03  0.12700000000E+03 0.  0.
   -5000001    1    1    2    0    0 -0.62113778440E+02  0.18429346306E+02  0.27412434945E+02  0.14518334569E+03  0.12700000000E+03 0.  0.
<mgrwt>
<rscale>  0 0.28768957E+03</rscale>
<asrwt>0</asrwt>
<pdfrwt beam="1">  1        2 0.19399430E-01 0.28768957E+03</pdfrwt>
<pdfrwt beam="2">  1       -2 0.21767232E-01 0.28768957E+03</pdfrwt>
<totfact> 0.51953257E+03</totfact>
</mgrwt>
</event>
<event>
 4    1  0.1390278E-004  0.2919752E+03  0.7818608E-02  0.1089322E+00
         -2   -1    0    0    0  501 -0.00000000000E+00  0.00000000000E+00  0.27131965156E+02  0.27131965276E+02  0.25500000000E-02 0. -1.
          2   -1    0    0  501    0  0.00000000000E+00 -0.00000000000E+00 -0.78550803188E+03  0.78550803189E+03  0.25500000000E-02 0.  1.
    5000001    1    1    2    0    0 -0.25599822163E+02 -0.67209801516E+02 -0.38836359804E+03  0.41488286612E+03  0.12700000000E+03 0.  0.
   -5000001    1    1    2    0    0  0.25599822163E+02  0.67209801516E+02 -0.37001246868E+03  0.39775713104E+03  0.12700000000E+03 0.  0.
<mgrwt>
<rscale>  0 0.29197518E+03</rscale>
<asrwt>0</asrwt>
<pdfrwt beam="1">  1        2 0.11221542E+00 0.29197518E+03</pdfrwt>
<pdfrwt beam="2">  1       -2 0.38759955E-02 0.29197518E+03</pdfrwt>
<totfact> 0.11480218E+04</totfact>
</mgrwt>
</event>
<event>
 4    1  0.1390278E-004  0.2715755E+03  0.7818608E-02  0.1100381E+00
         -2   -1    0    0    0  501 -0.00000000000E+00  0.00000000000E+00  0.32785266031E+02  0.32785266130E+02  0.25500000000E-02 0. -1.
          2   -1    0    0  501    0  0.00000000000E+00 -0.00000000000E+00 -0.56239644303E+03  0.56239644304E+03  0.25500000000E-02 0.  1.
    5000001    1    1    2    0    0  0.61704349249E+01  0.40758345267E+02 -0.21067735194E+03  0.24942586793E+03  0.12700000000E+03 0.  0.
   -5000001    1    1    2    0    0 -0.61704349249E+01 -0.40758345267E+02 -0.31893382506E+03  0.34575584123E+03  0.12700000000E+03 0.  0.
<mgrwt>
<rscale>  0 0.27157553E+03</rscale>
<asrwt>0</asrwt>
<pdfrwt beam="1">  1        2 0.80342343E-01 0.27157553E+03</pdfrwt>
<pdfrwt beam="2">  1       -2 0.46836098E-02 0.27157553E+03</pdfrwt>
<totfact> 0.12735044E+04</totfact>
</mgrwt>
</event>
<event>
 4    1  0.1390278E-004  0.4971122E+03  0.7818608E-02  0.1014535E+00
          2   -1    0    0  501    0  0.00000000000E+00  0.00000000000E+00  0.76411134585E+03  0.76411134586E+03  0.25500000000E-02 0.  1.
         -2   -1    0    0    0  501 -0.00000000000E+00 -0.00000000000E+00 -0.80852253953E+02  0.80852253993E+02  0.25500000000E-02 0. -1.
    5000001    1    1    2    0    0 -0.15347735611E+03  0.88487155263E+02  0.13861253562E+03  0.25831707361E+03  0.12700000000E+03 0.  0.
   -5000001    1    1    2    0    0  0.15347735611E+03 -0.88487155263E+02  0.54464655628E+03  0.58664652624E+03  0.12700000000E+03 0.  0.
<mgrwt>
<rscale>  0 0.49711216E+03</rscale>
<asrwt>0</asrwt>
<pdfrwt beam="1">  1        2 0.10915876E+00 0.49711216E+03</pdfrwt>
<pdfrwt beam="2">  1       -2 0.11550322E-01 0.49711216E+03</pdfrwt>
<totfact> 0.21809320E+03</totfact>
</mgrwt>
</event>
<event>
 4    1  0.1390278E-004  0.2750987E+03  0.7818608E-02  0.1098396E+00
          2   -1    0    0  501    0  0.00000000000E+00  0.00000000000E+00  0.62012670450E+02  0.62012670502E+02  0.25500000000E-02 0.  1.
         -2   -1    0    0    0  501 -0.00000000000E+00 -0.00000000000E+00 -0.30509605989E+03  0.30509605990E+03  0.25500000000E-02 0. -1.
    5000001    1    1    2    0    0  0.41289433813E+02 -0.11215243179E+02 -0.80190113764E+02  0.15617315188E+03  0.12700000000E+03 0.  0.
   -5000001    1    1    2    0    0 -0.41289433813E+02  0.11215243179E+02 -0.16289327567E+03  0.21093557852E+03  0.12700000000E+03 0.  0.
<mgrwt>
<rscale>  0 0.27509868E+03</rscale>
<asrwt>0</asrwt>
<pdfrwt beam="1">  1        2 0.88589531E-02 0.27509868E+03</pdfrwt>
<pdfrwt beam="2">  1       -2 0.43585150E-01 0.27509868E+03</pdfrwt>
<totfact> 0.37482314E+03</totfact>
</mgrwt>
</event>
<event>
 4    1  0.1390278E-004  0.3895478E+03  0.7818608E-02  0.1047460E+00
          2   -1    0    0  501    0  0.00000000000E+00  0.00000000000E+00  0.91683445609E+03  0.91683445609E+03  0.25500000000E-02 0.  1.
         -2   -1    0    0    0  501 -0.00000000000E+00 -0.00000000000E+00 -0.41378094987E+02  0.41378095065E+02  0.25500000000E-02 0. -1.
    5000001    1    1    2    0    0  0.96507506688E+01 -0.11676119156E+03  0.21659775941E+03  0.27707382089E+03  0.12700000000E+03 0.  0.
   -5000001    1    1    2    0    0 -0.96507506688E+01  0.11676119156E+03  0.65885860169E+03  0.68113873026E+03  0.12700000000E+03 0.  0.
<mgrwt>
<rscale>  0 0.38954775E+03</rscale>
<asrwt>0</asrwt>
<pdfrwt beam="1">  1        2 0.13097636E+00 0.38954775E+03</pdfrwt>
<pdfrwt beam="2">  1       -2 0.59111559E-02 0.38954775E+03</pdfrwt>
<totfact> 0.49864216E+03</totfact>
</mgrwt>
</event>
<event>
 4    1  0.1390278E-004  0.3315637E+03  0.7818608E-02  0.1070447E+00
          2   -1    0    0  501    0  0.00000000000E+00  0.00000000000E+00  0.19095763931E+04  0.19095763931E+04  0.25500000000E-02 0.  1.
         -2   -1    0    0    0  501 -0.00000000000E+00 -0.00000000000E+00 -0.14392524236E+02  0.14392524461E+02  0.25500000000E-02 0. -1.
    5000001    1    1    2    0    0 -0.55689013727E+02  0.88419015593E+02  0.10686777581E+04  0.10812586829E+04  0.12700000000E+03 0.  0.
   -5000001    1    1    2    0    0  0.55689013727E+02 -0.88419015593E+02  0.82650611073E+03  0.84271023469E+03  0.12700000000E+03 0.  0.
<mgrwt>
<rscale>  0 0.33156372E+03</rscale>
<asrwt>0</asrwt>
<pdfrwt beam="1">  1        2 0.27279653E+00 0.33156372E+03</pdfrwt>
<pdfrwt beam="2">  1       -2 0.20560757E-02 0.33156372E+03</pdfrwt>
<totfact> 0.72721891E+03</totfact>
</mgrwt>
</event>
<event>
 4    1  0.1390278E-004  0.4194614E+03  0.7818608E-02  0.1037242E+00
         -2   -1    0    0    0  501 -0.00000000000E+00  0.00000000000E+00  0.29860693971E+02  0.29860694079E+02  0.25500000000E-02 0. -1.
          2   -1    0    0  501    0  0.00000000000E+00 -0.00000000000E+00 -0.14730725238E+04  0.14730725238E+04  0.25500000000E-02 0.  1.
    5000001    1    1    2    0    0  0.12664880063E+03 -0.43187953211E+02 -0.10790609360E+04  0.10947175991E+04  0.12700000000E+03 0.  0.
   -5000001    1    1    2    0    0 -0.12664880063E+03  0.43187953211E+02 -0.36415089380E+03  0.40821561883E+03  0.12700000000E+03 0.  0.
<mgrwt>
<rscale>  0 0.41946141E+03</rscale>
<asrwt>0</asrwt>
<pdfrwt beam="1">  1        2 0.21043889E+00 0.41946141E+03</pdfrwt>
<pdfrwt beam="2">  1       -2 0.42658144E-02 0.41946141E+03</pdfrwt>
<totfact> 0.40251626E+03</totfact>
</mgrwt>
</event>
<event>
 4    1  0.1390278E-004  0.4270924E+03  0.7818608E-02  0.1034782E+00
          2   -1    0    0  501    0  0.00000000000E+00  0.00000000000E+00  0.23444818296E+03  0.23444818297E+03  0.25500000000E-02 0.  1.
         -2   -1    0    0    0  501 -0.00000000000E+00 -0.00000000000E+00 -0.19450773548E+03  0.19450773550E+03  0.25500000000E-02 0. -1.
    5000001    1    1    2    0    0 -0.16723330377E+03 -0.30793947695E+02  0.43689788342E+02  0.21668650791E+03  0.12700000000E+03 0.  0.
   -5000001    1    1    2    0    0  0.16723330377E+03  0.30793947695E+02 -0.37493408619E+01  0.21226941056E+03  0.12700000000E+03 0.  0.
<mgrwt>
<rscale>  0 0.42709243E+03</rscale>
<asrwt>0</asrwt>
<pdfrwt beam="1">  1        2 0.33492598E-01 0.42709243E+03</pdfrwt>
<pdfrwt beam="2">  1       -2 0.27786819E-01 0.42709243E+03</pdfrwt>
<totfact> 0.18405933E+03</totfact>
</mgrwt>
</event>
<event>
 4    1  0.1390278E-004  0.4197735E+03  0.7818608E-02  0.1037140E+00
          2   -1    0    0  501    0  0.00000000000E+00  0.00000000000E+00  0.95886773066E+03  0.95886773066E+03  0.25500000000E-02 0.  1.
         -2   -1    0    0    0  501 -0.00000000000E+00 -0.00000000000E+00 -0.45942145887E+02  0.45942145958E+02  0.25500000000E-02 0. -1.
    5000001    1    1    2    0    0  0.12248447738E+03 -0.89260404495E+02  0.28799059298E+03  0.34933858741E+03  0.12700000000E+03 0.  0.
   -5000001    1    1    2    0    0 -0.12248447738E+03  0.89260404495E+02  0.62493499180E+03  0.65547128921E+03  0.12700000000E+03 0.  0.
<mgrwt>
<rscale>  0 0.41977347E+03</rscale>
<asrwt>0</asrwt>
<pdfrwt beam="1">  1        2 0.13698109E+00 0.41977347E+03</pdfrwt>
<pdfrwt beam="2">  1       -2 0.65631644E-02 0.41977347E+03</pdfrwt>
<totfact> 0.39947574E+03</totfact>
</mgrwt>
</event>
<event>
 4    1  0.1390278E-004  0.3303758E+03  0.7818608E-02  0.1070971E+00
          2   -1    0    0  501    0  0.00000000000E+00  0.00000000000E+00  0.10287670132E+04  0.10287670132E+04  0.25500000000E-02 0.  1.
         -2   -1    0    0    0  501 -0.00000000000E+00 -0.00000000000E+00 -0.26524018959E+02  0.26524019081E+02  0.25500000000E-02 0. -1.
    5000001    1    1    2    0    0 -0.36667419613E+02  0.98274925238E+02  0.54096287118E+03  0.56548411878E+03  0.12700000000E+03 0.  0.
   -5000001    1    1    2    0    0  0.36667419613E+02 -0.98274925238E+02  0.46128012309E+03  0.48980691354E+03  0.12700000000E+03 0.  0.
<mgrwt>
<rscale>  0 0.33037576E+03</rscale>
<asrwt>0</asrwt>
<pdfrwt beam="1">  1        2 0.14696675E+00 0.33037576E+03</pdfrwt>
<pdfrwt beam="2">  1       -2 0.37891447E-02 0.33037576E+03</pdfrwt>
<totfact> 0.83849144E+03</totfact>
</mgrwt>
</event>
<event>
 4    1  0.1390278E-004  0.3743387E+03  0.7818608E-02  0.1053046E+00
          2   -1    0    0  501    0  0.00000000000E+00  0.00000000000E+00  0.11820995906E+04  0.11820995906E+04  0.25500000000E-02 0.  1.
         -2   -1    0    0    0  501 -0.00000000000E+00 -0.00000000000E+00 -0.29635707857E+02  0.29635707967E+02  0.25500000000E-02 0. -1.
    5000001    1    1    2    0    0  0.12792905035E+03 -0.20324215765E+02  0.42703305893E+03  0.46396675429E+03  0.12700000000E+03 0.  0.
   -5000001    1    1    2    0    0 -0.12792905035E+03  0.20324215765E+02  0.72543082379E+03  0.74776854425E+03  0.12700000000E+03 0.  0.
<mgrwt>
<rscale>  0 0.37433866E+03</rscale>
<asrwt>0</asrwt>
<pdfrwt beam="1">  1        2 0.16887140E+00 0.37433866E+03</pdfrwt>
<pdfrwt beam="2">  1       -2 0.42336717E-02 0.37433866E+03</pdfrwt>
<totfact> 0.58122671E+03</totfact>
</mgrwt>
</event>
<event>
 4    1  0.1390278E-004  0.5194469E+03  0.7818608E-02  0.1008824E+00
          2   -1    0    0  501    0  0.00000000000E+00  0.00000000000E+00  0.28939474789E+04  0.28939474789E+04  0.25500000000E-02 0.  1.
         -2   -1    0    0    0  501 -0.00000000000E+00 -0.00000000000E+00 -0.23309433917E+02  0.23309434056E+02  0.25500000000E-02 0. -1.
    5000001    1    1    2    0    0 -0.23532019273E+02  0.22268249659E+03  0.12419081539E+04  0.12683083667E+04  0.12700000000E+03 0.  0.
   -5000001    1    1    2    0    0  0.23532019273E+02 -0.22268249659E+03  0.16287298910E+04  0.16489485462E+04  0.12700000000E+03 0.  0.
<mgrwt>
<rscale>  0 0.51944693E+03</rscale>
<asrwt>0</asrwt>
<pdfrwt beam="1">  1        2 0.41342133E+00 0.51944693E+03</pdfrwt>
<pdfrwt beam="2">  1       -2 0.33299170E-02 0.51944693E+03</pdfrwt>
<totfact> 0.11107520E+03</totfact>
</mgrwt>
</event>
<event>
 4    1  0.1390278E-004  0.2671690E+03  0.7818608E-02  0.1102911E+00
         -2   -1    0    0    0  501 -0.00000000000E+00  0.00000000000E+00  0.46777948464E+01  0.46777955415E+01  0.25500000000E-02 0. -1.
          2   -1    0    0  501    0  0.00000000000E+00 -0.00000000000E+00 -0.38147937287E+04  0.38147937287E+04  0.25500000000E-02 0.  1.
    5000001    1    1    2    0    0 -0.13403111215E+02 -0.29327412582E+02 -0.15333368454E+04  0.15389251516E+04  0.12700000000E+03 0.  0.
   -5000001    1    1    2    0    0  0.13403111215E+02  0.29327412582E+02 -0.22767790884E+04  0.22805463727E+04  0.12700000000E+03 0.  0.
<mgrwt>
<rscale>  0 0.26716904E+03</rscale>
<asrwt>0</asrwt>
<pdfrwt beam="1">  1        2 0.54496854E+00 0.26716904E+03</pdfrwt>
<pdfrwt beam="2">  1       -2 0.66825890E-03 0.26716904E+03</pdfrwt>
<totfact> 0.36377794E+03</totfact>
</mgrwt>
</event>
<event>
 4    1  0.1390278E-004  0.4460736E+03  0.7818608E-02  0.1028899E+00
         -2   -1    0    0    0  501 -0.00000000000E+00  0.00000000000E+00  0.26399054939E+04  0.26399054939E+04  0.25500000000E-02 0. -1.
          2   -1    0    0  501    0  0.00000000000E+00 -0.00000000000E+00 -0.18843633696E+02  0.18843633868E+02  0.25500000000E-02 0.  1.
    5000001    1    1    2    0    0  0.12511378766E+03 -0.13222734113E+03  0.14409633168E+04  0.14579580961E+04  0.12700000000E+03 0.  0.
   -5000001    1    1    2    0    0 -0.12511378766E+03  0.13222734113E+03  0.11800985433E+04  0.12007910316E+04  0.12700000000E+03 0.  0.
<mgrwt>
<rscale>  0 0.44607359E+03</rscale>
<asrwt>0</asrwt>
<pdfrwt beam="1">  1        2 0.26919471E-02 0.44607359E+03</pdfrwt>
<pdfrwt beam="2">  1       -2 0.37712944E+00 0.44607359E+03</pdfrwt>
<totfact> 0.44555160E+01</totfact>
</mgrwt>
</event>
<event>
 4    1  0.1390278E-004  0.4271449E+03  0.7818608E-02  0.1034766E+00
          2   -1    0    0  501    0  0.00000000000E+00  0.00000000000E+00  0.27211378555E+04  0.27211378555E+04  0.25500000000E-02 0.  1.
         -2   -1    0    0    0  501 -0.00000000000E+00 -0.00000000000E+00 -0.16762541657E+02  0.16762541851E+02  0.25500000000E-02 0. -1.
    5000001    1    1    2    0    0  0.15513501618E+03 -0.69759926180E+02  0.15026284361E+04  0.15175488584E+04  0.12700000000E+03 0.  0.
   -5000001    1    1    2    0    0 -0.15513501618E+03  0.69759926180E+02  0.12017468777E+04  0.12203515390E+04  0.12700000000E+03 0.  0.
<mgrwt>
<rscale>  0 0.42714488E+03</rscale>
<asrwt>0</asrwt>
<pdfrwt beam="1">  1        2 0.38873379E+00 0.42714488E+03</pdfrwt>
<pdfrwt beam="2">  1       -2 0.23946500E-02 0.42714488E+03</pdfrwt>
<totfact> 0.22682429E+03</totfact>
</mgrwt>
</event>
<event>
 4    1  0.1390278E-004  0.3727750E+03  0.7818608E-02  0.1053637E+00
          2   -1    0    0  501    0  0.00000000000E+00  0.00000000000E+00  0.12206312787E+03  0.12206312790E+03  0.25500000000E-02 0.  1.
         -2   -1    0    0    0  501 -0.00000000000E+00 -0.00000000000E+00 -0.28460933768E+03  0.28460933769E+03  0.25500000000E-02 0. -1.
    5000001    1    1    2    0    0  0.34294887528E+02  0.11075526651E+03 -0.28439396423E+01  0.17198824484E+03  0.12700000000E+03 0.  0.
   -5000001    1    1    2    0    0 -0.34294887528E+02 -0.11075526651E+03 -0.15970227017E+03  0.23468422075E+03  0.12700000000E+03 0.  0.
<mgrwt>
<rscale>  0 0.37277503E+03</rscale>
<asrwt>0</asrwt>
<pdfrwt beam="1">  1        2 0.17437590E-01 0.37277503E+03</pdfrwt>
<pdfrwt beam="2">  1       -2 0.40658477E-01 0.37277503E+03</pdfrwt>
<totfact> 0.18940429E+03</totfact>
</mgrwt>
</event>
<event>
 4    1  0.1390278E-004  0.3025310E+03  0.7818608E-02  0.1083982E+00
         -2   -1    0    0    0  501 -0.00000000000E+00  0.00000000000E+00  0.47897149148E+02  0.47897149216E+02  0.25500000000E-02 0. -1.
          2   -1    0    0  501    0  0.00000000000E+00 -0.00000000000E+00 -0.47771641048E+03  0.47771641048E+03  0.25500000000E-02 0.  1.
    5000001    1    1    2    0    0  0.24368391267E+02  0.61359639621E+02 -0.12991195576E+03  0.19330012963E+03  0.12700000000E+03 0.  0.
   -5000001    1    1    2    0    0 -0.24368391267E+02 -0.61359639621E+02 -0.29990730557E+03  0.33231343006E+03  0.12700000000E+03 0.  0.
<mgrwt>
<rscale>  0 0.30253102E+03</rscale>
<asrwt>0</asrwt>
<pdfrwt beam="1">  1        2 0.68245199E-01 0.30253102E+03</pdfrwt>
<pdfrwt beam="2">  1       -2 0.68424502E-02 0.30253102E+03</pdfrwt>
<totfact> 0.85840991E+03</totfact>
</mgrwt>
</event>
<event>
 4    1  0.1390278E-004  0.6318962E+03  0.7818608E-02  0.9841356E-01
          2   -1    0    0  501    0  0.00000000000E+00  0.00000000000E+00  0.28279688491E+03  0.28279688492E+03  0.25500000000E-02 0.  1.
         -2   -1    0    0    0  501 -0.00000000000E+00 -0.00000000000E+00 -0.35298548389E+03  0.35298548390E+03  0.25500000000E-02 0. -1.
    5000001    1    1    2    0    0  0.13309426423E+03 -0.24639390269E+03 -0.10813661294E+03  0.32595485195E+03  0.12700000000E+03 0.  0.
   -5000001    1    1    2    0    0 -0.13309426423E+03  0.24639390269E+03  0.37948013954E+02  0.30982751688E+03  0.12700000000E+03 0.  0.
<mgrwt>
<rscale>  0 0.63189618E+03</rscale>
<asrwt>0</asrwt>
<pdfrwt beam="1">  1        2 0.40399555E-01 0.63189618E+03</pdfrwt>
<pdfrwt beam="2">  1       -2 0.50426497E-01 0.63189618E+03</pdfrwt>
<totfact> 0.47755406E+02</totfact>
</mgrwt>
</event>
<event>
 4    1  0.1390278E-004  0.3470010E+03  0.7818608E-02  0.1063853E+00
          2   -1    0    0  501    0  0.00000000000E+00  0.00000000000E+00  0.17955056922E+04  0.17955056922E+04  0.25500000000E-02 0.  1.
         -2   -1    0    0    0  501 -0.00000000000E+00 -0.00000000000E+00 -0.16765432485E+02  0.16765432678E+02  0.25500000000E-02 0. -1.
    5000001    1    1    2    0    0 -0.44776586163E+02 -0.65737375903E+02  0.13460799410E+04  0.13543952720E+04  0.12700000000E+03 0.  0.
   -5000001    1    1    2    0    0  0.44776586163E+02  0.65737375903E+02  0.43266031874E+03  0.45787585290E+03  0.12700000000E+03 0.  0.
<mgrwt>
<rscale>  0 0.34700104E+03</rscale>
<asrwt>0</asrwt>
<pdfrwt beam="1">  1        2 0.25650078E+00 0.34700104E+03</pdfrwt>
<pdfrwt beam="2">  1       -2 0.23950621E-02 0.34700104E+03</pdfrwt>
<totfact> 0.66014887E+03</totfact>
</mgrwt>
</event>
<event>
 4    1  0.1390278E-004  0.3575782E+03  0.7818608E-02  0.1059547E+00
         -2   -1    0    0    0  501 -0.00000000000E+00  0.00000000000E+00  0.30232974699E+02  0.30232974807E+02  0.25500000000E-02 0. -1.
          2   -1    0    0  501    0  0.00000000000E+00 -0.00000000000E+00 -0.10573070157E+04  0.10573070157E+04  0.25500000000E-02 0.  1.
    5000001    1    1    2    0    0  0.90333556162E+02  0.48408156817E+02 -0.73564362424E+03  0.75352773200E+03  0.12700000000E+03 0.  0.
   -5000001    1    1    2    0    0 -0.90333556162E+02 -0.48408156817E+02 -0.29143041672E+03  0.33401225847E+03  0.12700000000E+03 0.  0.
<mgrwt>
<rscale>  0 0.35757817E+03</rscale>
<asrwt>0</asrwt>
<pdfrwt beam="1">  1        2 0.15104384E+00 0.35757817E+03</pdfrwt>
<pdfrwt beam="2">  1       -2 0.43189970E-02 0.35757817E+03</pdfrwt>
<totfact> 0.66297587E+03</totfact>
</mgrwt>
</event>
<event>
 4    1  0.1390278E-004  0.6667808E+03  0.7818608E-02  0.9775791E-01
         -2   -1    0    0    0  501 -0.00000000000E+00  0.00000000000E+00  0.73081247065E+02  0.73081247110E+02  0.25500000000E-02 0.  1.
          2   -1    0    0  501    0  0.00000000000E+00 -0.00000000000E+00 -0.15208983583E+04  0.15208983583E+04  0.25500000000E-02 0. -1.
    5000001    1    1    2    0    0  0.27704464858E+03 -0.74774972584E+02 -0.45477016782E+03  0.55253048728E+03  0.12700000000E+03 0.  0.
   -5000001    1    1    2    0    0 -0.27704464858E+03  0.74774972584E+02 -0.99304694341E+03  0.10414491181E+04  0.12700000000E+03 0.  0.
<mgrwt>
<rscale>  0 0.66678077E+03</rscale>
<asrwt>0</asrwt>
<pdfrwt beam="1">  1        2 0.21727118E+00 0.66678077E+03</pdfrwt>
<pdfrwt beam="2">  1       -2 0.10440179E-01 0.66678077E+03</pdfrwt>
<totfact> 0.92379422E+02</totfact>
</mgrwt>
</event>
<event>
 4    1  0.1390278E-004  0.7352342E+03  0.7818608E-02  0.9658805E-01
          2   -1    0    0  501    0  0.00000000000E+00  0.00000000000E+00  0.44422006985E+03  0.44422006986E+03  0.25500000000E-02 0.  1.
         -2   -1    0    0    0  501 -0.00000000000E+00 -0.00000000000E+00 -0.30422384790E+03  0.30422384791E+03  0.25500000000E-02 0. -1.
    5000001    1    1    2    0    0  0.58206364391E+02 -0.19675515889E+03 -0.21231611692E+03  0.32141516285E+03  0.12700000000E+03 0.  0.
   -5000001    1    1    2    0    0 -0.58206364391E+02  0.19675515889E+03  0.35231233887E+03  0.42702875492E+03  0.12700000000E+03 0.  0.
<mgrwt>
<rscale>  0 0.73523422E+03</rscale>
<asrwt>0</asrwt>
<pdfrwt beam="1">  1        2 0.63460009E-01 0.73523422E+03</pdfrwt>
<pdfrwt beam="2">  1       -2 0.43460550E-01 0.73523422E+03</pdfrwt>
<totfact> 0.38838765E+02</totfact>
</mgrwt>
</event>
<event>
 4    1  0.1390278E-004  0.3492560E+03  0.7818608E-02  0.1062921E+00
          2   -1    0    0  501    0  0.00000000000E+00  0.00000000000E+00  0.38475220504E+03  0.38475220505E+03  0.25500000000E-02 0.  1.
         -2   -1    0    0    0  501 -0.00000000000E+00 -0.00000000000E+00 -0.79258625177E+02  0.79258625218E+02  0.25500000000E-02 0. -1.
    5000001    1    1    2    0    0  0.79149838615E+02 -0.88833841291E+02  0.13350396052E+03  0.21933639868E+03  0.12700000000E+03 0.  0.
   -5000001    1    1    2    0    0 -0.79149838615E+02  0.88833841291E+02  0.17198961935E+03  0.24467443159E+03  0.12700000000E+03 0.  0.
<mgrwt>
<rscale>  0 0.34925596E+03</rscale>
<asrwt>0</asrwt>
<pdfrwt beam="1">  1        2 0.54964599E-01 0.34925596E+03</pdfrwt>
<pdfrwt beam="2">  1       -2 0.11322661E-01 0.34925596E+03</pdfrwt>
<totfact> 0.49276089E+03</totfact>
</mgrwt>
</event>
<event>
 4    1  0.1390278E-004  0.6985960E+03  0.7818608E-02  0.9719636E-01
         -2   -1    0    0    0  501 -0.00000000000E+00  0.00000000000E+00  0.50009937239E+03  0.50009937239E+03  0.25500000000E-02 0.  1.
          2   -1    0    0  501    0  0.00000000000E+00 -0.00000000000E+00 -0.24396966371E+03  0.24396966373E+03  0.25500000000E-02 0. -1.
    5000001    1    1    2    0    0  0.33753124169E+02 -0.31859978304E+03  0.67485727936E+02  0.35118146109E+03  0.12700000000E+03 0.  0.
   -5000001    1    1    2    0    0 -0.33753124169E+02  0.31859978304E+03  0.18864398074E+03  0.39288757502E+03  0.12700000000E+03 0.  0.
<mgrwt>
<rscale>  0 0.69859595E+03</rscale>
<asrwt>0</asrwt>
<pdfrwt beam="1">  1        2 0.34852810E-01 0.69859595E+03</pdfrwt>
<pdfrwt beam="2">  1       -2 0.71442765E-01 0.69859595E+03</pdfrwt>
<totfact> 0.26963447E+02</totfact>
</mgrwt>
</event>
<event>
 4    1  0.1390278E-004  0.3719622E+03  0.7818608E-02  0.1053945E+00
          2   -1    0    0  501    0  0.00000000000E+00  0.00000000000E+00  0.15964964102E+04  0.15964964102E+04  0.25500000000E-02 0.  1.
         -2   -1    0    0    0  501 -0.00000000000E+00 -0.00000000000E+00 -0.21665543020E+02  0.21665543170E+02  0.25500000000E-02 0. -1.
    5000001    1    1    2    0    0  0.47134802827E+00 -0.13396267703E+03  0.68881127215E+03  0.71311723415E+03  0.12700000000E+03 0.  0.
   -5000001    1    1    2    0    0 -0.47134802827E+00  0.13396267703E+03  0.88601959504E+03  0.90504471923E+03  0.12700000000E+03 0.  0.
<mgrwt>
<rscale>  0 0.37196216E+03</rscale>
<asrwt>0</asrwt>
<pdfrwt beam="1">  1        2 0.22807093E+00 0.37196216E+03</pdfrwt>
<pdfrwt beam="2">  1       -2 0.30950773E-02 0.37196216E+03</pdfrwt>
<totfact> 0.56574223E+03</totfact>
</mgrwt>
</event>
<event>
 4    1  0.1390278E-004  0.3643662E+03  0.7818608E-02  0.1056868E+00
         -2   -1    0    0    0  501 -0.00000000000E+00  0.00000000000E+00  0.97709927183E+02  0.97709927216E+02  0.25500000000E-02 0. -1.
          2   -1    0    0  501    0  0.00000000000E+00 -0.00000000000E+00 -0.33968584589E+03  0.33968584590E+03  0.25500000000E-02 0.  1.
    5000001    1    1    2    0    0  0.10818914442E+03 -0.41111283122E+02 -0.48298525598E+02  0.17848466642E+03  0.12700000000E+03 0.  0.
   -5000001    1    1    2    0    0 -0.10818914442E+03  0.41111283122E+02 -0.19367739311E+03  0.25891110670E+03  0.12700000000E+03 0.  0.
<mgrwt>
<rscale>  0 0.36436619E+03</rscale>
<asrwt>0</asrwt>
<pdfrwt beam="1">  1        2 0.48526549E-01 0.36436619E+03</pdfrwt>
<pdfrwt beam="2">  1       -2 0.13958561E-01 0.36436619E+03</pdfrwt>
<totfact> 0.40133077E+03</totfact>
</mgrwt>
</event>
<event>
 4    1  0.1390278E-004  0.5026113E+03  0.7818608E-02  0.1013100E+00
         -2   -1    0    0    0  501 -0.00000000000E+00  0.00000000000E+00  0.21049109133E+03  0.21049109135E+03  0.25500000000E-02 0. -1.
          2   -1    0    0  501    0  0.00000000000E+00 -0.00000000000E+00 -0.30003423095E+03  0.30003423096E+03  0.25500000000E-02 0.  1.
    5000001    1    1    2    0    0 -0.33136586277E+02 -0.21142528129E+03 -0.80349504003E+02  0.26150282161E+03  0.12700000000E+03 0.  0.
   -5000001    1    1    2    0    0  0.33136586277E+02  0.21142528129E+03 -0.91936356178E+01  0.24902250070E+03  0.12700000000E+03 0.  0.
<mgrwt>
<rscale>  0 0.50261131E+03</rscale>
<asrwt>0</asrwt>
<pdfrwt beam="1">  1        2 0.42862033E-01 0.50261131E+03</pdfrwt>
<pdfrwt beam="2">  1       -2 0.30070156E-01 0.50261131E+03</pdfrwt>
<totfact> 0.12159417E+03</totfact>
</mgrwt>
</event>
<event>
 4    1  0.1390278E-004  0.3973772E+03  0.7818608E-02  0.1044692E+00
          2   -1    0    0  501    0  0.00000000000E+00  0.00000000000E+00  0.35661145752E+04  0.35661145752E+04  0.25500000000E-02 0.  1.
         -2   -1    0    0    0  501 -0.00000000000E+00 -0.00000000000E+00 -0.11070078070E+02  0.11070078364E+02  0.25500000000E-02 0. -1.
    5000001    1    1    2    0    0 -0.14668194139E+03  0.20816994408E+02  0.21142528847E+04  0.21232388466E+04  0.12700000000E+03 0.  0.
   -5000001    1    1    2    0    0  0.14668194139E+03 -0.20816994408E+02  0.14407916125E+04  0.14539458070E+04  0.12700000000E+03 0.  0.
<mgrwt>
<rscale>  0 0.39737724E+03</rscale>
<asrwt>0</asrwt>
<pdfrwt beam="1">  1        2 0.50944482E+00 0.39737724E+03</pdfrwt>
<pdfrwt beam="2">  1       -2 0.15814401E-02 0.39737724E+03</pdfrwt>
<totfact> 0.14406191E+03</totfact>
</mgrwt>
</event>
<event>
 4    1  0.1390278E-004  0.3406960E+03  0.7818608E-02  0.1066500E+00
          2   -1    0    0  501    0  0.00000000000E+00  0.00000000000E+00  0.47425858575E+03  0.47425858576E+03  0.25500000000E-02 0.  1.
         -2   -1    0    0    0  501 -0.00000000000E+00 -0.00000000000E+00 -0.61186965992E+02  0.61186966045E+02  0.25500000000E-02 0. -1.
    5000001    1    1    2    0    0  0.71315002604E+02 -0.88322064478E+02  0.20389319131E+03  0.26568411720E+03  0.12700000000E+03 0.  0.
   -5000001    1    1    2    0    0 -0.71315002604E+02  0.88322064478E+02  0.20917842845E+03  0.26976143460E+03  0.12700000000E+03 0.  0.
<mgrwt>
<rscale>  0 0.34069602E+03</rscale>
<asrwt>0</asrwt>
<pdfrwt beam="1">  1        2 0.67751225E-01 0.34069602E+03</pdfrwt>
<pdfrwt beam="2">  1       -2 0.87409953E-02 0.34069602E+03</pdfrwt>
<totfact> 0.59207497E+03</totfact>
</mgrwt>
</event>
<event>
 4    1  0.1390278E-004  0.6492966E+03  0.7818608E-02  0.9808100E-01
          2   -1    0    0  501    0  0.00000000000E+00  0.00000000000E+00  0.18040982181E+04  0.18040982181E+04  0.25500000000E-02 0.  1.
         -2   -1    0    0    0  501 -0.00000000000E+00 -0.00000000000E+00 -0.58420607055E+02  0.58420607111E+02  0.25500000000E-02 0. -1.
    5000001    1    1    2    0    0  0.28857057804E+03 -0.20684101692E+02  0.10868598910E+04  0.11318543339E+04  0.12700000000E+03 0.  0.
   -5000001    1    1    2    0    0 -0.28857057804E+03  0.20684101692E+02  0.65881772004E+03  0.73066449128E+03  0.12700000000E+03 0.  0.
<mgrwt>
<rscale>  0 0.64929658E+03</rscale>
<asrwt>0</asrwt>
<pdfrwt beam="1">  1        2 0.25772826E+00 0.64929658E+03</pdfrwt>
<pdfrwt beam="2">  1       -2 0.83458027E-02 0.64929658E+03</pdfrwt>
<totfact> 0.95021181E+02</totfact>
</mgrwt>
</event>
<event>
 4    1  0.1390278E-004  0.4381795E+03  0.7818608E-02  0.1031307E+00
         -2   -1    0    0    0  501 -0.00000000000E+00  0.00000000000E+00  0.17885207129E+02  0.17885207311E+02  0.25500000000E-02 0. -1.
          2   -1    0    0  501    0  0.00000000000E+00 -0.00000000000E+00 -0.26837999810E+04  0.26837999810E+04  0.25500000000E-02 0.  1.
    5000001    1    1    2    0    0 -0.46990904559E+02 -0.13231696352E+03 -0.65317920606E+03  0.68006470220E+03  0.12700000000E+03 0.  0.
   -5000001    1    1    2    0    0  0.46990904559E+02  0.13231696352E+03 -0.20127355678E+04  0.20216204862E+04  0.12700000000E+03 0.  0.
<mgrwt>
<rscale>  0 0.43817950E+03</rscale>
<asrwt>0</asrwt>
<pdfrwt beam="1">  1        2 0.38339974E+00 0.43817950E+03</pdfrwt>
<pdfrwt beam="2">  1       -2 0.25550313E-02 0.43817950E+03</pdfrwt>
<totfact> 0.21502981E+03</totfact>
</mgrwt>
</event>
<event>
 4    1  0.1390278E-004  0.3869003E+03  0.7818608E-02  0.1048412E+00
         -2   -1    0    0    0  501 -0.00000000000E+00  0.00000000000E+00  0.21947166519E+03  0.21947166520E+03  0.25500000000E-02 0. -1.
          2   -1    0    0  501    0  0.00000000000E+00 -0.00000000000E+00 -0.17051389112E+03  0.17051389113E+03  0.25500000000E-02 0.  1.
    5000001    1    1    2    0    0 -0.11204883530E+03 -0.78219000455E+02  0.76081004569E+02  0.20147077401E+03  0.12700000000E+03 0.  0.
   -5000001    1    1    2    0    0  0.11204883530E+03  0.78219000455E+02 -0.27123230495E+02  0.18851478233E+03  0.12700000000E+03 0.  0.
<mgrwt>
<rscale>  0 0.38690034E+03</rscale>
<asrwt>0</asrwt>
<pdfrwt beam="1">  1        2 0.24359127E-01 0.38690034E+03</pdfrwt>
<pdfrwt beam="2">  1       -2 0.31353095E-01 0.38690034E+03</pdfrwt>
<totfact> 0.21038275E+03</totfact>
</mgrwt>
</event>
<event>
 4    1  0.1390278E-004  0.3611664E+03  0.7818608E-02  0.1058123E+00
          2   -1    0    0  501    0  0.00000000000E+00  0.00000000000E+00  0.39458010604E+03  0.39458010605E+03  0.25500000000E-02 0.  1.
         -2   -1    0    0    0  501 -0.00000000000E+00 -0.00000000000E+00 -0.82645554465E+02  0.82645554504E+02  0.25500000000E-02 0. -1.
    5000001    1    1    2    0    0  0.60237355668E+02  0.45553229901E+02  0.29314342495E+03  0.32827686998E+03  0.12700000000E+03 0.  0.
   -5000001    1    1    2    0    0 -0.60237355668E+02 -0.45553229901E+02  0.18791126621E+02  0.14894879057E+03  0.12700000000E+03 0.  0.
<mgrwt>
<rscale>  0 0.36116640E+03</rscale>
<asrwt>0</asrwt>
<pdfrwt beam="1">  1        2 0.56368587E-01 0.36116640E+03</pdfrwt>
<pdfrwt beam="2">  1       -2 0.11806508E-01 0.36116640E+03</pdfrwt>
<totfact> 0.44832953E+03</totfact>
</mgrwt>
</event>
<event>
 4    1  0.1390278E-004  0.3887242E+03  0.7818608E-02  0.1047756E+00
          2   -1    0    0  501    0  0.00000000000E+00  0.00000000000E+00  0.15388757396E+04  0.15388757396E+04  0.25500000000E-02 0.  1.
         -2   -1    0    0    0  501 -0.00000000000E+00 -0.00000000000E+00 -0.24548195733E+02  0.24548195865E+02  0.25500000000E-02 0. -1.
    5000001    1    1    2    0    0 -0.77370284029E+02  0.63725606937E+02  0.11903490817E+04  0.12012939066E+04  0.12700000000E+03 0.  0.
   -5000001    1    1    2    0    0  0.77370284029E+02 -0.63725606937E+02  0.32397846218E+03  0.36213002884E+03  0.12700000000E+03 0.  0.
<mgrwt>
<rscale>  0 0.38872418E+03</rscale>
<asrwt>0</asrwt>
<pdfrwt beam="1">  1        2 0.21983947E+00 0.38872418E+03</pdfrwt>
<pdfrwt beam="2">  1       -2 0.35068839E-02 0.38872418E+03</pdfrwt>
<totfact> 0.50137613E+03</totfact>
</mgrwt>
</event>
<event>
 4    1  0.1390278E-004  0.3702022E+03  0.7818608E-02  0.1054616E+00
          2   -1    0    0  501    0  0.00000000000E+00  0.00000000000E+00  0.58860583933E+03  0.58860583934E+03  0.25500000000E-02 0.  1.
         -2   -1    0    0    0  501 -0.00000000000E+00 -0.00000000000E+00 -0.58209436765E+02  0.58209436821E+02  0.25500000000E-02 0. -1.
    5000001    1    1    2    0    0  0.12692749301E+03  0.42668298575E+02  0.29004538677E+03  0.34378263274E+03  0.12700000000E+03 0.  0.
   -5000001    1    1    2    0    0 -0.12692749301E+03 -0.42668298575E+02  0.24035101580E+03  0.30303264343E+03  0.12700000000E+03 0.  0.
<mgrwt>
<rscale>  0 0.37020218E+03</rscale>
<asrwt>0</asrwt>
<pdfrwt beam="1">  1        2 0.84086551E-01 0.37020218E+03</pdfrwt>
<pdfrwt beam="2">  1       -2 0.83156336E-02 0.37020218E+03</pdfrwt>
<totfact> 0.50318457E+03</totfact>
</mgrwt>
</event>
<event>
 4    1  0.1390278E-004  0.4193361E+03  0.7818608E-02  0.1037283E+00
         -2   -1    0    0    0  501 -0.00000000000E+00  0.00000000000E+00  0.29647883324E+02  0.29647883434E+02  0.25500000000E-02 0. -1.
          2   -1    0    0  501    0  0.00000000000E+00 -0.00000000000E+00 -0.14827595865E+04  0.14827595865E+04  0.25500000000E-02 0.  1.
    5000001    1    1    2    0    0 -0.61475387908E+02  0.85876887993E+02 -0.26078357062E+03  0.30869262044E+03  0.12700000000E+03 0.  0.
   -5000001    1    1    2    0    0  0.61475387908E+02 -0.85876887993E+02 -0.11923281326E+04  0.12037148495E+04  0.12700000000E+03 0.  0.
<mgrwt>
<rscale>  0 0.41933606E+03</rscale>
<asrwt>0</asrwt>
<pdfrwt beam="1">  1        2 0.21182275E+00 0.41933606E+03</pdfrwt>
<pdfrwt beam="2">  1       -2 0.42354128E-02 0.41933606E+03</pdfrwt>
<totfact> 0.40227849E+03</totfact>
</mgrwt>
</event>
<event>
 4    1  0.1390278E-004  0.5615965E+03  0.7818608E-02  0.9988449E-01
          2   -1    0    0  501    0  0.00000000000E+00  0.00000000000E+00  0.15256828096E+04  0.15256828096E+04  0.25500000000E-02 0.  1.
         -2   -1    0    0    0  501 -0.00000000000E+00 -0.00000000000E+00 -0.51680242542E+02  0.51680242605E+02  0.25500000000E-02 0. -1.
    5000001    1    1    2    0    0 -0.12625731686E+03 -0.13529845530E+03  0.12109341575E+04  0.12315588154E+04  0.12700000000E+03 0.  0.
   -5000001    1    1    2    0    0  0.12625731686E+03  0.13529845530E+03  0.26306840958E+03  0.34580423679E+03  0.12700000000E+03 0.  0.
<mgrwt>
<rscale>  0 0.56159650E+03</rscale>
<asrwt>0</asrwt>
<pdfrwt beam="1">  1        2 0.21795470E+00 0.56159650E+03</pdfrwt>
<pdfrwt beam="2">  1       -2 0.73828913E-02 0.56159650E+03</pdfrwt>
<totfact> 0.16086519E+03</totfact>
</mgrwt>
</event>
<event>
 4    1  0.1390278E-004  0.3826447E+03  0.7818608E-02  0.1049961E+00
         -2   -1    0    0    0  501 -0.00000000000E+00  0.00000000000E+00  0.25327801090E+02  0.25327801218E+02  0.25500000000E-02 0. -1.
          2   -1    0    0  501    0  0.00000000000E+00 -0.00000000000E+00 -0.14452200369E+04  0.14452200369E+04  0.25500000000E-02 0.  1.
    5000001    1    1    2    0    0  0.74006905966E+02  0.11247043030E+03 -0.89619357567E+03  0.91510575612E+03  0.12700000000E+03 0.  0.
   -5000001    1    1    2    0    0 -0.74006905966E+02 -0.11247043030E+03 -0.52369866018E+03  0.55544208204E+03  0.12700000000E+03 0.  0.
<mgrwt>
<rscale>  0 0.38264472E+03</rscale>
<asrwt>0</asrwt>
<pdfrwt beam="1">  1        2 0.20645995E+00 0.38264472E+03</pdfrwt>
<pdfrwt beam="2">  1       -2 0.36182582E-02 0.38264472E+03</pdfrwt>
<totfact> 0.53412337E+03</totfact>
</mgrwt>
</event>
<event>
 4    1  0.1390278E-004  0.3396806E+03  0.7818608E-02  0.1066932E+00
          2   -1    0    0  501    0  0.00000000000E+00  0.00000000000E+00  0.11652630527E+04  0.11652630527E+04  0.25500000000E-02 0.  1.
         -2   -1    0    0    0  501 -0.00000000000E+00 -0.00000000000E+00 -0.24754691955E+02  0.24754692086E+02  0.25500000000E-02 0. -1.
    5000001    1    1    2    0    0 -0.29183927232E+02 -0.10574846007E+03  0.66176386522E+03  0.68271139710E+03  0.12700000000E+03 0.  0.
   -5000001    1    1    2    0    0  0.29183927232E+02  0.10574846007E+03  0.47874449556E+03  0.50730634773E+03  0.12700000000E+03 0.  0.
<mgrwt>
<rscale>  0 0.33968060E+03</rscale>
<asrwt>0</asrwt>
<pdfrwt beam="1">  1        2 0.16646615E+00 0.33968060E+03</pdfrwt>
<pdfrwt beam="2">  1       -2 0.35363845E-02 0.33968060E+03</pdfrwt>
<totfact> 0.77848302E+03</totfact>
</mgrwt>
</event>
<event>
 4    1  0.1390278E-004  0.3672839E+03  0.7818608E-02  0.1055736E+00
          2   -1    0    0  501    0  0.00000000000E+00  0.00000000000E+00  0.10525065125E+04  0.10525065125E+04  0.25500000000E-02 0.  1.
         -2   -1    0    0    0  501 -0.00000000000E+00 -0.00000000000E+00 -0.32041962160E+02  0.32041962261E+02  0.25500000000E-02 0. -1.
    5000001    1    1    2    0    0  0.15663983137E+02 -0.13142463349E+03  0.48422350537E+03  0.51780227675E+03  0.12700000000E+03 0.  0.
   -5000001    1    1    2    0    0 -0.15663983137E+02  0.13142463349E+03  0.53624104502E+03  0.56674619806E+03  0.12700000000E+03 0.  0.
<mgrwt>
<rscale>  0 0.36728394E+03</rscale>
<asrwt>0</asrwt>
<pdfrwt beam="1">  1        2 0.15035806E+00 0.36728394E+03</pdfrwt>
<pdfrwt beam="2">  1       -2 0.45774237E-02 0.36728394E+03</pdfrwt>
<totfact> 0.61101737E+03</totfact>
</mgrwt>
</event>
<event>
 4    1  0.1390278E-004  0.7081316E+03  0.7818608E-02  0.9703426E-01
          2   -1    0    0  501    0  0.00000000000E+00  0.00000000000E+00  0.72092874464E+03  0.72092874465E+03  0.25500000000E-02 0.  1.
         -2   -1    0    0    0  501 -0.00000000000E+00 -0.00000000000E+00 -0.17389038467E+03  0.17389038469E+03  0.25500000000E-02 0. -1.
    5000001    1    1    2    0    0 -0.26276633220E+03  0.18832641110E+03  0.18669920687E+03  0.39433307787E+03  0.12700000000E+03 0.  0.
   -5000001    1    1    2    0    0  0.26276633220E+03 -0.18832641110E+03  0.36033915310E+03  0.50048605147E+03  0.12700000000E+03 0.  0.
<mgrwt>
<rscale>  0 0.70813156E+03</rscale>
<asrwt>0</asrwt>
<pdfrwt beam="1">  1        2 0.10298982E+00 0.70813156E+03</pdfrwt>
<pdfrwt beam="2">  1       -2 0.24841483E-01 0.70813156E+03</pdfrwt>
<totfact> 0.63132700E+02</totfact>
</mgrwt>
</event>
<event>
 4    1  0.1390278E-004  0.3956372E+03  0.7818608E-02  0.1045301E+00
          2   -1    0    0  501    0  0.00000000000E+00  0.00000000000E+00  0.24662847219E+04  0.24662847219E+04  0.25500000000E-02 0.  1.
         -2   -1    0    0    0  501 -0.00000000000E+00 -0.00000000000E+00 -0.15866861311E+02  0.15866861515E+02  0.25500000000E-02 0. -1.
    5000001    1    1    2    0    0  0.64177007264E+02 -0.90152111853E+02  0.57451176442E+03  0.59869763569E+03  0.12700000000E+03 0.  0.
   -5000001    1    1    2    0    0 -0.64177007264E+02  0.90152111853E+02  0.18759060962E+04  0.18834539477E+04  0.12700000000E+03 0.  0.
<mgrwt>
<rscale>  0 0.39563720E+03</rscale>
<asrwt>0</asrwt>
<pdfrwt beam="1">  1        2 0.35232640E+00 0.39563720E+03</pdfrwt>
<pdfrwt beam="2">  1       -2 0.22666944E-02 0.39563720E+03</pdfrwt>
<totfact> 0.33295220E+03</totfact>
</mgrwt>
</event>
<event>
 4    1  0.1390278E-004  0.4291339E+03  0.7818608E-02  0.1034134E+00
          2   -1    0    0  501    0  0.00000000000E+00  0.00000000000E+00  0.14065817881E+04  0.14065817881E+04  0.25500000000E-02 0. -1.
         -2   -1    0    0    0  501 -0.00000000000E+00 -0.00000000000E+00 -0.32731099367E+02  0.32731099466E+02  0.25500000000E-02 0.  1.
    5000001    1    1    2    0    0  0.12510039514E+03  0.88691549235E+02  0.41873848962E+03  0.46366714619E+03  0.12700000000E+03 0.  0.
   -5000001    1    1    2    0    0 -0.12510039514E+03 -0.88691549235E+02  0.95511219912E+03  0.97564574138E+03  0.12700000000E+03 0.  0.
<mgrwt>
<rscale>  0 0.42913386E+03</rscale>
<asrwt>0</asrwt>
<pdfrwt beam="1">  1        2 0.20094020E+00 0.42913386E+03</pdfrwt>
<pdfrwt beam="2">  1       -2 0.46758727E-02 0.42913386E+03</pdfrwt>
<totfact> 0.37875756E+03</totfact>
</mgrwt>
</event>
<event>
 4    1  0.1390278E-004  0.4453869E+03  0.7818608E-02  0.1029107E+00
          2   -1    0    0  501    0  0.00000000000E+00  0.00000000000E+00  0.47328926543E+03  0.47328926544E+03  0.25500000000E-02 0.  1.
         -2   -1    0    0    0  501 -0.00000000000E+00 -0.00000000000E+00 -0.10478237696E+03  0.10478237699E+03  0.25500000000E-02 0. -1.
    5000001    1    1    2    0    0 -0.10558413114E+03  0.14763338621E+03  0.21384317065E+03  0.30789856626E+03  0.12700000000E+03 0.  0.
   -5000001    1    1    2    0    0  0.10558413114E+03 -0.14763338621E+03  0.15466371782E+03  0.27017307616E+03  0.12700000000E+03 0.  0.
<mgrwt>
<rscale>  0 0.44538691E+03</rscale>
<asrwt>0</asrwt>
<pdfrwt beam="1">  1        2 0.67612753E-01 0.44538691E+03</pdfrwt>
<pdfrwt beam="2">  1       -2 0.14968911E-01 0.44538691E+03</pdfrwt>
<totfact> 0.24902286E+03</totfact>
</mgrwt>
</event>
<event>
 4    1  0.1390278E-004  0.2834634E+03  0.7818608E-02  0.1093812E+00
         -2   -1    0    0    0  501 -0.00000000000E+00  0.00000000000E+00  0.10425963318E+02  0.10425963630E+02  0.25500000000E-02 0. -1.
          2   -1    0    0  501    0  0.00000000000E+00 -0.00000000000E+00 -0.19267169096E+04  0.19267169096E+04  0.25500000000E-02 0.  1.
    5000001    1    1    2    0    0  0.21177222832E+02  0.32053102970E+02 -0.61761709599E+03  0.63170859852E+03  0.12700000000E+03 0.  0.
   -5000001    1    1    2    0    0 -0.21177222832E+02 -0.32053102970E+02 -0.12986738503E+04  0.13054342747E+04  0.12700000000E+03 0.  0.
<mgrwt>
<rscale>  0 0.28346344E+03</rscale>
<asrwt>0</asrwt>
<pdfrwt beam="1">  1        2 0.27524504E+00 0.28346344E+03</pdfrwt>
<pdfrwt beam="2">  1       -2 0.14894246E-02 0.28346344E+03</pdfrwt>
<totfact> 0.11442032E+04</totfact>
</mgrwt>
</event>
<event>
 4    1  0.1390278E-004  0.2813626E+03  0.7818608E-02  0.1094947E+00
         -2   -1    0    0    0  501 -0.00000000000E+00  0.00000000000E+00  0.59378888444E+03  0.59378888445E+03  0.25500000000E-02 0. -1.
          2   -1    0    0  501    0  0.00000000000E+00 -0.00000000000E+00 -0.33330401794E+02  0.33330401892E+02  0.25500000000E-02 0.  1.
    5000001    1    1    2    0    0 -0.59991171550E+02  0.78937065539E+01  0.28242539752E+03  0.31552235488E+03  0.12700000000E+03 0.  0.
   -5000001    1    1    2    0    0  0.59991171550E+02 -0.78937065539E+01  0.27803308513E+03  0.31159693146E+03  0.12700000000E+03 0.  0.
<mgrwt>
<rscale>  0 0.28136256E+03</rscale>
<asrwt>0</asrwt>
<pdfrwt beam="1">  1        2 0.47614863E-02 0.28136256E+03</pdfrwt>
<pdfrwt beam="2">  1       -2 0.84826977E-01 0.28136256E+03</pdfrwt>
<totfact> 0.20959841E+03</totfact>
</mgrwt>
</event>
<event>
 4    1  0.1390278E-004  0.3484150E+03  0.7818608E-02  0.1063267E+00
         -2   -1    0    0    0  501 -0.00000000000E+00  0.00000000000E+00  0.91310827228E+02  0.91310827263E+02  0.25500000000E-02 0. -1.
          2   -1    0    0  501    0  0.00000000000E+00 -0.00000000000E+00 -0.33236208619E+03  0.33236208619E+03  0.25500000000E-02 0.  1.
    5000001    1    1    2    0    0  0.19414199489E+02 -0.11528869478E+03 -0.91985526810E+02  0.19559839321E+03  0.12700000000E+03 0.  0.
   -5000001    1    1    2    0    0 -0.19414199489E+02  0.11528869478E+03 -0.14906573215E+03  0.22807452025E+03  0.12700000000E+03 0.  0.
<mgrwt>
<rscale>  0 0.34841502E+03</rscale>
<asrwt>0</asrwt>
<pdfrwt beam="1">  1        2 0.47480298E-01 0.34841502E+03</pdfrwt>
<pdfrwt beam="2">  1       -2 0.13044404E-01 0.34841502E+03</pdfrwt>
<totfact> 0.45887859E+03</totfact>
</mgrwt>
</event>
<event>
 4    1  0.1390278E-004  0.1235691E+04  0.7818608E-02  0.9082178E-01
          2   -1    0    0  501    0  0.00000000000E+00  0.00000000000E+00  0.61626803116E+03  0.61626803117E+03  0.25500000000E-02 0.  1.
         -2   -1    0    0    0  501 -0.00000000000E+00 -0.00000000000E+00 -0.61942659514E+03  0.61942659514E+03  0.25500000000E-02 0. -1.
    5000001    1    1    2    0    0 -0.50823734811E+03  0.14035386539E+03  0.29439364085E+03  0.61709077558E+03  0.12700000000E+03 0.  0.
   -5000001    1    1    2    0    0  0.50823734811E+03 -0.14035386539E+03 -0.29755220482E+03  0.61860385073E+03  0.12700000000E+03 0.  0.
<mgrwt>
<rscale>  0 0.12356906E+04</rscale>
<asrwt>0</asrwt>
<pdfrwt beam="1">  1        2 0.88038290E-01 0.12356906E+04</pdfrwt>
<pdfrwt beam="2">  1       -2 0.88489513E-01 0.12356906E+04</pdfrwt>
<totfact> 0.56937148E+01</totfact>
</mgrwt>
</event>
<event>
 4    1  0.1390278E-004  0.4926507E+03  0.7818608E-02  0.1015715E+00
          2   -1    0    0  501    0  0.00000000000E+00  0.00000000000E+00  0.39238412941E+03  0.39238412941E+03  0.25500000000E-02 0.  1.
         -2   -1    0    0    0  501 -0.00000000000E+00 -0.00000000000E+00 -0.15463463376E+03  0.15463463378E+03  0.25500000000E-02 0. -1.
    5000001    1    1    2    0    0 -0.19916808459E+03  0.32969261067E+02  0.50497248713E+02  0.24379062784E+03  0.12700000000E+03 0.  0.
   -5000001    1    1    2    0    0  0.19916808459E+03 -0.32969261067E+02  0.18725224693E+03  0.30322813536E+03  0.12700000000E+03 0.  0.
<mgrwt>
<rscale>  0 0.49265069E+03</rscale>
<asrwt>0</asrwt>
<pdfrwt beam="1">  1        2 0.56054876E-01 0.49265069E+03</pdfrwt>
<pdfrwt beam="2">  1       -2 0.22090662E-01 0.49265069E+03</pdfrwt>
<totfact> 0.15758216E+03</totfact>
</mgrwt>
</event>
<event>
 4    1  0.1390278E-004  0.5196150E+03  0.7818608E-02  0.1008782E+00
         -2   -1    0    0    0  501 -0.00000000000E+00  0.00000000000E+00  0.44113003912E+02  0.44113003986E+02  0.25500000000E-02 0. -1.
          2   -1    0    0  501    0  0.00000000000E+00 -0.00000000000E+00 -0.15301598997E+04  0.15301598997E+04  0.25500000000E-02 0.  1.
    5000001    1    1    2    0    0  0.74489575430E+02  0.21399298462E+03 -0.72663638008E+03  0.77166775439E+03  0.12700000000E+03 0.  0.
   -5000001    1    1    2    0    0 -0.74489575430E+02 -0.21399298462E+03 -0.75941051576E+03  0.80260514934E+03  0.12700000000E+03 0.  0.
<mgrwt>
<rscale>  0 0.51961505E+03</rscale>
<asrwt>0</asrwt>
<pdfrwt beam="1">  1        2 0.21859424E+00 0.51961505E+03</pdfrwt>
<pdfrwt beam="2">  1       -2 0.63018587E-02 0.51961505E+03</pdfrwt>
<totfact> 0.20554539E+03</totfact>
</mgrwt>
</event>
<event>
 4    1  0.1390278E-004  0.3573289E+03  0.7818608E-02  0.1059647E+00
          2   -1    0    0  501    0  0.00000000000E+00  0.00000000000E+00  0.61105069520E+02  0.61105069573E+02  0.25500000000E-02 0.  1.
         -2   -1    0    0    0  501 -0.00000000000E+00 -0.00000000000E+00 -0.52239499150E+03  0.52239499151E+03  0.25500000000E-02 0. -1.
    5000001    1    1    2    0    0 -0.17852130730E+02  0.12161519174E+03 -0.27332180670E+03  0.32548849972E+03  0.12700000000E+03 0.  0.
   -5000001    1    1    2    0    0  0.17852130730E+02 -0.12161519174E+03 -0.18796811528E+03  0.25801156136E+03  0.12700000000E+03 0.  0.
<mgrwt>
<rscale>  0 0.35732888E+03</rscale>
<asrwt>0</asrwt>
<pdfrwt beam="1">  1        2 0.87292960E-02 0.35732888E+03</pdfrwt>
<pdfrwt beam="2">  1       -2 0.74627853E-01 0.35732888E+03</pdfrwt>
<totfact> 0.12709518E+03</totfact>
</mgrwt>
</event>
<event>
 4    1  0.1390278E-004  0.7240048E+03  0.7818608E-02  0.9677039E-01
          2   -1    0    0  501    0  0.00000000000E+00  0.00000000000E+00  0.17302393084E+04  0.17302393084E+04  0.25500000000E-02 0.  1.
         -2   -1    0    0    0  501 -0.00000000000E+00 -0.00000000000E+00 -0.75738497653E+02  0.75738497696E+02  0.25500000000E-02 0. -1.
    5000001    1    1    2    0    0  0.27196247789E+03 -0.50117419603E+02  0.13163197841E+04  0.13510374233E+04  0.12700000000E+03 0.  0.
   -5000001    1    1    2    0    0 -0.27196247789E+03  0.50117419603E+02  0.33818102666E+03  0.45494038282E+03  0.12700000000E+03 0.  0.
<mgrwt>
<rscale>  0 0.72400477E+03</rscale>
<asrwt>0</asrwt>
<pdfrwt beam="1">  1        2 0.24717703E+00 0.72400477E+03</pdfrwt>
<pdfrwt beam="2">  1       -2 0.10819786E-01 0.72400477E+03</pdfrwt>
<totfact> 0.67784223E+02</totfact>
</mgrwt>
</event>
<event>
 4    1  0.1390278E-004  0.4445684E+03  0.7818608E-02  0.1029354E+00
         -2   -1    0    0    0  501 -0.00000000000E+00  0.00000000000E+00  0.15873537470E+03  0.15873537472E+03  0.25500000000E-02 0. -1.
          2   -1    0    0  501    0  0.00000000000E+00 -0.00000000000E+00 -0.31127439187E+03  0.31127439188E+03  0.25500000000E-02 0.  1.
    5000001    1    1    2    0    0  0.16157303454E+03  0.41452214669E+02  0.18303604812E+01  0.20965801156E+03  0.12700000000E+03 0.  0.
   -5000001    1    1    2    0    0 -0.16157303454E+03 -0.41452214669E+02 -0.15436937766E+03  0.26035175504E+03  0.12700000000E+03 0.  0.
<mgrwt>
<rscale>  0 0.44456836E+03</rscale>
<asrwt>0</asrwt>
<pdfrwt beam="1">  1        2 0.44467770E-01 0.44456836E+03</pdfrwt>
<pdfrwt beam="2">  1       -2 0.22676482E-01 0.44456836E+03</pdfrwt>
<totfact> 0.19388938E+03</totfact>
</mgrwt>
</event>
<event>
 4    1  0.1390278E-004  0.5257658E+03  0.7818608E-02  0.1007264E+00
          2   -1    0    0  501    0  0.00000000000E+00  0.00000000000E+00  0.18324302433E+04  0.18324302433E+04  0.25500000000E-02 0.  1.
         -2   -1    0    0    0  501 -0.00000000000E+00 -0.00000000000E+00 -0.37713529410E+02  0.37713529496E+02  0.25500000000E-02 0. -1.
    5000001    1    1    2    0    0  0.17251997513E+03  0.78866064919E+02  0.43364611793E+03  0.49006219362E+03  0.12700000000E+03 0.  0.
   -5000001    1    1    2    0    0 -0.17251997513E+03 -0.78866064919E+02  0.13610705960E+04  0.13800815792E+04  0.12700000000E+03 0.  0.
<mgrwt>
<rscale>  0 0.52576577E+03</rscale>
<asrwt>0</asrwt>
<pdfrwt beam="1">  1        2 0.26177569E+00 0.52576577E+03</pdfrwt>
<pdfrwt beam="2">  1       -2 0.53876484E-02 0.52576577E+03</pdfrwt>
<totfact> 0.18428253E+03</totfact>
</mgrwt>
</event>
<event>
 4    1  0.1390278E-004  0.2864969E+03  0.7818608E-02  0.1092192E+00
         -2   -1    0    0    0  501 -0.00000000000E+00  0.00000000000E+00  0.67968005375E+01  0.67968010158E+01  0.25500000000E-02 0. -1.
          2   -1    0    0  501    0  0.00000000000E+00 -0.00000000000E+00 -0.30190856054E+04  0.30190856054E+04  0.25500000000E-02 0.  1.
    5000001    1    1    2    0    0  0.36017926263E+02  0.72203033715E+01 -0.20886367534E+04  0.20928167410E+04  0.12700000000E+03 0.  0.
   -5000001    1    1    2    0    0 -0.36017926263E+02 -0.72203033715E+01 -0.92365205149E+03  0.93306566544E+03  0.12700000000E+03 0.  0.
<mgrwt>
<rscale>  0 0.28649693E+03</rscale>
<asrwt>0</asrwt>
<pdfrwt beam="1">  1        2 0.43129708E+00 0.28649693E+03</pdfrwt>
<pdfrwt beam="2">  1       -2 0.97097348E-03 0.28649693E+03</pdfrwt>
<totfact> 0.60339637E+03</totfact>
</mgrwt>
</event>
<event>
 4    1  0.1390278E-004  0.3501505E+03  0.7818608E-02  0.1062553E+00
         -2   -1    0    0    0  501 -0.00000000000E+00  0.00000000000E+00  0.35313887150E+02  0.35313887242E+02  0.25500000000E-02 0. -1.
          2   -1    0    0  501    0  0.00000000000E+00 -0.00000000000E+00 -0.86796872982E+03  0.86796872982E+03  0.25500000000E-02 0.  1.
    5000001    1    1    2    0    0 -0.92922296368E+01 -0.58418961721E+02 -0.68717394978E+03  0.70131031496E+03  0.12700000000E+03 0.  0.
   -5000001    1    1    2    0    0  0.92922296368E+01  0.58418961721E+02 -0.14548089290E+03  0.20197230211E+03  0.12700000000E+03 0.  0.
<mgrwt>
<rscale>  0 0.35015054E+03</rscale>
<asrwt>0</asrwt>
<pdfrwt beam="1">  1        2 0.12399552E+00 0.35015054E+03</pdfrwt>
<pdfrwt beam="2">  1       -2 0.50448416E-02 0.35015054E+03</pdfrwt>
<totfact> 0.68222355E+03</totfact>
</mgrwt>
</event>
<event>
 4    1  0.1390278E-004  0.5473099E+03  0.7818608E-02  0.1002118E+00
          2   -1    0    0  501    0  0.00000000000E+00  0.00000000000E+00  0.15877096115E+04  0.15877096115E+04  0.25500000000E-02 0.  1.
         -2   -1    0    0    0  501 -0.00000000000E+00 -0.00000000000E+00 -0.47166710381E+02  0.47166710450E+02  0.25500000000E-02 0. -1.
    5000001    1    1    2    0    0  0.17879335424E+03  0.15185562971E+03  0.58781673020E+03  0.64551119595E+03  0.12700000000E+03 0.  0.
   -5000001    1    1    2    0    0 -0.17879335424E+03 -0.15185562971E+03  0.95272617090E+03  0.98936512598E+03  0.12700000000E+03 0.  0.
<mgrwt>
<rscale>  0 0.54730993E+03</rscale>
<asrwt>0</asrwt>
<pdfrwt beam="1">  1        2 0.22681561E+00 0.54730993E+03</pdfrwt>
<pdfrwt beam="2">  1       -2 0.67381029E-02 0.54730993E+03</pdfrwt>
<totfact> 0.17271643E+03</totfact>
</mgrwt>
</event>
<event>
 4    1  0.1390278E-004  0.6669089E+03  0.7818608E-02  0.9775558E-01
          2   -1    0    0  501    0  0.00000000000E+00  0.00000000000E+00  0.14663373602E+04  0.14663373603E+04  0.25500000000E-02 0.  1.
         -2   -1    0    0    0  501 -0.00000000000E+00 -0.00000000000E+00 -0.75829661988E+02  0.75829662031E+02  0.25500000000E-02 0. -1.
    5000001    1    1    2    0    0  0.25580574872E+03  0.17198130257E+03  0.67911380245E+03  0.75653070406E+03  0.12700000000E+03 0.  0.
   -5000001    1    1    2    0    0 -0.25580574872E+03 -0.17198130257E+03  0.71139389581E+03  0.78563631822E+03  0.12700000000E+03 0.  0.
<mgrwt>
<rscale>  0 0.66690889E+03</rscale>
<asrwt>0</asrwt>
<pdfrwt beam="1">  1        2 0.20947677E+00 0.66690889E+03</pdfrwt>
<pdfrwt beam="2">  1       -2 0.10832809E-01 0.66690889E+03</pdfrwt>
<totfact> 0.92891530E+02</totfact>
</mgrwt>
</event>
<event>
 4    1  0.1390278E-004  0.3659849E+03  0.7818608E-02  0.1056239E+00
         -2   -1    0    0    0  501 -0.00000000000E+00  0.00000000000E+00  0.24991811106E+02  0.24991811237E+02  0.25500000000E-02 0.  1.
          2   -1    0    0  501    0  0.00000000000E+00 -0.00000000000E+00 -0.13398885111E+04  0.13398885111E+04  0.25500000000E-02 0. -1.
    5000001    1    1    2    0    0  0.60007510884E+02 -0.11625322375E+03 -0.59949020674E+03  0.62660451752E+03  0.12700000000E+03 0.  0.
   -5000001    1    1    2    0    0 -0.60007510884E+02  0.11625322375E+03 -0.71540649323E+03  0.73827580480E+03  0.12700000000E+03 0.  0.
<mgrwt>
<rscale>  0 0.36598492E+03</rscale>
<asrwt>0</asrwt>
<pdfrwt beam="1">  1        2 0.19141260E+00 0.36598492E+03</pdfrwt>
<pdfrwt beam="2">  1       -2 0.35702596E-02 0.36598492E+03</pdfrwt>
<totfact> 0.61832226E+03</totfact>
</mgrwt>
</event>
<event>
 4    1  0.1390278E-004  0.4360199E+03  0.7818608E-02  0.1031975E+00
          2   -1    0    0  501    0  0.00000000000E+00  0.00000000000E+00  0.40390027374E+03  0.40390027375E+03  0.25500000000E-02 0.  1.
         -2   -1    0    0    0  501 -0.00000000000E+00 -0.00000000000E+00 -0.11767344049E+03  0.11767344052E+03  0.25500000000E-02 0. -1.
    5000001    1    1    2    0    0 -0.14779745041E+03  0.30413976407E+01  0.25998800097E+03  0.32492475605E+03  0.12700000000E+03 0.  0.
   -5000001    1    1    2    0    0  0.14779745041E+03 -0.30413976407E+01  0.26238832278E+02  0.19664895822E+03  0.12700000000E+03 0.  0.
<mgrwt>
<rscale>  0 0.43601988E+03</rscale>
<asrwt>0</asrwt>
<pdfrwt beam="1">  1        2 0.57700039E-01 0.43601988E+03</pdfrwt>
<pdfrwt beam="2">  1       -2 0.16810492E-01 0.43601988E+03</pdfrwt>
<totfact> 0.24417215E+03</totfact>
</mgrwt>
</event>
<event>
 4    1  0.1390278E-004  0.3234017E+03  0.7818608E-02  0.1074094E+00
         -2   -1    0    0    0  501 -0.00000000000E+00  0.00000000000E+00  0.12447331761E+02  0.12447332022E+02  0.25500000000E-02 0. -1.
          2   -1    0    0  501    0  0.00000000000E+00 -0.00000000000E+00 -0.21006243305E+04  0.21006243305E+04  0.25500000000E-02 0.  1.
    5000001    1    1    2    0    0 -0.75197841281E+02  0.25407096323E+02 -0.64568546160E+03  0.66282648650E+03  0.12700000000E+03 0.  0.
   -5000001    1    1    2    0    0  0.75197841281E+02 -0.25407096323E+02 -0.14424915371E+04  0.14502451760E+04  0.12700000000E+03 0.  0.
<mgrwt>
<rscale>  0 0.32340172E+03</rscale>
<asrwt>0</asrwt>
<pdfrwt beam="1">  1        2 0.30008896E+00 0.32340172E+03</pdfrwt>
<pdfrwt beam="2">  1       -2 0.17781916E-02 0.32340172E+03</pdfrwt>
<totfact> 0.72606740E+03</totfact>
</mgrwt>
</event>
<event>
 4    1  0.1390278E-004  0.3451378E+03  0.7818608E-02  0.1064629E+00
          2   -1    0    0  501    0  0.00000000000E+00  0.00000000000E+00  0.93182780097E+03  0.93182780097E+03  0.25500000000E-02 0.  1.
         -2   -1    0    0    0  501 -0.00000000000E+00 -0.00000000000E+00 -0.31958725442E+02  0.31958725544E+02  0.25500000000E-02 0. -1.
    5000001    1    1    2    0    0 -0.11578713259E+03 -0.57987002794E+01  0.49047286346E+03  0.51974312385E+03  0.12700000000E+03 0.  0.
   -5000001    1    1    2    0    0  0.11578713259E+03  0.57987002794E+01  0.40939621206E+03  0.44404340266E+03  0.12700000000E+03 0.  0.
<mgrwt>
<rscale>  0 0.34513782E+03</rscale>
<asrwt>0</asrwt>
<pdfrwt beam="1">  1        2 0.13311827E+00 0.34513782E+03</pdfrwt>
<pdfrwt beam="2">  1       -2 0.45655316E-02 0.34513782E+03</pdfrwt>
<totfact> 0.72380573E+03</totfact>
</mgrwt>
</event>
<event>
 4    1  0.1390278E-004  0.3202331E+03  0.7818608E-02  0.1075542E+00
         -2   -1    0    0    0  501 -0.00000000000E+00  0.00000000000E+00  0.20796496100E+02  0.20796496256E+02  0.25500000000E-02 0. -1.
          2   -1    0    0  501    0  0.00000000000E+00 -0.00000000000E+00 -0.12327702596E+04  0.12327702596E+04  0.25500000000E-02 0.  1.
    5000001    1    1    2    0    0 -0.51413975627E+01 -0.90423144815E+02 -0.46454645452E+03  0.49003590429E+03  0.12700000000E+03 0.  0.
   -5000001    1    1    2    0    0  0.51413975627E+01  0.90423144815E+02 -0.74742730903E+03  0.76353085161E+03  0.12700000000E+03 0.  0.
<mgrwt>
<rscale>  0 0.32023305E+03</rscale>
<asrwt>0</asrwt>
<pdfrwt beam="1">  1        2 0.17610999E+00 0.32023305E+03</pdfrwt>
<pdfrwt beam="2">  1       -2 0.29709288E-02 0.32023305E+03</pdfrwt>
<totfact> 0.92737986E+03</totfact>
</mgrwt>
</event>
<event>
 4    1  0.1390278E-004  0.4754770E+03  0.7818608E-02  0.1020386E+00
         -2   -1    0    0    0  501 -0.00000000000E+00  0.00000000000E+00  0.63121605722E+02  0.63121605773E+02  0.25500000000E-02 0. -1.
          2   -1    0    0  501    0  0.00000000000E+00 -0.00000000000E+00 -0.89540821544E+03  0.89540821544E+03  0.25500000000E-02 0.  1.
    5000001    1    1    2    0    0 -0.15651890905E+03  0.92393246257E+02 -0.24324342990E+03  0.32913682115E+03  0.12700000000E+03 0.  0.
   -5000001    1    1    2    0    0  0.15651890905E+03 -0.92393246257E+02 -0.58904317982E+03  0.62939300007E+03  0.12700000000E+03 0.  0.
<mgrwt>
<rscale>  0 0.47547704E+03</rscale>
<asrwt>0</asrwt>
<pdfrwt beam="1">  1        2 0.12791545E+00 0.47547704E+03</pdfrwt>
<pdfrwt beam="2">  1       -2 0.90173728E-02 0.47547704E+03</pdfrwt>
<totfact> 0.26537900E+03</totfact>
</mgrwt>
</event>
<event>
 4    1  0.1390278E-004  0.3446154E+03  0.7818608E-02  0.1064847E+00
         -2   -1    0    0    0  501 -0.00000000000E+00  0.00000000000E+00  0.10726119103E+03  0.10726119106E+03  0.25500000000E-02 0. -1.
          2   -1    0    0  501    0  0.00000000000E+00 -0.00000000000E+00 -0.27680035231E+03  0.27680035233E+03  0.25500000000E-02 0.  1.
    5000001    1    1    2    0    0 -0.24229614314E+01 -0.11604977605E+03 -0.74343874259E+02  0.18742847410E+03  0.12700000000E+03 0.  0.
   -5000001    1    1    2    0    0  0.24229614314E+01  0.11604977605E+03 -0.95195287027E+02  0.19663306928E+03  0.12700000000E+03 0.  0.
<mgrwt>
<rscale>  0 0.34461535E+03</rscale>
<asrwt>0</asrwt>
<pdfrwt beam="1">  1        2 0.39542907E-01 0.34461535E+03</pdfrwt>
<pdfrwt beam="2">  1       -2 0.15323027E-01 0.34461535E+03</pdfrwt>
<totfact> 0.42883291E+03</totfact>
</mgrwt>
</event>
<event>
 4    1  0.1390278E-004  0.3251020E+03  0.7818608E-02  0.1073325E+00
          2   -1    0    0  501    0  0.00000000000E+00  0.00000000000E+00  0.21320773330E+04  0.21320773330E+04  0.25500000000E-02 0. -1.
         -2   -1    0    0    0  501 -0.00000000000E+00 -0.00000000000E+00 -0.12392993472E+02  0.12392993735E+02  0.25500000000E-02 0.  1.
    5000001    1    1    2    0    0 -0.88647811006E+02  0.22538027637E+02  0.77024850961E+03  0.78598865363E+03  0.12700000000E+03 0.  0.
   -5000001    1    1    2    0    0  0.88647811006E+02 -0.22538027637E+02  0.13494358299E+04  0.13584816731E+04  0.12700000000E+03 0.  0.
<mgrwt>
<rscale>  0 0.32510196E+03</rscale>
<asrwt>0</asrwt>
<pdfrwt beam="1">  1        2 0.30458255E+00 0.32510196E+03</pdfrwt>
<pdfrwt beam="2">  1       -2 0.17704272E-02 0.32510196E+03</pdfrwt>
<totfact> 0.70523704E+03</totfact>
</mgrwt>
</event>
<event>
 4    1  0.1390278E-004  0.3154503E+03  0.7818608E-02  0.1077762E+00
         -2   -1    0    0    0  501 -0.00000000000E+00  0.00000000000E+00  0.70378342478E+02  0.70378342524E+02  0.25500000000E-02 0. -1.
          2   -1    0    0  501    0  0.00000000000E+00 -0.00000000000E+00 -0.35347832444E+03  0.35347832445E+03  0.25500000000E-02 0.  1.
    5000001    1    1    2    0    0  0.73151706361E+02  0.36067529307E+02 -0.80031967290E+02  0.17083955807E+03  0.12700000000E+03 0.  0.
   -5000001    1    1    2    0    0 -0.73151706361E+02 -0.36067529307E+02 -0.20306801467E+03  0.25301710890E+03  0.12700000000E+03 0.  0.
<mgrwt>
<rscale>  0 0.31545027E+03</rscale>
<asrwt>0</asrwt>
<pdfrwt beam="1">  1        2 0.50496903E-01 0.31545027E+03</pdfrwt>
<pdfrwt beam="2">  1       -2 0.10054049E-01 0.31545027E+03</pdfrwt>
<totfact> 0.65190031E+03</totfact>
</mgrwt>
</event>
<event>
 4    1  0.1390278E-004  0.7270224E+03  0.7818608E-02  0.9672105E-01
          2   -1    0    0  501    0  0.00000000000E+00  0.00000000000E+00  0.14618105286E+04  0.14618105286E+04  0.25500000000E-02 0.  1.
         -2   -1    0    0    0  501 -0.00000000000E+00 -0.00000000000E+00 -0.90395021368E+02  0.90395021404E+02  0.25500000000E-02 0. -1.
    5000001    1    1    2    0    0 -0.38597358649E+02  0.10950925415E+03  0.13693447592E+04  0.13801145251E+04  0.12700000000E+03 0.  0.
   -5000001    1    1    2    0    0  0.38597358649E+02 -0.10950925415E+03  0.20707479792E+01  0.17209102486E+03  0.12700000000E+03 0.  0.
<mgrwt>
<rscale>  0 0.72702240E+03</rscale>
<asrwt>0</asrwt>
<pdfrwt beam="1">  1        2 0.20883009E+00 0.72702240E+03</pdfrwt>
<pdfrwt beam="2">  1       -2 0.12913573E-01 0.72702240E+03</pdfrwt>
<totfact> 0.69723804E+02</totfact>
</mgrwt>
</event>
<event>
 4    1  0.1390278E-004  0.4709701E+03  0.7818608E-02  0.1021647E+00
         -2   -1    0    0    0  501 -0.00000000000E+00  0.00000000000E+00  0.22858064766E+02  0.22858064909E+02  0.25500000000E-02 0. -1.
          2   -1    0    0  501    0  0.00000000000E+00 -0.00000000000E+00 -0.24259801892E+04  0.24259801892E+04  0.25500000000E-02 0.  1.
    5000001    1    1    2    0    0 -0.11160273938E+03 -0.15230320331E+03 -0.88644979741E+03  0.91519051596E+03  0.12700000000E+03 0.  0.
   -5000001    1    1    2    0    0  0.11160273938E+03  0.15230320331E+03 -0.15166723270E+04  0.15336477382E+04  0.12700000000E+03 0.  0.
<mgrwt>
<rscale>  0 0.47097012E+03</rscale>
<asrwt>0</asrwt>
<pdfrwt beam="1">  1        2 0.34656843E+00 0.47097012E+03</pdfrwt>
<pdfrwt beam="2">  1       -2 0.32654394E-02 0.47097012E+03</pdfrwt>
<totfact> 0.20075648E+03</totfact>
</mgrwt>
</event>
<event>
 4    1  0.1390278E-004  0.3612552E+03  0.7818608E-02  0.1058088E+00
         -2   -1    0    0    0  501 -0.00000000000E+00  0.00000000000E+00  0.12635727144E+02  0.12635727401E+02  0.25500000000E-02 0. -1.
          2   -1    0    0  501    0  0.00000000000E+00 -0.00000000000E+00 -0.25820694855E+04  0.25820694855E+04  0.25500000000E-02 0.  1.
    5000001    1    1    2    0    0 -0.10106709634E+02  0.11283021250E+03 -0.84992372936E+03  0.86679417867E+03  0.12700000000E+03 0.  0.
   -5000001    1    1    2    0    0  0.10106709634E+02 -0.11283021250E+03 -0.17195100290E+04  0.17279110342E+04  0.12700000000E+03 0.  0.
<mgrwt>
<rscale>  0 0.36125518E+03</rscale>
<asrwt>0</asrwt>
<pdfrwt beam="1">  1        2 0.36886673E+00 0.36125518E+03</pdfrwt>
<pdfrwt beam="2">  1       -2 0.18051055E-02 0.36125518E+03</pdfrwt>
<totfact> 0.40865440E+03</totfact>
</mgrwt>
</event>
<event>
 4    1  0.1390278E-004  0.5007511E+03  0.7818608E-02  0.1013583E+00
         -2   -1    0    0    0  501 -0.00000000000E+00  0.00000000000E+00  0.10165897631E+03  0.10165897634E+03  0.25500000000E-02 0. -1.
          2   -1    0    0  501    0  0.00000000000E+00 -0.00000000000E+00 -0.61664901032E+03  0.61664901032E+03  0.25500000000E-02 0.  1.
    5000001    1    1    2    0    0 -0.75597631900E+02 -0.74436935368E+02 -0.52701744773E+03  0.55238777097E+03  0.12700000000E+03 0.  0.
   -5000001    1    1    2    0    0  0.75597631900E+02  0.74436935368E+02  0.12027413724E+02  0.16592021570E+03  0.12700000000E+03 0.  0.
<mgrwt>
<rscale>  0 0.50075106E+03</rscale>
<asrwt>0</asrwt>
<pdfrwt beam="1">  1        2 0.88092714E-01 0.50075106E+03</pdfrwt>
<pdfrwt beam="2">  1       -2 0.14522711E-01 0.50075106E+03</pdfrwt>
<totfact> 0.19367531E+03</totfact>
</mgrwt>
</event>
<event>
 4    1  0.1390278E-004  0.3828875E+03  0.7818608E-02  0.1049872E+00
          2   -1    0    0  501    0  0.00000000000E+00  0.00000000000E+00  0.19064622062E+04  0.19064622062E+04  0.25500000000E-02 0.  1.
         -2   -1    0    0    0  501 -0.00000000000E+00 -0.00000000000E+00 -0.19224458683E+02  0.19224458853E+02  0.25500000000E-02 0. -1.
    5000001    1    1    2    0    0 -0.99108587200E+02  0.91310264168E+02  0.11880295550E+04  0.12023740266E+04  0.12700000000E+03 0.  0.
   -5000001    1    1    2    0    0  0.99108587200E+02 -0.91310264168E+02  0.69920819254E+03  0.72331263843E+03  0.12700000000E+03 0.  0.
<mgrwt>
<rscale>  0 0.38288747E+03</rscale>
<asrwt>0</asrwt>
<pdfrwt beam="1">  1        2 0.27235169E+00 0.38288747E+03</pdfrwt>
<pdfrwt beam="2">  1       -2 0.27463518E-02 0.38288747E+03</pdfrwt>
<totfact> 0.47435784E+03</totfact>
</mgrwt>
</event>
<event>
 4    1  0.1390278E-004  0.5886776E+03  0.7818608E-02  0.9929179E-01
          2   -1    0    0  501    0  0.00000000000E+00  0.00000000000E+00  0.42309645253E+03  0.42309645253E+03  0.25500000000E-02 0.  1.
         -2   -1    0    0    0  501 -0.00000000000E+00 -0.00000000000E+00 -0.20476496502E+03  0.20476496503E+03  0.25500000000E-02 0. -1.
    5000001    1    1    2    0    0  0.11367720037E+03 -0.17214732984E+03  0.28747355201E+03  0.37593517015E+03  0.12700000000E+03 0.  0.
   -5000001    1    1    2    0    0 -0.11367720037E+03  0.17214732984E+03 -0.69142064496E+02  0.25192624741E+03  0.12700000000E+03 0.  0.
<mgrwt>
<rscale>  0 0.58867760E+03</rscale>
<asrwt>0</asrwt>
<pdfrwt beam="1">  1        2 0.60442350E-01 0.58867760E+03</pdfrwt>
<pdfrwt beam="2">  1       -2 0.29252138E-01 0.58867760E+03</pdfrwt>
<totfact> 0.87501694E+02</totfact>
</mgrwt>
</event>
<event>
 4    1  0.1390278E-004  0.2964743E+03  0.7818608E-02  0.1087016E+00
          2   -1    0    0  501    0  0.00000000000E+00  0.00000000000E+00  0.15854846313E+04  0.15854846313E+04  0.25500000000E-02 0.  1.
         -2   -1    0    0    0  501 -0.00000000000E+00 -0.00000000000E+00 -0.13859645099E+02  0.13859645333E+02  0.25500000000E-02 0. -1.
    5000001    1    1    2    0    0  0.41974712142E+02  0.39032134309E+02  0.10587504206E+04  0.10678795985E+04  0.12700000000E+03 0.  0.
   -5000001    1    1    2    0    0 -0.41974712142E+02 -0.39032134309E+02  0.51287456565E+03  0.53146467809E+03  0.12700000000E+03 0.  0.
<mgrwt>
<rscale>  0 0.29647431E+03</rscale>
<asrwt>0</asrwt>
<pdfrwt beam="1">  1        2 0.22649765E+00 0.29647431E+03</pdfrwt>
<pdfrwt beam="2">  1       -2 0.19799507E-02 0.29647431E+03</pdfrwt>
<totfact> 0.11104729E+04</totfact>
</mgrwt>
</event>
<event>
 4    1  0.1390278E-004  0.3055768E+03  0.7818608E-02  0.1082486E+00
          2   -1    0    0  501    0  0.00000000000E+00  0.00000000000E+00  0.18496713536E+04  0.18496713536E+04  0.25500000000E-02 0.  1.
         -2   -1    0    0    0  501 -0.00000000000E+00 -0.00000000000E+00 -0.12620779634E+02  0.12620779892E+02  0.25500000000E-02 0. -1.
    5000001    1    1    2    0    0  0.75667082758E+01 -0.84324014275E+02  0.87652272717E+03  0.88971281080E+03  0.12700000000E+03 0.  0.
   -5000001    1    1    2    0    0 -0.75667082758E+01  0.84324014275E+02  0.96052784675E+03  0.97257932264E+03  0.12700000000E+03 0.  0.
<mgrwt>
<rscale>  0 0.30557680E+03</rscale>
<asrwt>0</asrwt>
<pdfrwt beam="1">  1        2 0.26423869E+00 0.30557680E+03</pdfrwt>
<pdfrwt beam="2">  1       -2 0.18029691E-02 0.30557680E+03</pdfrwt>
<totfact> 0.94395061E+03</totfact>
</mgrwt>
</event>
<event>
 4    1  0.1390278E-004  0.4893825E+03  0.7818608E-02  0.1016588E+00
         -2   -1    0    0    0  501 -0.00000000000E+00  0.00000000000E+00  0.15780753497E+03  0.15780753499E+03  0.25500000000E-02 0. -1.
          2   -1    0    0  501    0  0.00000000000E+00 -0.00000000000E+00 -0.37941038628E+03  0.37941038629E+03  0.25500000000E-02 0.  1.
    5000001    1    1    2    0    0  0.18766902449E+03 -0.90830374749E+02 -0.12900542662E+03  0.27611812658E+03  0.12700000000E+03 0.  0.
   -5000001    1    1    2    0    0 -0.18766902449E+03  0.90830374749E+02 -0.92597424688E+02  0.26109979469E+03  0.12700000000E+03 0.  0.
<mgrwt>
<rscale>  0 0.48938254E+03</rscale>
<asrwt>0</asrwt>
<pdfrwt beam="1">  1        2 0.54201483E-01 0.48938254E+03</pdfrwt>
<pdfrwt beam="2">  1       -2 0.22543934E-01 0.48938254E+03</pdfrwt>
<totfact> 0.15779026E+03</totfact>
</mgrwt>
</event>
<event>
 4    1  0.1390278E-004  0.5331507E+03  0.7818608E-02  0.1005471E+00
         -2   -1    0    0    0  501 -0.00000000000E+00  0.00000000000E+00  0.38182818096E+02  0.38182818181E+02  0.25500000000E-02 0. -1.
          2   -1    0    0  501    0  0.00000000000E+00 -0.00000000000E+00 -0.18611095811E+04  0.18611095811E+04  0.25500000000E-02 0.  1.
    5000001    1    1    2    0    0 -0.20981260497E+03  0.85861839126E+02 -0.69951372814E+03  0.74621849380E+03  0.12700000000E+03 0.  0.
   -5000001    1    1    2    0    0  0.20981260497E+03 -0.85861839126E+02 -0.11234130349E+04  0.11530739055E+04  0.12700000000E+03 0.  0.
<mgrwt>
<rscale>  0 0.53315067E+03</rscale>
<asrwt>0</asrwt>
<pdfrwt beam="1">  1        2 0.26587274E+00 0.53315067E+03</pdfrwt>
<pdfrwt beam="2">  1       -2 0.54546895E-02 0.53315067E+03</pdfrwt>
<totfact> 0.17483491E+03</totfact>
</mgrwt>
</event>
<event>
 4    1  0.1390278E-004  0.4503391E+03  0.7818608E-02  0.1027621E+00
         -2   -1    0    0    0  501 -0.00000000000E+00  0.00000000000E+00  0.34222356867E+02  0.34222356962E+02  0.25500000000E-02 0. -1.
          2   -1    0    0  501    0  0.00000000000E+00 -0.00000000000E+00 -0.14815264623E+04  0.14815264623E+04  0.25500000000E-02 0.  1.
    5000001    1    1    2    0    0 -0.17021606115E+03 -0.70592897302E+02 -0.80715243505E+03  0.83760427293E+03  0.12700000000E+03 0.  0.
   -5000001    1    1    2    0    0  0.17021606115E+03  0.70592897302E+02 -0.64015167036E+03  0.67814454631E+03  0.12700000000E+03 0.  0.
<mgrwt>
<rscale>  0 0.45033910E+03</rscale>
<asrwt>0</asrwt>
<pdfrwt beam="1">  1        2 0.21164660E+00 0.45033910E+03</pdfrwt>
<pdfrwt beam="2">  1       -2 0.48889091E-02 0.45033910E+03</pdfrwt>
<totfact> 0.32331220E+03</totfact>
</mgrwt>
</event>
<event>
 4    1  0.1390278E-004  0.5111280E+03  0.7818608E-02  0.1010914E+00
          2   -1    0    0  501    0  0.00000000000E+00  0.00000000000E+00  0.20007843645E+03  0.20007843646E+03  0.25500000000E-02 0.  1.
         -2   -1    0    0    0  501 -0.00000000000E+00 -0.00000000000E+00 -0.32643671900E+03  0.32643671901E+03  0.25500000000E-02 0. -1.
    5000001    1    1    2    0    0  0.62884777278E+02  0.20511286891E+03 -0.12106847957E+03  0.27715043018E+03  0.12700000000E+03 0.  0.
   -5000001    1    1    2    0    0 -0.62884777278E+02 -0.20511286891E+03 -0.52898029853E+01  0.24936472529E+03  0.12700000000E+03 0.  0.
<mgrwt>
<rscale>  0 0.51112796E+03</rscale>
<asrwt>0</asrwt>
<pdfrwt beam="1">  1        2 0.28582634E-01 0.51112796E+03</pdfrwt>
<pdfrwt beam="2">  1       -2 0.46633816E-01 0.51112796E+03</pdfrwt>
<totfact> 0.82286643E+02</totfact>
</mgrwt>
</event>
<event>
 4    1  0.1390278E-004  0.4356652E+03  0.7818608E-02  0.1032085E+00
         -2   -1    0    0    0  501 -0.00000000000E+00  0.00000000000E+00  0.93574578385E+02  0.93574578419E+02  0.25500000000E-02 0. -1.
          2   -1    0    0  501    0  0.00000000000E+00 -0.00000000000E+00 -0.50709321932E+03  0.50709321932E+03  0.25500000000E-02 0.  1.
    5000001    1    1    2    0    0 -0.12774849973E+03 -0.12203650805E+03 -0.22118316148E+03  0.31026372556E+03  0.12700000000E+03 0.  0.
   -5000001    1    1    2    0    0  0.12774849973E+03  0.12203650805E+03 -0.19233547946E+03  0.29040407218E+03  0.12700000000E+03 0.  0.
<mgrwt>
<rscale>  0 0.43566517E+03</rscale>
<asrwt>0</asrwt>
<pdfrwt beam="1">  1        2 0.72441887E-01 0.43566517E+03</pdfrwt>
<pdfrwt beam="2">  1       -2 0.13367797E-01 0.43566517E+03</pdfrwt>
<totfact> 0.27804297E+03</totfact>
</mgrwt>
</event>
<event>
 4    1  0.1390278E-004  0.4998157E+03  0.7818608E-02  0.1013827E+00
          2   -1    0    0  501    0  0.00000000000E+00  0.00000000000E+00  0.14867881366E+04  0.14867881366E+04  0.25500000000E-02 0.  1.
         -2   -1    0    0    0  501 -0.00000000000E+00 -0.00000000000E+00 -0.42005936360E+02  0.42005936437E+02  0.25500000000E-02 0. -1.
    5000001    1    1    2    0    0  0.14531211125E+03 -0.30973740148E+02  0.11987063658E+04  0.12145373332E+04  0.12700000000E+03 0.  0.
   -5000001    1    1    2    0    0 -0.14531211125E+03  0.30973740148E+02  0.24607583442E+03  0.31425673985E+03  0.12700000000E+03 0.  0.
<mgrwt>
<rscale>  0 0.49981568E+03</rscale>
<asrwt>0</asrwt>
<pdfrwt beam="1">  1        2 0.21239830E+00 0.49981568E+03</pdfrwt>
<pdfrwt beam="2">  1       -2 0.60008483E-02 0.49981568E+03</pdfrwt>
<totfact> 0.23374963E+03</totfact>
</mgrwt>
</event>
<event>
 4    1  0.1390278E-004  0.6057856E+03  0.7818608E-02  0.9893475E-01
         -2   -1    0    0    0  501 -0.00000000000E+00  0.00000000000E+00  0.18521355687E+03  0.18521355689E+03  0.25500000000E-02 0. -1.
          2   -1    0    0  501    0  0.00000000000E+00 -0.00000000000E+00 -0.49534196531E+03  0.49534196531E+03  0.25500000000E-02 0.  1.
    5000001    1    1    2    0    0  0.24620812355E+03  0.77551720167E+02 -0.48591247951E+02  0.29175815118E+03  0.12700000000E+03 0.  0.
   -5000001    1    1    2    0    0 -0.24620812355E+03 -0.77551720167E+02 -0.26153716048E+03  0.38879737102E+03  0.12700000000E+03 0.  0.
<mgrwt>
<rscale>  0 0.60578560E+03</rscale>
<asrwt>0</asrwt>
<pdfrwt beam="1">  1        2 0.70763137E-01 0.60578560E+03</pdfrwt>
<pdfrwt beam="2">  1       -2 0.26459080E-01 0.60578560E+03</pdfrwt>
<totfact> 0.87989687E+02</totfact>
</mgrwt>
</event>
<event>
 4    1  0.1390278E-004  0.4822550E+03  0.7818608E-02  0.1018517E+00
         -2   -1    0    0    0  501 -0.00000000000E+00  0.00000000000E+00  0.16781041772E+02  0.16781041966E+02  0.25500000000E-02 0. -1.
          2   -1    0    0  501    0  0.00000000000E+00 -0.00000000000E+00 -0.34647709218E+04  0.34647709218E+04  0.25500000000E-02 0.  1.
    5000001    1    1    2    0    0  0.47014686427E+02 -0.10273955561E+03 -0.29586390565E+04  0.29635181564E+04  0.12700000000E+03 0.  0.
   -5000001    1    1    2    0    0 -0.47014686427E+02  0.10273955561E+03 -0.48935082357E+03  0.51803380735E+03  0.12700000000E+03 0.  0.
<mgrwt>
<rscale>  0 0.48225498E+03</rscale>
<asrwt>0</asrwt>
<pdfrwt beam="1">  1        2 0.49496682E+00 0.48225498E+03</pdfrwt>
<pdfrwt beam="2">  1       -2 0.23972939E-02 0.48225498E+03</pdfrwt>
<totfact> 0.88028759E+02</totfact>
</mgrwt>
</event>
<event>
 4    1  0.1390278E-004  0.4504453E+03  0.7818608E-02  0.1027589E+00
          2   -1    0    0  501    0  0.00000000000E+00  0.00000000000E+00  0.26612575797E+04  0.26612575797E+04  0.25500000000E-02 0.  1.
         -2   -1    0    0    0  501 -0.00000000000E+00 -0.00000000000E+00 -0.19060628406E+02  0.19060628577E+02  0.25500000000E-02 0. -1.
    5000001    1    1    2    0    0  0.63132730179E+02  0.17449274516E+03  0.12451799250E+04  0.12653203173E+04  0.12700000000E+03 0.  0.
   -5000001    1    1    2    0    0 -0.63132730179E+02 -0.17449274516E+03  0.13970170263E+04  0.14149978910E+04  0.12700000000E+03 0.  0.
<mgrwt>
<rscale>  0 0.45044530E+03</rscale>
<asrwt>0</asrwt>
<pdfrwt beam="1">  1        2 0.38017907E+00 0.45044530E+03</pdfrwt>
<pdfrwt beam="2">  1       -2 0.27229511E-02 0.45044530E+03</pdfrwt>
<totfact> 0.20055730E+03</totfact>
</mgrwt>
</event>
<event>
 4    1  0.1390278E-004  0.2987596E+03  0.7818608E-02  0.1085862E+00
         -2   -1    0    0    0  501 -0.00000000000E+00  0.00000000000E+00  0.22833567850E+02  0.22833567992E+02  0.25500000000E-02 0. -1.
          2   -1    0    0  501    0  0.00000000000E+00 -0.00000000000E+00 -0.97725975808E+03  0.97725975808E+03  0.25500000000E-02 0.  1.
    5000001    1    1    2    0    0  0.69213575549E+02  0.36404954998E+02 -0.44930878548E+03  0.47341654438E+03  0.12700000000E+03 0.  0.
   -5000001    1    1    2    0    0 -0.69213575549E+02 -0.36404954998E+02 -0.50511740475E+03  0.52667678169E+03  0.12700000000E+03 0.  0.
<mgrwt>
<rscale>  0 0.29875962E+03</rscale>
<asrwt>0</asrwt>
<pdfrwt beam="1">  1        2 0.13960851E+00 0.29875962E+03</pdfrwt>
<pdfrwt beam="2">  1       -2 0.32619389E-02 0.29875962E+03</pdfrwt>
<totfact> 0.11234276E+04</totfact>
</mgrwt>
</event>
<event>
 4    1  0.1390278E-004  0.3487265E+03  0.7818608E-02  0.1063139E+00
         -2   -1    0    0    0  501 -0.00000000000E+00  0.00000000000E+00  0.37437864438E+02  0.37437864524E+02  0.25500000000E-02 0. -1.
          2   -1    0    0  501    0  0.00000000000E+00 -0.00000000000E+00 -0.81207988329E+03  0.81207988329E+03  0.25500000000E-02 0.  1.
    5000001    1    1    2    0    0  0.14219644804E+02 -0.11755310980E+03 -0.42603859462E+03  0.46006392602E+03  0.12700000000E+03 0.  0.
   -5000001    1    1    2    0    0 -0.14219644804E+02  0.11755310980E+03 -0.34860342423E+03  0.38945382179E+03  0.12700000000E+03 0.  0.
<mgrwt>
<rscale>  0 0.34872646E+03</rscale>
<asrwt>0</asrwt>
<pdfrwt beam="1">  1        2 0.11601140E+00 0.34872646E+03</pdfrwt>
<pdfrwt beam="2">  1       -2 0.53482669E-02 0.34872646E+03</pdfrwt>
<totfact> 0.67892379E+03</totfact>
</mgrwt>
</event>
<event>
 4    1  0.1390278E-004  0.5602524E+03  0.7818608E-02  0.9991484E-01
         -2   -1    0    0    0  501 -0.00000000000E+00  0.00000000000E+00  0.29958827496E+02  0.29958827604E+02  0.25500000000E-02 0. -1.
          2   -1    0    0  501    0  0.00000000000E+00 -0.00000000000E+00 -0.26192839821E+04  0.26192839821E+04  0.25500000000E-02 0.  1.
    5000001    1    1    2    0    0  0.13688787681E+03 -0.74416925401E+02 -0.37208290607E+03  0.42290762419E+03  0.12700000000E+03 0.  0.
   -5000001    1    1    2    0    0 -0.13688787681E+03  0.74416925401E+02 -0.22172422485E+04  0.22263351855E+04  0.12700000000E+03 0.  0.
<mgrwt>
<rscale>  0 0.56025236E+03</rscale>
<asrwt>0</asrwt>
<pdfrwt beam="1">  1        2 0.37418328E+00 0.56025236E+03</pdfrwt>
<pdfrwt beam="2">  1       -2 0.42798342E-02 0.56025236E+03</pdfrwt>
<totfact> 0.10513772E+03</totfact>
</mgrwt>
</event>
<event>
 4    1  0.1390278E-004  0.6031012E+03  0.7818608E-02  0.9898993E-01
          2   -1    0    0  501    0  0.00000000000E+00  0.00000000000E+00  0.20716911169E+04  0.20716911169E+04  0.25500000000E-02 0.  1.
         -2   -1    0    0    0  501 -0.00000000000E+00 -0.00000000000E+00 -0.43893007048E+02  0.43893007122E+02  0.25500000000E-02 0. -1.
    5000001    1    1    2    0    0  0.21235737121E+03  0.44212827849E+02  0.42951595253E+03  0.49765789528E+03  0.12700000000E+03 0.  0.
   -5000001    1    1    2    0    0 -0.21235737121E+03 -0.44212827849E+02  0.15982821574E+04  0.16179262288E+04  0.12700000000E+03 0.  0.
<mgrwt>
<rscale>  0 0.60310116E+03</rscale>
<asrwt>0</asrwt>
<pdfrwt beam="1">  1        2 0.29595593E+00 0.60310116E+03</pdfrwt>
<pdfrwt beam="2">  1       -2 0.62704284E-02 0.60310116E+03</pdfrwt>
<totfact> 0.10989449E+03</totfact>
</mgrwt>
</event>
<event>
 4    1  0.1390278E-004  0.3709114E+03  0.7818608E-02  0.1054345E+00
          2   -1    0    0  501    0  0.00000000000E+00  0.00000000000E+00  0.47189216209E+03  0.47189216210E+03  0.25500000000E-02 0.  1.
         -2   -1    0    0    0  501 -0.00000000000E+00 -0.00000000000E+00 -0.72884904617E+02  0.72884904661E+02  0.25500000000E-02 0. -1.
    5000001    1    1    2    0    0 -0.10510601020E+03  0.73137215772E+02  0.26299196965E+03  0.31888885495E+03  0.12700000000E+03 0.  0.
   -5000001    1    1    2    0    0  0.10510601020E+03 -0.73137215772E+02  0.13601528783E+03  0.22588821181E+03  0.12700000000E+03 0.  0.
<mgrwt>
<rscale>  0 0.37091139E+03</rscale>
<asrwt>0</asrwt>
<pdfrwt beam="1">  1        2 0.67413166E-01 0.37091139E+03</pdfrwt>
<pdfrwt beam="2">  1       -2 0.10412129E-01 0.37091139E+03</pdfrwt>
<totfact> 0.45141032E+03</totfact>
</mgrwt>
</event>
<event>
 4    1  0.1390278E-004  0.3911517E+03  0.7818608E-02  0.1046887E+00
          2   -1    0    0  501    0  0.00000000000E+00  0.00000000000E+00  0.43334243247E+03  0.43334243247E+03  0.25500000000E-02 0.  1.
         -2   -1    0    0    0  501 -0.00000000000E+00 -0.00000000000E+00 -0.88267181393E+02  0.88267181430E+02  0.25500000000E-02 0. -1.
    5000001    1    1    2    0    0  0.61739086570E+02  0.50883357562E+01 -0.77756717272E+01  0.14151702033E+03  0.12700000000E+03 0.  0.
   -5000001    1    1    2    0    0 -0.61739086570E+02 -0.50883357562E+01  0.35285092280E+03  0.38009259358E+03  0.12700000000E+03 0.  0.
<mgrwt>
<rscale>  0 0.39115171E+03</rscale>
<asrwt>0</asrwt>
<pdfrwt beam="1">  1        2 0.61906061E-01 0.39115171E+03</pdfrwt>
<pdfrwt beam="2">  1       -2 0.12609598E-01 0.39115171E+03</pdfrwt>
<totfact> 0.36401985E+03</totfact>
</mgrwt>
</event>
<event>
 4    1  0.1390278E-004  0.3381608E+03  0.7818608E-02  0.1067582E+00
          2   -1    0    0  501    0  0.00000000000E+00  0.00000000000E+00  0.12932143874E+03  0.12932143876E+03  0.25500000000E-02 0.  1.
         -2   -1    0    0    0  501 -0.00000000000E+00 -0.00000000000E+00 -0.22106296886E+03  0.22106296887E+03  0.25500000000E-02 0. -1.
    5000001    1    1    2    0    0 -0.32259550158E+02  0.55593968012E+02  0.48684780314E+02  0.15043462264E+03  0.12700000000E+03 0.  0.
   -5000001    1    1    2    0    0  0.32259550158E+02 -0.55593968012E+02 -0.14042631043E+03  0.19994978499E+03  0.12700000000E+03 0.  0.
<mgrwt>
<rscale>  0 0.33816080E+03</rscale>
<asrwt>0</asrwt>
<pdfrwt beam="1">  1        2 0.18474491E-01 0.33816080E+03</pdfrwt>
<pdfrwt beam="2">  1       -2 0.31580424E-01 0.33816080E+03</pdfrwt>
<totfact> 0.28438503E+03</totfact>
</mgrwt>
</event>
<event>
 4    1  0.1390278E-004  0.4610972E+03  0.7818608E-02  0.1024463E+00
          2   -1    0    0  501    0  0.00000000000E+00  0.00000000000E+00  0.83977732178E+03  0.83977732178E+03  0.25500000000E-02 0.  1.
         -2   -1    0    0    0  501 -0.00000000000E+00 -0.00000000000E+00 -0.63293760992E+02  0.63293761043E+02  0.25500000000E-02 0. -1.
    5000001    1    1    2    0    0  0.10693978244E+03 -0.31814982855E+02  0.81212837743E+02  0.18754422203E+03  0.12700000000E+03 0.  0.
   -5000001    1    1    2    0    0 -0.10693978244E+03  0.31814982855E+02  0.69527072304E+03  0.71552686080E+03  0.12700000000E+03 0.  0.
<mgrwt>
<rscale>  0 0.46109724E+03</rscale>
<asrwt>0</asrwt>
<pdfrwt beam="1">  1        2 0.11996818E+00 0.46109724E+03</pdfrwt>
<pdfrwt beam="2">  1       -2 0.90419662E-02 0.46109724E+03</pdfrwt>
<totfact> 0.28725728E+03</totfact>
</mgrwt>
</event>
<event>
 4    1  0.1390278E-004  0.3209889E+03  0.7818608E-02  0.1075195E+00
          2   -1    0    0  501    0  0.00000000000E+00  0.00000000000E+00  0.16042849272E+04  0.16042849272E+04  0.25500000000E-02 0.  1.
         -2   -1    0    0    0  501 -0.00000000000E+00 -0.00000000000E+00 -0.16056047339E+02  0.16056047541E+02  0.25500000000E-02 0. -1.
    5000001    1    1    2    0    0 -0.17788217527E+02  0.42067668435E+02  0.12325430849E+04  0.12399103054E+04  0.12700000000E+03 0.  0.
   -5000001    1    1    2    0    0  0.17788217527E+02 -0.42067668435E+02  0.35568579504E+03  0.38043066938E+03  0.12700000000E+03 0.  0.
<mgrwt>
<rscale>  0 0.32098894E+03</rscale>
<asrwt>0</asrwt>
<pdfrwt beam="1">  1        2 0.22918366E+00 0.32098894E+03</pdfrwt>
<pdfrwt beam="2">  1       -2 0.22937201E-02 0.32098894E+03</pdfrwt>
<totfact> 0.87552388E+03</totfact>
</mgrwt>
</event>
<event>
 4    1  0.1390278E-004  0.3579601E+03  0.7818608E-02  0.1059394E+00
         -2   -1    0    0    0  501 -0.00000000000E+00  0.00000000000E+00  0.99413811091E+01  0.99413814361E+01  0.25500000000E-02 0. -1.
          2   -1    0    0  501    0  0.00000000000E+00 -0.00000000000E+00 -0.32222749521E+04  0.32222749521E+04  0.25500000000E-02 0.  1.
    5000001    1    1    2    0    0  0.11189442094E+03 -0.54750563678E+02 -0.14285627231E+04  0.14395966239E+04  0.12700000000E+03 0.  0.
   -5000001    1    1    2    0    0 -0.11189442094E+03  0.54750563678E+02 -0.17837708479E+04  0.17926197097E+04  0.12700000000E+03 0.  0.
<mgrwt>
<rscale>  0 0.35796013E+03</rscale>
<asrwt>0</asrwt>
<pdfrwt beam="1">  1        2 0.46032433E+00 0.35796013E+03</pdfrwt>
<pdfrwt beam="2">  1       -2 0.14201994E-02 0.35796013E+03</pdfrwt>
<totfact> 0.26705713E+03</totfact>
</mgrwt>
</event>
<event>
 4    1  0.1390278E-004  0.5443983E+03  0.7818608E-02  0.1002799E+00
         -2   -1    0    0    0  501 -0.00000000000E+00  0.00000000000E+00  0.53617309851E+02  0.53617309911E+02  0.25500000000E-02 0. -1.
          2   -1    0    0  501    0  0.00000000000E+00 -0.00000000000E+00 -0.13818743734E+04  0.13818743734E+04  0.25500000000E-02 0.  1.
    5000001    1    1    2    0    0 -0.16380586458E+03 -0.16009638919E+03 -0.46857214479E+03  0.53679797873E+03  0.12700000000E+03 0.  0.
   -5000001    1    1    2    0    0  0.16380586458E+03  0.16009638919E+03 -0.85968491873E+03  0.89869370455E+03  0.12700000000E+03 0.  0.
<mgrwt>
<rscale>  0 0.54439833E+03</rscale>
<asrwt>0</asrwt>
<pdfrwt beam="1">  1        2 0.19741060E+00 0.54439833E+03</pdfrwt>
<pdfrwt beam="2">  1       -2 0.76596166E-02 0.54439833E+03</pdfrwt>
<totfact> 0.18060087E+03</totfact>
</mgrwt>
</event>
<event>
 4    1  0.1390278E-004  0.3454152E+03  0.7818608E-02  0.1064513E+00
          2   -1    0    0  501    0  0.00000000000E+00  0.00000000000E+00  0.58102269819E+03  0.58102269819E+03  0.25500000000E-02 0.  1.
         -2   -1    0    0    0  501 -0.00000000000E+00 -0.00000000000E+00 -0.51336904497E+02  0.51336904560E+02  0.25500000000E-02 0. -1.
    5000001    1    1    2    0    0  0.96972341354E+02 -0.65513750633E+02  0.26155763866E+03  0.31342795799E+03  0.12700000000E+03 0.  0.
   -5000001    1    1    2    0    0 -0.96972341354E+02  0.65513750633E+02  0.26812815503E+03  0.31893164476E+03  0.12700000000E+03 0.  0.
<mgrwt>
<rscale>  0 0.34541515E+03</rscale>
<asrwt>0</asrwt>
<pdfrwt beam="1">  1        2 0.83003241E-01 0.34541515E+03</pdfrwt>
<pdfrwt beam="2">  1       -2 0.73338436E-02 0.34541515E+03</pdfrwt>
<totfact> 0.62112257E+03</totfact>
</mgrwt>
</event>
<event>
 4    1  0.1390278E-004  0.9648622E+03  0.7818608E-02  0.9347946E-01
          2   -1    0    0  501    0  0.00000000000E+00  0.00000000000E+00  0.24487138523E+03  0.24487138524E+03  0.25500000000E-02 0. -1.
         -2   -1    0    0    0  501 -0.00000000000E+00 -0.00000000000E+00 -0.95045710791E+03  0.95045710791E+03  0.25500000000E-02 0.  1.
    5000001    1    1    2    0    0 -0.31801729010E+03 -0.26729997374E+03 -0.61273635853E+03  0.75110526415E+03  0.12700000000E+03 0.  0.
   -5000001    1    1    2    0    0  0.31801729010E+03  0.26729997374E+03 -0.92849364151E+02  0.44422322900E+03  0.12700000000E+03 0.  0.
<mgrwt>
<rscale>  0 0.96486216E+03</rscale>
<asrwt>0</asrwt>
<pdfrwt beam="1">  1        2 0.34981627E-01 0.96486216E+03</pdfrwt>
<pdfrwt beam="2">  1       -2 0.13577959E+00 0.96486216E+03</pdfrwt>
<totfact> 0.58183969E+01</totfact>
</mgrwt>
</event>
<event>
 4    1  0.1390278E-004  0.4326496E+03  0.7818608E-02  0.1033026E+00
          2   -1    0    0  501    0  0.00000000000E+00  0.00000000000E+00  0.94835999517E+03  0.94835999517E+03  0.25500000000E-02 0.  1.
         -2   -1    0    0    0  501 -0.00000000000E+00 -0.00000000000E+00 -0.49344576733E+02  0.49344576799E+02  0.25500000000E-02 0. -1.
    5000001    1    1    2    0    0  0.15932324848E+03  0.42191923979E+02  0.31301532053E+03  0.37586120688E+03  0.12700000000E+03 0.  0.
   -5000001    1    1    2    0    0 -0.15932324848E+03 -0.42191923979E+02  0.58600009790E+03  0.62184336508E+03  0.12700000000E+03 0.  0.
<mgrwt>
<rscale>  0 0.43264962E+03</rscale>
<asrwt>0</asrwt>
<pdfrwt beam="1">  1        2 0.13547999E+00 0.43264962E+03</pdfrwt>
<pdfrwt beam="2">  1       -2 0.70492256E-02 0.43264962E+03</pdfrwt>
<totfact> 0.36270110E+03</totfact>
</mgrwt>
</event>
<event>
 4    1  0.1390278E-004  0.4629554E+03  0.7818608E-02  0.1023928E+00
          2   -1    0    0  501    0  0.00000000000E+00  0.00000000000E+00  0.36559606564E+04  0.36559606564E+04  0.25500000000E-02 0.  1.
         -2   -1    0    0    0  501 -0.00000000000E+00 -0.00000000000E+00 -0.14656044992E+02  0.14656045214E+02  0.25500000000E-02 0. -1.
    5000001    1    1    2    0    0  0.14048933574E+03 -0.69760192874E+02  0.92190479456E+03  0.94373788108E+03  0.12700000000E+03 0.  0.
   -5000001    1    1    2    0    0 -0.14048933574E+03  0.69760192874E+02  0.27193998169E+04  0.27268788206E+04  0.12700000000E+03 0.  0.
<mgrwt>
<rscale>  0 0.46295539E+03</rscale>
<asrwt>0</asrwt>
<pdfrwt beam="1">  1        2 0.52228008E+00 0.46295539E+03</pdfrwt>
<pdfrwt beam="2">  1       -2 0.20937208E-02 0.46295539E+03</pdfrwt>
<totfact> 0.83106384E+02</totfact>
</mgrwt>
</event>
<event>
 4    1  0.1390278E-004  0.3466342E+03  0.7818608E-02  0.1064005E+00
          2   -1    0    0  501    0  0.00000000000E+00  0.00000000000E+00  0.95431276221E+03  0.95431276221E+03  0.25500000000E-02 0.  1.
         -2   -1    0    0    0  501 -0.00000000000E+00 -0.00000000000E+00 -0.31476912006E+02  0.31476912109E+02  0.25500000000E-02 0. -1.
    5000001    1    1    2    0    0 -0.42300667519E+02  0.97789991310E+02  0.60524091315E+03  0.62753310018E+03  0.12700000000E+03 0.  0.
   -5000001    1    1    2    0    0  0.42300667519E+02 -0.97789991310E+02  0.31759493705E+03  0.35825657414E+03  0.12700000000E+03 0.  0.
<mgrwt>
<rscale>  0 0.34663421E+03</rscale>
<asrwt>0</asrwt>
<pdfrwt beam="1">  1        2 0.13633039E+00 0.34663421E+03</pdfrwt>
<pdfrwt beam="2">  1       -2 0.44967020E-02 0.34663421E+03</pdfrwt>
<totfact> 0.71759223E+03</totfact>
</mgrwt>
</event>
<event>
 4    1  0.1390278E-004  0.5523823E+03  0.7818608E-02  0.1000944E+00
         -2   -1    0    0    0  501 -0.00000000000E+00  0.00000000000E+00  0.10920422458E+03  0.10920422461E+03  0.25500000000E-02 0. -1.
          2   -1    0    0  501    0  0.00000000000E+00 -0.00000000000E+00 -0.69852188824E+03  0.69852188825E+03  0.25500000000E-02 0.  1.
    5000001    1    1    2    0    0  0.79081604741E+02 -0.21424131393E+03 -0.16387610129E+03  0.30844386423E+03  0.12700000000E+03 0.  0.
   -5000001    1    1    2    0    0 -0.79081604741E+02  0.21424131393E+03 -0.42544156237E+03  0.49928224863E+03  0.12700000000E+03 0.  0.
<mgrwt>
<rscale>  0 0.55238226E+03</rscale>
<asrwt>0</asrwt>
<pdfrwt beam="1">  1        2 0.99788839E-01 0.55238226E+03</pdfrwt>
<pdfrwt beam="2">  1       -2 0.15600604E-01 0.55238226E+03</pdfrwt>
<totfact> 0.14792294E+03</totfact>
</mgrwt>
</event>
<event>
 4    1  0.1390278E-004  0.4291375E+03  0.7818608E-02  0.1034133E+00
         -2   -1    0    0    0  501 -0.00000000000E+00  0.00000000000E+00  0.36502385654E+03  0.36502385655E+03  0.25500000000E-02 0. -1.
          2   -1    0    0  501    0  0.00000000000E+00 -0.00000000000E+00 -0.12612806914E+03  0.12612806917E+03  0.25500000000E-02 0.  1.
    5000001    1    1    2    0    0  0.15075412330E+03  0.83445030115E+02  0.10243833238E+03  0.23730252987E+03  0.12700000000E+03 0.  0.
   -5000001    1    1    2    0    0 -0.15075412330E+03 -0.83445030115E+02  0.13645745502E+03  0.25384939585E+03  0.12700000000E+03 0.  0.
<mgrwt>
<rscale>  0 0.42913753E+03</rscale>
<asrwt>0</asrwt>
<pdfrwt beam="1">  1        2 0.18018296E-01 0.42913753E+03</pdfrwt>
<pdfrwt beam="2">  1       -2 0.52146265E-01 0.42913753E+03</pdfrwt>
<totfact> 0.11157222E+03</totfact>
</mgrwt>
</event>
<event>
 4    1  0.1390278E-004  0.3153582E+03  0.7818608E-02  0.1077806E+00
         -2   -1    0    0    0  501 -0.00000000000E+00  0.00000000000E+00  0.13119703978E+02  0.13119704226E+02  0.25500000000E-02 0. -1.
          2   -1    0    0  501    0  0.00000000000E+00 -0.00000000000E+00 -0.18950658562E+04  0.18950658562E+04  0.25500000000E-02 0.  1.
    5000001    1    1    2    0    0 -0.24888799185E+02 -0.76600788219E+02 -0.12277712843E+04  0.12369472340E+04  0.12700000000E+03 0.  0.
   -5000001    1    1    2    0    0  0.24888799185E+02  0.76600788219E+02 -0.65417486791E+03  0.67123832644E+03  0.12700000000E+03 0.  0.
<mgrwt>
<rscale>  0 0.31535823E+03</rscale>
<asrwt>0</asrwt>
<pdfrwt beam="1">  1        2 0.27072352E+00 0.31535823E+03</pdfrwt>
<pdfrwt beam="2">  1       -2 0.18742447E-02 0.31535823E+03</pdfrwt>
<totfact> 0.84727951E+03</totfact>
</mgrwt>
</event>
<event>
 4    1  0.1390278E-004  0.5078566E+03  0.7818608E-02  0.1011748E+00
         -2   -1    0    0    0  501 -0.00000000000E+00  0.00000000000E+00  0.41032461737E+02  0.41032461817E+02  0.25500000000E-02 0. -1.
          2   -1    0    0  501    0  0.00000000000E+00 -0.00000000000E+00 -0.15714283535E+04  0.15714283535E+04  0.25500000000E-02 0.  1.
    5000001    1    1    2    0    0  0.94780650482E+02 -0.13035144270E+03 -0.12401354267E+04  0.12569963193E+04  0.12700000000E+03 0.  0.
   -5000001    1    1    2    0    0 -0.94780650482E+02  0.13035144270E+03 -0.29026046514E+03  0.35546449603E+03  0.12700000000E+03 0.  0.
<mgrwt>
<rscale>  0 0.50785657E+03</rscale>
<asrwt>0</asrwt>
<pdfrwt beam="1">  1        2 0.22448973E+00 0.50785657E+03</pdfrwt>
<pdfrwt beam="2">  1       -2 0.58617812E-02 0.50785657E+03</pdfrwt>
<totfact> 0.21923172E+03</totfact>
</mgrwt>
</event>
<event>
 4    1  0.1390278E-004  0.5356410E+03  0.7818608E-02  0.1004873E+00
          2   -1    0    0  501    0  0.00000000000E+00  0.00000000000E+00  0.11841080445E+03  0.11841080447E+03  0.25500000000E-02 0.  1.
         -2   -1    0    0    0  501 -0.00000000000E+00 -0.00000000000E+00 -0.60575409317E+03  0.60575409317E+03  0.25500000000E-02 0. -1.
    5000001    1    1    2    0    0  0.19999006630E+03 -0.76798516569E+02 -0.11048621462E+03  0.27245227543E+03  0.12700000000E+03 0.  0.
   -5000001    1    1    2    0    0 -0.19999006630E+03  0.76798516569E+02 -0.37685707410E+03  0.45171262222E+03  0.12700000000E+03 0.  0.
<mgrwt>
<rscale>  0 0.53564103E+03</rscale>
<asrwt>0</asrwt>
<pdfrwt beam="1">  1        2 0.16915830E-01 0.53564103E+03</pdfrwt>
<pdfrwt beam="2">  1       -2 0.86536297E-01 0.53564103E+03</pdfrwt>
<totfact> 0.40511221E+02</totfact>
</mgrwt>
</event>
<event>
 4    1  0.1390278E-004  0.6697974E+03  0.7818608E-02  0.9770324E-01
          2   -1    0    0  501    0  0.00000000000E+00  0.00000000000E+00  0.63395651112E+03  0.63395651112E+03  0.25500000000E-02 0.  1.
         -2   -1    0    0    0  501 -0.00000000000E+00 -0.00000000000E+00 -0.17691615633E+03  0.17691615635E+03  0.25500000000E-02 0. -1.
    5000001    1    1    2    0    0  0.22201445489E+03 -0.30064362588E+02  0.48770073886E+03  0.55152089241E+03  0.12700000000E+03 0.  0.
   -5000001    1    1    2    0    0 -0.22201445489E+03  0.30064362588E+02 -0.30660384075E+02  0.25935177506E+03  0.12700000000E+03 0.  0.
<mgrwt>
<rscale>  0 0.66979743E+03</rscale>
<asrwt>0</asrwt>
<pdfrwt beam="1">  1        2 0.90565215E-01 0.66979743E+03</pdfrwt>
<pdfrwt beam="2">  1       -2 0.25273737E-01 0.66979743E+03</pdfrwt>
<totfact> 0.71642151E+02</totfact>
</mgrwt>
</event>
<event>
 4    1  0.1390278E-004  0.3712889E+03  0.7818608E-02  0.1054201E+00
         -2   -1    0    0    0  501 -0.00000000000E+00  0.00000000000E+00  0.13094699369E+04  0.13094699369E+04  0.25500000000E-02 0. -1.
          2   -1    0    0  501    0  0.00000000000E+00 -0.00000000000E+00 -0.26318943692E+02  0.26318943816E+02  0.25500000000E-02 0.  1.
    5000001    1    1    2    0    0 -0.58435197645E+02 -0.55937467532E+02  0.10322406805E+04  0.10431651332E+04  0.12700000000E+03 0.  0.
   -5000001    1    1    2    0    0  0.58435197645E+02  0.55937467532E+02  0.25091031265E+03  0.29262374749E+03  0.12700000000E+03 0.  0.
<mgrwt>
<rscale>  0 0.37128892E+03</rscale>
<asrwt>0</asrwt>
<pdfrwt beam="1">  1        2 0.37598498E-02 0.37128892E+03</pdfrwt>
<pdfrwt beam="2">  1       -2 0.18706710E+00 0.37128892E+03</pdfrwt>
<totfact> 0.40391274E+02</totfact>
</mgrwt>
</event>
<event>
 4    1  0.1390278E-004  0.4336334E+03  0.7818608E-02  0.1032718E+00
         -2   -1    0    0    0  501 -0.00000000000E+00  0.00000000000E+00  0.34857689257E+03  0.34857689258E+03  0.25500000000E-02 0. -1.
          2   -1    0    0  501    0  0.00000000000E+00 -0.00000000000E+00 -0.13486112794E+03  0.13486112796E+03  0.25500000000E-02 0.  1.
    5000001    1    1    2    0    0 -0.25567377999E+02 -0.17371932188E+03  0.11461227705E+03  0.24514703275E+03  0.12700000000E+03 0.  0.
   -5000001    1    1    2    0    0  0.25567377999E+02  0.17371932188E+03  0.99103487578E+02  0.23829098779E+03  0.12700000000E+03 0.  0.
<mgrwt>
<rscale>  0 0.43363336E+03</rscale>
<asrwt>0</asrwt>
<pdfrwt beam="1">  1        2 0.19265875E-01 0.43363336E+03</pdfrwt>
<pdfrwt beam="2">  1       -2 0.49796699E-01 0.43363336E+03</pdfrwt>
<totfact> 0.11324519E+03</totfact>
</mgrwt>
</event>
<event>
 4    1  0.1390278E-004  0.9908633E+03  0.7818608E-02  0.9318623E-01
         -2   -1    0    0    0  501 -0.00000000000E+00  0.00000000000E+00  0.10960479477E+04  0.10960479477E+04  0.25500000000E-02 0. -1.
          2   -1    0    0  501    0  0.00000000000E+00 -0.00000000000E+00 -0.22394322967E+03  0.22394322968E+03  0.25500000000E-02 0.  1.
    5000001    1    1    2    0    0 -0.17820884993E+03  0.39990350899E+03  0.69451358578E+03  0.83075828707E+03  0.12700000000E+03 0.  0.
   -5000001    1    1    2    0    0  0.17820884993E+03 -0.39990350899E+03  0.17759113223E+03  0.48923289029E+03  0.12700000000E+03 0.  0.
<mgrwt>
<rscale>  0 0.99086329E+03</rscale>
<asrwt>0</asrwt>
<pdfrwt beam="1">  1        2 0.31991890E-01 0.99086329E+03</pdfrwt>
<pdfrwt beam="2">  1       -2 0.15657828E+00 0.99086329E+03</pdfrwt>
<totfact> 0.44161095E+01</totfact>
</mgrwt>
</event>
<event>
 4    1  0.1390278E-004  0.4078181E+03  0.7818608E-02  0.1041106E+00
         -2   -1    0    0    0  501 -0.00000000000E+00  0.00000000000E+00  0.16724139260E+02  0.16724139454E+02  0.25500000000E-02 0. -1.
          2   -1    0    0  501    0  0.00000000000E+00 -0.00000000000E+00 -0.24861609902E+04  0.24861609902E+04  0.25500000000E-02 0.  1.
    5000001    1    1    2    0    0 -0.11348027704E+03  0.32284404629E+02 -0.57571726681E+03  0.60124822442E+03  0.12700000000E+03 0.  0.
   -5000001    1    1    2    0    0  0.11348027704E+03 -0.32284404629E+02 -0.18937195841E+04  0.19016369052E+04  0.12700000000E+03 0.  0.
<mgrwt>
<rscale>  0 0.40781811E+03</rscale>
<asrwt>0</asrwt>
<pdfrwt beam="1">  1        2 0.35516562E+00 0.40781811E+03</pdfrwt>
<pdfrwt beam="2">  1       -2 0.23891643E-02 0.40781811E+03</pdfrwt>
<totfact> 0.30057305E+03</totfact>
</mgrwt>
</event>
<event>
 4    1  0.1390278E-004  0.5213423E+03  0.7818608E-02  0.1008354E+00
         -2   -1    0    0    0  501 -0.00000000000E+00  0.00000000000E+00  0.28856800129E+02  0.28856800242E+02  0.25500000000E-02 0. -1.
          2   -1    0    0  501    0  0.00000000000E+00 -0.00000000000E+00 -0.23547122196E+04  0.23547122196E+04  0.25500000000E-02 0.  1.
    5000001    1    1    2    0    0  0.17376355809E+03 -0.13998686926E+03 -0.13689392294E+04  0.13928078516E+04  0.12700000000E+03 0.  0.
   -5000001    1    1    2    0    0 -0.17376355809E+03  0.13998686926E+03 -0.95691619011E+03  0.99076116828E+03  0.12700000000E+03 0.  0.
<mgrwt>
<rscale>  0 0.52134234E+03</rscale>
<asrwt>0</asrwt>
<pdfrwt beam="1">  1        2 0.33638734E+00 0.52134234E+03</pdfrwt>
<pdfrwt beam="2">  1       -2 0.41224015E-02 0.52134234E+03</pdfrwt>
<totfact> 0.15245145E+03</totfact>
</mgrwt>
</event>
<event>
 4    1  0.1390278E-004  0.5319199E+03  0.7818608E-02  0.1005768E+00
         -2   -1    0    0    0  501 -0.00000000000E+00  0.00000000000E+00  0.98972206639E+02  0.98972206672E+02  0.25500000000E-02 0. -1.
          2   -1    0    0  501    0  0.00000000000E+00 -0.00000000000E+00 -0.71469251705E+03  0.71469251705E+03  0.25500000000E-02 0.  1.
    5000001    1    1    2    0    0  0.20130473433E+03 -0.74618903170E+02 -0.44900632543E+03  0.51364117538E+03  0.12700000000E+03 0.  0.
   -5000001    1    1    2    0    0 -0.20130473433E+03  0.74618903170E+02 -0.16671398498E+03  0.30002354834E+03  0.12700000000E+03 0.  0.
<mgrwt>
<rscale>  0 0.53191990E+03</rscale>
<asrwt>0</asrwt>
<pdfrwt beam="1">  1        2 0.10209893E+00 0.53191990E+03</pdfrwt>
<pdfrwt beam="2">  1       -2 0.14138887E-01 0.53191990E+03</pdfrwt>
<totfact> 0.16967363E+03</totfact>
</mgrwt>
</event>
<event>
 4    1  0.1390278E-004  0.3812273E+03  0.7818608E-02  0.1050481E+00
          2   -1    0    0  501    0  0.00000000000E+00  0.00000000000E+00  0.25328105392E+03  0.25328105394E+03  0.25500000000E-02 0.  1.
         -2   -1    0    0    0  501 -0.00000000000E+00 -0.00000000000E+00 -0.14345157071E+03  0.14345157073E+03  0.25500000000E-02 0. -1.
    5000001    1    1    2    0    0  0.43958485165E+01 -0.14197976640E+03  0.60320977710E+02  0.19986294780E+03  0.12700000000E+03 0.  0.
   -5000001    1    1    2    0    0 -0.43958485165E+01  0.14197976640E+03  0.49508505502E+02  0.19686967687E+03  0.12700000000E+03 0.  0.
<mgrwt>
<rscale>  0 0.38122731E+03</rscale>
<asrwt>0</asrwt>
<pdfrwt beam="1">  1        2 0.36183008E-01 0.38122731E+03</pdfrwt>
<pdfrwt beam="2">  1       -2 0.20493082E-01 0.38122731E+03</pdfrwt>
<totfact> 0.28920603E+03</totfact>
</mgrwt>
</event>
<event>
 4    1  0.1390278E-004  0.5634209E+03  0.7818608E-02  0.9984344E-01
          2   -1    0    0  501    0  0.00000000000E+00  0.00000000000E+00  0.24454220619E+04  0.24454220619E+04  0.25500000000E-02 0.  1.
         -2   -1    0    0    0  501 -0.00000000000E+00 -0.00000000000E+00 -0.32452795425E+02  0.32452795525E+02  0.25500000000E-02 0. -1.
    5000001    1    1    2    0    0  0.21614549407E+03  0.10247925430E+03  0.86551436471E+03  0.90689855424E+03  0.12700000000E+03 0.  0.
   -5000001    1    1    2    0    0 -0.21614549407E+03 -0.10247925430E+03  0.15474549018E+04  0.15709763032E+04  0.12700000000E+03 0.  0.
<mgrwt>
<rscale>  0 0.56342092E+03</rscale>
<asrwt>0</asrwt>
<pdfrwt beam="1">  1        2 0.34934612E+00 0.56342092E+03</pdfrwt>
<pdfrwt beam="2">  1       -2 0.46361122E-02 0.56342092E+03</pdfrwt>
<totfact> 0.11413825E+03</totfact>
</mgrwt>
</event>
<event>
 4    1  0.1390278E-004  0.4235722E+03  0.7818608E-02  0.1035910E+00
         -2   -1    0    0    0  501 -0.00000000000E+00  0.00000000000E+00  0.29505323846E+02  0.29505323956E+02  0.25500000000E-02 0. -1.
          2   -1    0    0  501    0  0.00000000000E+00 -0.00000000000E+00 -0.15201779163E+04  0.15201779163E+04  0.25500000000E-02 0.  1.
    5000001    1    1    2    0    0  0.38788626837E+02 -0.16470682274E+03 -0.71034985596E+03  0.74118743439E+03  0.12700000000E+03 0.  0.
   -5000001    1    1    2    0    0 -0.38788626837E+02  0.16470682274E+03 -0.78032273652E+03  0.80849580590E+03  0.12700000000E+03 0.  0.
<mgrwt>
<rscale>  0 0.42357215E+03</rscale>
<asrwt>0</asrwt>
<pdfrwt beam="1">  1        2 0.21716822E+00 0.42357215E+03</pdfrwt>
<pdfrwt beam="2">  1       -2 0.42150472E-02 0.42357215E+03</pdfrwt>
<totfact> 0.38769196E+03</totfact>
</mgrwt>
</event>
<event>
 4    1  0.1390278E-004  0.3425277E+03  0.7818608E-02  0.1065724E+00
          2   -1    0    0  501    0  0.00000000000E+00  0.00000000000E+00  0.99368695182E+02  0.99368695214E+02  0.25500000000E-02 0.  1.
         -2   -1    0    0    0  501 -0.00000000000E+00 -0.00000000000E+00 -0.29517651710E+03  0.29517651711E+03  0.25500000000E-02 0. -1.
    5000001    1    1    2    0    0 -0.98870087275E+02 -0.58540442407E+02 -0.98095987280E+02  0.19736793122E+03  0.12700000000E+03 0.  0.
   -5000001    1    1    2    0    0  0.98870087275E+02  0.58540442407E+02 -0.97711834642E+02  0.19717728111E+03  0.12700000000E+03 0.  0.
<mgrwt>
<rscale>  0 0.34252769E+03</rscale>
<asrwt>0</asrwt>
<pdfrwt beam="1">  1        2 0.14195528E-01 0.34252769E+03</pdfrwt>
<pdfrwt beam="2">  1       -2 0.42168073E-01 0.34252769E+03</pdfrwt>
<totfact> 0.22504729E+03</totfact>
</mgrwt>
</event>
<event>
 4    1  0.1390278E-004  0.3874116E+03  0.7818608E-02  0.1048228E+00
         -2   -1    0    0    0  501 -0.00000000000E+00  0.00000000000E+00  0.39546662327E+02  0.39546662410E+02  0.25500000000E-02 0. -1.
          2   -1    0    0  501    0  0.00000000000E+00 -0.00000000000E+00 -0.94880183003E+03  0.94880183003E+03  0.25500000000E-02 0.  1.
    5000001    1    1    2    0    0 -0.12537455983E+03  0.67441207889E+02 -0.54022831599E+03  0.57292471597E+03  0.12700000000E+03 0.  0.
   -5000001    1    1    2    0    0  0.12537455983E+03 -0.67441207889E+02 -0.36902685171E+03  0.41542377646E+03  0.12700000000E+03 0.  0.
<mgrwt>
<rscale>  0 0.38741164E+03</rscale>
<asrwt>0</asrwt>
<pdfrwt beam="1">  1        2 0.13554310E+00 0.38741164E+03</pdfrwt>
<pdfrwt beam="2">  1       -2 0.56495238E-02 0.38741164E+03</pdfrwt>
<totfact> 0.51080945E+03</totfact>
</mgrwt>
</event>
<event>
 4    1  0.1390278E-004  0.3348783E+03  0.7818608E-02  0.1068999E+00
         -2   -1    0    0    0  501 -0.00000000000E+00  0.00000000000E+00  0.12877311292E+02  0.12877311545E+02  0.25500000000E-02 0. -1.
          2   -1    0    0  501    0  0.00000000000E+00 -0.00000000000E+00 -0.21771522096E+04  0.21771522096E+04  0.25500000000E-02 0.  1.
    5000001    1    1    2    0    0 -0.10339166840E+03  0.27459011970E+02 -0.12228616377E+04  0.12340840406E+04  0.12700000000E+03 0.  0.
   -5000001    1    1    2    0    0  0.10339166840E+03 -0.27459011970E+02 -0.94141326068E+03  0.95594548056E+03  0.12700000000E+03 0.  0.
<mgrwt>
<rscale>  0 0.33487829E+03</rscale>
<asrwt>0</asrwt>
<pdfrwt beam="1">  1        2 0.31102151E+00 0.33487829E+03</pdfrwt>
<pdfrwt beam="2">  1       -2 0.18396173E-02 0.33487829E+03</pdfrwt>
<totfact> 0.63328650E+03</totfact>
</mgrwt>
</event>
<event>
 4    1  0.1390278E-004  0.3351028E+03  0.7818608E-02  0.1068901E+00
          2   -1    0    0  501    0  0.00000000000E+00  0.00000000000E+00  0.35172916387E+04  0.35172916387E+04  0.25500000000E-02 0.  1.
         -2   -1    0    0    0  501 -0.00000000000E+00 -0.00000000000E+00 -0.79815609456E+01  0.79815613530E+01  0.25500000000E-02 0. -1.
    5000001    1    1    2    0    0 -0.39486660030E+02 -0.39152983956E+02  0.76486434436E+03  0.77732787018E+03  0.12700000000E+03 0.  0.
   -5000001    1    1    2    0    0  0.39486660030E+02  0.39152983956E+02  0.27444457334E+04  0.27479453299E+04  0.12700000000E+03 0.  0.
<mgrwt>
<rscale>  0 0.33510284E+03</rscale>
<asrwt>0</asrwt>
<pdfrwt beam="1">  1        2 0.50247163E+00 0.33510284E+03</pdfrwt>
<pdfrwt beam="2">  1       -2 0.11402199E-02 0.33510284E+03</pdfrwt>
<totfact> 0.25091988E+03</totfact>
</mgrwt>
</event>
<event>
 4    1  0.1390278E-004  0.3199345E+03  0.7818608E-02  0.1075679E+00
          2   -1    0    0  501    0  0.00000000000E+00  0.00000000000E+00  0.36487120398E+04  0.36487120398E+04  0.25500000000E-02 0.  1.
         -2   -1    0    0    0  501 -0.00000000000E+00 -0.00000000000E+00 -0.70133040510E+01  0.70133045145E+01  0.25500000000E-02 0. -1.
    5000001    1    1    2    0    0  0.47315015486E+02  0.84659871183E+02  0.17364763677E+04  0.17438134017E+04  0.12700000000E+03 0.  0.
   -5000001    1    1    2    0    0 -0.47315015486E+02 -0.84659871183E+02  0.19052223681E+04  0.19119119426E+04  0.12700000000E+03 0.  0.
<mgrwt>
<rscale>  0 0.31993454E+03</rscale>
<asrwt>0</asrwt>
<pdfrwt beam="1">  1        2 0.52124447E+00 0.31993454E+03</pdfrwt>
<pdfrwt beam="2">  1       -2 0.10019008E-02 0.31993454E+03</pdfrwt>
<totfact> 0.25376531E+03</totfact>
</mgrwt>
</event>
<event>
 4    1  0.1390278E-004  0.5568870E+03  0.7818608E-02  0.9999123E-01
         -2   -1    0    0    0  501 -0.00000000000E+00  0.00000000000E+00  0.10749322676E+03  0.10749322679E+03  0.25500000000E-02 0. -1.
          2   -1    0    0  501    0  0.00000000000E+00 -0.00000000000E+00 -0.72126192870E+03  0.72126192871E+03  0.25500000000E-02 0.  1.
    5000001    1    1    2    0    0  0.10343360151E+03 -0.22244518492E+03 -0.35889454579E+03  0.45289586575E+03  0.12700000000E+03 0.  0.
   -5000001    1    1    2    0    0 -0.10343360151E+03  0.22244518492E+03 -0.25487415615E+03  0.37585928975E+03  0.12700000000E+03 0.  0.
<mgrwt>
<rscale>  0 0.55688696E+03</rscale>
<asrwt>0</asrwt>
<pdfrwt beam="1">  1        2 0.10303742E+00 0.55688696E+03</pdfrwt>
<pdfrwt beam="2">  1       -2 0.15356176E-01 0.55688696E+03</pdfrwt>
<totfact> 0.14606188E+03</totfact>
</mgrwt>
</event>
<event>
 4    1  0.1390278E-004  0.3532095E+03  0.7818608E-02  0.1061305E+00
          2   -1    0    0  501    0  0.00000000000E+00  0.00000000000E+00  0.22633707316E+04  0.22633707316E+04  0.25500000000E-02 0.  1.
         -2   -1    0    0    0  501 -0.00000000000E+00 -0.00000000000E+00 -0.13779991583E+02  0.13779991819E+02  0.25500000000E-02 0. -1.
    5000001    1    1    2    0    0  0.10285605958E+03 -0.65220722210E+02  0.12219549261E+04  0.12345590116E+04  0.12700000000E+03 0.  0.
   -5000001    1    1    2    0    0 -0.10285605958E+03  0.65220722210E+02  0.10276358139E+04  0.10425917118E+04  0.12700000000E+03 0.  0.
<mgrwt>
<rscale>  0 0.35320946E+03</rscale>
<asrwt>0</asrwt>
<pdfrwt beam="1">  1        2 0.32333894E+00 0.35320946E+03</pdfrwt>
<pdfrwt beam="2">  1       -2 0.19685687E-02 0.35320946E+03</pdfrwt>
<totfact> 0.51929413E+03</totfact>
</mgrwt>
</event>
<event>
 4    1  0.1390278E-004  0.3437965E+03  0.7818608E-02  0.1065190E+00
         -2   -1    0    0    0  501 -0.00000000000E+00  0.00000000000E+00  0.21093203014E+02  0.21093203168E+02  0.25500000000E-02 0. -1.
          2   -1    0    0  501    0  0.00000000000E+00 -0.00000000000E+00 -0.14008782906E+04  0.14008782906E+04  0.25500000000E-02 0.  1.
    5000001    1    1    2    0    0 -0.93301514320E+02 -0.68609664341E+02 -0.67852645313E+03  0.69995686025E+03  0.12700000000E+03 0.  0.
   -5000001    1    1    2    0    0  0.93301514320E+02  0.68609664341E+02 -0.70125863445E+03  0.72201463351E+03  0.12700000000E+03 0.  0.
<mgrwt>
<rscale>  0 0.34379651E+03</rscale>
<asrwt>0</asrwt>
<pdfrwt beam="1">  1        2 0.20012541E+00 0.34379651E+03</pdfrwt>
<pdfrwt beam="2">  1       -2 0.30133156E-02 0.34379651E+03</pdfrwt>
<totfact> 0.74080374E+03</totfact>
</mgrwt>
</event>
<event>
 4    1  0.1390278E-004  0.3700638E+03  0.7818608E-02  0.1054669E+00
         -2   -1    0    0    0  501 -0.00000000000E+00  0.00000000000E+00  0.23753335085E+02  0.23753335221E+02  0.25500000000E-02 0. -1.
          2   -1    0    0  501    0  0.00000000000E+00 -0.00000000000E+00 -0.14413470614E+04  0.14413470614E+04  0.25500000000E-02 0.  1.
    5000001    1    1    2    0    0 -0.94889027309E+02  0.92556818500E+02 -0.80055011922E+03  0.82132830558E+03  0.12700000000E+03 0.  0.
   -5000001    1    1    2    0    0  0.94889027309E+02 -0.92556818500E+02 -0.61704360705E+03  0.64377209101E+03  0.12700000000E+03 0.  0.
<mgrwt>
<rscale>  0 0.37006378E+03</rscale>
<asrwt>0</asrwt>
<pdfrwt beam="1">  1        2 0.20590667E+00 0.37006378E+03</pdfrwt>
<pdfrwt beam="2">  1       -2 0.33933345E-02 0.37006378E+03</pdfrwt>
<totfact> 0.59102992E+03</totfact>
</mgrwt>
</event>
<event>
 4    1  0.1390278E-004  0.5103450E+03  0.7818608E-02  0.1011113E+00
          2   -1    0    0  501    0  0.00000000000E+00  0.00000000000E+00  0.86632274098E+03  0.86632274098E+03  0.25500000000E-02 0.  1.
         -2   -1    0    0    0  501 -0.00000000000E+00 -0.00000000000E+00 -0.75160204781E+02  0.75160204824E+02  0.25500000000E-02 0. -1.
    5000001    1    1    2    0    0 -0.15370823103E+03 -0.94410384212E+01  0.10233022137E+03  0.22431189826E+03  0.12700000000E+03 0.  0.
   -5000001    1    1    2    0    0  0.15370823103E+03  0.94410384212E+01  0.68883231482E+03  0.71717104755E+03  0.12700000000E+03 0.  0.
<mgrwt>
<rscale>  0 0.51034496E+03</rscale>
<asrwt>0</asrwt>
<pdfrwt beam="1">  1        2 0.12376039E+00 0.51034496E+03</pdfrwt>
<pdfrwt beam="2">  1       -2 0.10737172E-01 0.51034496E+03</pdfrwt>
<totfact> 0.20922756E+03</totfact>
</mgrwt>
</event>
<event>
 4    1  0.1390278E-004  0.2870715E+03  0.7818608E-02  0.1091888E+00
         -2   -1    0    0    0  501 -0.00000000000E+00  0.00000000000E+00  0.31576486196E+02  0.31576486299E+02  0.25500000000E-02 0. -1.
          2   -1    0    0  501    0  0.00000000000E+00 -0.00000000000E+00 -0.65246371375E+03  0.65246371376E+03  0.25500000000E-02 0.  1.
    5000001    1    1    2    0    0 -0.18374214970E+02 -0.63757680913E+02 -0.33050151513E+03  0.36022618610E+03  0.12700000000E+03 0.  0.
   -5000001    1    1    2    0    0  0.18374214970E+02  0.63757680913E+02 -0.29038571243E+03  0.32381401396E+03  0.12700000000E+03 0.  0.
<mgrwt>
<rscale>  0 0.28707150E+03</rscale>
<asrwt>0</asrwt>
<pdfrwt beam="1">  1        2 0.93209094E-01 0.28707150E+03</pdfrwt>
<pdfrwt beam="2">  1       -2 0.45109270E-02 0.28707150E+03</pdfrwt>
<totfact> 0.11397261E+04</totfact>
</mgrwt>
</event>
<event>
 4    1  0.1390278E-004  0.2996795E+03  0.7818608E-02  0.1085401E+00
          2   -1    0    0  501    0  0.00000000000E+00  0.00000000000E+00  0.14312403560E+04  0.14312403560E+04  0.25500000000E-02 0.  1.
         -2   -1    0    0    0  501 -0.00000000000E+00 -0.00000000000E+00 -0.15687057145E+02  0.15687057353E+02  0.25500000000E-02 0. -1.
    5000001    1    1    2    0    0  0.65579263412E+02 -0.18462211268E+02  0.90576175666E+03  0.91715584982E+03  0.12700000000E+03 0.  0.
   -5000001    1    1    2    0    0 -0.65579263412E+02  0.18462211268E+02  0.50979154218E+03  0.52977156352E+03  0.12700000000E+03 0.  0.
<mgrwt>
<rscale>  0 0.29967949E+03</rscale>
<asrwt>0</asrwt>
<pdfrwt beam="1">  1        2 0.20446293E+00 0.29967949E+03</pdfrwt>
<pdfrwt beam="2">  1       -2 0.22410080E-02 0.29967949E+03</pdfrwt>
<totfact> 0.11073335E+04</totfact>
</mgrwt>
</event>
<event>
 4    1  0.1390278E-004  0.4107267E+03  0.7818608E-02  0.1040127E+00
         -2   -1    0    0    0  501 -0.00000000000E+00  0.00000000000E+00  0.26874742712E+03  0.26874742713E+03  0.25500000000E-02 0. -1.
          2   -1    0    0  501    0  0.00000000000E+00 -0.00000000000E+00 -0.15692838847E+03  0.15692838849E+03  0.25500000000E-02 0.  1.
    5000001    1    1    2    0    0 -0.81200818350E+02  0.69725916882E+02  0.18109417424E+03  0.24572215270E+03  0.12700000000E+03 0.  0.
   -5000001    1    1    2    0    0  0.81200818350E+02 -0.69725916882E+02 -0.69275135590E+02  0.17995366292E+03  0.12700000000E+03 0.  0.
<mgrwt>
<rscale>  0 0.41072668E+03</rscale>
<asrwt>0</asrwt>
<pdfrwt beam="1">  1        2 0.22418341E-01 0.41072668E+03</pdfrwt>
<pdfrwt beam="2">  1       -2 0.38392489E-01 0.41072668E+03</pdfrwt>
<totfact> 0.15823661E+03</totfact>
</mgrwt>
</event>
<event>
 4    1  0.1390278E-004  0.5410077E+03  0.7818608E-02  0.1003597E+00
          2   -1    0    0  501    0  0.00000000000E+00  0.00000000000E+00  0.38479933839E+03  0.38479933839E+03  0.25500000000E-02 0.  1.
         -2   -1    0    0    0  501 -0.00000000000E+00 -0.00000000000E+00 -0.19015711800E+03  0.19015711802E+03  0.25500000000E-02 0. -1.
    5000001    1    1    2    0    0  0.22185962141E+03 -0.69981787077E+02  0.15479020824E+03  0.30693346299E+03  0.12700000000E+03 0.  0.
   -5000001    1    1    2    0    0 -0.22185962141E+03  0.69981787077E+02  0.39852012140E+02  0.26802299343E+03  0.12700000000E+03 0.  0.
<mgrwt>
<rscale>  0 0.54100770E+03</rscale>
<asrwt>0</asrwt>
<pdfrwt beam="1">  1        2 0.54971334E-01 0.54100770E+03</pdfrwt>
<pdfrwt beam="2">  1       -2 0.27165303E-01 0.54100770E+03</pdfrwt>
<totfact> 0.11133367E+03</totfact>
</mgrwt>
</event>
<event>
 4    1  0.1390278E-004  0.2916002E+03  0.7818608E-02  0.1089517E+00
         -2   -1    0    0    0  501 -0.00000000000E+00  0.00000000000E+00  0.53183582289E+02  0.53183582350E+02  0.25500000000E-02 0. -1.
          2   -1    0    0  501    0  0.00000000000E+00 -0.00000000000E+00 -0.39970348742E+03  0.39970348742E+03  0.25500000000E-02 0.  1.
    5000001    1    1    2    0    0  0.33536667473E+02 -0.53170743432E+02 -0.11998064988E+03  0.18567765716E+03  0.12700000000E+03 0.  0.
   -5000001    1    1    2    0    0 -0.33536667473E+02  0.53170743432E+02 -0.22653925525E+03  0.26720941262E+03  0.12700000000E+03 0.  0.
<mgrwt>
<rscale>  0 0.29160016E+03</rscale>
<asrwt>0</asrwt>
<pdfrwt beam="1">  1        2 0.57100496E-01 0.29160016E+03</pdfrwt>
<pdfrwt beam="2">  1       -2 0.75976549E-02 0.29160016E+03</pdfrwt>
<totfact> 0.88509570E+03</totfact>
</mgrwt>
</event>
<event>
 4    1  0.1390278E-004  0.4167430E+03  0.7818608E-02  0.1038132E+00
          2   -1    0    0  501    0  0.00000000000E+00  0.00000000000E+00  0.61461823584E+02  0.61461823636E+02  0.25500000000E-02 0.  1.
         -2   -1    0    0    0  501 -0.00000000000E+00 -0.00000000000E+00 -0.70643347737E+03  0.70643347737E+03  0.25500000000E-02 0. -1.
    5000001    1    1    2    0    0 -0.13679695816E+03  0.75680575301E+02 -0.42083245983E+03  0.46655108668E+03  0.12700000000E+03 0.  0.
   -5000001    1    1    2    0    0  0.13679695816E+03 -0.75680575301E+02 -0.22413919395E+03  0.30134421432E+03  0.12700000000E+03 0.  0.
<mgrwt>
<rscale>  0 0.41674304E+03</rscale>
<asrwt>0</asrwt>
<pdfrwt beam="1">  1        2 0.87802609E-02 0.41674304E+03</pdfrwt>
<pdfrwt beam="2">  1       -2 0.10091906E+00 0.41674304E+03</pdfrwt>
<totfact> 0.63841524E+02</totfact>
</mgrwt>
</event>
<event>
 4    1  0.1390278E-004  0.3432465E+03  0.7818608E-02  0.1065422E+00
         -2   -1    0    0    0  501 -0.00000000000E+00  0.00000000000E+00  0.25558660287E+02  0.25558660414E+02  0.25500000000E-02 0. -1.
          2   -1    0    0  501    0  0.00000000000E+00 -0.00000000000E+00 -0.11524287400E+04  0.11524287400E+04  0.25500000000E-02 0.  1.
    5000001    1    1    2    0    0 -0.90870328788E+02  0.69791436478E+02 -0.61163746917E+03  0.63510444413E+03  0.12700000000E+03 0.  0.
   -5000001    1    1    2    0    0  0.90870328788E+02 -0.69791436478E+02 -0.51523261053E+03  0.54288295628E+03  0.12700000000E+03 0.  0.
<mgrwt>
<rscale>  0 0.34324647E+03</rscale>
<asrwt>0</asrwt>
<pdfrwt beam="1">  1        2 0.16463264E+00 0.34324647E+03</pdfrwt>
<pdfrwt beam="2">  1       -2 0.36512379E-02 0.34324647E+03</pdfrwt>
<totfact> 0.75430974E+03</totfact>
</mgrwt>
</event>
<event>
 4    1  0.1390278E-004  0.5952326E+03  0.7818608E-02  0.9915347E-01
          2   -1    0    0  501    0  0.00000000000E+00  0.00000000000E+00  0.50249452679E+03  0.50249452679E+03  0.25500000000E-02 0.  1.
         -2   -1    0    0    0  501 -0.00000000000E+00 -0.00000000000E+00 -0.17627148522E+03  0.17627148524E+03  0.25500000000E-02 0. -1.
    5000001    1    1    2    0    0  0.78923419101E+02  0.25686986082E+03  0.18060836631E+03  0.34779219867E+03  0.12700000000E+03 0.  0.
   -5000001    1    1    2    0    0 -0.78923419101E+02 -0.25686986082E+03  0.14561467526E+03  0.33097381336E+03  0.12700000000E+03 0.  0.
<mgrwt>
<rscale>  0 0.59523258E+03</rscale>
<asrwt>0</asrwt>
<pdfrwt beam="1">  1        2 0.71784932E-01 0.59523258E+03</pdfrwt>
<pdfrwt beam="2">  1       -2 0.25181641E-01 0.59523258E+03</pdfrwt>
<totfact> 0.94662354E+02</totfact>
</mgrwt>
</event>
<event>
 4    1  0.1390278E-004  0.3801202E+03  0.7818608E-02  0.1050889E+00
         -2   -1    0    0    0  501 -0.00000000000E+00  0.00000000000E+00  0.36427791432E+03  0.36427791433E+03  0.25500000000E-02 0. -1.
          2   -1    0    0  501    0  0.00000000000E+00 -0.00000000000E+00 -0.99162860333E+02  0.99162860366E+02  0.25500000000E-02 0.  1.
    5000001    1    1    2    0    0  0.76066014644E+02 -0.11918543811E+03  0.13453574745E+03  0.23285204441E+03  0.12700000000E+03 0.  0.
   -5000001    1    1    2    0    0 -0.76066014644E+02  0.11918543811E+03  0.13057930653E+03  0.23058873029E+03  0.12700000000E+03 0.  0.
<mgrwt>
<rscale>  0 0.38012019E+03</rscale>
<asrwt>0</asrwt>
<pdfrwt beam="1">  1        2 0.14166123E-01 0.38012019E+03</pdfrwt>
<pdfrwt beam="2">  1       -2 0.52039702E-01 0.38012019E+03</pdfrwt>
<totfact> 0.14898840E+03</totfact>
</mgrwt>
</event>
<event>
 4    1  0.1390278E-004  0.7338102E+03  0.7818608E-02  0.9661098E-01
          2   -1    0    0  501    0  0.00000000000E+00  0.00000000000E+00  0.13460218438E+03  0.13460218441E+03  0.25500000000E-02 0. -1.
         -2   -1    0    0    0  501 -0.00000000000E+00 -0.00000000000E+00 -0.10001275287E+04  0.10001275287E+04  0.25500000000E-02 0.  1.
    5000001    1    1    2    0    0  0.33875393589E+03 -0.50818923914E+01 -0.33857090897E+03  0.49551923788E+03  0.12700000000E+03 0.  0.
   -5000001    1    1    2    0    0 -0.33875393589E+03  0.50818923914E+01 -0.52695443534E+03  0.63921047523E+03  0.12700000000E+03 0.  0.
<mgrwt>
<rscale>  0 0.73381019E+03</rscale>
<asrwt>0</asrwt>
<pdfrwt beam="1">  1        2 0.19228884E-01 0.73381019E+03</pdfrwt>
<pdfrwt beam="2">  1       -2 0.14287536E+00 0.73381019E+03</pdfrwt>
<totfact> 0.10252188E+02</totfact>
</mgrwt>
</event>
<event>
 4    1  0.1390278E-004  0.3878494E+03  0.7818608E-02  0.1048070E+00
         -2   -1    0    0    0  501 -0.00000000000E+00  0.00000000000E+00  0.81381415914E+02  0.81381415954E+02  0.25500000000E-02 0. -1.
          2   -1    0    0  501    0  0.00000000000E+00 -0.00000000000E+00 -0.46210526622E+03  0.46210526623E+03  0.25500000000E-02 0.  1.
    5000001    1    1    2    0    0 -0.14093495298E+03 -0.14555597390E+02 -0.24285403774E+03  0.30851516986E+03  0.12700000000E+03 0.  0.
   -5000001    1    1    2    0    0  0.14093495298E+03  0.14555597390E+02 -0.13786981257E+03  0.23497151233E+03  0.12700000000E+03 0.  0.
<mgrwt>
<rscale>  0 0.38784936E+03</rscale>
<asrwt>0</asrwt>
<pdfrwt beam="1">  1        2 0.66015036E-01 0.38784936E+03</pdfrwt>
<pdfrwt beam="2">  1       -2 0.11625917E-01 0.38784936E+03</pdfrwt>
<totfact> 0.38700238E+03</totfact>
</mgrwt>
</event>
<event>
 4    1  0.1390278E-004  0.3017370E+03  0.7818608E-02  0.1084376E+00
         -2   -1    0    0    0  501 -0.00000000000E+00  0.00000000000E+00  0.12132081888E+02  0.12132082156E+02  0.25500000000E-02 0. -1.
          2   -1    0    0  501    0  0.00000000000E+00 -0.00000000000E+00 -0.18761252690E+04  0.18761252690E+04  0.25500000000E-02 0.  1.
    5000001    1    1    2    0    0  0.50377812343E+02  0.62672879867E+02 -0.85124910376E+03  0.86441879346E+03  0.12700000000E+03 0.  0.
   -5000001    1    1    2    0    0 -0.50377812343E+02 -0.62672879867E+02 -0.10127440834E+04  0.10238385577E+04  0.12700000000E+03 0.  0.
<mgrwt>
<rscale>  0 0.30173701E+03</rscale>
<asrwt>0</asrwt>
<pdfrwt beam="1">  1        2 0.26801771E+00 0.30173701E+03</pdfrwt>
<pdfrwt beam="2">  1       -2 0.17331558E-02 0.30173701E+03</pdfrwt>
<totfact> 0.97080929E+03</totfact>
</mgrwt>
</event>
<event>
 4    1  0.1390278E-004  0.2786776E+03  0.7818608E-02  0.1096413E+00
          2   -1    0    0  501    0  0.00000000000E+00  0.00000000000E+00  0.95999078126E+03  0.95999078126E+03  0.25500000000E-02 0.  1.
         -2   -1    0    0    0  501 -0.00000000000E+00 -0.00000000000E+00 -0.20224472743E+02  0.20224472904E+02  0.25500000000E-02 0. -1.
    5000001    1    1    2    0    0 -0.55481181192E+02 -0.87817351406E+01  0.51014558035E+03  0.52870860925E+03  0.12700000000E+03 0.  0.
   -5000001    1    1    2    0    0  0.55481181192E+02  0.87817351406E+01  0.42962072816E+03  0.45150664492E+03  0.12700000000E+03 0.  0.
<mgrwt>
<rscale>  0 0.27867765E+03</rscale>
<asrwt>0</asrwt>
<pdfrwt beam="1">  1        2 0.13714158E+00 0.27867765E+03</pdfrwt>
<pdfrwt beam="2">  1       -2 0.28892096E-02 0.27867765E+03</pdfrwt>
<totfact> 0.13756068E+04</totfact>
</mgrwt>
</event>
<event>
 4    1  0.1390278E-004  0.4214050E+03  0.7818608E-02  0.1036610E+00
         -2   -1    0    0    0  501 -0.00000000000E+00  0.00000000000E+00  0.74226013013E+02  0.74226013057E+02  0.25500000000E-02 0. -1.
          2   -1    0    0  501    0  0.00000000000E+00 -0.00000000000E+00 -0.59811291262E+03  0.59811291262E+03  0.25500000000E-02 0.  1.
    5000001    1    1    2    0    0  0.10348081941E+02  0.15631764528E+03 -0.35930957580E+03  0.41203720740E+03  0.12700000000E+03 0.  0.
   -5000001    1    1    2    0    0 -0.10348081941E+02 -0.15631764528E+03 -0.16457732381E+03  0.26030171828E+03  0.12700000000E+03 0.  0.
<mgrwt>
<rscale>  0 0.42140497E+03</rscale>
<asrwt>0</asrwt>
<pdfrwt beam="1">  1        2 0.85444699E-01 0.42140497E+03</pdfrwt>
<pdfrwt beam="2">  1       -2 0.10603716E-01 0.42140497E+03</pdfrwt>
<totfact> 0.33586898E+03</totfact>
</mgrwt>
</event>
<event>
 4    1  0.1390278E-004  0.2817020E+03  0.7818608E-02  0.1094763E+00
         -2   -1    0    0    0  501 -0.00000000000E+00  0.00000000000E+00  0.30207060329E+02  0.30207060437E+02  0.25500000000E-02 0. -1.
          2   -1    0    0  501    0  0.00000000000E+00 -0.00000000000E+00 -0.65676704645E+03  0.65676704645E+03  0.25500000000E-02 0.  1.
    5000001    1    1    2    0    0  0.38765483667E+01 -0.45808345097E+02 -0.21583839260E+03  0.25461469680E+03  0.12700000000E+03 0.  0.
   -5000001    1    1    2    0    0 -0.38765483667E+01  0.45808345097E+02 -0.41072159352E+03  0.43235941009E+03  0.12700000000E+03 0.  0.
<mgrwt>
<rscale>  0 0.28170198E+03</rscale>
<asrwt>0</asrwt>
<pdfrwt beam="1">  1        2 0.93823855E-01 0.28170198E+03</pdfrwt>
<pdfrwt beam="2">  1       -2 0.43152947E-02 0.28170198E+03</pdfrwt>
<totfact> 0.12085667E+04</totfact>
</mgrwt>
</event>
<event>
 4    1  0.1390278E-004  0.2707005E+03  0.7818608E-02  0.1100879E+00
          2   -1    0    0  501    0  0.00000000000E+00  0.00000000000E+00  0.97955353123E+03  0.97955353123E+03  0.25500000000E-02 0.  1.
         -2   -1    0    0    0  501 -0.00000000000E+00 -0.00000000000E+00 -0.18702079235E+02  0.18702079409E+02  0.25500000000E-02 0. -1.
    5000001    1    1    2    0    0  0.41889088246E+02  0.90153453080E+01  0.54987903189E+03  0.56597872917E+03  0.12700000000E+03 0.  0.
   -5000001    1    1    2    0    0 -0.41889088246E+02 -0.90153453080E+01  0.41097242010E+03  0.43227688146E+03  0.12700000000E+03 0.  0.
<mgrwt>
<rscale>  0 0.27070048E+03</rscale>
<asrwt>0</asrwt>
<pdfrwt beam="1">  1        2 0.13993624E+00 0.27070048E+03</pdfrwt>
<pdfrwt beam="2">  1       -2 0.26717252E-02 0.27070048E+03</pdfrwt>
<totfact> 0.15021695E+04</totfact>
</mgrwt>
</event>
<event>
 4    1  0.1390278E-004  0.4146040E+03  0.7818608E-02  0.1038837E+00
          2   -1    0    0  501    0  0.00000000000E+00  0.00000000000E+00  0.10935677511E+04  0.10935677511E+04  0.25500000000E-02 0.  1.
         -2   -1    0    0    0  501 -0.00000000000E+00 -0.00000000000E+00 -0.39297166779E+02  0.39297166862E+02  0.25500000000E-02 0. -1.
    5000001    1    1    2    0    0  0.44857357775E+02  0.15628930282E+03  0.47203921526E+03  0.51515876141E+03  0.12700000000E+03 0.  0.
   -5000001    1    1    2    0    0 -0.44857357775E+02 -0.15628930282E+03  0.58223136910E+03  0.61770615659E+03  0.12700000000E+03 0.  0.
<mgrwt>
<rscale>  0 0.41460398E+03</rscale>
<asrwt>0</asrwt>
<pdfrwt beam="1">  1        2 0.15622396E+00 0.41460398E+03</pdfrwt>
<pdfrwt beam="2">  1       -2 0.56138812E-02 0.41460398E+03</pdfrwt>
<totfact> 0.42351065E+03</totfact>
</mgrwt>
</event>
<event>
 4    1  0.1390278E-004  0.6159868E+03  0.7818608E-02  0.9872783E-01
         -2   -1    0    0    0  501 -0.00000000000E+00  0.00000000000E+00  0.99408890411E+03  0.99408890411E+03  0.25500000000E-02 0. -1.
          2   -1    0    0  501    0  0.00000000000E+00 -0.00000000000E+00 -0.95424009053E+02  0.95424009087E+02  0.25500000000E-02 0.  1.
    5000001    1    1    2    0    0 -0.17311781371E+03 -0.20267650362E+03  0.60437033311E+03  0.67263663451E+03  0.12700000000E+03 0.  0.
   -5000001    1    1    2    0    0  0.17311781371E+03  0.20267650362E+03  0.29429456194E+03  0.41687627869E+03  0.12700000000E+03 0.  0.
<mgrwt>
<rscale>  0 0.61598685E+03</rscale>
<asrwt>0</asrwt>
<pdfrwt beam="1">  1        2 0.13632002E-01 0.61598685E+03</pdfrwt>
<pdfrwt beam="2">  1       -2 0.14201269E+00 0.61598685E+03</pdfrwt>
<totfact> 0.15834202E+02</totfact>
</mgrwt>
</event>
<event>
 4    1  0.1390278E-004  0.4147236E+03  0.7818608E-02  0.1038797E+00
         -2   -1    0    0    0  501 -0.00000000000E+00  0.00000000000E+00  0.20429506752E+02  0.20429506911E+02  0.25500000000E-02 0. -1.
          2   -1    0    0  501    0  0.00000000000E+00 -0.00000000000E+00 -0.21047457130E+04  0.21047457130E+04  0.25500000000E-02 0.  1.
    5000001    1    1    2    0    0 -0.13320138308E+03  0.91947823263E+02 -0.11750851255E+04  0.11929589527E+04  0.12700000000E+03 0.  0.
   -5000001    1    1    2    0    0  0.13320138308E+03 -0.91947823263E+02 -0.90923108080E+03  0.93221626727E+03  0.12700000000E+03 0.  0.
<mgrwt>
<rscale>  0 0.41472360E+03</rscale>
<asrwt>0</asrwt>
<pdfrwt beam="1">  1        2 0.30067782E+00 0.41472360E+03</pdfrwt>
<pdfrwt beam="2">  1       -2 0.29185023E-02 0.41472360E+03</pdfrwt>
<totfact> 0.34522204E+03</totfact>
</mgrwt>
</event>
<event>
 4    1  0.1390278E-004  0.3415254E+03  0.7818608E-02  0.1066148E+00
          2   -1    0    0  501    0  0.00000000000E+00  0.00000000000E+00  0.44360133724E+02  0.44360133797E+02  0.25500000000E-02 0.  1.
         -2   -1    0    0    0  501 -0.00000000000E+00 -0.00000000000E+00 -0.65734472515E+03  0.65734472515E+03  0.25500000000E-02 0. -1.
    5000001    1    1    2    0    0 -0.70746594783E+02  0.95871926415E+01 -0.12348223231E+03  0.19098129917E+03  0.12700000000E+03 0.  0.
   -5000001    1    1    2    0    0  0.70746594783E+02 -0.95871926415E+01 -0.48950235912E+03  0.51072355978E+03  0.12700000000E+03 0.  0.
<mgrwt>
<rscale>  0 0.34152540E+03</rscale>
<asrwt>0</asrwt>
<pdfrwt beam="1">  1        2 0.63371624E-02 0.34152540E+03</pdfrwt>
<pdfrwt beam="2">  1       -2 0.93906383E-01 0.34152540E+03</pdfrwt>
<totfact> 0.11474500E+03</totfact>
</mgrwt>
</event>
<event>
 4    1  0.1390278E-004  0.6296138E+03  0.7818608E-02  0.9845803E-01
          2   -1    0    0  501    0  0.00000000000E+00  0.00000000000E+00  0.34071712178E+04  0.34071712178E+04  0.25500000000E-02 0.  1.
         -2   -1    0    0    0  501 -0.00000000000E+00 -0.00000000000E+00 -0.29086703093E+02  0.29086703205E+02  0.25500000000E-02 0. -1.
    5000001    1    1    2    0    0 -0.15655484868E+03  0.21710641121E+03  0.11081147391E+04  0.11470361326E+04  0.12700000000E+03 0.  0.
   -5000001    1    1    2    0    0  0.15655484868E+03 -0.21710641121E+03  0.22699697756E+04  0.22892217884E+04  0.12700000000E+03 0.  0.
<mgrwt>
<rscale>  0 0.62961378E+03</rscale>
<asrwt>0</asrwt>
<pdfrwt beam="1">  1        2 0.48673839E+00 0.62961378E+03</pdfrwt>
<pdfrwt beam="2">  1       -2 0.41552464E-02 0.62961378E+03</pdfrwt>
<totfact> 0.40526484E+02</totfact>
</mgrwt>
</event>
<event>
 4    1  0.1390278E-004  0.5020237E+03  0.7818608E-02  0.1013252E+00
         -2   -1    0    0    0  501 -0.00000000000E+00  0.00000000000E+00  0.29004071543E+02  0.29004071655E+02  0.25500000000E-02 0. -1.
          2   -1    0    0  501    0  0.00000000000E+00 -0.00000000000E+00 -0.21723480446E+04  0.21723480446E+04  0.25500000000E-02 0.  1.
    5000001    1    1    2    0    0  0.14230931994E+03 -0.16014930885E+03 -0.93452762603E+03  0.96714560821E+03  0.12700000000E+03 0.  0.
   -5000001    1    1    2    0    0 -0.14230931994E+03  0.16014930885E+03 -0.12088163471E+04  0.12342065081E+04  0.12700000000E+03 0.  0.
<mgrwt>
<rscale>  0 0.50202366E+03</rscale>
<asrwt>0</asrwt>
<pdfrwt beam="1">  1        2 0.31033533E+00 0.50202366E+03</pdfrwt>
<pdfrwt beam="2">  1       -2 0.41434402E-02 0.50202366E+03</pdfrwt>
<totfact> 0.18700172E+03</totfact>
</mgrwt>
</event>
<event>
 4    1  0.1390278E-004  0.3591936E+03  0.7818608E-02  0.1058904E+00
         -2   -1    0    0    0  501 -0.00000000000E+00  0.00000000000E+00  0.28125671992E+02  0.28125672108E+02  0.25500000000E-02 0. -1.
          2   -1    0    0  501    0  0.00000000000E+00 -0.00000000000E+00 -0.11468171861E+04  0.11468171861E+04  0.25500000000E-02 0.  1.
    5000001    1    1    2    0    0  0.12208996337E+03  0.14279124954E+02 -0.45507382175E+03  0.48819159744E+03  0.12700000000E+03 0.  0.
   -5000001    1    1    2    0    0 -0.12208996337E+03 -0.14279124954E+02 -0.66361769239E+03  0.68675126081E+03  0.12700000000E+03 0.  0.
<mgrwt>
<rscale>  0 0.35919356E+03</rscale>
<asrwt>0</asrwt>
<pdfrwt beam="1">  1        2 0.16383100E+00 0.35919356E+03</pdfrwt>
<pdfrwt beam="2">  1       -2 0.40179539E-02 0.35919356E+03</pdfrwt>
<totfact> 0.65794349E+03</totfact>
</mgrwt>
</event>
<event>
 4    1  0.1390278E-004  0.9426046E+03  0.7818608E-02  0.9373837E-01
         -2   -1    0    0    0  501 -0.00000000000E+00  0.00000000000E+00  0.49517877324E+03  0.49517877324E+03  0.25500000000E-02 0. -1.
          2   -1    0    0  501    0  0.00000000000E+00 -0.00000000000E+00 -0.44857710694E+03  0.44857710695E+03  0.25500000000E-02 0.  1.
    5000001    1    1    2    0    0  0.63174425914E+02  0.29869847046E+03  0.35954590885E+03  0.48848136598E+03  0.12700000000E+03 0.  0.
   -5000001    1    1    2    0    0 -0.63174425914E+02 -0.29869847046E+03 -0.31294424255E+03  0.45527451421E+03  0.12700000000E+03 0.  0.
<mgrwt>
<rscale>  0 0.94260461E+03</rscale>
<asrwt>0</asrwt>
<pdfrwt beam="1">  1        2 0.64082444E-01 0.94260461E+03</pdfrwt>
<pdfrwt beam="2">  1       -2 0.70739825E-01 0.94260461E+03</pdfrwt>
<totfact> 0.13833990E+02</totfact>
</mgrwt>
</event>
<event>
 4    1  0.1390278E-004  0.3958758E+03  0.7818608E-02  0.1045217E+00
         -2   -1    0    0    0  501 -0.00000000000E+00  0.00000000000E+00  0.21668252786E+02  0.21668252936E+02  0.25500000000E-02 0. -1.
          2   -1    0    0  501    0  0.00000000000E+00 -0.00000000000E+00 -0.18081486375E+04  0.18081486375E+04  0.25500000000E-02 0.  1.
    5000001    1    1    2    0    0  0.14546824420E+03  0.68103208312E+01 -0.10916736893E+04  0.11086423384E+04  0.12700000000E+03 0.  0.
   -5000001    1    1    2    0    0 -0.14546824420E+03 -0.68103208312E+01 -0.69480669537E+03  0.72117455202E+03  0.12700000000E+03 0.  0.
<mgrwt>
<rscale>  0 0.39587585E+03</rscale>
<asrwt>0</asrwt>
<pdfrwt beam="1">  1        2 0.25830685E+00 0.39587585E+03</pdfrwt>
<pdfrwt beam="2">  1       -2 0.30954658E-02 0.39587585E+03</pdfrwt>
<totfact> 0.44333204E+03</totfact>
</mgrwt>
</event>
<event>
 4    1  0.1390278E-004  0.3872941E+03  0.7818608E-02  0.1048270E+00
         -2   -1    0    0    0  501 -0.00000000000E+00  0.00000000000E+00  0.19036851092E+03  0.19036851094E+03  0.25500000000E-02 0. -1.
          2   -1    0    0  501    0  0.00000000000E+00 -0.00000000000E+00 -0.19698206604E+03  0.19698206606E+03  0.25500000000E-02 0.  1.
    5000001    1    1    2    0    0 -0.53619197494E+01  0.12523300893E+03  0.71924703876E+02  0.19239079951E+03  0.12700000000E+03 0.  0.
   -5000001    1    1    2    0    0  0.53619197494E+01 -0.12523300893E+03 -0.78538258998E+02  0.19495977748E+03  0.12700000000E+03 0.  0.
<mgrwt>
<rscale>  0 0.38729411E+03</rscale>
<asrwt>0</asrwt>
<pdfrwt beam="1">  1        2 0.28140295E-01 0.38729411E+03</pdfrwt>
<pdfrwt beam="2">  1       -2 0.27195502E-01 0.38729411E+03</pdfrwt>
<totfact> 0.23182781E+03</totfact>
</mgrwt>
</event>
<event>
 4    1  0.1390278E-004  0.6171061E+03  0.7818608E-02  0.9870538E-01
         -2   -1    0    0    0  501 -0.00000000000E+00  0.00000000000E+00  0.24469441570E+03  0.24469441572E+03  0.25500000000E-02 0. -1.
          2   -1    0    0  501    0  0.00000000000E+00 -0.00000000000E+00 -0.38907711319E+03  0.38907711319E+03  0.25500000000E-02 0.  1.
    5000001    1    1    2    0    0 -0.20904447334E+03 -0.17613067162E+03 -0.44214872611E+01  0.30144676955E+03  0.12700000000E+03 0.  0.
   -5000001    1    1    2    0    0  0.20904447334E+03  0.17613067162E+03 -0.13996121022E+03  0.33232475937E+03  0.12700000000E+03 0.  0.
<mgrwt>
<rscale>  0 0.61710614E+03</rscale>
<asrwt>0</asrwt>
<pdfrwt beam="1">  1        2 0.55582444E-01 0.61710614E+03</pdfrwt>
<pdfrwt beam="2">  1       -2 0.34956345E-01 0.61710614E+03</pdfrwt>
<totfact> 0.68852114E+02</totfact>
</mgrwt>
</event>
<event>
 4    1  0.1390278E-004  0.4784848E+03  0.7818608E-02  0.1019552E+00
          2   -1    0    0  501    0  0.00000000000E+00  0.00000000000E+00  0.95243380805E+03  0.95243380805E+03  0.25500000000E-02 0.  1.
         -2   -1    0    0    0  501 -0.00000000000E+00 -0.00000000000E+00 -0.60095429988E+02  0.60095430042E+02  0.25500000000E-02 0. -1.
    5000001    1    1    2    0    0  0.14674325287E+03  0.13708473552E+03  0.38698931919E+03  0.45410961248E+03  0.12700000000E+03 0.  0.
   -5000001    1    1    2    0    0 -0.14674325287E+03 -0.13708473552E+03  0.50534905887E+03  0.55841962562E+03  0.12700000000E+03 0.  0.
<mgrwt>
<rscale>  0 0.47848477E+03</rscale>
<asrwt>0</asrwt>
<pdfrwt beam="1">  1        2 0.13606197E+00 0.47848477E+03</pdfrwt>
<pdfrwt beam="2">  1       -2 0.85850615E-02 0.47848477E+03</pdfrwt>
<totfact> 0.26422230E+03</totfact>
</mgrwt>
</event>
<event>
 4    1  0.1390278E-004  0.6238819E+03  0.7818608E-02  0.9857061E-01
          2   -1    0    0  501    0  0.00000000000E+00  0.00000000000E+00  0.14962858660E+04  0.14962858660E+04  0.25500000000E-02 0.  1.
         -2   -1    0    0    0  501 -0.00000000000E+00 -0.00000000000E+00 -0.65032455849E+02  0.65032455899E+02  0.25500000000E-02 0. -1.
    5000001    1    1    2    0    0 -0.10552399027E+02  0.12675952683E+03  0.77595658941E+02  0.19577900054E+03  0.12700000000E+03 0.  0.
   -5000001    1    1    2    0    0  0.10552399027E+02 -0.12675952683E+03  0.13536577512E+04  0.13655393214E+04  0.12700000000E+03 0.  0.
<mgrwt>
<rscale>  0 0.62388186E+03</rscale>
<asrwt>0</asrwt>
<pdfrwt beam="1">  1        2 0.21375510E+00 0.62388186E+03</pdfrwt>
<pdfrwt beam="2">  1       -2 0.92903520E-02 0.62388186E+03</pdfrwt>
<totfact> 0.11517340E+03</totfact>
</mgrwt>
</event>
<event>
 4    1  0.1390278E-004  0.8742072E+03  0.7818608E-02  0.9458411E-01
          2   -1    0    0  501    0  0.00000000000E+00  0.00000000000E+00  0.89279369266E+03  0.89279369267E+03  0.25500000000E-02 0. -1.
         -2   -1    0    0    0  501 -0.00000000000E+00 -0.00000000000E+00 -0.21400191891E+03  0.21400191892E+03  0.25500000000E-02 0.  1.
    5000001    1    1    2    0    0 -0.32830529848E+03 -0.13410103995E+03  0.62011546109E+03  0.72556160525E+03  0.12700000000E+03 0.  0.
   -5000001    1    1    2    0    0  0.32830529848E+03  0.13410103995E+03  0.58676312666E+02  0.38123400634E+03  0.12700000000E+03 0.  0.
<mgrwt>
<rscale>  0 0.87420721E+03</rscale>
<asrwt>0</asrwt>
<pdfrwt beam="1">  1        2 0.12754196E+00 0.87420721E+03</pdfrwt>
<pdfrwt beam="2">  1       -2 0.30571703E-01 0.87420721E+03</pdfrwt>
<totfact> 0.32557618E+02</totfact>
</mgrwt>
</event>
<event>
 4    1  0.1390278E-004  0.3009149E+03  0.7818608E-02  0.1084784E+00
         -2   -1    0    0    0  501 -0.00000000000E+00  0.00000000000E+00  0.18741630069E+02  0.18741630242E+02  0.25500000000E-02 0. -1.
          2   -1    0    0  501    0  0.00000000000E+00 -0.00000000000E+00 -0.12078697785E+04  0.12078697785E+04  0.25500000000E-02 0.  1.
    5000001    1    1    2    0    0 -0.64928993589E+02 -0.31457631168E+02 -0.44741728588E+03  0.47065548384E+03  0.12700000000E+03 0.  0.
   -5000001    1    1    2    0    0  0.64928993589E+02  0.31457631168E+02 -0.74171086253E+03  0.75595592488E+03  0.12700000000E+03 0.  0.
<mgrwt>
<rscale>  0 0.30091493E+03</rscale>
<asrwt>0</asrwt>
<pdfrwt beam="1">  1        2 0.17255278E+00 0.30091493E+03</pdfrwt>
<pdfrwt beam="2">  1       -2 0.26773765E-02 0.30091493E+03</pdfrwt>
<totfact> 0.11153426E+04</totfact>
</mgrwt>
</event>
<event>
 4    1  0.1390278E-004  0.3708937E+03  0.7818608E-02  0.1054352E+00
          2   -1    0    0  501    0  0.00000000000E+00  0.00000000000E+00  0.56315548015E+02  0.56315548073E+02  0.25500000000E-02 0.  1.
         -2   -1    0    0    0  501 -0.00000000000E+00 -0.00000000000E+00 -0.61067580174E+03  0.61067580174E+03  0.25500000000E-02 0. -1.
    5000001    1    1    2    0    0 -0.70337736055E+02  0.47928897283E+02 -0.46593653318E+03  0.49037784336E+03  0.12700000000E+03 0.  0.
   -5000001    1    1    2    0    0  0.70337736055E+02 -0.47928897283E+02 -0.88423720548E+02  0.17661350646E+03  0.12700000000E+03 0.  0.
<mgrwt>
<rscale>  0 0.37089374E+03</rscale>
<asrwt>0</asrwt>
<pdfrwt beam="1">  1        2 0.80450786E-02 0.37089374E+03</pdfrwt>
<pdfrwt beam="2">  1       -2 0.87239396E-01 0.37089374E+03</pdfrwt>
<totfact> 0.99748345E+02</totfact>
</mgrwt>
</event>
<event>
 4    1  0.1390278E-004  0.2734234E+03  0.7818608E-02  0.1099336E+00
          2   -1    0    0  501    0  0.00000000000E+00  0.00000000000E+00  0.85703891403E+03  0.85703891403E+03  0.25500000000E-02 0.  1.
         -2   -1    0    0    0  501 -0.00000000000E+00 -0.00000000000E+00 -0.21807741668E+02  0.21807741817E+02  0.25500000000E-02 0. -1.
    5000001    1    1    2    0    0  0.40097607830E+02 -0.25462728350E+02  0.36148926063E+03  0.38608244488E+03  0.12700000000E+03 0.  0.
   -5000001    1    1    2    0    0 -0.40097607830E+02  0.25462728350E+02  0.47374191172E+03  0.49276421097E+03  0.12700000000E+03 0.  0.
<mgrwt>
<rscale>  0 0.27342336E+03</rscale>
<asrwt>0</asrwt>
<pdfrwt beam="1">  1        2 0.12243417E+00 0.27342336E+03</pdfrwt>
<pdfrwt beam="2">  1       -2 0.31153907E-02 0.27342336E+03</pdfrwt>
<totfact> 0.14241002E+04</totfact>
</mgrwt>
</event>
<event>
 4    1  0.1390278E-004  0.4580805E+03  0.7818608E-02  0.1025339E+00
          2   -1    0    0  501    0  0.00000000000E+00  0.00000000000E+00  0.59515872638E+03  0.59515872638E+03  0.25500000000E-02 0.  1.
         -2   -1    0    0    0  501 -0.00000000000E+00 -0.00000000000E+00 -0.88143617847E+02  0.88143617884E+02  0.25500000000E-02 0. -1.
    5000001    1    1    2    0    0 -0.17535382996E+03  0.41140889055E+02  0.34652935415E+03  0.41067399689E+03  0.12700000000E+03 0.  0.
   -5000001    1    1    2    0    0  0.17535382996E+03 -0.41140889055E+02  0.16048575438E+03  0.27262834737E+03  0.12700000000E+03 0.  0.
<mgrwt>
<rscale>  0 0.45808053E+03</rscale>
<asrwt>0</asrwt>
<pdfrwt beam="1">  1        2 0.85022675E-01 0.45808053E+03</pdfrwt>
<pdfrwt beam="2">  1       -2 0.12591946E-01 0.45808053E+03</pdfrwt>
<totfact> 0.25557138E+03</totfact>
</mgrwt>
</event>
<event>
 4    1  0.1390278E-004  0.3303184E+03  0.7818608E-02  0.1070996E+00
          2   -1    0    0  501    0  0.00000000000E+00  0.00000000000E+00  0.27093842829E+04  0.27093842829E+04  0.25500000000E-02 0.  1.
         -2   -1    0    0    0  501 -0.00000000000E+00 -0.00000000000E+00 -0.10067810026E+02  0.10067810349E+02  0.25500000000E-02 0. -1.
    5000001    1    1    2    0    0 -0.64494585709E+02 -0.70876949232E+02  0.98466722979E+03  0.99743754037E+03  0.12700000000E+03 0.  0.
   -5000001    1    1    2    0    0  0.64494585709E+02  0.70876949232E+02  0.17146492431E+04  0.17220145529E+04  0.12700000000E+03 0.  0.
<mgrwt>
<rscale>  0 0.33031843E+03</rscale>
<asrwt>0</asrwt>
<pdfrwt beam="1">  1        2 0.38705557E+00 0.33031843E+03</pdfrwt>
<pdfrwt beam="2">  1       -2 0.14382561E-02 0.33031843E+03</pdfrwt>
<totfact> 0.49242681E+03</totfact>
</mgrwt>
</event>
<event>
 4    1  0.1390278E-004  0.4304566E+03  0.7818608E-02  0.1033716E+00
          2   -1    0    0  501    0  0.00000000000E+00  0.00000000000E+00  0.15569612397E+04  0.15569612397E+04  0.25500000000E-02 0.  1.
         -2   -1    0    0    0  501 -0.00000000000E+00 -0.00000000000E+00 -0.29752320857E+02  0.29752320967E+02  0.25500000000E-02 0. -1.
    5000001    1    1    2    0    0 -0.30969255396E+02 -0.11737052304E+03  0.30528975870E+03  0.35222971372E+03  0.12700000000E+03 0.  0.
   -5000001    1    1    2    0    0  0.30969255396E+02  0.11737052304E+03  0.12219191601E+04  0.12344838469E+04  0.12700000000E+03 0.  0.
<mgrwt>
<rscale>  0 0.43045655E+03</rscale>
<asrwt>0</asrwt>
<pdfrwt beam="1">  1        2 0.22242311E+00 0.43045655E+03</pdfrwt>
<pdfrwt beam="2">  1       -2 0.42503302E-02 0.43045655E+03</pdfrwt>
<totfact> 0.36655341E+03</totfact>
</mgrwt>
</event>
<event>
 4    1  0.1390278E-004  0.3503799E+03  0.7818608E-02  0.1062459E+00
         -2   -1    0    0    0  501 -0.00000000000E+00  0.00000000000E+00  0.15632605067E+02  0.15632605275E+02  0.25500000000E-02 0. -1.
          2   -1    0    0  501    0  0.00000000000E+00 -0.00000000000E+00 -0.19633015462E+04  0.19633015462E+04  0.25500000000E-02 0.  1.
    5000001    1    1    2    0    0 -0.49622976763E+02  0.89564171707E+02 -0.61314477867E+03  0.63447592570E+03  0.12700000000E+03 0.  0.
   -5000001    1    1    2    0    0  0.49622976763E+02 -0.89564171707E+02 -0.13345241625E+04  0.13444582258E+04  0.12700000000E+03 0.  0.
<mgrwt>
<rscale>  0 0.35037990E+03</rscale>
<asrwt>0</asrwt>
<pdfrwt beam="1">  1        2 0.28047149E+00 0.35037990E+03</pdfrwt>
<pdfrwt beam="2">  1       -2 0.22332305E-02 0.35037990E+03</pdfrwt>
<totfact> 0.60548470E+03</totfact>
</mgrwt>
</event>
<event>
 4    1  0.1390278E-004  0.3134821E+03  0.7818608E-02  0.1078689E+00
         -2   -1    0    0    0  501 -0.00000000000E+00  0.00000000000E+00  0.87072373730E+02  0.87072373768E+02  0.25500000000E-02 0. -1.
          2   -1    0    0  501    0  0.00000000000E+00 -0.00000000000E+00 -0.28215326407E+03  0.28215326408E+03  0.25500000000E-02 0.  1.
    5000001    1    1    2    0    0 -0.35901008434E+02 -0.55108000430E+02 -0.17307704634E+03  0.22452268947E+03  0.12700000000E+03 0.  0.
   -5000001    1    1    2    0    0  0.35901008434E+02  0.55108000430E+02 -0.22003843998E+02  0.14470294838E+03  0.12700000000E+03 0.  0.
<mgrwt>
<rscale>  0 0.31348209E+03</rscale>
<asrwt>0</asrwt>
<pdfrwt beam="1">  1        2 0.40307609E-01 0.31348209E+03</pdfrwt>
<pdfrwt beam="2">  1       -2 0.12438911E-01 0.31348209E+03</pdfrwt>
<totfact> 0.59026474E+03</totfact>
</mgrwt>
</event>
<event>
 4    1  0.1390278E-004  0.5757734E+03  0.7818608E-02  0.9956984E-01
         -2   -1    0    0    0  501 -0.00000000000E+00  0.00000000000E+00  0.11869544417E+03  0.11869544420E+03  0.25500000000E-02 0. -1.
          2   -1    0    0  501    0  0.00000000000E+00 -0.00000000000E+00 -0.69824699996E+03  0.69824699997E+03  0.25500000000E-02 0.  1.
    5000001    1    1    2    0    0  0.21441402468E+03  0.13212159685E+03 -0.37153281204E+03  0.46647092166E+03  0.12700000000E+03 0.  0.
   -5000001    1    1    2    0    0 -0.21441402468E+03 -0.13212159685E+03 -0.20801874375E+03  0.35047152250E+03  0.12700000000E+03 0.  0.
<mgrwt>
<rscale>  0 0.57577335E+03</rscale>
<asrwt>0</asrwt>
<pdfrwt beam="1">  1        2 0.99749569E-01 0.57577335E+03</pdfrwt>
<pdfrwt beam="2">  1       -2 0.16956492E-01 0.57577335E+03</pdfrwt>
<totfact> 0.12846244E+03</totfact>
</mgrwt>
</event>
<event>
 4    1  0.1390278E-004  0.3679623E+03  0.7818608E-02  0.1055475E+00
         -2   -1    0    0    0  501 -0.00000000000E+00  0.00000000000E+00  0.63262123082E+02  0.63262123133E+02  0.25500000000E-02 0. -1.
          2   -1    0    0  501    0  0.00000000000E+00 -0.00000000000E+00 -0.53506047579E+03  0.53506047579E+03  0.25500000000E-02 0.  1.
    5000001    1    1    2    0    0 -0.12606650783E+02  0.60785854309E+02 -0.42737371972E+03  0.45014569201E+03  0.12700000000E+03 0.  0.
   -5000001    1    1    2    0    0  0.12606650783E+02 -0.60785854309E+02 -0.44424632988E+02  0.14817690692E+03  0.12700000000E+03 0.  0.
<mgrwt>
<rscale>  0 0.36796229E+03</rscale>
<asrwt>0</asrwt>
<pdfrwt beam="1">  1        2 0.76437209E-01 0.36796229E+03</pdfrwt>
<pdfrwt beam="2">  1       -2 0.90374464E-02 0.36796229E+03</pdfrwt>
<totfact> 0.49165196E+03</totfact>
</mgrwt>
</event>
<event>
 4    1  0.1390278E-004  0.3533620E+03  0.7818608E-02  0.1061244E+00
         -2   -1    0    0    0  501 -0.00000000000E+00  0.00000000000E+00  0.51457263375E+02  0.51457263438E+02  0.25500000000E-02 0. -1.
          2   -1    0    0  501    0  0.00000000000E+00 -0.00000000000E+00 -0.60664262561E+03  0.60664262561E+03  0.25500000000E-02 0.  1.
    5000001    1    1    2    0    0  0.63426888768E+02  0.89705934419E+02 -0.37988967582E+03  0.41534960056E+03  0.12700000000E+03 0.  0.
   -5000001    1    1    2    0    0 -0.63426888768E+02 -0.89705934419E+02 -0.17529568642E+03  0.24275028850E+03  0.12700000000E+03 0.  0.
<mgrwt>
<rscale>  0 0.35336196E+03</rscale>
<asrwt>0</asrwt>
<pdfrwt beam="1">  1        2 0.86663228E-01 0.35336196E+03</pdfrwt>
<pdfrwt beam="2">  1       -2 0.73510380E-02 0.35336196E+03</pdfrwt>
<totfact> 0.58922186E+03</totfact>
</mgrwt>
</event>
<event>
 4    1  0.1390278E-004  0.6587654E+03  0.7818608E-02  0.9790469E-01
         -2   -1    0    0    0  501 -0.00000000000E+00  0.00000000000E+00  0.14688924196E+03  0.14688924198E+03  0.25500000000E-02 0. -1.
          2   -1    0    0  501    0  0.00000000000E+00 -0.00000000000E+00 -0.73860388096E+03  0.73860388096E+03  0.25500000000E-02 0.  1.
    5000001    1    1    2    0    0  0.81697871164E+02  0.29140524203E+03 -0.25849984594E+03  0.41778311070E+03  0.12700000000E+03 0.  0.
   -5000001    1    1    2    0    0 -0.81697871164E+02 -0.29140524203E+03 -0.33321479306E+03  0.46771001224E+03  0.12700000000E+03 0.  0.
<mgrwt>
<rscale>  0 0.65876540E+03</rscale>
<asrwt>0</asrwt>
<pdfrwt beam="1">  1        2 0.10551484E+00 0.65876540E+03</pdfrwt>
<pdfrwt beam="2">  1       -2 0.20984178E-01 0.65876540E+03</pdfrwt>
<totfact> 0.82783004E+02</totfact>
</mgrwt>
</event>
<event>
 4    1  0.1390278E-004  0.2805957E+03  0.7818608E-02  0.1095364E+00
         -2   -1    0    0    0  501 -0.00000000000E+00  0.00000000000E+00  0.72647991721E+02  0.72647991766E+02  0.25500000000E-02 0. -1.
          2   -1    0    0  501    0  0.00000000000E+00 -0.00000000000E+00 -0.27094321958E+03  0.27094321959E+03  0.25500000000E-02 0.  1.
    5000001    1    1    2    0    0 -0.54608695886E+02 -0.23737210050E+02 -0.10280394509E+03  0.17390576740E+03  0.12700000000E+03 0.  0.
   -5000001    1    1    2    0    0  0.54608695886E+02  0.23737210050E+02 -0.95491282762E+02  0.16968544396E+03  0.12700000000E+03 0.  0.
<mgrwt>
<rscale>  0 0.28059566E+03</rscale>
<asrwt>0</asrwt>
<pdfrwt beam="1">  1        2 0.38706174E-01 0.28059566E+03</pdfrwt>
<pdfrwt beam="2">  1       -2 0.10378285E-01 0.28059566E+03</pdfrwt>
<totfact> 0.82227859E+03</totfact>
</mgrwt>
</event>
<event>
 4    1  0.1390278E-004  0.6477721E+03  0.7818608E-02  0.9810969E-01
         -2   -1    0    0    0  501 -0.00000000000E+00  0.00000000000E+00  0.57802879003E+03  0.57802879004E+03  0.25500000000E-02 0. -1.
          2   -1    0    0  501    0  0.00000000000E+00 -0.00000000000E+00 -0.18148259018E+03  0.18148259019E+03  0.25500000000E-02 0.  1.
    5000001    1    1    2    0    0 -0.29267777659E+03 -0.17677522653E+02  0.13622606349E+03  0.34736049874E+03  0.12700000000E+03 0.  0.
   -5000001    1    1    2    0    0  0.29267777659E+03  0.17677522653E+02  0.26032013637E+03  0.41215088149E+03  0.12700000000E+03 0.  0.
<mgrwt>
<rscale>  0 0.64777206E+03</rscale>
<asrwt>0</asrwt>
<pdfrwt beam="1">  1        2 0.25926084E-01 0.64777206E+03</pdfrwt>
<pdfrwt beam="2">  1       -2 0.82575542E-01 0.64777206E+03</pdfrwt>
<totfact> 0.27322170E+02</totfact>
</mgrwt>
</event>
<event>
 4    1  0.1390278E-004  0.7489243E+03  0.7818608E-02  0.9637039E-01
         -2   -1    0    0    0  501 -0.00000000000E+00  0.00000000000E+00  0.53945044317E+03  0.53945044318E+03  0.25500000000E-02 0. -1.
          2   -1    0    0  501    0  0.00000000000E+00 -0.00000000000E+00 -0.25993471645E+03  0.25993471646E+03  0.25500000000E-02 0.  1.
    5000001    1    1    2    0    0  0.28398429344E+03 -0.19278905361E+03  0.55184084808E+02  0.37012022550E+03  0.12700000000E+03 0.  0.
   -5000001    1    1    2    0    0 -0.28398429344E+03  0.19278905361E+03  0.22433164192E+03  0.42926493413E+03  0.12700000000E+03 0.  0.
<mgrwt>
<rscale>  0 0.74892429E+03</rscale>
<asrwt>0</asrwt>
<pdfrwt beam="1">  1        2 0.37133531E-01 0.74892429E+03</pdfrwt>
<pdfrwt beam="2">  1       -2 0.77064348E-01 0.74892429E+03</pdfrwt>
<totfact> 0.21219752E+02</totfact>
</mgrwt>
</event>
<event>
 4    1  0.1390278E-004  0.3245374E+03  0.7818608E-02  0.1073580E+00
         -2   -1    0    0    0  501 -0.00000000000E+00  0.00000000000E+00  0.10654974647E+02  0.10654974952E+02  0.25500000000E-02 0. -1.
          2   -1    0    0  501    0  0.00000000000E+00 -0.00000000000E+00 -0.24712518922E+04  0.24712518922E+04  0.25500000000E-02 0.  1.
    5000001    1    1    2    0    0  0.28525236342E+02 -0.96737304717E+02 -0.12724163900E+04  0.12827097352E+04  0.12700000000E+03 0.  0.
   -5000001    1    1    2    0    0 -0.28525236342E+02  0.96737304717E+02 -0.11881805275E+04  0.11991971319E+04  0.12700000000E+03 0.  0.
<mgrwt>
<rscale>  0 0.32453737E+03</rscale>
<asrwt>0</asrwt>
<pdfrwt beam="1">  1        2 0.35303562E+00 0.32453737E+03</pdfrwt>
<pdfrwt beam="2">  1       -2 0.15221408E-02 0.32453737E+03</pdfrwt>
<totfact> 0.59830548E+03</totfact>
</mgrwt>
</event>
<event>
 4    1  0.1390278E-004  0.5350145E+03  0.7818608E-02  0.1005023E+00
         -2   -1    0    0    0  501 -0.00000000000E+00  0.00000000000E+00  0.47716310644E+02  0.47716310712E+02  0.25500000000E-02 0. -1.
          2   -1    0    0  501    0  0.00000000000E+00 -0.00000000000E+00 -0.14996992698E+04  0.14996992698E+04  0.25500000000E-02 0.  1.
    5000001    1    1    2    0    0 -0.11938656166E+03  0.15662717775E+03 -0.35283155900E+03  0.42356148661E+03  0.12700000000E+03 0.  0.
   -5000001    1    1    2    0    0  0.11938656166E+03 -0.15662717775E+03 -0.10991514002E+04  0.11238540939E+04  0.12700000000E+03 0.  0.
<mgrwt>
<rscale>  0 0.53501445E+03</rscale>
<asrwt>0</asrwt>
<pdfrwt beam="1">  1        2 0.21424272E+00 0.53501445E+03</pdfrwt>
<pdfrwt beam="2">  1       -2 0.68166168E-02 0.53501445E+03</pdfrwt>
<totfact> 0.18835511E+03</totfact>
</mgrwt>
</event>
<event>
 4    1  0.1390278E-004  0.3525490E+03  0.7818608E-02  0.1061574E+00
          2   -1    0    0  501    0  0.00000000000E+00  0.00000000000E+00  0.45163172303E+03  0.45163172303E+03  0.25500000000E-02 0.  1.
         -2   -1    0    0    0  501 -0.00000000000E+00 -0.00000000000E+00 -0.68800983971E+02  0.68800984018E+02  0.25500000000E-02 0. -1.
    5000001    1    1    2    0    0 -0.54582249465E+02  0.15300682656E+02  0.35129788537E+03  0.37782606728E+03  0.12700000000E+03 0.  0.
   -5000001    1    1    2    0    0  0.54582249465E+02 -0.15300682656E+02  0.31532853683E+02  0.14260663977E+03  0.12700000000E+03 0.  0.
<mgrwt>
<rscale>  0 0.35254904E+03</rscale>
<asrwt>0</asrwt>
<pdfrwt beam="1">  1        2 0.64518816E-01 0.35254904E+03</pdfrwt>
<pdfrwt beam="2">  1       -2 0.98287122E-02 0.35254904E+03</pdfrwt>
<totfact> 0.51910910E+03</totfact>
</mgrwt>
</event>
<event>
 4    1  0.1390278E-004  0.6792969E+03  0.7818608E-02  0.9753307E-01
          2   -1    0    0  501    0  0.00000000000E+00  0.00000000000E+00  0.55761056170E+03  0.55761056170E+03  0.25500000000E-02 0.  1.
         -2   -1    0    0    0  501 -0.00000000000E+00 -0.00000000000E+00 -0.20688468350E+03  0.20688468351E+03  0.25500000000E-02 0. -1.
    5000001    1    1    2    0    0 -0.61779050009E+01 -0.26134849433E+03  0.37316476039E+03  0.47299274878E+03  0.12700000000E+03 0.  0.
   -5000001    1    1    2    0    0  0.61779050009E+01  0.26134849433E+03 -0.22438882192E+02  0.29150249644E+03  0.12700000000E+03 0.  0.
<mgrwt>
<rscale>  0 0.67929694E+03</rscale>
<asrwt>0</asrwt>
<pdfrwt beam="1">  1        2 0.79658650E-01 0.67929694E+03</pdfrwt>
<pdfrwt beam="2">  1       -2 0.29554955E-01 0.67929694E+03</pdfrwt>
<totfact> 0.62634039E+02</totfact>
</mgrwt>
</event>
<event>
 4    1  0.1390278E-004  0.4065618E+03  0.7818608E-02  0.1041531E+00
         -2   -1    0    0    0  501 -0.00000000000E+00  0.00000000000E+00  0.15262562315E+02  0.15262562528E+02  0.25500000000E-02 0. -1.
          2   -1    0    0  501    0  0.00000000000E+00 -0.00000000000E+00 -0.27074822213E+04  0.27074822213E+04  0.25500000000E-02 0.  1.
    5000001    1    1    2    0    0 -0.62836297114E+02 -0.46036665503E+02 -0.22722918794E+04  0.22771708676E+04  0.12700000000E+03 0.  0.
   -5000001    1    1    2    0    0  0.62836297114E+02  0.46036665503E+02 -0.41992777959E+03  0.44557391629E+03  0.12700000000E+03 0.  0.
<mgrwt>
<rscale>  0 0.40656176E+03</rscale>
<asrwt>0</asrwt>
<pdfrwt beam="1">  1        2 0.38678287E+00 0.40656176E+03</pdfrwt>
<pdfrwt beam="2">  1       -2 0.21803678E-02 0.40656176E+03</pdfrwt>
<totfact> 0.26556773E+03</totfact>
</mgrwt>
</event>
<event>
 4    1  0.1390278E-004  0.4073118E+03  0.7818608E-02  0.1041277E+00
         -2   -1    0    0    0  501 -0.00000000000E+00  0.00000000000E+00  0.59223319604E+02  0.59223319658E+02  0.25500000000E-02 0. -1.
          2   -1    0    0  501    0  0.00000000000E+00 -0.00000000000E+00 -0.70032743761E+03  0.70032743761E+03  0.25500000000E-02 0.  1.
    5000001    1    1    2    0    0  0.15260408919E+03 -0.40869264257E+02 -0.35730360048E+03  0.41079577373E+03  0.12700000000E+03 0.  0.
   -5000001    1    1    2    0    0 -0.15260408919E+03  0.40869264257E+02 -0.28380051752E+03  0.34875498354E+03  0.12700000000E+03 0.  0.
<mgrwt>
<rscale>  0 0.40731175E+03</rscale>
<asrwt>0</asrwt>
<pdfrwt beam="1">  1        2 0.10004677E+00 0.40731175E+03</pdfrwt>
<pdfrwt beam="2">  1       -2 0.84604747E-02 0.40731175E+03</pdfrwt>
<totfact> 0.39978227E+03</totfact>
</mgrwt>
</event>
<event>
 4    1  0.1390278E-004  0.6297005E+03  0.7818608E-02  0.9845633E-01
          2   -1    0    0  501    0  0.00000000000E+00  0.00000000000E+00  0.77282106031E+03  0.77282106032E+03  0.25500000000E-02 0.  1.
         -2   -1    0    0    0  501 -0.00000000000E+00 -0.00000000000E+00 -0.12827120573E+03  0.12827120575E+03  0.25500000000E-02 0. -1.
    5000001    1    1    2    0    0 -0.25606090792E+03 -0.13110370226E+03  0.29981620881E+03  0.43448144768E+03  0.12700000000E+03 0.  0.
   -5000001    1    1    2    0    0  0.25606090792E+03  0.13110370226E+03  0.34473364577E+03  0.46661081839E+03  0.12700000000E+03 0.  0.
<mgrwt>
<rscale>  0 0.62970053E+03</rscale>
<asrwt>0</asrwt>
<pdfrwt beam="1">  1        2 0.11040301E+00 0.62970053E+03</pdfrwt>
<pdfrwt beam="2">  1       -2 0.18324458E-01 0.62970053E+03</pdfrwt>
<totfact> 0.99063682E+02</totfact>
</mgrwt>
</event>
<event>
 4    1  0.1390278E-004  0.3515516E+03  0.7818608E-02  0.1061980E+00
          2   -1    0    0  501    0  0.00000000000E+00  0.00000000000E+00  0.23281823283E+04  0.23281823283E+04  0.25500000000E-02 0.  1.
         -2   -1    0    0    0  501 -0.00000000000E+00 -0.00000000000E+00 -0.13270921627E+02  0.13270921872E+02  0.25500000000E-02 0. -1.
    5000001    1    1    2    0    0 -0.50017170610E+02  0.10176189409E+03  0.14486067022E+04  0.14585772444E+04  0.12700000000E+03 0.  0.
   -5000001    1    1    2    0    0  0.50017170610E+02 -0.10176189409E+03  0.86630470448E+03  0.88287600571E+03  0.12700000000E+03 0.  0.
<mgrwt>
<rscale>  0 0.35155156E+03</rscale>
<asrwt>0</asrwt>
<pdfrwt beam="1">  1        2 0.33259746E+00 0.35155156E+03</pdfrwt>
<pdfrwt beam="2">  1       -2 0.18958461E-02 0.35155156E+03</pdfrwt>
<totfact> 0.50987528E+03</totfact>
</mgrwt>
</event>
<event>
 4    1  0.1390278E-004  0.1593724E+04  0.7818608E-02  0.8824413E-01
         -2   -1    0    0    0  501 -0.00000000000E+00  0.00000000000E+00  0.24912019491E+03  0.24912019493E+03  0.25500000000E-02 0. -1.
          2   -1    0    0  501    0  0.00000000000E+00 -0.00000000000E+00 -0.25489257300E+04  0.25489257300E+04  0.25500000000E-02 0.  1.
    5000001    1    1    2    0    0  0.62175778569E+03  0.45844922612E+03 -0.14109097027E+04  0.16135531061E+04  0.12700000000E+03 0.  0.
   -5000001    1    1    2    0    0 -0.62175778569E+03 -0.45844922612E+03 -0.88889583231E+03  0.11844928188E+04  0.12700000000E+03 0.  0.
<mgrwt>
<rscale>  0 0.15937238E+04</rscale>
<asrwt>0</asrwt>
<pdfrwt beam="1">  1        2 0.36413223E+00 0.15937238E+04</pdfrwt>
<pdfrwt beam="2">  1       -2 0.35588601E-01 0.15937238E+04</pdfrwt>
<totfact> 0.29655006E+01</totfact>
</mgrwt>
</event>
<event>
 4    1  0.1390278E-004  0.6622222E+03  0.7818608E-02  0.9784112E-01
          2   -1    0    0  501    0  0.00000000000E+00  0.00000000000E+00  0.13387132759E+04  0.13387132759E+04  0.25500000000E-02 0.  1.
         -2   -1    0    0    0  501 -0.00000000000E+00 -0.00000000000E+00 -0.81895467641E+02  0.81895467680E+02  0.25500000000E-02 0. -1.
    5000001    1    1    2    0    0  0.66153332310E+01 -0.30164646902E+03  0.73504991858E+03  0.80465007159E+03  0.12700000000E+03 0.  0.
   -5000001    1    1    2    0    0 -0.66153332310E+01  0.30164646902E+03  0.52176788970E+03  0.61595867201E+03  0.12700000000E+03 0.  0.
<mgrwt>
<rscale>  0 0.66222217E+03</rscale>
<asrwt>0</asrwt>
<pdfrwt beam="1">  1        2 0.19124475E+00 0.66222217E+03</pdfrwt>
<pdfrwt beam="2">  1       -2 0.11699353E-01 0.66222217E+03</pdfrwt>
<totfact> 0.95774122E+02</totfact>
</mgrwt>
</event>
<event>
 4    1  0.1390278E-004  0.4344928E+03  0.7818608E-02  0.1032450E+00
         -2   -1    0    0    0  501 -0.00000000000E+00  0.00000000000E+00  0.21234640447E+02  0.21234640600E+02  0.25500000000E-02 0. -1.
          2   -1    0    0  501    0  0.00000000000E+00 -0.00000000000E+00 -0.22225943571E+04  0.22225943571E+04  0.25500000000E-02 0.  1.
    5000001    1    1    2    0    0  0.93387110741E+01  0.12431341334E+03 -0.17441618168E+04  0.17532171798E+04  0.12700000000E+03 0.  0.
   -5000001    1    1    2    0    0 -0.93387110741E+01 -0.12431341334E+03 -0.45719789984E+03  0.49061181791E+03  0.12700000000E+03 0.  0.
<mgrwt>
<rscale>  0 0.43449277E+03</rscale>
<asrwt>0</asrwt>
<pdfrwt beam="1">  1        2 0.31751333E+00 0.43449277E+03</pdfrwt>
<pdfrwt beam="2">  1       -2 0.30335215E-02 0.43449277E+03</pdfrwt>
<totfact> 0.28440262E+03</totfact>
</mgrwt>
</event>
<event>
 4    1  0.1390278E-004  0.4386749E+03  0.7818608E-02  0.1031154E+00
         -2   -1    0    0    0  501 -0.00000000000E+00  0.00000000000E+00  0.17493827554E+02  0.17493827740E+02  0.25500000000E-02 0. -1.
          2   -1    0    0  501    0  0.00000000000E+00 -0.00000000000E+00 -0.27500511883E+04  0.27500511883E+04  0.25500000000E-02 0.  1.
    5000001    1    1    2    0    0 -0.10152373530E+03 -0.12336434141E+03 -0.85944033826E+03  0.88334168055E+03  0.12700000000E+03 0.  0.
   -5000001    1    1    2    0    0  0.10152373530E+03  0.12336434141E+03 -0.18731170225E+04  0.18842033355E+04  0.12700000000E+03 0.  0.
<mgrwt>
<rscale>  0 0.43867492E+03</rscale>
<asrwt>0</asrwt>
<pdfrwt beam="1">  1        2 0.39286418E+00 0.43867492E+03</pdfrwt>
<pdfrwt beam="2">  1       -2 0.24991200E-02 0.43867492E+03</pdfrwt>
<totfact> 0.20536349E+03</totfact>
</mgrwt>
</event>
<event>
 4    1  0.1390278E-004  0.3105899E+03  0.7818608E-02  0.1080063E+00
          2   -1    0    0  501    0  0.00000000000E+00  0.00000000000E+00  0.20856862931E+04  0.20856862931E+04  0.25500000000E-02 0.  1.
         -2   -1    0    0    0  501 -0.00000000000E+00 -0.00000000000E+00 -0.11562873995E+02  0.11562874276E+02  0.25500000000E-02 0. -1.
    5000001    1    1    2    0    0 -0.38681815704E+02  0.78236682533E+02  0.11669948666E+04  0.11771250061E+04  0.12700000000E+03 0.  0.
   -5000001    1    1    2    0    0  0.38681815704E+02 -0.78236682533E+02  0.90712855249E+03  0.92012416124E+03  0.12700000000E+03 0.  0.
<mgrwt>
<rscale>  0 0.31058994E+03</rscale>
<asrwt>0</asrwt>
<pdfrwt beam="1">  1        2 0.29795523E+00 0.31058994E+03</pdfrwt>
<pdfrwt beam="2">  1       -2 0.16518389E-02 0.31058994E+03</pdfrwt>
<totfact> 0.82288175E+03</totfact>
</mgrwt>
</event>
<event>
 4    1  0.1390278E-004  0.4056633E+03  0.7818608E-02  0.1041836E+00
         -2   -1    0    0    0  501 -0.00000000000E+00  0.00000000000E+00  0.14301160498E+02  0.14301160726E+02  0.25500000000E-02 0. -1.
          2   -1    0    0  501    0  0.00000000000E+00 -0.00000000000E+00 -0.28767365322E+04  0.28767365322E+04  0.25500000000E-02 0.  1.
    5000001    1    1    2    0    0 -0.13337113507E+03  0.28691532314E+02 -0.86105516004E+03  0.88099719201E+03  0.12700000000E+03 0.  0.
   -5000001    1    1    2    0    0  0.13337113507E+03 -0.28691532314E+02 -0.20013802117E+04  0.20100405010E+04  0.12700000000E+03 0.  0.
<mgrwt>
<rscale>  0 0.40566327E+03</rscale>
<asrwt>0</asrwt>
<pdfrwt beam="1">  1        2 0.41096199E+00 0.40566327E+03</pdfrwt>
<pdfrwt beam="2">  1       -2 0.20430248E-02 0.40566327E+03</pdfrwt>
<totfact> 0.23873064E+03</totfact>
</mgrwt>
</event>
<event>
 4    1  0.1390278E-004  0.3800123E+03  0.7818608E-02  0.1050929E+00
         -2   -1    0    0    0  501 -0.00000000000E+00  0.00000000000E+00  0.25545203804E+02  0.25545203932E+02  0.25500000000E-02 0. -1.
          2   -1    0    0  501    0  0.00000000000E+00 -0.00000000000E+00 -0.14132726331E+04  0.14132726331E+04  0.25500000000E-02 0.  1.
    5000001    1    1    2    0    0 -0.13848920378E+03 -0.19926356490E+01 -0.80029056620E+03  0.82205670152E+03  0.12700000000E+03 0.  0.
   -5000001    1    1    2    0    0  0.13848920378E+03  0.19926356490E+01 -0.58743686313E+03  0.61676113556E+03  0.12700000000E+03 0.  0.
<mgrwt>
<rscale>  0 0.38001230E+03</rscale>
<asrwt>0</asrwt>
<pdfrwt beam="1">  1        2 0.20189604E+00 0.38001230E+03</pdfrwt>
<pdfrwt beam="2">  1       -2 0.36493157E-02 0.38001230E+03</pdfrwt>
<totfact> 0.54773345E+03</totfact>
</mgrwt>
</event>
<event>
 4    1  0.1390278E-004  0.3648315E+03  0.7818608E-02  0.1056687E+00
          2   -1    0    0  501    0  0.00000000000E+00  0.00000000000E+00  0.19060965646E+04  0.19060965646E+04  0.25500000000E-02 0.  1.
         -2   -1    0    0    0  501 -0.00000000000E+00 -0.00000000000E+00 -0.17457405161E+02  0.17457405347E+02  0.25500000000E-02 0. -1.
    5000001    1    1    2    0    0 -0.11028353922E+03  0.69463584425E+02  0.10107715529E+04  0.10270227752E+04  0.12700000000E+03 0.  0.
   -5000001    1    1    2    0    0  0.11028353922E+03 -0.69463584425E+02  0.87786760653E+03  0.89653119477E+03  0.12700000000E+03 0.  0.
<mgrwt>
<rscale>  0 0.36483147E+03</rscale>
<asrwt>0</asrwt>
<pdfrwt beam="1">  1        2 0.27229945E+00 0.36483147E+03</pdfrwt>
<pdfrwt beam="2">  1       -2 0.24939156E-02 0.36483147E+03</pdfrwt>
<totfact> 0.54817585E+03</totfact>
</mgrwt>
</event>
<event>
 4    1  0.1390278E-004  0.3308758E+03  0.7818608E-02  0.1070750E+00
         -2   -1    0    0    0  501 -0.00000000000E+00  0.00000000000E+00  0.13901864914E+02  0.13901865148E+02  0.25500000000E-02 0. -1.
          2   -1    0    0  501    0  0.00000000000E+00 -0.00000000000E+00 -0.19687788801E+04  0.19687788801E+04  0.25500000000E-02 0.  1.
    5000001    1    1    2    0    0 -0.77706412902E+02  0.72127745457E+02 -0.97744210658E+03  0.99134392114E+03  0.12700000000E+03 0.  0.
   -5000001    1    1    2    0    0  0.77706412902E+02 -0.72127745457E+02 -0.97743490862E+03  0.99133682412E+03  0.12700000000E+03 0.  0.
<mgrwt>
<rscale>  0 0.33087580E+03</rscale>
<asrwt>0</asrwt>
<pdfrwt beam="1">  1        2 0.28125395E+00 0.33087580E+03</pdfrwt>
<pdfrwt beam="2">  1       -2 0.19859820E-02 0.33087580E+03</pdfrwt>
<totfact> 0.71592403E+03</totfact>
</mgrwt>
</event>
<event>
 4    1  0.1390278E-004  0.3915401E+03  0.7818608E-02  0.1046749E+00
          2   -1    0    0  501    0  0.00000000000E+00  0.00000000000E+00  0.43992397045E+03  0.43992397046E+03  0.25500000000E-02 0.  1.
         -2   -1    0    0    0  501 -0.00000000000E+00 -0.00000000000E+00 -0.87119382994E+02  0.87119383031E+02  0.25500000000E-02 0. -1.
    5000001    1    1    2    0    0  0.13878653866E+03 -0.50865435842E+02  0.15129482264E+03  0.24671465144E+03  0.12700000000E+03 0.  0.
   -5000001    1    1    2    0    0 -0.13878653866E+03  0.50865435842E+02  0.20150976481E+03  0.28032870205E+03  0.12700000000E+03 0.  0.
<mgrwt>
<rscale>  0 0.39154006E+03</rscale>
<asrwt>0</asrwt>
<pdfrwt beam="1">  1        2 0.62846281E-01 0.39154006E+03</pdfrwt>
<pdfrwt beam="2">  1       -2 0.12445626E-01 0.39154006E+03</pdfrwt>
<totfact> 0.36577380E+03</totfact>
</mgrwt>
</event>
<event>
 4    1  0.1390278E-004  0.5099139E+03  0.7818608E-02  0.1011223E+00
          2   -1    0    0  501    0  0.00000000000E+00  0.00000000000E+00  0.89303001133E+03  0.89303001133E+03  0.25500000000E-02 0.  1.
         -2   -1    0    0    0  501 -0.00000000000E+00 -0.00000000000E+00 -0.72789306409E+02  0.72789306453E+02  0.25500000000E-02 0. -1.
    5000001    1    1    2    0    0 -0.24030806044E+02  0.19184833056E+03  0.20708404440E+03  0.31047715378E+03  0.12700000000E+03 0.  0.
   -5000001    1    1    2    0    0  0.24030806044E+02 -0.19184833056E+03  0.61315666052E+03  0.65534216400E+03  0.12700000000E+03 0.  0.
<mgrwt>
<rscale>  0 0.50991386E+03</rscale>
<asrwt>0</asrwt>
<pdfrwt beam="1">  1        2 0.12757573E+00 0.50991386E+03</pdfrwt>
<pdfrwt beam="2">  1       -2 0.10398471E-01 0.50991386E+03</pdfrwt>
<totfact> 0.21175366E+03</totfact>
</mgrwt>
</event>
<event>
 4    1  0.1390278E-004  0.3827739E+03  0.7818608E-02  0.1049913E+00
          2   -1    0    0  501    0  0.00000000000E+00  0.00000000000E+00  0.19905243148E+04  0.19905243148E+04  0.25500000000E-02 0.  1.
         -2   -1    0    0    0  501 -0.00000000000E+00 -0.00000000000E+00 -0.18401664692E+02  0.18401664869E+02  0.25500000000E-02 0. -1.
    5000001    1    1    2    0    0  0.12091508238E+03 -0.68501324716E+02  0.11668870726E+04  0.11819760272E+04  0.12700000000E+03 0.  0.
   -5000001    1    1    2    0    0 -0.12091508238E+03  0.68501324716E+02  0.80523557751E+03  0.82694995249E+03  0.12700000000E+03 0.  0.
<mgrwt>
<rscale>  0 0.38277388E+03</rscale>
<asrwt>0</asrwt>
<pdfrwt beam="1">  1        2 0.28436051E+00 0.38277388E+03</pdfrwt>
<pdfrwt beam="2">  1       -2 0.26288103E-02 0.38277388E+03</pdfrwt>
<totfact> 0.46027936E+03</totfact>
</mgrwt>
</event>
<event>
 4    1  0.1390278E-004  0.5951976E+03  0.7818608E-02  0.9915420E-01
          2   -1    0    0  501    0  0.00000000000E+00  0.00000000000E+00  0.16743227583E+03  0.16743227585E+03  0.25500000000E-02 0.  1.
         -2   -1    0    0    0  501 -0.00000000000E+00 -0.00000000000E+00 -0.52896049936E+03  0.52896049936E+03  0.25500000000E-02 0. -1.
    5000001    1    1    2    0    0  0.21239695296E+03  0.38236704864E+02 -0.36892108448E+03  0.44587697608E+03  0.12700000000E+03 0.  0.
   -5000001    1    1    2    0    0 -0.21239695296E+03 -0.38236704864E+02  0.73928609564E+01  0.25051579914E+03  0.12700000000E+03 0.  0.
<mgrwt>
<rscale>  0 0.59519765E+03</rscale>
<asrwt>0</asrwt>
<pdfrwt beam="1">  1        2 0.23918897E-01 0.59519765E+03</pdfrwt>
<pdfrwt beam="2">  1       -2 0.75565785E-01 0.59519765E+03</pdfrwt>
<totfact> 0.36575038E+02</totfact>
</mgrwt>
</event>
<event>
 4    1  0.1390278E-004  0.3629434E+03  0.7818608E-02  0.1057424E+00
          2   -1    0    0  501    0  0.00000000000E+00  0.00000000000E+00  0.38303299467E+03  0.38303299468E+03  0.25500000000E-02 0.  1.
         -2   -1    0    0    0  501 -0.00000000000E+00 -0.00000000000E+00 -0.85976864872E+02  0.85976864909E+02  0.25500000000E-02 0. -1.
    5000001    1    1    2    0    0 -0.12021989819E+03 -0.26371917177E+02  0.95962744478E+02  0.20121170509E+03  0.12700000000E+03 0.  0.
   -5000001    1    1    2    0    0  0.12021989819E+03  0.26371917177E+02  0.20109338532E+03  0.26779815450E+03  0.12700000000E+03 0.  0.
<mgrwt>
<rscale>  0 0.36294339E+03</rscale>
<asrwt>0</asrwt>
<pdfrwt beam="1">  1        2 0.54719000E-01 0.36294339E+03</pdfrwt>
<pdfrwt beam="2">  1       -2 0.12282409E-01 0.36294339E+03</pdfrwt>
<totfact> 0.43432655E+03</totfact>
</mgrwt>
</event>
<event>
 4    1  0.1390278E-004  0.8360842E+03  0.7818608E-02  0.9509207E-01
          2   -1    0    0  501    0  0.00000000000E+00  0.00000000000E+00  0.69010618817E+03  0.69010618817E+03  0.25500000000E-02 0.  1.
         -2   -1    0    0    0  501 -0.00000000000E+00 -0.00000000000E+00 -0.25323521267E+03  0.25323521268E+03  0.25500000000E-02 0. -1.
    5000001    1    1    2    0    0 -0.36183515490E+03 -0.20343228153E+02  0.40483032353E+03  0.55799204036E+03  0.12700000000E+03 0.  0.
   -5000001    1    1    2    0    0  0.36183515490E+03  0.20343228153E+02  0.32040651965E+02  0.38534936050E+03  0.12700000000E+03 0.  0.
<mgrwt>
<rscale>  0 0.83608418E+03</rscale>
<asrwt>0</asrwt>
<pdfrwt beam="1">  1        2 0.98586599E-01 0.83608418E+03</pdfrwt>
<pdfrwt beam="2">  1       -2 0.36176459E-01 0.83608418E+03</pdfrwt>
<totfact> 0.33029715E+02</totfact>
</mgrwt>
</event>
<event>
 4    1  0.1390278E-004  0.4325427E+03  0.7818608E-02  0.1033060E+00
         -2   -1    0    0    0  501 -0.00000000000E+00  0.00000000000E+00  0.24577507741E+03  0.24577507743E+03  0.25500000000E-02 0. -1.
          2   -1    0    0  501    0  0.00000000000E+00 -0.00000000000E+00 -0.19030935647E+03  0.19030935649E+03  0.25500000000E-02 0.  1.
    5000001    1    1    2    0    0 -0.16982868191E+03 -0.89327075276E+01 -0.14112685990E+02  0.21271986830E+03  0.12700000000E+03 0.  0.
   -5000001    1    1    2    0    0  0.16982868191E+03  0.89327075276E+01  0.69578406931E+02  0.22336456562E+03  0.12700000000E+03 0.  0.
<mgrwt>
<rscale>  0 0.43254270E+03</rscale>
<asrwt>0</asrwt>
<pdfrwt beam="1">  1        2 0.27187051E-01 0.43254270E+03</pdfrwt>
<pdfrwt beam="2">  1       -2 0.35110725E-01 0.43254270E+03</pdfrwt>
<totfact> 0.15072400E+03</totfact>
</mgrwt>
</event>
<event>
 4    1  0.1390278E-004  0.3344134E+03  0.7818608E-02  0.1069201E+00
          2   -1    0    0  501    0  0.00000000000E+00  0.00000000000E+00  0.22784743979E+03  0.22784743980E+03  0.25500000000E-02 0. -1.
         -2   -1    0    0    0  501 -0.00000000000E+00 -0.00000000000E+00 -0.12270524787E+03  0.12270524790E+03  0.25500000000E-02 0.  1.
    5000001    1    1    2    0    0 -0.93179142139E+01  0.92963816809E+02 -0.57934665069E+01  0.15777090674E+03  0.12700000000E+03 0.  0.
   -5000001    1    1    2    0    0  0.93179142139E+01 -0.92963816809E+02  0.11093565842E+03  0.19278178096E+03  0.12700000000E+03 0.  0.
<mgrwt>
<rscale>  0 0.33441338E+03</rscale>
<asrwt>0</asrwt>
<pdfrwt beam="1">  1        2 0.32549634E-01 0.33441338E+03</pdfrwt>
<pdfrwt beam="2">  1       -2 0.17529321E-01 0.33441338E+03</pdfrwt>
<totfact> 0.42295244E+03</totfact>
</mgrwt>
</event>
<event>
 4    1  0.1390278E-004  0.3658213E+03  0.7818608E-02  0.1056302E+00
          2   -1    0    0  501    0  0.00000000000E+00  0.00000000000E+00  0.15291605090E+04  0.15291605090E+04  0.25500000000E-02 0.  1.
         -2   -1    0    0    0  501 -0.00000000000E+00 -0.00000000000E+00 -0.21878876434E+02  0.21878876582E+02  0.25500000000E-02 0. -1.
    5000001    1    1    2    0    0 -0.69010467423E+02  0.10979170231E+03  0.65782966435E+03  0.68241155457E+03  0.12700000000E+03 0.  0.
   -5000001    1    1    2    0    0  0.69010467423E+02 -0.10979170231E+03  0.84945196823E+03  0.86862783103E+03  0.12700000000E+03 0.  0.
<mgrwt>
<rscale>  0 0.36582134E+03</rscale>
<asrwt>0</asrwt>
<pdfrwt beam="1">  1        2 0.21845148E+00 0.36582134E+03</pdfrwt>
<pdfrwt beam="2">  1       -2 0.31255541E-02 0.36582134E+03</pdfrwt>
<totfact> 0.60295708E+03</totfact>
</mgrwt>
</event>
<event>
 4    1  0.1390278E-004  0.8465810E+03  0.7818608E-02  0.9494937E-01
         -2   -1    0    0    0  501 -0.00000000000E+00  0.00000000000E+00  0.16380579982E+03  0.16380579984E+03  0.25500000000E-02 0. -1.
          2   -1    0    0  501    0  0.00000000000E+00 -0.00000000000E+00 -0.10938249338E+04  0.10938249338E+04  0.25500000000E-02 0.  1.
    5000001    1    1    2    0    0 -0.28090035638E+03  0.10809419830E+03 -0.86488367298E+03  0.92452265181E+03  0.12700000000E+03 0.  0.
   -5000001    1    1    2    0    0  0.28090035638E+03 -0.10809419830E+03 -0.65135461049E+02  0.33310808187E+03  0.12700000000E+03 0.  0.
<mgrwt>
<rscale>  0 0.84658105E+03</rscale>
<asrwt>0</asrwt>
<pdfrwt beam="1">  1        2 0.15626070E+00 0.84658105E+03</pdfrwt>
<pdfrwt beam="2">  1       -2 0.23400829E-01 0.84658105E+03</pdfrwt>
<totfact> 0.39848587E+02</totfact>
</mgrwt>
</event>
<event>
 4    1  0.1390278E-004  0.5659390E+03  0.7818608E-02  0.9978706E-01
          2   -1    0    0  501    0  0.00000000000E+00  0.00000000000E+00  0.37361000204E+03  0.37361000205E+03  0.25500000000E-02 0.  1.
         -2   -1    0    0    0  501 -0.00000000000E+00 -0.00000000000E+00 -0.21431900717E+03  0.21431900719E+03  0.25500000000E-02 0. -1.
    5000001    1    1    2    0    0 -0.10496362234E+02  0.22569001903E+03 -0.38330145152E+02  0.26200068384E+03  0.12700000000E+03 0.  0.
   -5000001    1    1    2    0    0  0.10496362234E+02 -0.22569001903E+03  0.19762114002E+03  0.32592832539E+03  0.12700000000E+03 0.  0.
<mgrwt>
<rscale>  0 0.56593895E+03</rscale>
<asrwt>0</asrwt>
<pdfrwt beam="1">  1        2 0.53372857E-01 0.56593895E+03</pdfrwt>
<pdfrwt beam="2">  1       -2 0.30617001E-01 0.56593895E+03</pdfrwt>
<totfact> 0.92372369E+02</totfact>
</mgrwt>
</event>
<event>
 4    1  0.1390278E-004  0.4372244E+03  0.7818608E-02  0.1031602E+00
         -2   -1    0    0    0  501 -0.00000000000E+00  0.00000000000E+00  0.74370529174E+02  0.74370529218E+02  0.25500000000E-02 0. -1.
          2   -1    0    0  501    0  0.00000000000E+00 -0.00000000000E+00 -0.64261060869E+03  0.64261060869E+03  0.25500000000E-02 0.  1.
    5000001    1    1    2    0    0  0.16035469371E+03 -0.96724770876E+01 -0.40959895350E+03  0.45793830078E+03  0.12700000000E+03 0.  0.
   -5000001    1    1    2    0    0 -0.16035469371E+03  0.96724770876E+01 -0.15864112601E+03  0.25904283713E+03  0.12700000000E+03 0.  0.
<mgrwt>
<rscale>  0 0.43722439E+03</rscale>
<asrwt>0</asrwt>
<pdfrwt beam="1">  1        2 0.91801512E-01 0.43722439E+03</pdfrwt>
<pdfrwt beam="2">  1       -2 0.10624362E-01 0.43722439E+03</pdfrwt>
<totfact> 0.30796688E+03</totfact>
</mgrwt>
</event>
<event>
 4    1  0.1390278E-004  0.4947166E+03  0.7818608E-02  0.1015167E+00
          2   -1    0    0  501    0  0.00000000000E+00  0.00000000000E+00  0.29682692243E+04  0.29682692243E+04  0.25500000000E-02 0.  1.
         -2   -1    0    0    0  501 -0.00000000000E+00 -0.00000000000E+00 -0.20613402368E+02  0.20613402526E+02  0.25500000000E-02 0. -1.
    5000001    1    1    2    0    0  0.10091946849E+03  0.83536122958E+02  0.24828684064E+04  0.24895637262E+04  0.12700000000E+03 0.  0.
   -5000001    1    1    2    0    0 -0.10091946849E+03 -0.83536122958E+02  0.46478741555E+03  0.49931890071E+03  0.12700000000E+03 0.  0.
<mgrwt>
<rscale>  0 0.49471660E+03</rscale>
<asrwt>0</asrwt>
<pdfrwt beam="1">  1        2 0.42403858E+00 0.49471660E+03</pdfrwt>
<pdfrwt beam="2">  1       -2 0.29447710E-02 0.49471660E+03</pdfrwt>
<totfact> 0.12236983E+03</totfact>
</mgrwt>
</event>
<event>
 4    1  0.1390278E-004  0.3627895E+03  0.7818608E-02  0.1057485E+00
         -2   -1    0    0    0  501 -0.00000000000E+00  0.00000000000E+00  0.45314318327E+02  0.45314318399E+02  0.25500000000E-02 0. -1.
          2   -1    0    0  501    0  0.00000000000E+00 -0.00000000000E+00 -0.72612951752E+03  0.72612951752E+03  0.25500000000E-02 0.  1.
    5000001    1    1    2    0    0  0.12752586934E+03 -0.18589565701E+02 -0.36785779669E+03  0.40994728672E+03  0.12700000000E+03 0.  0.
   -5000001    1    1    2    0    0 -0.12752586934E+03  0.18589565701E+02 -0.31295740250E+03  0.36149654920E+03  0.12700000000E+03 0.  0.
<mgrwt>
<rscale>  0 0.36278955E+03</rscale>
<asrwt>0</asrwt>
<pdfrwt beam="1">  1        2 0.10373278E+00 0.36278955E+03</pdfrwt>
<pdfrwt beam="2">  1       -2 0.64734745E-02 0.36278955E+03</pdfrwt>
<totfact> 0.58102970E+03</totfact>
</mgrwt>
</event>
<event>
 4    1  0.1390278E-004  0.3098554E+03  0.7818608E-02  0.1080415E+00
         -2   -1    0    0    0  501 -0.00000000000E+00  0.00000000000E+00  0.31023541766E+02  0.31023541871E+02  0.25500000000E-02 0. -1.
          2   -1    0    0  501    0  0.00000000000E+00 -0.00000000000E+00 -0.77368972935E+03  0.77368972935E+03  0.25500000000E-02 0.  1.
    5000001    1    1    2    0    0 -0.25483750162E+01 -0.86141548839E+02 -0.42622484231E+03  0.45301597858E+03  0.12700000000E+03 0.  0.
   -5000001    1    1    2    0    0  0.25483750162E+01  0.86141548839E+02 -0.31644134528E+03  0.35169729264E+03  0.12700000000E+03 0.  0.
<mgrwt>
<rscale>  0 0.30985542E+03</rscale>
<asrwt>0</asrwt>
<pdfrwt beam="1">  1        2 0.11052709E+00 0.30985542E+03</pdfrwt>
<pdfrwt beam="2">  1       -2 0.44319350E-02 0.30985542E+03</pdfrwt>
<totfact> 0.95724041E+03</totfact>
</mgrwt>
</event>
<event>
 4    1  0.1390278E-004  0.4024457E+03  0.7818608E-02  0.1042936E+00
          2   -1    0    0  501    0  0.00000000000E+00  0.00000000000E+00  0.12519369758E+03  0.12519369761E+03  0.25500000000E-02 0.  1.
         -2   -1    0    0    0  501 -0.00000000000E+00 -0.00000000000E+00 -0.32342397470E+03  0.32342397471E+03  0.25500000000E-02 0. -1.
    5000001    1    1    2    0    0  0.89289402934E+02  0.29302220760E+02 -0.23803384268E+03  0.28569271583E+03  0.12700000000E+03 0.  0.
   -5000001    1    1    2    0    0 -0.89289402934E+02 -0.29302220760E+02  0.39803565554E+02  0.16292495649E+03  0.12700000000E+03 0.  0.
<mgrwt>
<rscale>  0 0.40244574E+03</rscale>
<asrwt>0</asrwt>
<pdfrwt beam="1">  1        2 0.17884814E-01 0.40244574E+03</pdfrwt>
<pdfrwt beam="2">  1       -2 0.46203425E-01 0.40244574E+03</pdfrwt>
<totfact> 0.14336966E+03</totfact>
</mgrwt>
</event>
<event>
 4    1  0.1390278E-004  0.8520891E+03  0.7818608E-02  0.9487537E-01
         -2   -1    0    0    0  501 -0.00000000000E+00  0.00000000000E+00  0.46520652259E+03  0.46520652260E+03  0.25500000000E-02 0. -1.
          2   -1    0    0  501    0  0.00000000000E+00 -0.00000000000E+00 -0.39017929113E+03  0.39017929114E+03  0.25500000000E-02 0.  1.
    5000001    1    1    2    0    0  0.61868526475E+02  0.27731907811E+03 -0.25456114297E+03  0.40207457164E+03  0.12700000000E+03 0.  0.
   -5000001    1    1    2    0    0 -0.61868526475E+02 -0.27731907811E+03  0.32958837443E+03  0.45331124210E+03  0.12700000000E+03 0.  0.
<mgrwt>
<rscale>  0 0.85208908E+03</rscale>
<asrwt>0</asrwt>
<pdfrwt beam="1">  1        2 0.55739899E-01 0.85208908E+03</pdfrwt>
<pdfrwt beam="2">  1       -2 0.66458075E-01 0.85208908E+03</pdfrwt>
<totfact> 0.18611064E+02</totfact>
</mgrwt>
</event>
<event>
 4    1  0.1390278E-004  0.2889307E+03  0.7818608E-02  0.1090909E+00
         -2   -1    0    0    0  501 -0.00000000000E+00  0.00000000000E+00  0.39892557791E+02  0.39892557873E+02  0.25500000000E-02 0. -1.
          2   -1    0    0  501    0  0.00000000000E+00 -0.00000000000E+00 -0.52316106291E+03  0.52316106291E+03  0.25500000000E-02 0.  1.
    5000001    1    1    2    0    0 -0.23820766582E+02  0.63475472168E+02 -0.26507346744E+03  0.30164467114E+03  0.12700000000E+03 0.  0.
   -5000001    1    1    2    0    0  0.23820766582E+02 -0.63475472168E+02 -0.21819503768E+03  0.26140894964E+03  0.12700000000E+03 0.  0.
<mgrwt>
<rscale>  0 0.28893067E+03</rscale>
<asrwt>0</asrwt>
<pdfrwt beam="1">  1        2 0.74737290E-01 0.28893067E+03</pdfrwt>
<pdfrwt beam="2">  1       -2 0.56989372E-02 0.28893067E+03</pdfrwt>
<totfact> 0.10269752E+04</totfact>
</mgrwt>
</event>
<event>
 4    1  0.1390278E-004  0.3499880E+03  0.7818608E-02  0.1062620E+00
          2   -1    0    0  501    0  0.00000000000E+00  0.00000000000E+00  0.72862590814E+03  0.72862590814E+03  0.25500000000E-02 0.  1.
         -2   -1    0    0    0  501 -0.00000000000E+00 -0.00000000000E+00 -0.42028279891E+02  0.42028279968E+02  0.25500000000E-02 0. -1.
    5000001    1    1    2    0    0 -0.49599932291E+02  0.10086053117E+03  0.43828647781E+03  0.46995429210E+03  0.12700000000E+03 0.  0.
   -5000001    1    1    2    0    0  0.49599932291E+02 -0.10086053117E+03  0.24831115044E+03  0.30069989602E+03  0.12700000000E+03 0.  0.
<mgrwt>
<rscale>  0 0.34998796E+03</rscale>
<asrwt>0</asrwt>
<pdfrwt beam="1">  1        2 0.10408941E+00 0.34998796E+03</pdfrwt>
<pdfrwt beam="2">  1       -2 0.60040404E-02 0.34998796E+03</pdfrwt>
<totfact> 0.64962677E+03</totfact>
</mgrwt>
</event>
<event>
 4    1  0.1390278E-004  0.3996081E+03  0.7818608E-02  0.1043915E+00
          2   -1    0    0  501    0  0.00000000000E+00  0.00000000000E+00  0.39516397920E+03  0.39516397921E+03  0.25500000000E-02 0. -1.
         -2   -1    0    0    0  501 -0.00000000000E+00 -0.00000000000E+00 -0.10102555857E+03  0.10102555860E+03  0.25500000000E-02 0.  1.
    5000001    1    1    2    0    0  0.84973114397E+02  0.12437698518E+03  0.18830000730E+03  0.27253615790E+03  0.12700000000E+03 0.  0.
   -5000001    1    1    2    0    0 -0.84973114397E+02 -0.12437698518E+03  0.10583841333E+03  0.22365337992E+03  0.12700000000E+03 0.  0.
<mgrwt>
<rscale>  0 0.39960812E+03</rscale>
<asrwt>0</asrwt>
<pdfrwt beam="1">  1        2 0.56451997E-01 0.39960812E+03</pdfrwt>
<pdfrwt beam="2">  1       -2 0.14432223E-01 0.39960812E+03</pdfrwt>
<totfact> 0.32257339E+03</totfact>
</mgrwt>
</event>
<event>
 4    1  0.1390278E-004  0.2906752E+03  0.7818608E-02  0.1089997E+00
         -2   -1    0    0    0  501 -0.00000000000E+00  0.00000000000E+00  0.94851105071E+01  0.94851108498E+01  0.25500000000E-02 0. -1.
          2   -1    0    0  501    0  0.00000000000E+00 -0.00000000000E+00 -0.22269665509E+04  0.22269665509E+04  0.25500000000E-02 0.  1.
    5000001    1    1    2    0    0 -0.48786331857E+02  0.26851698535E+02 -0.14434870342E+04  0.14501327311E+04  0.12700000000E+03 0.  0.
   -5000001    1    1    2    0    0  0.48786331857E+02 -0.26851698535E+02 -0.77399440620E+03  0.78631893066E+03  0.12700000000E+03 0.  0.
<mgrwt>
<rscale>  0 0.29067524E+03</rscale>
<asrwt>0</asrwt>
<pdfrwt beam="1">  1        2 0.31813774E+00 0.29067524E+03</pdfrwt>
<pdfrwt beam="2">  1       -2 0.13550172E-02 0.29067524E+03</pdfrwt>
<totfact> 0.93743335E+03</totfact>
</mgrwt>
</event>
<event>
 4    1  0.1390278E-004  0.5649899E+03  0.7818608E-02  0.9980827E-01
          2   -1    0    0  501    0  0.00000000000E+00  0.00000000000E+00  0.23683002516E+03  0.23683002517E+03  0.25500000000E-02 0.  1.
         -2   -1    0    0    0  501 -0.00000000000E+00 -0.00000000000E+00 -0.33696490281E+03  0.33696490282E+03  0.25500000000E-02 0. -1.
    5000001    1    1    2    0    0 -0.22316925117E+03  0.58640911016E+02 -0.15379204245E+03  0.30499879251E+03  0.12700000000E+03 0.  0.
   -5000001    1    1    2    0    0  0.22316925117E+03 -0.58640911016E+02  0.53657164791E+02  0.26879613548E+03  0.12700000000E+03 0.  0.
<mgrwt>
<rscale>  0 0.56498993E+03</rscale>
<asrwt>0</asrwt>
<pdfrwt beam="1">  1        2 0.33832861E-01 0.56498993E+03</pdfrwt>
<pdfrwt beam="2">  1       -2 0.48137843E-01 0.56498993E+03</pdfrwt>
<totfact> 0.63932128E+02</totfact>
</mgrwt>
</event>
<event>
 4    1  0.1390278E-004  0.3849025E+03  0.7818608E-02  0.1049137E+00
          2   -1    0    0  501    0  0.00000000000E+00  0.00000000000E+00  0.17713821818E+04  0.17713821818E+04  0.25500000000E-02 0.  1.
         -2   -1    0    0    0  501 -0.00000000000E+00 -0.00000000000E+00 -0.20908802987E+02  0.20908803143E+02  0.25500000000E-02 0. -1.
    5000001    1    1    2    0    0  0.60858082225E+02  0.12295353019E+03  0.66250102822E+03  0.68837336464E+03  0.12700000000E+03 0.  0.
   -5000001    1    1    2    0    0 -0.60858082225E+02 -0.12295353019E+03  0.10879723506E+04  0.11039176203E+04  0.12700000000E+03 0.  0.
<mgrwt>
<rscale>  0 0.38490249E+03</rscale>
<asrwt>0</asrwt>
<pdfrwt beam="1">  1        2 0.25305456E+00 0.38490249E+03</pdfrwt>
<pdfrwt beam="2">  1       -2 0.29869723E-02 0.38490249E+03</pdfrwt>
<totfact> 0.48789981E+03</totfact>
</mgrwt>
</event>
<event>
 4    1  0.1390278E-004  0.4398098E+03  0.7818608E-02  0.1030805E+00
          2   -1    0    0  501    0  0.00000000000E+00  0.00000000000E+00  0.13270944367E+04  0.13270944367E+04  0.25500000000E-02 0.  1.
         -2   -1    0    0    0  501 -0.00000000000E+00 -0.00000000000E+00 -0.36439131292E+02  0.36439131381E+02  0.25500000000E-02 0. -1.
    5000001    1    1    2    0    0  0.69282428149E+02 -0.16507281318E+03  0.68693151308E+03  0.72114699761E+03  0.12700000000E+03 0.  0.
   -5000001    1    1    2    0    0 -0.69282428149E+02  0.16507281318E+03  0.60372379232E+03  0.64238657046E+03  0.12700000000E+03 0.  0.
<mgrwt>
<rscale>  0 0.43980982E+03</rscale>
<asrwt>0</asrwt>
<pdfrwt beam="1">  1        2 0.18958488E+00 0.43980982E+03</pdfrwt>
<pdfrwt beam="2">  1       -2 0.52055912E-02 0.43980982E+03</pdfrwt>
<totfact> 0.35373549E+03</totfact>
</mgrwt>
</event>
<event>
 4    1  0.1390278E-004  0.3466127E+03  0.7818608E-02  0.1064014E+00
          2   -1    0    0  501    0  0.00000000000E+00  0.00000000000E+00  0.12280426580E+04  0.12280426580E+04  0.25500000000E-02 0.  1.
         -2   -1    0    0    0  501 -0.00000000000E+00 -0.00000000000E+00 -0.24457698660E+02  0.24457698792E+02  0.25500000000E-02 0. -1.
    5000001    1    1    2    0    0 -0.93712302998E+02  0.24725270019E+02  0.84453987939E+03  0.85951727300E+03  0.12700000000E+03 0.  0.
   -5000001    1    1    2    0    0  0.93712302998E+02 -0.24725270019E+02  0.35904507996E+03  0.39298308380E+03  0.12700000000E+03 0.  0.
<mgrwt>
<rscale>  0 0.34661274E+03</rscale>
<asrwt>0</asrwt>
<pdfrwt beam="1">  1        2 0.17543473E+00 0.34661274E+03</pdfrwt>
<pdfrwt beam="2">  1       -2 0.34939557E-02 0.34661274E+03</pdfrwt>
<totfact> 0.73259731E+03</totfact>
</mgrwt>
</event>
<event>
 4    1  0.1390278E-004  0.4601684E+03  0.7818608E-02  0.1024732E+00
          2   -1    0    0  501    0  0.00000000000E+00  0.00000000000E+00  0.22575623912E+04  0.22575623912E+04  0.25500000000E-02 0.  1.
         -2   -1    0    0    0  501 -0.00000000000E+00 -0.00000000000E+00 -0.23449514609E+02  0.23449514748E+02  0.25500000000E-02 0. -1.
    5000001    1    1    2    0    0 -0.36148908482E+02 -0.18713745608E+03  0.12259473233E+04  0.12471579734E+04  0.12700000000E+03 0.  0.
   -5000001    1    1    2    0    0  0.36148908482E+02  0.18713745608E+03  0.10081655533E+04  0.10338539325E+04  0.12700000000E+03 0.  0.
<mgrwt>
<rscale>  0 0.46016841E+03</rscale>
<asrwt>0</asrwt>
<pdfrwt beam="1">  1        2 0.32250887E+00 0.46016841E+03</pdfrwt>
<pdfrwt beam="2">  1       -2 0.33499311E-02 0.46016841E+03</pdfrwt>
<totfact> 0.23485940E+03</totfact>
</mgrwt>
</event>
<event>
 4    1  0.1390278E-004  0.3567608E+03  0.7818608E-02  0.1059874E+00
          2   -1    0    0  501    0  0.00000000000E+00  0.00000000000E+00  0.20894969035E+04  0.20894969035E+04  0.25500000000E-02 0.  1.
         -2   -1    0    0    0  501 -0.00000000000E+00 -0.00000000000E+00 -0.15228342692E+02  0.15228342906E+02  0.25500000000E-02 0. -1.
    5000001    1    1    2    0    0  0.12013704721E+03 -0.27871580541E+02  0.90776876396E+03  0.92486910638E+03  0.12700000000E+03 0.  0.
   -5000001    1    1    2    0    0 -0.12013704721E+03  0.27871580541E+02  0.11664997968E+04  0.11798561400E+04  0.12700000000E+03 0.  0.
<mgrwt>
<rscale>  0 0.35676084E+03</rscale>
<asrwt>0</asrwt>
<pdfrwt beam="1">  1        2 0.29849968E+00 0.35676084E+03</pdfrwt>
<pdfrwt beam="2">  1       -2 0.21754767E-02 0.35676084E+03</pdfrwt>
<totfact> 0.54560579E+03</totfact>
</mgrwt>
</event>
<event>
 4    1  0.1390278E-004  0.3710246E+03  0.7818608E-02  0.1054302E+00
         -2   -1    0    0    0  501 -0.00000000000E+00  0.00000000000E+00  0.25208014192E+02  0.25208014321E+02  0.25500000000E-02 0. -1.
          2   -1    0    0  501    0  0.00000000000E+00 -0.00000000000E+00 -0.13652329094E+04  0.13652329094E+04  0.25500000000E-02 0.  1.
    5000001    1    1    2    0    0 -0.83140504142E+02  0.77363946469E+02 -0.94510270757E+03  0.96033621795E+03  0.12700000000E+03 0.  0.
   -5000001    1    1    2    0    0  0.83140504142E+02 -0.77363946469E+02 -0.39492218763E+03  0.43010470577E+03  0.12700000000E+03 0.  0.
<mgrwt>
<rscale>  0 0.37102458E+03</rscale>
<asrwt>0</asrwt>
<pdfrwt beam="1">  1        2 0.19503323E+00 0.37102458E+03</pdfrwt>
<pdfrwt beam="2">  1       -2 0.36011457E-02 0.37102458E+03</pdfrwt>
<totfact> 0.59196026E+03</totfact>
</mgrwt>
</event>
<event>
 4    1  0.1390278E-004  0.4020506E+03  0.7818608E-02  0.1043072E+00
          2   -1    0    0  501    0  0.00000000000E+00  0.00000000000E+00  0.50468679909E+02  0.50468679973E+02  0.25500000000E-02 0.  1.
         -2   -1    0    0    0  501 -0.00000000000E+00 -0.00000000000E+00 -0.80071789288E+03  0.80071789288E+03  0.25500000000E-02 0. -1.
    5000001    1    1    2    0    0  0.85113377539E+02 -0.13043733474E+03 -0.36475513223E+03  0.41645346897E+03  0.12700000000E+03 0.  0.
   -5000001    1    1    2    0    0 -0.85113377539E+02  0.13043733474E+03 -0.38549408074E+03  0.43473310389E+03  0.12700000000E+03 0.  0.
<mgrwt>
<rscale>  0 0.40205062E+03</rscale>
<asrwt>0</asrwt>
<pdfrwt beam="1">  1        2 0.72098119E-02 0.40205062E+03</pdfrwt>
<pdfrwt beam="2">  1       -2 0.11438826E+00 0.40205062E+03</pdfrwt>
<totfact> 0.61033417E+02</totfact>
</mgrwt>
</event>
<event>
 4    1  0.1390278E-004  0.5106183E+03  0.7818608E-02  0.1011044E+00
          2   -1    0    0  501    0  0.00000000000E+00  0.00000000000E+00  0.16303141045E+03  0.16303141047E+03  0.25500000000E-02 0.  1.
         -2   -1    0    0    0  501 -0.00000000000E+00 -0.00000000000E+00 -0.39981724460E+03  0.39981724461E+03  0.25500000000E-02 0. -1.
    5000001    1    1    2    0    0 -0.21612537981E+03 -0.24631610811E+02 -0.72454153866E+02  0.26209826490E+03  0.12700000000E+03 0.  0.
   -5000001    1    1    2    0    0  0.21612537981E+03  0.24631610811E+02 -0.16433168028E+03  0.30075039018E+03  0.12700000000E+03 0.  0.
<mgrwt>
<rscale>  0 0.51061833E+03</rscale>
<asrwt>0</asrwt>
<pdfrwt beam="1">  1        2 0.23290202E-01 0.51061833E+03</pdfrwt>
<pdfrwt beam="2">  1       -2 0.57116749E-01 0.51061833E+03</pdfrwt>
<totfact> 0.68737768E+02</totfact>
</mgrwt>
</event>
<event>
 4    1  0.1390278E-004  0.3438530E+03  0.7818608E-02  0.1065167E+00
         -2   -1    0    0    0  501 -0.00000000000E+00  0.00000000000E+00  0.30723890640E+02  0.30723890746E+02  0.25500000000E-02 0. -1.
          2   -1    0    0  501    0  0.00000000000E+00 -0.00000000000E+00 -0.96207589884E+03  0.96207589884E+03  0.25500000000E-02 0.  1.
    5000001    1    1    2    0    0 -0.82008696231E+02  0.80148963986E+02 -0.51402670209E+03  0.54175800238E+03  0.12700000000E+03 0.  0.
   -5000001    1    1    2    0    0  0.82008696231E+02 -0.80148963986E+02 -0.41732530611E+03  0.45104178720E+03  0.12700000000E+03 0.  0.
<mgrwt>
<rscale>  0 0.34385296E+03</rscale>
<asrwt>0</asrwt>
<pdfrwt beam="1">  1        2 0.13743940E+00 0.34385296E+03</pdfrwt>
<pdfrwt beam="2">  1       -2 0.43891278E-02 0.34385296E+03</pdfrwt>
<totfact> 0.73631340E+03</totfact>
</mgrwt>
</event>
<event>
 4    1  0.1390278E-004  0.3425621E+03  0.7818608E-02  0.1065710E+00
         -2   -1    0    0    0  501 -0.00000000000E+00  0.00000000000E+00  0.13354287084E+03  0.13354287086E+03  0.25500000000E-02 0. -1.
          2   -1    0    0  501    0  0.00000000000E+00 -0.00000000000E+00 -0.21968371967E+03  0.21968371969E+03  0.25500000000E-02 0.  1.
    5000001    1    1    2    0    0  0.13708255337E+02 -0.72882591071E+02 -0.13360123328E+03  0.19869091041E+03  0.12700000000E+03 0.  0.
   -5000001    1    1    2    0    0 -0.13708255337E+02  0.72882591071E+02  0.47460384445E+02  0.15453568014E+03  0.12700000000E+03 0.  0.
<mgrwt>
<rscale>  0 0.34256208E+03</rscale>
<asrwt>0</asrwt>
<pdfrwt beam="1">  1        2 0.31383388E-01 0.34256208E+03</pdfrwt>
<pdfrwt beam="2">  1       -2 0.19077553E-01 0.34256208E+03</pdfrwt>
<totfact> 0.38153904E+03</totfact>
</mgrwt>
</event>
<event>
 4    1  0.1390278E-004  0.4717602E+03  0.7818608E-02  0.1021425E+00
         -2   -1    0    0    0  501 -0.00000000000E+00  0.00000000000E+00  0.88063533967E+02  0.88063534004E+02  0.25500000000E-02 0. -1.
          2   -1    0    0  501    0  0.00000000000E+00 -0.00000000000E+00 -0.63181000812E+03  0.63181000812E+03  0.25500000000E-02 0.  1.
    5000001    1    1    2    0    0 -0.15001727808E+03  0.12551476374E+03 -0.32585071571E+03  0.40070790929E+03  0.12700000000E+03 0.  0.
   -5000001    1    1    2    0    0  0.15001727808E+03 -0.12551476374E+03 -0.21789575845E+03  0.31916563284E+03  0.12700000000E+03 0.  0.
<mgrwt>
<rscale>  0 0.47176020E+03</rscale>
<asrwt>0</asrwt>
<pdfrwt beam="1">  1        2 0.90258570E-01 0.47176020E+03</pdfrwt>
<pdfrwt beam="2">  1       -2 0.12580505E-01 0.47176020E+03</pdfrwt>
<totfact> 0.23870226E+03</totfact>
</mgrwt>
</event>
<event>
 4    1  0.1390278E-004  0.4418082E+03  0.7818608E-02  0.1030193E+00
          2   -1    0    0  501    0  0.00000000000E+00  0.00000000000E+00  0.58924927889E+03  0.58924927890E+03  0.25500000000E-02 0.  1.
         -2   -1    0    0    0  501 -0.00000000000E+00 -0.00000000000E+00 -0.82814905257E+02  0.82814905296E+02  0.25500000000E-02 0. -1.
    5000001    1    1    2    0    0  0.88268231090E+02  0.10268004558E+03  0.71088605462E+02  0.19878898915E+03  0.12700000000E+03 0.  0.
   -5000001    1    1    2    0    0 -0.88268231090E+02 -0.10268004558E+03  0.43534576817E+03  0.47327519504E+03  0.12700000000E+03 0.  0.
<mgrwt>
<rscale>  0 0.44180821E+03</rscale>
<asrwt>0</asrwt>
<pdfrwt beam="1">  1        2 0.84178466E-01 0.44180821E+03</pdfrwt>
<pdfrwt beam="2">  1       -2 0.11830701E-01 0.44180821E+03</pdfrwt>
<totfact> 0.28624608E+03</totfact>
</mgrwt>
</event>
<event>
 4    1  0.1390278E-004  0.3459317E+03  0.7818608E-02  0.1064297E+00
          2   -1    0    0  501    0  0.00000000000E+00  0.00000000000E+00  0.24374940216E+03  0.24374940217E+03  0.25500000000E-02 0.  1.
         -2   -1    0    0    0  501 -0.00000000000E+00 -0.00000000000E+00 -0.12273743965E+03  0.12273743967E+03  0.25500000000E-02 0. -1.
    5000001    1    1    2    0    0 -0.10937116351E+03 -0.42678068294E+02  0.62804854212E+02  0.18400249627E+03  0.12700000000E+03 0.  0.
   -5000001    1    1    2    0    0  0.10937116351E+03  0.42678068294E+02  0.58207108296E+02  0.18248434557E+03  0.12700000000E+03 0.  0.
<mgrwt>
<rscale>  0 0.34593166E+03</rscale>
<asrwt>0</asrwt>
<pdfrwt beam="1">  1        2 0.34821343E-01 0.34593166E+03</pdfrwt>
<pdfrwt beam="2">  1       -2 0.17533920E-01 0.34593166E+03</pdfrwt>
<totfact> 0.39297151E+03</totfact>
</mgrwt>
</event>
<event>
 4    1  0.1390278E-004  0.9564095E+03  0.7818608E-02  0.9357690E-01
         -2   -1    0    0    0  501 -0.00000000000E+00  0.00000000000E+00  0.19360477886E+03  0.19360477888E+03  0.25500000000E-02 0. -1.
          2   -1    0    0  501    0  0.00000000000E+00 -0.00000000000E+00 -0.11811681750E+04  0.11811681750E+04  0.25500000000E-02 0.  1.
    5000001    1    1    2    0    0  0.33888657014E+03 -0.40180298468E+02 -0.48196006541E+02  0.36730153669E+03  0.12700000000E+03 0.  0.
   -5000001    1    1    2    0    0 -0.33888657014E+03  0.40180298468E+02 -0.93936738959E+03  0.10074714172E+04  0.12700000000E+03 0.  0.
<mgrwt>
<rscale>  0 0.95640954E+03</rscale>
<asrwt>0</asrwt>
<pdfrwt beam="1">  1        2 0.16873831E+00 0.95640954E+03</pdfrwt>
<pdfrwt beam="2">  1       -2 0.27657826E-01 0.95640954E+03</pdfrwt>
<totfact> 0.26052331E+02</totfact>
</mgrwt>
</event>
<event>
 4    1  0.1390278E-004  0.3128624E+03  0.7818608E-02  0.1078982E+00
         -2   -1    0    0    0  501 -0.00000000000E+00  0.00000000000E+00  0.26878820253E+02  0.26878820374E+02  0.25500000000E-02 0. -1.
          2   -1    0    0  501    0  0.00000000000E+00 -0.00000000000E+00 -0.91040899936E+03  0.91040899937E+03  0.25500000000E-02 0.  1.
    5000001    1    1    2    0    0 -0.36821360368E+02  0.46439226377E+02 -0.64995608805E+03  0.66489422521E+03  0.12700000000E+03 0.  0.
   -5000001    1    1    2    0    0  0.36821360368E+02 -0.46439226377E+02 -0.23357409106E+03  0.27239359453E+03  0.12700000000E+03 0.  0.
<mgrwt>
<rscale>  0 0.31286240E+03</rscale>
<asrwt>0</asrwt>
<pdfrwt beam="1">  1        2 0.13005841E+00 0.31286240E+03</pdfrwt>
<pdfrwt beam="2">  1       -2 0.38398320E-02 0.31286240E+03</pdfrwt>
<totfact> 0.96758662E+03</totfact>
</mgrwt>
</event>
<event>
 4    1  0.1390278E-004  0.2698594E+03  0.7818608E-02  0.1101360E+00
         -2   -1    0    0    0  501 -0.00000000000E+00  0.00000000000E+00  0.29466758260E+02  0.29466758371E+02  0.25500000000E-02 0. -1.
          2   -1    0    0  501    0  0.00000000000E+00 -0.00000000000E+00 -0.61784940172E+03  0.61784940172E+03  0.25500000000E-02 0.  1.
    5000001    1    1    2    0    0 -0.32549720593E+02 -0.31713597504E+02 -0.28595759893E+03  0.31617397895E+03  0.12700000000E+03 0.  0.
   -5000001    1    1    2    0    0  0.32549720593E+02  0.31713597504E+02 -0.30242504453E+03  0.33114218115E+03  0.12700000000E+03 0.  0.
<mgrwt>
<rscale>  0 0.26985936E+03</rscale>
<asrwt>0</asrwt>
<pdfrwt beam="1">  1        2 0.88264192E-01 0.26985936E+03</pdfrwt>
<pdfrwt beam="2">  1       -2 0.42095373E-02 0.26985936E+03</pdfrwt>
<totfact> 0.13441370E+04</totfact>
</mgrwt>
</event>
<event>
 4    1  0.1390278E-004  0.2822810E+03  0.7818608E-02  0.1094450E+00
         -2   -1    0    0    0  501 -0.00000000000E+00  0.00000000000E+00  0.50256793623E+02  0.50256793688E+02  0.25500000000E-02 0. -1.
          2   -1    0    0  501    0  0.00000000000E+00 -0.00000000000E+00 -0.39637702660E+03  0.39637702660E+03  0.25500000000E-02 0.  1.
    5000001    1    1    2    0    0  0.21287186006E+02  0.56601560104E+02 -0.15469276538E+03  0.20908307572E+03  0.12700000000E+03 0.  0.
   -5000001    1    1    2    0    0 -0.21287186006E+02 -0.56601560104E+02 -0.19142746760E+03  0.23755074457E+03  0.12700000000E+03 0.  0.
<mgrwt>
<rscale>  0 0.28228098E+03</rscale>
<asrwt>0</asrwt>
<pdfrwt beam="1">  1        2 0.56625287E-01 0.28228098E+03</pdfrwt>
<pdfrwt beam="2">  1       -2 0.71795422E-02 0.28228098E+03</pdfrwt>
<totfact> 0.97414829E+03</totfact>
</mgrwt>
</event>
<event>
 4    1  0.1390278E-004  0.4712676E+03  0.7818608E-02  0.1021563E+00
          2   -1    0    0  501    0  0.00000000000E+00  0.00000000000E+00  0.52730716471E+04  0.52730716471E+04  0.25500000000E-02 0.  1.
         -2   -1    0    0    0  501 -0.00000000000E+00 -0.00000000000E+00 -0.10529589053E+02  0.10529589362E+02  0.25500000000E-02 0. -1.
    5000001    1    1    2    0    0  0.81022460137E+02  0.13742859846E+03  0.13074145479E+04  0.13232207143E+04  0.12700000000E+03 0.  0.
   -5000001    1    1    2    0    0 -0.81022460137E+02 -0.13742859846E+03  0.39551275101E+04  0.39603805221E+04  0.12700000000E+03 0.  0.
<mgrwt>
<rscale>  0 0.47126756E+03</rscale>
<asrwt>0</asrwt>
<pdfrwt beam="1">  1        2 0.75329988E+00 0.47126756E+03</pdfrwt>
<pdfrwt beam="2">  1       -2 0.15042192E-02 0.47126756E+03</pdfrwt>
<totfact> 0.73077663E+01</totfact>
</mgrwt>
</event>
<event>
 4    1  0.1390278E-004  0.3140239E+03  0.7818608E-02  0.1078433E+00
          2   -1    0    0  501    0  0.00000000000E+00  0.00000000000E+00  0.86557608975E+03  0.86557608976E+03  0.25500000000E-02 0.  1.
         -2   -1    0    0    0  501 -0.00000000000E+00 -0.00000000000E+00 -0.28481327573E+02  0.28481327687E+02  0.25500000000E-02 0. -1.
    5000001    1    1    2    0    0 -0.18060600650E+01  0.77670674403E+02  0.27654128937E+03  0.31407018362E+03  0.12700000000E+03 0.  0.
   -5000001    1    1    2    0    0  0.18060600650E+01 -0.77670674403E+02  0.56055347281E+03  0.57998723382E+03  0.12700000000E+03 0.  0.
<mgrwt>
<rscale>  0 0.31402392E+03</rscale>
<asrwt>0</asrwt>
<pdfrwt beam="1">  1        2 0.12365371E+00 0.31402392E+03</pdfrwt>
<pdfrwt beam="2">  1       -2 0.40687617E-02 0.31402392E+03</pdfrwt>
<totfact> 0.94669085E+03</totfact>
</mgrwt>
</event>
<event>
 4    1  0.1390278E-004  0.3295931E+03  0.7818608E-02  0.1071317E+00
          2   -1    0    0  501    0  0.00000000000E+00  0.00000000000E+00  0.11936354578E+04  0.11936354578E+04  0.25500000000E-02 0.  1.
         -2   -1    0    0    0  501 -0.00000000000E+00 -0.00000000000E+00 -0.22752254102E+02  0.22752254245E+02  0.25500000000E-02 0. -1.
    5000001    1    1    2    0    0 -0.10224668643E+03 -0.16016164961E+01  0.67370323369E+03  0.69315366056E+03  0.12700000000E+03 0.  0.
   -5000001    1    1    2    0    0  0.10224668643E+03  0.16016164961E+01  0.49717997000E+03  0.52323405148E+03  0.12700000000E+03 0.  0.
<mgrwt>
<rscale>  0 0.32959307E+03</rscale>
<asrwt>0</asrwt>
<pdfrwt beam="1">  1        2 0.17051931E+00 0.32959307E+03</pdfrwt>
<pdfrwt beam="2">  1       -2 0.32503228E-02 0.32959307E+03</pdfrwt>
<totfact> 0.85190956E+03</totfact>
</mgrwt>
</event>
<event>
 4    1  0.1390278E-004  0.6199750E+03  0.7818608E-02  0.9864810E-01
         -2   -1    0    0    0  501 -0.00000000000E+00  0.00000000000E+00  0.28402725202E+03  0.28402725203E+03  0.25500000000E-02 0. -1.
          2   -1    0    0  501    0  0.00000000000E+00 -0.00000000000E+00 -0.33832049542E+03  0.33832049543E+03  0.25500000000E-02 0.  1.
    5000001    1    1    2    0    0 -0.26546693558E+02  0.22655382742E+03 -0.19491458276E+03  0.32580984981E+03  0.12700000000E+03 0.  0.
   -5000001    1    1    2    0    0  0.26546693558E+02 -0.22655382742E+03  0.14062133937E+03  0.29653789765E+03  0.12700000000E+03 0.  0.
<mgrwt>
<rscale>  0 0.61997497E+03</rscale>
<asrwt>0</asrwt>
<pdfrwt beam="1">  1        2 0.48331499E-01 0.61997497E+03</pdfrwt>
<pdfrwt beam="2">  1       -2 0.40575322E-01 0.61997497E+03</pdfrwt>
<totfact> 0.60366108E+02</totfact>
</mgrwt>
</event>
<event>
 4    1  0.1390278E-004  0.3998003E+03  0.7818608E-02  0.1043849E+00
         -2   -1    0    0    0  501 -0.00000000000E+00  0.00000000000E+00  0.69032681454E+02  0.69032681501E+02  0.25500000000E-02 0. -1.
          2   -1    0    0  501    0  0.00000000000E+00 -0.00000000000E+00 -0.57885719281E+03  0.57885719281E+03  0.25500000000E-02 0.  1.
    5000001    1    1    2    0    0 -0.14812864943E+03 -0.13341522327E+02 -0.32194383622E+03  0.37669208470E+03  0.12700000000E+03 0.  0.
   -5000001    1    1    2    0    0  0.14812864943E+03  0.13341522327E+02 -0.18788067514E+03  0.27119778961E+03  0.12700000000E+03 0.  0.
<mgrwt>
<rscale>  0 0.39980027E+03</rscale>
<asrwt>0</asrwt>
<pdfrwt beam="1">  1        2 0.82693882E-01 0.39980027E+03</pdfrwt>
<pdfrwt beam="2">  1       -2 0.98618119E-02 0.39980027E+03</pdfrwt>
<totfact> 0.39167035E+03</totfact>
</mgrwt>
</event>
<event>
 4    1  0.1390278E-004  0.5164257E+03  0.7818608E-02  0.1009578E+00
         -2   -1    0    0    0  501 -0.00000000000E+00  0.00000000000E+00  0.34902711031E+03  0.34902711032E+03  0.25500000000E-02 0. -1.
          2   -1    0    0  501    0  0.00000000000E+00 -0.00000000000E+00 -0.19102776186E+03  0.19102776188E+03  0.25500000000E-02 0.  1.
    5000001    1    1    2    0    0 -0.61225815208E+01 -0.22252443969E+03  0.11190784104E+03  0.27965510392E+03  0.12700000000E+03 0.  0.
   -5000001    1    1    2    0    0  0.61225815208E+01  0.22252443969E+03  0.46091507417E+02  0.26039976828E+03  0.12700000000E+03 0.  0.
<mgrwt>
<rscale>  0 0.51642567E+03</rscale>
<asrwt>0</asrwt>
<pdfrwt beam="1">  1        2 0.27289680E-01 0.51642567E+03</pdfrwt>
<pdfrwt beam="2">  1       -2 0.49861016E-01 0.51642567E+03</pdfrwt>
<totfact> 0.75798889E+02</totfact>
</mgrwt>
</event>
<event>
 4    1  0.1390278E-004  0.4117853E+03  0.7818608E-02  0.1039774E+00
          2   -1    0    0  501    0  0.00000000000E+00  0.00000000000E+00  0.76203872093E+03  0.76203872093E+03  0.25500000000E-02 0.  1.
         -2   -1    0    0    0  501 -0.00000000000E+00 -0.00000000000E+00 -0.55629423634E+02  0.55629423692E+02  0.25500000000E-02 0. -1.
    5000001    1    1    2    0    0 -0.95638413854E+02 -0.12769346061E+03  0.40973335756E+03  0.45767100671E+03  0.12700000000E+03 0.  0.
   -5000001    1    1    2    0    0  0.95638413854E+02  0.12769346061E+03  0.29667593974E+03  0.35999713791E+03  0.12700000000E+03 0.  0.
<mgrwt>
<rscale>  0 0.41178526E+03</rscale>
<asrwt>0</asrwt>
<pdfrwt beam="1">  1        2 0.10886268E+00 0.41178526E+03</pdfrwt>
<pdfrwt beam="2">  1       -2 0.79470604E-02 0.41178526E+03</pdfrwt>
<totfact> 0.39817685E+03</totfact>
</mgrwt>
</event>
<event>
 4    1  0.1390278E-004  0.4478560E+03  0.7818608E-02  0.1028363E+00
         -2   -1    0    0    0  501 -0.00000000000E+00  0.00000000000E+00  0.31954259949E+03  0.31954259950E+03  0.25500000000E-02 0. -1.
          2   -1    0    0  501    0  0.00000000000E+00 -0.00000000000E+00 -0.15692349563E+03  0.15692349565E+03  0.25500000000E-02 0.  1.
    5000001    1    1    2    0    0 -0.14165735995E+03 -0.56350972077E+02  0.19173061654E+03  0.27592004095E+03  0.12700000000E+03 0.  0.
   -5000001    1    1    2    0    0  0.14165735995E+03  0.56350972077E+02 -0.29111512677E+02  0.20054605419E+03  0.12700000000E+03 0.  0.
<mgrwt>
<rscale>  0 0.44785597E+03</rscale>
<asrwt>0</asrwt>
<pdfrwt beam="1">  1        2 0.22417642E-01 0.44785597E+03</pdfrwt>
<pdfrwt beam="2">  1       -2 0.45648943E-01 0.44785597E+03</pdfrwt>
<totfact> 0.11307787E+03</totfact>
</mgrwt>
</event>
<event>
 4    1  0.1390278E-004  0.4344494E+03  0.7818608E-02  0.1032464E+00
         -2   -1    0    0    0  501 -0.00000000000E+00  0.00000000000E+00  0.90159626782E+02  0.90159626818E+02  0.25500000000E-02 0. -1.
          2   -1    0    0  501    0  0.00000000000E+00 -0.00000000000E+00 -0.52336694607E+03  0.52336694608E+03  0.25500000000E-02 0.  1.
    5000001    1    1    2    0    0  0.39452483105E+02  0.15319883334E+03 -0.32627561883E+03  0.38420197865E+03  0.12700000000E+03 0.  0.
   -5000001    1    1    2    0    0 -0.39452483105E+02 -0.15319883334E+03 -0.10693170046E+03  0.22932459424E+03  0.12700000000E+03 0.  0.
<mgrwt>
<rscale>  0 0.43444939E+03</rscale>
<asrwt>0</asrwt>
<pdfrwt beam="1">  1        2 0.74766705E-01 0.43444939E+03</pdfrwt>
<pdfrwt beam="2">  1       -2 0.12879947E-01 0.43444939E+03</pdfrwt>
<totfact> 0.28523248E+03</totfact>
</mgrwt>
</event>
<event>
 4    1  0.1390278E-004  0.4066177E+03  0.7818608E-02  0.1041512E+00
          2   -1    0    0  501    0  0.00000000000E+00  0.00000000000E+00  0.42003239296E+03  0.42003239297E+03  0.25500000000E-02 0.  1.
         -2   -1    0    0    0  501 -0.00000000000E+00 -0.00000000000E+00 -0.98407866976E+02  0.98407867009E+02  0.25500000000E-02 0. -1.
    5000001    1    1    2    0    0 -0.49158283434E+02  0.14444808581E+03  0.21673413747E+03  0.29391235542E+03  0.12700000000E+03 0.  0.
   -5000001    1    1    2    0    0  0.49158283434E+02 -0.14444808581E+03  0.10489038852E+03  0.22452790456E+03  0.12700000000E+03 0.  0.
<mgrwt>
<rscale>  0 0.40661772E+03</rscale>
<asrwt>0</asrwt>
<pdfrwt beam="1">  1        2 0.60004627E-01 0.40661772E+03</pdfrwt>
<pdfrwt beam="2">  1       -2 0.14058267E-01 0.40661772E+03</pdfrwt>
<totfact> 0.31518738E+03</totfact>
</mgrwt>
</event>
<event>
 4    1  0.1390278E-004  0.4147155E+03  0.7818608E-02  0.1038800E+00
         -2   -1    0    0    0  501 -0.00000000000E+00  0.00000000000E+00  0.13706249472E+02  0.13706249709E+02  0.25500000000E-02 0. -1.
          2   -1    0    0  501    0  0.00000000000E+00 -0.00000000000E+00 -0.31370531590E+04  0.31370531590E+04  0.25500000000E-02 0.  1.
    5000001    1    1    2    0    0  0.87293674544E+02 -0.50562191021E+02 -0.58012252447E+03  0.60236854514E+03  0.12700000000E+03 0.  0.
   -5000001    1    1    2    0    0 -0.87293674544E+02  0.50562191021E+02 -0.25432243851E+04  0.25483908636E+04  0.12700000000E+03 0.  0.
<mgrwt>
<rscale>  0 0.41471549E+03</rscale>
<asrwt>0</asrwt>
<pdfrwt beam="1">  1        2 0.44814999E+00 0.41471549E+03</pdfrwt>
<pdfrwt beam="2">  1       -2 0.19580377E-02 0.41471549E+03</pdfrwt>
<totfact> 0.18405161E+03</totfact>
</mgrwt>
</event>
<event>
 4    1  0.1390278E-004  0.7392335E+03  0.7818608E-02  0.9652394E-01
         -2   -1    0    0    0  501 -0.00000000000E+00  0.00000000000E+00  0.13914763862E+03  0.13914763864E+03  0.25500000000E-02 0. -1.
          2   -1    0    0  501    0  0.00000000000E+00 -0.00000000000E+00 -0.98181003315E+03  0.98181003315E+03  0.25500000000E-02 0.  1.
    5000001    1    1    2    0    0 -0.16679021225E+03  0.30438609793E+03 -0.42770651532E+03  0.56527138152E+03  0.12700000000E+03 0.  0.
   -5000001    1    1    2    0    0  0.16679021225E+03 -0.30438609793E+03 -0.41495587920E+03  0.55568629027E+03  0.12700000000E+03 0.  0.
<mgrwt>
<rscale>  0 0.73923352E+03</rscale>
<asrwt>0</asrwt>
<pdfrwt beam="1">  1        2 0.14025857E+00 0.73923352E+03</pdfrwt>
<pdfrwt beam="2">  1       -2 0.19878235E-01 0.73923352E+03</pdfrwt>
<totfact> 0.62402821E+02</totfact>
</mgrwt>
</event>
<event>
 4    1  0.1390278E-004  0.2769329E+03  0.7818608E-02  0.1097376E+00
         -2   -1    0    0    0  501 -0.00000000000E+00  0.00000000000E+00  0.35866771504E+02  0.35866771594E+02  0.25500000000E-02 0. -1.
          2   -1    0    0  501    0  0.00000000000E+00 -0.00000000000E+00 -0.53456039659E+03  0.53456039660E+03  0.25500000000E-02 0.  1.
    5000001    1    1    2    0    0 -0.34730174987E+02 -0.35952314810E+02 -0.20125133445E+03  0.24316630855E+03  0.12700000000E+03 0.  0.
   -5000001    1    1    2    0    0  0.34730174987E+02  0.35952314810E+02 -0.29744229064E+03  0.32726085965E+03  0.12700000000E+03 0.  0.
<mgrwt>
<rscale>  0 0.27693288E+03</rscale>
<asrwt>0</asrwt>
<pdfrwt beam="1">  1        2 0.76365766E-01 0.27693288E+03</pdfrwt>
<pdfrwt beam="2">  1       -2 0.51238248E-02 0.27693288E+03</pdfrwt>
<totfact> 0.11773179E+04</totfact>
</mgrwt>
</event>
<event>
 4    1  0.1390278E-004  0.3817842E+03  0.7818608E-02  0.1050276E+00
         -2   -1    0    0    0  501 -0.00000000000E+00  0.00000000000E+00  0.38265142864E+02  0.38265142949E+02  0.25500000000E-02 0. -1.
          2   -1    0    0  501    0  0.00000000000E+00 -0.00000000000E+00 -0.95229711281E+03  0.95229711281E+03  0.25500000000E-02 0.  1.
    5000001    1    1    2    0    0 -0.97476515827E+02  0.91835928132E+02 -0.33056537101E+03  0.37860001763E+03  0.12700000000E+03 0.  0.
   -5000001    1    1    2    0    0  0.97476515827E+02 -0.91835928132E+02 -0.58346659893E+03  0.61196223814E+03  0.12700000000E+03 0.  0.
<mgrwt>
<rscale>  0 0.38178415E+03</rscale>
<asrwt>0</asrwt>
<pdfrwt beam="1">  1        2 0.13604243E+00 0.38178415E+03</pdfrwt>
<pdfrwt beam="2">  1       -2 0.54664496E-02 0.38178415E+03</pdfrwt>
<totfact> 0.53464721E+03</totfact>
</mgrwt>
</event>
<event>
 4    1  0.1390278E-004  0.3735628E+03  0.7818608E-02  0.1053339E+00
         -2   -1    0    0    0  501 -0.00000000000E+00  0.00000000000E+00  0.37237239772E+02  0.37237239859E+02  0.25500000000E-02 0. -1.
          2   -1    0    0  501    0  0.00000000000E+00 -0.00000000000E+00 -0.93689234544E+03  0.93689234545E+03  0.25500000000E-02 0.  1.
    5000001    1    1    2    0    0 -0.40678398432E+02 -0.97205164639E+02 -0.22167912041E+03  0.27635884020E+03  0.12700000000E+03 0.  0.
   -5000001    1    1    2    0    0  0.40678398432E+02  0.97205164639E+02 -0.67797598526E+03  0.69777074511E+03  0.12700000000E+03 0.  0.
<mgrwt>
<rscale>  0 0.37356277E+03</rscale>
<asrwt>0</asrwt>
<pdfrwt beam="1">  1        2 0.13384175E+00 0.37356277E+03</pdfrwt>
<pdfrwt beam="2">  1       -2 0.53196063E-02 0.37356277E+03</pdfrwt>
<totfact> 0.56964559E+03</totfact>
</mgrwt>
</event>
<event>
 4    1  0.1390278E-004  0.3646159E+03  0.7818608E-02  0.1056771E+00
         -2   -1    0    0    0  501 -0.00000000000E+00  0.00000000000E+00  0.82351424853E+01  0.82351428801E+01  0.25500000000E-02 0. -1.
          2   -1    0    0  501    0  0.00000000000E+00 -0.00000000000E+00 -0.40358976069E+04  0.40358976069E+04  0.25500000000E-02 0.  1.
    5000001    1    1    2    0    0  0.10582190958E+03 -0.16761795424E+02 -0.11817509905E+04  0.11933748941E+04  0.12700000000E+03 0.  0.
   -5000001    1    1    2    0    0 -0.10582190958E+03  0.16761795424E+02 -0.28459114740E+04  0.28507578558E+04  0.12700000000E+03 0.  0.
<mgrwt>
<rscale>  0 0.36461592E+03</rscale>
<asrwt>0</asrwt>
<pdfrwt beam="1">  1        2 0.57655554E+00 0.36461592E+03</pdfrwt>
<pdfrwt beam="2">  1       -2 0.11764515E-02 0.36461592E+03</pdfrwt>
<totfact> 0.11357171E+03</totfact>
</mgrwt>
</event>
<event>
 4    1  0.1390278E-004  0.3472891E+03  0.7818608E-02  0.1063733E+00
          2   -1    0    0  501    0  0.00000000000E+00  0.00000000000E+00  0.14284869152E+03  0.14284869154E+03  0.25500000000E-02 0.  1.
         -2   -1    0    0    0  501 -0.00000000000E+00 -0.00000000000E+00 -0.21107947638E+03  0.21107947640E+03  0.25500000000E-02 0. -1.
    5000001    1    1    2    0    0  0.96489428518E+02  0.27691232467E+02  0.29906020238E+02  0.16462194331E+03  0.12700000000E+03 0.  0.
   -5000001    1    1    2    0    0 -0.96489428518E+02 -0.27691232467E+02 -0.98136805099E+02  0.18930622464E+03  0.12700000000E+03 0.  0.
<mgrwt>
<rscale>  0 0.34728908E+03</rscale>
<asrwt>0</asrwt>
<pdfrwt beam="1">  1        2 0.20406956E-01 0.34728908E+03</pdfrwt>
<pdfrwt beam="2">  1       -2 0.30154211E-01 0.34728908E+03</pdfrwt>
<totfact> 0.27604200E+03</totfact>
</mgrwt>
</event>
<event>
 4    1  0.1390278E-004  0.5018130E+03  0.7818608E-02  0.1013307E+00
         -2   -1    0    0    0  501 -0.00000000000E+00  0.00000000000E+00  0.17681080419E+03  0.17681080421E+03  0.25500000000E-02 0. -1.
          2   -1    0    0  501    0  0.00000000000E+00 -0.00000000000E+00 -0.35605335675E+03  0.35605335676E+03  0.25500000000E-02 0.  1.
    5000001    1    1    2    0    0 -0.59418728500E+02 -0.19682021108E+03 -0.17944129546E+02  0.24232163042E+03  0.12700000000E+03 0.  0.
   -5000001    1    1    2    0    0  0.59418728500E+02  0.19682021108E+03 -0.16129842302E+03  0.29054253054E+03  0.12700000000E+03 0.  0.
<mgrwt>
<rscale>  0 0.50181303E+03</rscale>
<asrwt>0</asrwt>
<pdfrwt beam="1">  1        2 0.50864765E-01 0.50181303E+03</pdfrwt>
<pdfrwt beam="2">  1       -2 0.25258687E-01 0.50181303E+03</pdfrwt>
<totfact> 0.13828565E+03</totfact>
</mgrwt>
</event>
<event>
 4    1  0.1390278E-004  0.2983031E+03  0.7818608E-02  0.1086092E+00
         -2   -1    0    0    0  501 -0.00000000000E+00  0.00000000000E+00  0.10888514907E+03  0.10888514910E+03  0.25500000000E-02 0. -1.
          2   -1    0    0  501    0  0.00000000000E+00 -0.00000000000E+00 -0.20430870704E+03  0.20430870706E+03  0.25500000000E-02 0.  1.
    5000001    1    1    2    0    0 -0.11476118626E+02  0.74842678735E+02 -0.68287395136E+02  0.16286588407E+03  0.12700000000E+03 0.  0.
   -5000001    1    1    2    0    0  0.11476118626E+02 -0.74842678735E+02 -0.27136162832E+02  0.15032797209E+03  0.12700000000E+03 0.  0.
<mgrwt>
<rscale>  0 0.29830309E+03</rscale>
<asrwt>0</asrwt>
<pdfrwt beam="1">  1        2 0.29186958E-01 0.29830309E+03</pdfrwt>
<pdfrwt beam="2">  1       -2 0.15555021E-01 0.29830309E+03</pdfrwt>
<totfact> 0.58052706E+03</totfact>
</mgrwt>
</event>
<event>
 4    1  0.1390278E-004  0.4292154E+03  0.7818608E-02  0.1034108E+00
         -2   -1    0    0    0  501 -0.00000000000E+00  0.00000000000E+00  0.88204592890E+02  0.88204592927E+02  0.25500000000E-02 0. -1.
          2   -1    0    0  501    0  0.00000000000E+00 -0.00000000000E+00 -0.52215488450E+03  0.52215488451E+03  0.25500000000E-02 0.  1.
    5000001    1    1    2    0    0 -0.36400011318E+02 -0.14860502037E+03 -0.33179115602E+03  0.38681104446E+03  0.12700000000E+03 0.  0.
   -5000001    1    1    2    0    0  0.36400011318E+02  0.14860502037E+03 -0.10215913559E+03  0.22354843298E+03  0.12700000000E+03 0.  0.
<mgrwt>
<rscale>  0 0.42921537E+03</rscale>
<asrwt>0</asrwt>
<pdfrwt beam="1">  1        2 0.74593553E-01 0.42921537E+03</pdfrwt>
<pdfrwt beam="2">  1       -2 0.12600656E-01 0.42921537E+03</pdfrwt>
<totfact> 0.29642434E+03</totfact>
</mgrwt>
</event>
<event>
 4    1  0.1390278E-004  0.3398762E+03  0.7818608E-02  0.1066849E+00
          2   -1    0    0  501    0  0.00000000000E+00  0.00000000000E+00  0.91941179860E+03  0.91941179860E+03  0.25500000000E-02 0.  1.
         -2   -1    0    0    0  501 -0.00000000000E+00 -0.00000000000E+00 -0.31410254755E+02  0.31410254859E+02  0.25500000000E-02 0. -1.
    5000001    1    1    2    0    0  0.81775397370E+02  0.76305368514E+02  0.48736141477E+03  0.51590684575E+03  0.12700000000E+03 0.  0.
   -5000001    1    1    2    0    0 -0.81775397370E+02 -0.76305368514E+02  0.40064012907E+03  0.43491520771E+03  0.12700000000E+03 0.  0.
<mgrwt>
<rscale>  0 0.33987621E+03</rscale>
<asrwt>0</asrwt>
<pdfrwt beam="1">  1        2 0.13134453E+00 0.33987621E+03</pdfrwt>
<pdfrwt beam="2">  1       -2 0.44871798E-02 0.33987621E+03</pdfrwt>
<totfact> 0.75617888E+03</totfact>
</mgrwt>
</event>
<event>
 4    1  0.1390278E-004  0.3181362E+03  0.7818608E-02  0.1076510E+00
         -2   -1    0    0    0  501 -0.00000000000E+00  0.00000000000E+00  0.33268405473E+03  0.33268405474E+03  0.25500000000E-02 0. -1.
          2   -1    0    0  501    0  0.00000000000E+00 -0.00000000000E+00 -0.76056144936E+02  0.76056144978E+02  0.25500000000E-02 0.  1.
    5000001    1    1    2    0    0 -0.90742622462E+02  0.17774461663E+02  0.96232319028E+02  0.18422761531E+03  0.12700000000E+03 0.  0.
   -5000001    1    1    2    0    0  0.90742622462E+02 -0.17774461663E+02  0.16039559077E+03  0.22451258441E+03  0.12700000000E+03 0.  0.
<mgrwt>
<rscale>  0 0.31813624E+03</rscale>
<asrwt>0</asrwt>
<pdfrwt beam="1">  1        2 0.10865164E-01 0.31813624E+03</pdfrwt>
<pdfrwt beam="2">  1       -2 0.47526293E-01 0.31813624E+03</pdfrwt>
<totfact> 0.24620873E+03</totfact>
</mgrwt>
</event>
<event>
 4    1  0.1390278E-004  0.4328000E+03  0.7818608E-02  0.1032979E+00
          2   -1    0    0  501    0  0.00000000000E+00  0.00000000000E+00  0.62342234431E+03  0.62342234432E+03  0.25500000000E-02 0.  1.
         -2   -1    0    0    0  501 -0.00000000000E+00 -0.00000000000E+00 -0.75115934872E+02  0.75115934915E+02  0.25500000000E-02 0. -1.
    5000001    1    1    2    0    0 -0.61493059549E+02  0.15340193721E+03  0.18023014785E+03  0.27554574377E+03  0.12700000000E+03 0.  0.
   -5000001    1    1    2    0    0  0.61493059549E+02 -0.15340193721E+03  0.36807626159E+03  0.42299253546E+03  0.12700000000E+03 0.  0.
<mgrwt>
<rscale>  0 0.43279996E+03</rscale>
<asrwt>0</asrwt>
<pdfrwt beam="1">  1        2 0.89060336E-01 0.43279996E+03</pdfrwt>
<pdfrwt beam="2">  1       -2 0.10730848E-01 0.43279996E+03</pdfrwt>
<totfact> 0.31401486E+03</totfact>
</mgrwt>
</event>
<event>
 4    1  0.1390278E-004  0.4492630E+03  0.7818608E-02  0.1027942E+00
         -2   -1    0    0    0  501 -0.00000000000E+00  0.00000000000E+00  0.18602859906E+02  0.18602860081E+02  0.25500000000E-02 0. -1.
          2   -1    0    0  501    0  0.00000000000E+00 -0.00000000000E+00 -0.27124491289E+04  0.27124491289E+04  0.25500000000E-02 0.  1.
    5000001    1    1    2    0    0  0.12507686050E+03 -0.13479932472E+03 -0.14849078236E+04  0.15016308880E+04  0.12700000000E+03 0.  0.
   -5000001    1    1    2    0    0 -0.12507686050E+03  0.13479932472E+03 -0.12089384454E+04  0.12294211011E+04  0.12700000000E+03 0.  0.
<mgrwt>
<rscale>  0 0.44926300E+03</rscale>
<asrwt>0</asrwt>
<pdfrwt beam="1">  1        2 0.38749248E+00 0.44926300E+03</pdfrwt>
<pdfrwt beam="2">  1       -2 0.26575532E-02 0.44926300E+03</pdfrwt>
<totfact> 0.19573024E+03</totfact>
</mgrwt>
</event>
<event>
 4    1  0.1390278E-004  0.3914742E+03  0.7818608E-02  0.1046772E+00
          2   -1    0    0  501    0  0.00000000000E+00  0.00000000000E+00  0.14251454214E+03  0.14251454216E+03  0.25500000000E-02 0.  1.
         -2   -1    0    0    0  501 -0.00000000000E+00 -0.00000000000E+00 -0.26883579838E+03  0.26883579840E+03  0.25500000000E-02 0. -1.
    5000001    1    1    2    0    0 -0.13567324270E+03 -0.47958667422E+02 -0.10354022174E+03  0.21807530829E+03  0.12700000000E+03 0.  0.
   -5000001    1    1    2    0    0  0.13567324270E+03  0.47958667422E+02 -0.22781034502E+02  0.19327503227E+03  0.12700000000E+03 0.  0.
<mgrwt>
<rscale>  0 0.39147419E+03</rscale>
<asrwt>0</asrwt>
<pdfrwt beam="1">  1        2 0.20359220E-01 0.39147419E+03</pdfrwt>
<pdfrwt beam="2">  1       -2 0.38405114E-01 0.39147419E+03</pdfrwt>
<totfact> 0.17654853E+03</totfact>
</mgrwt>
</event>
<event>
 4    1  0.1390278E-004  0.3091536E+03  0.7818608E-02  0.1080752E+00
         -2   -1    0    0    0  501 -0.00000000000E+00  0.00000000000E+00  0.26169797673E+02  0.26169797797E+02  0.25500000000E-02 0. -1.
          2   -1    0    0  501    0  0.00000000000E+00 -0.00000000000E+00 -0.91303662931E+03  0.91303662932E+03  0.25500000000E-02 0.  1.
    5000001    1    1    2    0    0  0.74109922196E+02  0.44585117591E+02 -0.39215783111E+03  0.42118508732E+03  0.12700000000E+03 0.  0.
   -5000001    1    1    2    0    0 -0.74109922196E+02 -0.44585117591E+02 -0.49470900053E+03  0.51802133980E+03  0.12700000000E+03 0.  0.
<mgrwt>
<rscale>  0 0.30915358E+03</rscale>
<asrwt>0</asrwt>
<pdfrwt beam="1">  1        2 0.13043378E+00 0.30915358E+03</pdfrwt>
<pdfrwt beam="2">  1       -2 0.37385431E-02 0.30915358E+03</pdfrwt>
<totfact> 0.10031811E+04</totfact>
</mgrwt>
</event>
<event>
 4    1  0.1390278E-004  0.3467956E+03  0.7818608E-02  0.1063938E+00
          2   -1    0    0  501    0  0.00000000000E+00  0.00000000000E+00  0.54218593593E+03  0.54218593594E+03  0.25500000000E-02 0.  1.
         -2   -1    0    0    0  501 -0.00000000000E+00 -0.00000000000E+00 -0.55454771761E+02  0.55454771819E+02  0.25500000000E-02 0. -1.
    5000001    1    1    2    0    0  0.44413635427E+02  0.10585663072E+03  0.19586935764E+03  0.26013842958E+03  0.12700000000E+03 0.  0.
   -5000001    1    1    2    0    0 -0.44413635427E+02 -0.10585663072E+03  0.29086180653E+03  0.33750227818E+03  0.12700000000E+03 0.  0.
<mgrwt>
<rscale>  0 0.34679560E+03</rscale>
<asrwt>0</asrwt>
<pdfrwt beam="1">  1        2 0.77455139E-01 0.34679560E+03</pdfrwt>
<pdfrwt beam="2">  1       -2 0.79221098E-02 0.34679560E+03</pdfrwt>
<totfact> 0.59552343E+03</totfact>
</mgrwt>
</event>
<event>
 4    1  0.1390278E-004  0.4438936E+03  0.7818608E-02  0.1029559E+00
         -2   -1    0    0    0  501 -0.00000000000E+00  0.00000000000E+00  0.36512855209E+02  0.36512855298E+02  0.25500000000E-02 0. -1.
          2   -1    0    0  501    0  0.00000000000E+00 -0.00000000000E+00 -0.13491244330E+04  0.13491244330E+04  0.25500000000E-02 0.  1.
    5000001    1    1    2    0    0  0.20305388856E+02  0.94845742734E+02 -0.11370994988E+04  0.11482736146E+04  0.12700000000E+03 0.  0.
   -5000001    1    1    2    0    0 -0.20305388856E+02 -0.94845742734E+02 -0.17551207893E+03  0.23736367368E+03  0.12700000000E+03 0.  0.
<mgrwt>
<rscale>  0 0.44389361E+03</rscale>
<asrwt>0</asrwt>
<pdfrwt beam="1">  1        2 0.19273203E+00 0.44389361E+03</pdfrwt>
<pdfrwt beam="2">  1       -2 0.52161230E-02 0.44389361E+03</pdfrwt>
<totfact> 0.34324255E+03</totfact>
</mgrwt>
</event>
<event>
 4    1  0.1390278E-004  0.5107612E+03  0.7818608E-02  0.1011008E+00
          2   -1    0    0  501    0  0.00000000000E+00  0.00000000000E+00  0.18387579216E+03  0.18387579218E+03  0.25500000000E-02 0.  1.
         -2   -1    0    0    0  501 -0.00000000000E+00 -0.00000000000E+00 -0.35469184382E+03  0.35469184383E+03  0.25500000000E-02 0. -1.
    5000001    1    1    2    0    0  0.20793104333E+03 -0.48713912189E+02 -0.14762791893E+03  0.28901793451E+03  0.12700000000E+03 0.  0.
   -5000001    1    1    2    0    0 -0.20793104333E+03  0.48713912189E+02 -0.23188132729E+02  0.24954970150E+03  0.12700000000E+03 0.  0.
<mgrwt>
<rscale>  0 0.51076117E+03</rscale>
<asrwt>0</asrwt>
<pdfrwt beam="1">  1        2 0.26267970E-01 0.51076117E+03</pdfrwt>
<pdfrwt beam="2">  1       -2 0.50670263E-01 0.51076117E+03</pdfrwt>
<totfact> 0.76608944E+02</totfact>
</mgrwt>
</event>
<event>
 4    1  0.1390278E-004  0.4761908E+03  0.7818608E-02  0.1020187E+00
         -2   -1    0    0    0  501 -0.00000000000E+00  0.00000000000E+00  0.32349769505E+02  0.32349769605E+02  0.25500000000E-02 0. -1.
          2   -1    0    0  501    0  0.00000000000E+00 -0.00000000000E+00 -0.17523898921E+04  0.17523898921E+04  0.25500000000E-02 0.  1.
    5000001    1    1    2    0    0 -0.54635993977E+02  0.69678105577E+02 -0.18206265015E+03  0.23898941151E+03  0.12700000000E+03 0.  0.
   -5000001    1    1    2    0    0  0.54635993977E+02 -0.69678105577E+02 -0.15379774724E+04  0.15457502502E+04  0.12700000000E+03 0.  0.
<mgrwt>
<rscale>  0 0.47619076E+03</rscale>
<asrwt>0</asrwt>
<pdfrwt beam="1">  1        2 0.25034135E+00 0.47619076E+03</pdfrwt>
<pdfrwt beam="2">  1       -2 0.46213967E-02 0.47619076E+03</pdfrwt>
<totfact> 0.25661734E+03</totfact>
</mgrwt>
</event>
<event>
 4    1  0.1390278E-004  0.2840154E+03  0.7818608E-02  0.1093516E+00
          2   -1    0    0  501    0  0.00000000000E+00  0.00000000000E+00  0.79236181059E+03  0.79236181059E+03  0.25500000000E-02 0.  1.
         -2   -1    0    0    0  501 -0.00000000000E+00 -0.00000000000E+00 -0.25450728231E+02  0.25450728359E+02  0.25500000000E-02 0. -1.
    5000001    1    1    2    0    0  0.53906691759E+02 -0.33014203144E+02  0.36494702032E+03  0.39154973716E+03  0.12700000000E+03 0.  0.
   -5000001    1    1    2    0    0 -0.53906691759E+02  0.33014203144E+02  0.40196406203E+03  0.42626280179E+03  0.12700000000E+03 0.  0.
<mgrwt>
<rscale>  0 0.28401539E+03</rscale>
<asrwt>0</asrwt>
<pdfrwt beam="1">  1        2 0.11319453E+00 0.28401539E+03</pdfrwt>
<pdfrwt beam="2">  1       -2 0.36358189E-02 0.28401539E+03</pdfrwt>
<totfact> 0.12490777E+04</totfact>
</mgrwt>
</event>
<event>
 4    1  0.1390278E-004  0.3346947E+03  0.7818608E-02  0.1069078E+00
         -2   -1    0    0    0  501 -0.00000000000E+00  0.00000000000E+00  0.40189743650E+02  0.40189743731E+02  0.25500000000E-02 0. -1.
          2   -1    0    0  501    0  0.00000000000E+00 -0.00000000000E+00 -0.69682301618E+03  0.69682301618E+03  0.25500000000E-02 0.  1.
    5000001    1    1    2    0    0 -0.83098534793E+02 -0.63772075892E+02 -0.26211252394E+03  0.30952256680E+03  0.12700000000E+03 0.  0.
   -5000001    1    1    2    0    0  0.83098534793E+02  0.63772075892E+02 -0.39452074858E+03  0.42749019312E+03  0.12700000000E+03 0.  0.
<mgrwt>
<rscale>  0 0.33469472E+03</rscale>
<asrwt>0</asrwt>
<pdfrwt beam="1">  1        2 0.99546138E-01 0.33469472E+03</pdfrwt>
<pdfrwt beam="2">  1       -2 0.57413924E-02 0.33469472E+03</pdfrwt>
<totfact> 0.73356746E+03</totfact>
</mgrwt>
</event>
<event>
 4    1  0.1390278E-004  0.3464196E+03  0.7818608E-02  0.1064094E+00
         -2   -1    0    0    0  501 -0.00000000000E+00  0.00000000000E+00  0.24918241442E+02  0.24918241572E+02  0.25500000000E-02 0. -1.
          2   -1    0    0  501    0  0.00000000000E+00 -0.00000000000E+00 -0.12040030758E+04  0.12040030758E+04  0.25500000000E-02 0.  1.
    5000001    1    1    2    0    0  0.79633969100E+02 -0.42393957647E+02 -0.85816574185E+03  0.87219049362E+03  0.12700000000E+03 0.  0.
   -5000001    1    1    2    0    0 -0.79633969100E+02  0.42393957647E+02 -0.32091909252E+03  0.35673082376E+03  0.12700000000E+03 0.  0.
<mgrwt>
<rscale>  0 0.34641963E+03</rscale>
<asrwt>0</asrwt>
<pdfrwt beam="1">  1        2 0.17200040E+00 0.34641963E+03</pdfrwt>
<pdfrwt beam="2">  1       -2 0.35597495E-02 0.34641963E+03</pdfrwt>
<totfact> 0.73411064E+03</totfact>
</mgrwt>
</event>
<event>
 4    1  0.1390278E-004  0.3457266E+03  0.7818608E-02  0.1064383E+00
         -2   -1    0    0    0  501 -0.00000000000E+00  0.00000000000E+00  0.65488987891E+03  0.65488987891E+03  0.25500000000E-02 0.  1.
          2   -1    0    0  501    0  0.00000000000E+00 -0.00000000000E+00 -0.45628620341E+02  0.45628620413E+02  0.25500000000E-02 0. -1.
    5000001    1    1    2    0    0 -0.53689306482E+01  0.11572543126E+03  0.34152347956E+03  0.38234603169E+03  0.12700000000E+03 0.  0.
   -5000001    1    1    2    0    0  0.53689306482E+01 -0.11572543126E+03  0.26773777901E+03  0.31817246764E+03  0.12700000000E+03 0.  0.
<mgrwt>
<rscale>  0 0.34572661E+03</rscale>
<asrwt>0</asrwt>
<pdfrwt beam="1">  1        2 0.65183747E-02 0.34572661E+03</pdfrwt>
<pdfrwt beam="2">  1       -2 0.93555692E-01 0.34572661E+03</pdfrwt>
<totfact> 0.11157294E+03</totfact>
</mgrwt>
</event>
<event>
 4    1  0.1390278E-004  0.2719046E+03  0.7818608E-02  0.1100194E+00
          2   -1    0    0  501    0  0.00000000000E+00  0.00000000000E+00  0.79379543649E+03  0.79379543649E+03  0.25500000000E-02 0.  1.
         -2   -1    0    0    0  501 -0.00000000000E+00 -0.00000000000E+00 -0.23284365698E+02  0.23284365837E+02  0.25500000000E-02 0. -1.
    5000001    1    1    2    0    0  0.39508562385E+02 -0.76414508553E+01  0.30380302440E+03  0.33172970308E+03  0.12700000000E+03 0.  0.
   -5000001    1    1    2    0    0 -0.39508562385E+02  0.76414508553E+01  0.46670804639E+03  0.48535009925E+03  0.12700000000E+03 0.  0.
<mgrwt>
<rscale>  0 0.27190457E+03</rscale>
<asrwt>0</asrwt>
<pdfrwt beam="1">  1        2 0.11339936E+00 0.27190457E+03</pdfrwt>
<pdfrwt beam="2">  1       -2 0.33263376E-02 0.27190457E+03</pdfrwt>
<totfact> 0.14212658E+04</totfact>
</mgrwt>
</event>
<event>
 4    1  0.1390278E-004  0.3680372E+03  0.7818608E-02  0.1055446E+00
         -2   -1    0    0    0  501 -0.00000000000E+00  0.00000000000E+00  0.12280867490E+02  0.12280867755E+02  0.25500000000E-02 0. -1.
          2   -1    0    0  501    0  0.00000000000E+00 -0.00000000000E+00 -0.27573663660E+04  0.27573663660E+04  0.25500000000E-02 0.  1.
    5000001    1    1    2    0    0  0.68299434697E+02  0.95442604174E+02 -0.18460934306E+04  0.18541747647E+04  0.12700000000E+03 0.  0.
   -5000001    1    1    2    0    0 -0.68299434697E+02 -0.95442604174E+02 -0.89899206787E+03  0.91547246904E+03  0.12700000000E+03 0.  0.
<mgrwt>
<rscale>  0 0.36803723E+03</rscale>
<asrwt>0</asrwt>
<pdfrwt beam="1">  1        2 0.39390908E+00 0.36803723E+03</pdfrwt>
<pdfrwt beam="2">  1       -2 0.17544114E-02 0.36803723E+03</pdfrwt>
<totfact> 0.34642048E+03</totfact>
</mgrwt>
</event>
<event>
 4    1  0.1390278E-004  0.3932085E+03  0.7818608E-02  0.1046157E+00
          2   -1    0    0  501    0  0.00000000000E+00  0.00000000000E+00  0.72804370801E+03  0.72804370801E+03  0.25500000000E-02 0.  1.
         -2   -1    0    0    0  501 -0.00000000000E+00 -0.00000000000E+00 -0.53091896936E+02  0.53091896997E+02  0.25500000000E-02 0. -1.
    5000001    1    1    2    0    0  0.92825367392E+02  0.65929944246E+02  0.14322935180E+03  0.22272618525E+03  0.12700000000E+03 0.  0.
   -5000001    1    1    2    0    0 -0.92825367392E+02 -0.65929944246E+02  0.53172245927E+03  0.55840941976E+03  0.12700000000E+03 0.  0.
<mgrwt>
<rscale>  0 0.39320845E+03</rscale>
<asrwt>0</asrwt>
<pdfrwt beam="1">  1        2 0.10400625E+00 0.39320845E+03</pdfrwt>
<pdfrwt beam="2">  1       -2 0.75845563E-02 0.39320845E+03</pdfrwt>
<totfact> 0.45293655E+03</totfact>
</mgrwt>
</event>
<event>
 4    1  0.1390278E-004  0.3737143E+03  0.7818608E-02  0.1053282E+00
         -2   -1    0    0    0  501 -0.00000000000E+00  0.00000000000E+00  0.12308473935E+03  0.12308473938E+03  0.25500000000E-02 0. -1.
          2   -1    0    0  501    0  0.00000000000E+00 -0.00000000000E+00 -0.28367112273E+03  0.28367112274E+03  0.25500000000E-02 0.  1.
    5000001    1    1    2    0    0 -0.10098325108E+03 -0.73736123874E+02 -0.14139921756E+03  0.22750246524E+03  0.12700000000E+03 0.  0.
   -5000001    1    1    2    0    0  0.10098325108E+03  0.73736123874E+02 -0.19187165817E+02  0.17925339688E+03  0.12700000000E+03 0.  0.
<mgrwt>
<rscale>  0 0.37371426E+03</rscale>
<asrwt>0</asrwt>
<pdfrwt beam="1">  1        2 0.40524446E-01 0.37371426E+03</pdfrwt>
<pdfrwt beam="2">  1       -2 0.17583534E-01 0.37371426E+03</pdfrwt>
<totfact> 0.33198449E+03</totfact>
</mgrwt>
</event>
<event>
 4    1  0.1390278E-004  0.4764374E+03  0.7818608E-02  0.1020119E+00
          2   -1    0    0  501    0  0.00000000000E+00  0.00000000000E+00  0.27525122124E+03  0.27525122125E+03  0.25500000000E-02 0.  1.
         -2   -1    0    0    0  501 -0.00000000000E+00 -0.00000000000E+00 -0.20616853730E+03  0.20616853731E+03  0.25500000000E-02 0. -1.
    5000001    1    1    2    0    0 -0.93398274563E+02 -0.11365206539E+03  0.17374672751E+03  0.26068554808E+03  0.12700000000E+03 0.  0.
   -5000001    1    1    2    0    0  0.93398274563E+02  0.11365206539E+03 -0.10466404357E+03  0.22073421048E+03  0.12700000000E+03 0.  0.
<mgrwt>
<rscale>  0 0.47643737E+03</rscale>
<asrwt>0</asrwt>
<pdfrwt beam="1">  1        2 0.39321603E-01 0.47643737E+03</pdfrwt>
<pdfrwt beam="2">  1       -2 0.29452648E-01 0.47643737E+03</pdfrwt>
<totfact> 0.13883104E+03</totfact>
</mgrwt>
</event>
<event>
 4    1  0.1390278E-004  0.3509289E+03  0.7818608E-02  0.1062234E+00
          2   -1    0    0  501    0  0.00000000000E+00  0.00000000000E+00  0.51345605660E+03  0.51345605661E+03  0.25500000000E-02 0.  1.
         -2   -1    0    0    0  501 -0.00000000000E+00 -0.00000000000E+00 -0.59961858637E+02  0.59961858691E+02  0.25500000000E-02 0. -1.
    5000001    1    1    2    0    0  0.11374682282E+03 -0.20119269766E+02  0.28601547841E+03  0.33358204179E+03  0.12700000000E+03 0.  0.
   -5000001    1    1    2    0    0 -0.11374682282E+03  0.20119269766E+02  0.16747871956E+03  0.23983587351E+03  0.12700000000E+03 0.  0.
<mgrwt>
<rscale>  0 0.35092894E+03</rscale>
<asrwt>0</asrwt>
<pdfrwt beam="1">  1        2 0.73350870E-01 0.35092894E+03</pdfrwt>
<pdfrwt beam="2">  1       -2 0.85659793E-02 0.35092894E+03</pdfrwt>
<totfact> 0.55998891E+03</totfact>
</mgrwt>
</event>
<event>
 4    1  0.1390278E-004  0.5760839E+03  0.7818608E-02  0.9956306E-01
          2   -1    0    0  501    0  0.00000000000E+00  0.00000000000E+00  0.23006255387E+03  0.23006255388E+03  0.25500000000E-02 0.  1.
         -2   -1    0    0    0  501 -0.00000000000E+00 -0.00000000000E+00 -0.36063304531E+03  0.36063304532E+03  0.25500000000E-02 0. -1.
    5000001    1    1    2    0    0 -0.25800439328E+03  0.66181426161E+01 -0.80804955528E+02  0.29877835866E+03  0.12700000000E+03 0.  0.
   -5000001    1    1    2    0    0  0.25800439328E+03 -0.66181426161E+01 -0.49765535918E+02  0.29191724055E+03  0.12700000000E+03 0.  0.
<mgrwt>
<rscale>  0 0.57608388E+03</rscale>
<asrwt>0</asrwt>
<pdfrwt beam="1">  1        2 0.32866079E-01 0.57608388E+03</pdfrwt>
<pdfrwt beam="2">  1       -2 0.51519006E-01 0.57608388E+03</pdfrwt>
<totfact> 0.57552031E+02</totfact>
</mgrwt>
</event>
<event>
 4    1  0.1390278E-004  0.6080329E+03  0.7818608E-02  0.9888879E-01
          2   -1    0    0  501    0  0.00000000000E+00  0.00000000000E+00  0.63146056096E+03  0.63146056097E+03  0.25500000000E-02 0.  1.
         -2   -1    0    0    0  501 -0.00000000000E+00 -0.00000000000E+00 -0.14636862445E+03  0.14636862447E+03  0.25500000000E-02 0. -1.
    5000001    1    1    2    0    0  0.47225070027E+02 -0.27203604667E+03  0.23237643102E+03  0.38257237696E+03  0.12700000000E+03 0.  0.
   -5000001    1    1    2    0    0 -0.47225070027E+02  0.27203604667E+03  0.25271550550E+03  0.39525680847E+03  0.12700000000E+03 0.  0.
<mgrwt>
<rscale>  0 0.60803294E+03</rscale>
<asrwt>0</asrwt>
<pdfrwt beam="1">  1        2 0.90208650E-01 0.60803294E+03</pdfrwt>
<pdfrwt beam="2">  1       -2 0.20909804E-01 0.60803294E+03</pdfrwt>
<totfact> 0.10092054E+03</totfact>
</mgrwt>
</event>
<event>
 4    1  0.1390278E-004  0.4385643E+03  0.7818608E-02  0.1031188E+00
          2   -1    0    0  501    0  0.00000000000E+00  0.00000000000E+00  0.33203544096E+03  0.33203544096E+03  0.25500000000E-02 0.  1.
         -2   -1    0    0    0  501 -0.00000000000E+00 -0.00000000000E+00 -0.14481788118E+03  0.14481788120E+03  0.25500000000E-02 0. -1.
    5000001    1    1    2    0    0  0.71359436309E+02 -0.10410535468E+03  0.23125310545E+03  0.29246725082E+03  0.12700000000E+03 0.  0.
   -5000001    1    1    2    0    0 -0.71359436309E+02  0.10410535468E+03 -0.44035545672E+02  0.18438607135E+03  0.12700000000E+03 0.  0.
<mgrwt>
<rscale>  0 0.43856434E+03</rscale>
<asrwt>0</asrwt>
<pdfrwt beam="1">  1        2 0.47433634E-01 0.43856434E+03</pdfrwt>
<pdfrwt beam="2">  1       -2 0.20688269E-01 0.43856434E+03</pdfrwt>
<totfact> 0.21208424E+03</totfact>
</mgrwt>
</event>
<event>
 4    1  0.1390278E-004  0.3773314E+03  0.7818608E-02  0.1051925E+00
          2   -1    0    0  501    0  0.00000000000E+00  0.00000000000E+00  0.18563513187E+04  0.18563513187E+04  0.25500000000E-02 0.  1.
         -2   -1    0    0    0  501 -0.00000000000E+00 -0.00000000000E+00 -0.19174572822E+02  0.19174572992E+02  0.25500000000E-02 0. -1.
    5000001    1    1    2    0    0  0.13419041925E+03  0.29078132077E+02  0.79551077555E+03  0.81720193368E+03  0.12700000000E+03 0.  0.
   -5000001    1    1    2    0    0 -0.13419041925E+03 -0.29078132077E+02  0.10416659704E+04  0.10583239580E+04  0.12700000000E+03 0.  0.
<mgrwt>
<rscale>  0 0.37733139E+03</rscale>
<asrwt>0</asrwt>
<pdfrwt beam="1">  1        2 0.26519310E+00 0.37733139E+03</pdfrwt>
<pdfrwt beam="2">  1       -2 0.27392242E-02 0.37733139E+03</pdfrwt>
<totfact> 0.50418742E+03</totfact>
</mgrwt>
</event>
<event>
 4    1  0.1390278E-004  0.3019980E+03  0.7818608E-02  0.1084246E+00
         -2   -1    0    0    0  501 -0.00000000000E+00  0.00000000000E+00  0.20248011190E+02  0.20248011350E+02  0.25500000000E-02 0. -1.
          2   -1    0    0  501    0  0.00000000000E+00 -0.00000000000E+00 -0.11260709949E+04  0.11260709949E+04  0.25500000000E-02 0.  1.
    5000001    1    1    2    0    0  0.53375783265E+01  0.73647489270E+02 -0.68545206251E+03  0.70101781177E+03  0.12700000000E+03 0.  0.
   -5000001    1    1    2    0    0 -0.53375783265E+01 -0.73647489270E+02 -0.42037092119E+03  0.44530119448E+03  0.12700000000E+03 0.  0.
<mgrwt>
<rscale>  0 0.30199800E+03</rscale>
<asrwt>0</asrwt>
<pdfrwt beam="1">  1        2 0.16086725E+00 0.30199800E+03</pdfrwt>
<pdfrwt beam="2">  1       -2 0.28925737E-02 0.30199800E+03</pdfrwt>
<totfact> 0.11029840E+04</totfact>
</mgrwt>
</event>
<event>
 4    1  0.1390278E-004  0.4054591E+03  0.7818608E-02  0.1041906E+00
         -2   -1    0    0    0  501 -0.00000000000E+00  0.00000000000E+00  0.62264567232E+02  0.62264567285E+02  0.25500000000E-02 0.  1.
          2   -1    0    0  501    0  0.00000000000E+00 -0.00000000000E+00 -0.66007464290E+03  0.66007464291E+03  0.25500000000E-02 0. -1.
    5000001    1    1    2    0    0  0.15277849866E+03  0.57408031840E+01 -0.37007806863E+03  0.42007261677E+03  0.12700000000E+03 0.  0.
   -5000001    1    1    2    0    0 -0.15277849866E+03 -0.57408031840E+01 -0.22773200703E+03  0.30226659343E+03  0.12700000000E+03 0.  0.
<mgrwt>
<rscale>  0 0.40545906E+03</rscale>
<asrwt>0</asrwt>
<pdfrwt beam="1">  1        2 0.94296374E-01 0.40545906E+03</pdfrwt>
<pdfrwt beam="2">  1       -2 0.88949385E-02 0.40545906E+03</pdfrwt>
<totfact> 0.39629169E+03</totfact>
</mgrwt>
</event>
<event>
 4    1  0.1390278E-004  0.3621681E+03  0.7818608E-02  0.1057729E+00
          2   -1    0    0  501    0  0.00000000000E+00  0.00000000000E+00  0.40821298269E+03  0.40821298270E+03  0.25500000000E-02 0.  1.
         -2   -1    0    0    0  501 -0.00000000000E+00 -0.00000000000E+00 -0.80329225148E+02  0.80329225188E+02  0.25500000000E-02 0. -1.
    5000001    1    1    2    0    0 -0.57062553498E+02 -0.10943520969E+03  0.21495656470E+03  0.27850946993E+03  0.12700000000E+03 0.  0.
   -5000001    1    1    2    0    0  0.57062553498E+02  0.10943520969E+03  0.11292719284E+03  0.21003273796E+03  0.12700000000E+03 0.  0.
<mgrwt>
<rscale>  0 0.36216810E+03</rscale>
<asrwt>0</asrwt>
<pdfrwt beam="1">  1        2 0.58316140E-01 0.36216810E+03</pdfrwt>
<pdfrwt beam="2">  1       -2 0.11475604E-01 0.36216810E+03</pdfrwt>
<totfact> 0.45239785E+03</totfact>
</mgrwt>
</event>
<event>
 4    1  0.1390278E-004  0.6267745E+03  0.7818608E-02  0.9851364E-01
          2   -1    0    0  501    0  0.00000000000E+00  0.00000000000E+00  0.22573200228E+04  0.22573200228E+04  0.25500000000E-02 0.  1.
         -2   -1    0    0    0  501 -0.00000000000E+00 -0.00000000000E+00 -0.43508032882E+02  0.43508032957E+02  0.25500000000E-02 0. -1.
    5000001    1    1    2    0    0 -0.19909873339E+03  0.17800160641E+03  0.72616283103E+03  0.78407036335E+03  0.12700000000E+03 0.  0.
   -5000001    1    1    2    0    0  0.19909873339E+03 -0.17800160641E+03  0.14876491589E+04  0.15167576924E+04  0.12700000000E+03 0.  0.
<mgrwt>
<rscale>  0 0.62677445E+03</rscale>
<asrwt>0</asrwt>
<pdfrwt beam="1">  1        2 0.32247419E+00 0.62677445E+03</pdfrwt>
<pdfrwt beam="2">  1       -2 0.62154353E-02 0.62677445E+03</pdfrwt>
<totfact> 0.89710515E+02</totfact>
</mgrwt>
</event>
<event>
 4    1  0.1390278E-004  0.3129118E+03  0.7818608E-02  0.1078959E+00
          2   -1    0    0  501    0  0.00000000000E+00  0.00000000000E+00  0.12171998256E+04  0.12171998256E+04  0.25500000000E-02 0.  1.
         -2   -1    0    0    0  501 -0.00000000000E+00 -0.00000000000E+00 -0.20110457225E+02  0.20110457386E+02  0.25500000000E-02 0. -1.
    5000001    1    1    2    0    0 -0.85307406883E+02 -0.30162317643E+02  0.64892383330E+03  0.66739662908E+03  0.12700000000E+03 0.  0.
   -5000001    1    1    2    0    0  0.85307406883E+02  0.30162317643E+02  0.54816553508E+03  0.56991365392E+03  0.12700000000E+03 0.  0.
<mgrwt>
<rscale>  0 0.31291178E+03</rscale>
<asrwt>0</asrwt>
<pdfrwt beam="1">  1        2 0.17388572E+00 0.31291178E+03</pdfrwt>
<pdfrwt beam="2">  1       -2 0.28729219E-02 0.31291178E+03</pdfrwt>
<totfact> 0.99357200E+03</totfact>
</mgrwt>
</event>
<event>
 4    1  0.1390278E-004  0.5192473E+03  0.7818608E-02  0.1008874E+00
         -2   -1    0    0    0  501 -0.00000000000E+00  0.00000000000E+00  0.10570010543E+03  0.10570010546E+03  0.25500000000E-02 0. -1.
          2   -1    0    0  501    0  0.00000000000E+00 -0.00000000000E+00 -0.63769506394E+03  0.63769506395E+03  0.25500000000E-02 0.  1.
    5000001    1    1    2    0    0 -0.96288231701E+02 -0.13305492312E+03 -0.48917590338E+03  0.53141048219E+03  0.12700000000E+03 0.  0.
   -5000001    1    1    2    0    0  0.96288231701E+02  0.13305492312E+03 -0.42819055137E+02  0.21198468722E+03  0.12700000000E+03 0.  0.
<mgrwt>
<rscale>  0 0.51924728E+03</rscale>
<asrwt>0</asrwt>
<pdfrwt beam="1">  1        2 0.91099292E-01 0.51924728E+03</pdfrwt>
<pdfrwt beam="2">  1       -2 0.15100015E-01 0.51924728E+03</pdfrwt>
<totfact> 0.17438722E+03</totfact>
</mgrwt>
</event>
<event>
 4    1  0.1390278E-004  0.3518743E+03  0.7818608E-02  0.1061848E+00
          2   -1    0    0  501    0  0.00000000000E+00  0.00000000000E+00  0.19320413843E+04  0.19320413843E+04  0.25500000000E-02 0.  1.
         -2   -1    0    0    0  501 -0.00000000000E+00 -0.00000000000E+00 -0.16021331144E+02  0.16021331347E+02  0.25500000000E-02 0. -1.
    5000001    1    1    2    0    0  0.79753987101E+02 -0.35298409024E+02  0.48765060475E+03  0.51140863157E+03  0.12700000000E+03 0.  0.
   -5000001    1    1    2    0    0 -0.79753987101E+02  0.35298409024E+02  0.14283694484E+04  0.14366540840E+04  0.12700000000E+03 0.  0.
<mgrwt>
<rscale>  0 0.35187427E+03</rscale>
<asrwt>0</asrwt>
<pdfrwt beam="1">  1        2 0.27600580E+00 0.35187427E+03</pdfrwt>
<pdfrwt beam="2">  1       -2 0.22887626E-02 0.35187427E+03</pdfrwt>
<totfact> 0.60484005E+03</totfact>
</mgrwt>
</event>
<event>
 4    1  0.1390278E-004  0.4276701E+03  0.7818608E-02  0.1034598E+00
         -2   -1    0    0    0  501 -0.00000000000E+00  0.00000000000E+00  0.10354977815E+03  0.10354977818E+03  0.25500000000E-02 0. -1.
          2   -1    0    0  501    0  0.00000000000E+00 -0.00000000000E+00 -0.44157920539E+03  0.44157920540E+03  0.25500000000E-02 0.  1.
    5000001    1    1    2    0    0 -0.14611453179E+03 -0.87661811631E+02 -0.13878702162E+03  0.25382058031E+03  0.12700000000E+03 0.  0.
   -5000001    1    1    2    0    0  0.14611453179E+03  0.87661811631E+02 -0.19924240562E+03  0.29130840327E+03  0.12700000000E+03 0.  0.
<mgrwt>
<rscale>  0 0.42767010E+03</rscale>
<asrwt>0</asrwt>
<pdfrwt beam="1">  1        2 0.63082743E-01 0.42767010E+03</pdfrwt>
<pdfrwt beam="2">  1       -2 0.14792826E-01 0.42767010E+03</pdfrwt>
<totfact> 0.27423643E+03</totfact>
</mgrwt>
</event>
<event>
 4    1  0.1390278E-004  0.4165299E+03  0.7818608E-02  0.1038202E+00
          2   -1    0    0  501    0  0.00000000000E+00  0.00000000000E+00  0.90720168168E+03  0.90720168169E+03  0.25500000000E-02 0.  1.
         -2   -1    0    0    0  501 -0.00000000000E+00 -0.00000000000E+00 -0.47811081727E+02  0.47811081795E+02  0.25500000000E-02 0. -1.
    5000001    1    1    2    0    0  0.30350933482E+02 -0.12750969909E+03  0.19966857169E+03  0.27051144347E+03  0.12700000000E+03 0.  0.
   -5000001    1    1    2    0    0 -0.30350933482E+02  0.12750969909E+03  0.65972202826E+03  0.68450132001E+03  0.12700000000E+03 0.  0.
<mgrwt>
<rscale>  0 0.41652992E+03</rscale>
<asrwt>0</asrwt>
<pdfrwt beam="1">  1        2 0.12960024E+00 0.41652992E+03</pdfrwt>
<pdfrwt beam="2">  1       -2 0.68301547E-02 0.41652992E+03</pdfrwt>
<totfact> 0.40423422E+03</totfact>
</mgrwt>
</event>
<event>
 4    1  0.1390278E-004  0.3022155E+03  0.7818608E-02  0.1084138E+00
          2   -1    0    0  501    0  0.00000000000E+00  0.00000000000E+00  0.94735216416E+03  0.94735216416E+03  0.25500000000E-02 0.  1.
         -2   -1    0    0    0  501 -0.00000000000E+00 -0.00000000000E+00 -0.24102500573E+02  0.24102500708E+02  0.25500000000E-02 0. -1.
    5000001    1    1    2    0    0 -0.71510625864E+02  0.24741730039E+02  0.36106703107E+03  0.39015935686E+03  0.12700000000E+03 0.  0.
   -5000001    1    1    2    0    0  0.71510625864E+02 -0.24741730039E+02  0.56218263252E+03  0.58129530801E+03  0.12700000000E+03 0.  0.
<mgrwt>
<rscale>  0 0.30221553E+03</rscale>
<asrwt>0</asrwt>
<pdfrwt beam="1">  1        2 0.13533603E+00 0.30221553E+03</pdfrwt>
<pdfrwt beam="2">  1       -2 0.34432143E-02 0.30221553E+03</pdfrwt>
<totfact> 0.10804524E+04</totfact>
</mgrwt>
</event>
<event>
 4    1  0.1390278E-004  0.4039630E+03  0.7818608E-02  0.1042416E+00
         -2   -1    0    0    0  501 -0.00000000000E+00  0.00000000000E+00  0.25501789052E+02  0.25501789180E+02  0.25500000000E-02 0. -1.
          2   -1    0    0  501    0  0.00000000000E+00 -0.00000000000E+00 -0.15997517739E+04  0.15997517739E+04  0.25500000000E-02 0.  1.
    5000001    1    1    2    0    0  0.18237576585E+02  0.14226228295E+03 -0.52962401380E+03  0.56320667818E+03  0.12700000000E+03 0.  0.
   -5000001    1    1    2    0    0 -0.18237576585E+02 -0.14226228295E+03 -0.10446259711E+04  0.10620468849E+04  0.12700000000E+03 0.  0.
<mgrwt>
<rscale>  0 0.40396303E+03</rscale>
<asrwt>0</asrwt>
<pdfrwt beam="1">  1        2 0.22853590E+00 0.40396303E+03</pdfrwt>
<pdfrwt beam="2">  1       -2 0.36431137E-02 0.40396303E+03</pdfrwt>
<totfact> 0.44081156E+03</totfact>
</mgrwt>
</event>
<event>
 4    1  0.1390278E-004  0.5708983E+03  0.7818608E-02  0.9967693E-01
         -2   -1    0    0    0  501 -0.00000000000E+00  0.00000000000E+00  0.27732519244E+02  0.27732519361E+02  0.25500000000E-02 0. -1.
          2   -1    0    0  501    0  0.00000000000E+00 -0.00000000000E+00 -0.29381104741E+04  0.29381104741E+04  0.25500000000E-02 0.  1.
    5000001    1    1    2    0    0  0.25482723000E+03 -0.53504470330E+01 -0.15573428009E+04  0.15831649137E+04  0.12700000000E+03 0.  0.
   -5000001    1    1    2    0    0 -0.25482723000E+03  0.53504470330E+01 -0.13530351540E+04  0.13826780798E+04  0.12700000000E+03 0.  0.
<mgrwt>
<rscale>  0 0.57089826E+03</rscale>
<asrwt>0</asrwt>
<pdfrwt beam="1">  1        2 0.41972987E+00 0.57089826E+03</pdfrwt>
<pdfrwt beam="2">  1       -2 0.39617903E-02 0.57089826E+03</pdfrwt>
<totfact> 0.80299025E+02</totfact>
</mgrwt>
</event>
<event>
 4    1  0.1390278E-004  0.7942296E+03  0.7818608E-02  0.9568407E-01
          2   -1    0    0  501    0  0.00000000000E+00  0.00000000000E+00  0.16933183237E+03  0.16933183239E+03  0.25500000000E-02 0. -1.
         -2   -1    0    0    0  501 -0.00000000000E+00 -0.00000000000E+00 -0.93130838685E+03  0.93130838685E+03  0.25500000000E-02 0.  1.
    5000001    1    1    2    0    0 -0.33973359576E+03  0.15998916618E+03 -0.34832032039E+03  0.52770398423E+03  0.12700000000E+03 0.  0.
   -5000001    1    1    2    0    0  0.33973359576E+03 -0.15998916618E+03 -0.41365623409E+03  0.57293623500E+03  0.12700000000E+03 0.  0.
<mgrwt>
<rscale>  0 0.79422958E+03</rscale>
<asrwt>0</asrwt>
<pdfrwt beam="1">  1        2 0.24190262E-01 0.79422958E+03</pdfrwt>
<pdfrwt beam="2">  1       -2 0.13304405E+00 0.79422958E+03</pdfrwt>
<totfact> 0.93968091E+01</totfact>
</mgrwt>
</event>
<event>
 4    1  0.1390278E-004  0.3014376E+03  0.7818608E-02  0.1084524E+00
          2   -1    0    0  501    0  0.00000000000E+00  0.00000000000E+00  0.77948803039E+03  0.77948803039E+03  0.25500000000E-02 0.  1.
         -2   -1    0    0    0  501 -0.00000000000E+00 -0.00000000000E+00 -0.29142400013E+02  0.29142400124E+02  0.25500000000E-02 0. -1.
    5000001    1    1    2    0    0 -0.26303190220E+02  0.75984983443E+02  0.40475140985E+03  0.43176183168E+03  0.12700000000E+03 0.  0.
   -5000001    1    1    2    0    0  0.26303190220E+02 -0.75984983443E+02  0.34559422053E+03  0.37686859883E+03  0.12700000000E+03 0.  0.
<mgrwt>
<rscale>  0 0.30143757E+03</rscale>
<asrwt>0</asrwt>
<pdfrwt beam="1">  1        2 0.11135543E+00 0.30143757E+03</pdfrwt>
<pdfrwt beam="2">  1       -2 0.41632002E-02 0.30143757E+03</pdfrwt>
<totfact> 0.10417108E+04</totfact>
</mgrwt>
</event>
<event>
 4    1  0.1390278E-004  0.3537720E+03  0.7818608E-02  0.1061077E+00
          2   -1    0    0  501    0  0.00000000000E+00  0.00000000000E+00  0.43335794100E+03  0.43335794101E+03  0.25500000000E-02 0.  1.
         -2   -1    0    0    0  501 -0.00000000000E+00 -0.00000000000E+00 -0.72200505962E+02  0.72200506007E+02  0.25500000000E-02 0. -1.
    5000001    1    1    2    0    0 -0.18241501455E+02  0.12169786392E+03  0.17476682323E+03  0.24862736164E+03  0.12700000000E+03 0.  0.
   -5000001    1    1    2    0    0  0.18241501455E+02 -0.12169786392E+03  0.18639061181E+03  0.25693108537E+03  0.12700000000E+03 0.  0.
<mgrwt>
<rscale>  0 0.35377203E+03</rscale>
<asrwt>0</asrwt>
<pdfrwt beam="1">  1        2 0.61908275E-01 0.35377203E+03</pdfrwt>
<pdfrwt beam="2">  1       -2 0.10314358E-01 0.35377203E+03</pdfrwt>
<totfact> 0.50292538E+03</totfact>
</mgrwt>
</event>
<event>
 4    1  0.1390278E-004  0.3430038E+03  0.7818608E-02  0.1065524E+00
          2   -1    0    0  501    0  0.00000000000E+00  0.00000000000E+00  0.10886045751E+04  0.10886045751E+04  0.25500000000E-02 0.  1.
         -2   -1    0    0    0  501 -0.00000000000E+00 -0.00000000000E+00 -0.27018906138E+02  0.27018906258E+02  0.25500000000E-02 0. -1.
    5000001    1    1    2    0    0  0.99941468477E+02 -0.24742615519E+02  0.69927823323E+03  0.71813615813E+03  0.12700000000E+03 0.  0.
   -5000001    1    1    2    0    0 -0.99941468477E+02  0.24742615519E+02  0.36230743575E+03  0.39748732325E+03  0.12700000000E+03 0.  0.
<mgrwt>
<rscale>  0 0.34300382E+03</rscale>
<asrwt>0</asrwt>
<pdfrwt beam="1">  1        2 0.15551494E+00 0.34300382E+03</pdfrwt>
<pdfrwt beam="2">  1       -2 0.38598438E-02 0.34300382E+03</pdfrwt>
<totfact> 0.75355874E+03</totfact>
</mgrwt>
</event>
<event>
 4    1  0.1390278E-004  0.4743626E+03  0.7818608E-02  0.1020696E+00
         -2   -1    0    0    0  501 -0.00000000000E+00  0.00000000000E+00  0.29620253871E+02  0.29620253981E+02  0.25500000000E-02 0. -1.
          2   -1    0    0  501    0  0.00000000000E+00 -0.00000000000E+00 -0.18992063849E+04  0.18992063849E+04  0.25500000000E-02 0.  1.
    5000001    1    1    2    0    0 -0.18565695389E+03 -0.74377332715E+02 -0.88924440796E+03  0.92026360856E+03  0.12700000000E+03 0.  0.
   -5000001    1    1    2    0    0  0.18565695389E+03  0.74377332715E+02 -0.98034172311E+03  0.10085630304E+04  0.12700000000E+03 0.  0.
<mgrwt>
<rscale>  0 0.47436263E+03</rscale>
<asrwt>0</asrwt>
<pdfrwt beam="1">  1        2 0.27131512E+00 0.47436263E+03</pdfrwt>
<pdfrwt beam="2">  1       -2 0.42314660E-02 0.47436263E+03</pdfrwt>
<totfact> 0.24808859E+03</totfact>
</mgrwt>
</event>
<event>
 4    1  0.1390278E-004  0.4780480E+03  0.7818608E-02  0.1019673E+00
         -2   -1    0    0    0  501 -0.00000000000E+00  0.00000000000E+00  0.13821729944E+03  0.13821729946E+03  0.25500000000E-02 0. -1.
          2   -1    0    0  501    0  0.00000000000E+00 -0.00000000000E+00 -0.41335252109E+03  0.41335252110E+03  0.25500000000E-02 0.  1.
    5000001    1    1    2    0    0 -0.10287054855E+03  0.17031090975E+03 -0.94161055743E+02  0.25413276089E+03  0.12700000000E+03 0.  0.
   -5000001    1    1    2    0    0  0.10287054855E+03 -0.17031090975E+03 -0.18097416591E+03  0.29743705967E+03  0.12700000000E+03 0.  0.
<mgrwt>
<rscale>  0 0.47804799E+03</rscale>
<asrwt>0</asrwt>
<pdfrwt beam="1">  1        2 0.59050360E-01 0.47804799E+03</pdfrwt>
<pdfrwt beam="2">  1       -2 0.19745329E-01 0.47804799E+03</pdfrwt>
<totfact> 0.18089994E+03</totfact>
</mgrwt>
</event>
<event>
 4    1  0.1390278E-004  0.3067996E+03  0.7818608E-02  0.1081890E+00
         -2   -1    0    0    0  501 -0.00000000000E+00  0.00000000000E+00  0.31567405224E+02  0.31567405327E+02  0.25500000000E-02 0. -1.
          2   -1    0    0  501    0  0.00000000000E+00 -0.00000000000E+00 -0.74543657626E+03  0.74543657626E+03  0.25500000000E-02 0.  1.
    5000001    1    1    2    0    0  0.76994036433E+02 -0.37008509906E+02 -0.33100937523E+03  0.36468331185E+03  0.12700000000E+03 0.  0.
   -5000001    1    1    2    0    0 -0.76994036433E+02  0.37008509906E+02 -0.38285979581E+03  0.41232066974E+03  0.12700000000E+03 0.  0.
<mgrwt>
<rscale>  0 0.30679960E+03</rscale>
<asrwt>0</asrwt>
<pdfrwt beam="1">  1        2 0.10649093E+00 0.30679960E+03</pdfrwt>
<pdfrwt beam="2">  1       -2 0.45096298E-02 0.30679960E+03</pdfrwt>
<totfact> 0.97540391E+03</totfact>
</mgrwt>
</event>
<event>
 4    1  0.1390278E-004  0.5775625E+03  0.7818608E-02  0.9953082E-01
         -2   -1    0    0    0  501 -0.00000000000E+00  0.00000000000E+00  0.11936945915E+03  0.11936945917E+03  0.25500000000E-02 0. -1.
          2   -1    0    0  501    0  0.00000000000E+00 -0.00000000000E+00 -0.69862606934E+03  0.69862606934E+03  0.25500000000E-02 0.  1.
    5000001    1    1    2    0    0 -0.24210269437E+03 -0.79788899569E+02 -0.35733867248E+03  0.45694628784E+03  0.12700000000E+03 0.  0.
   -5000001    1    1    2    0    0  0.24210269437E+03  0.79788899569E+02 -0.22191793771E+03  0.36104924068E+03  0.12700000000E+03 0.  0.
<mgrwt>
<rscale>  0 0.57756252E+03</rscale>
<asrwt>0</asrwt>
<pdfrwt beam="1">  1        2 0.99803722E-01 0.57756252E+03</pdfrwt>
<pdfrwt beam="2">  1       -2 0.17052780E-01 0.57756252E+03</pdfrwt>
<totfact> 0.12714134E+03</totfact>
</mgrwt>
</event>
<event>
 4    1  0.1390278E-004  0.5270099E+03  0.7818608E-02  0.1006960E+00
         -2   -1    0    0    0  501 -0.00000000000E+00  0.00000000000E+00  0.27143141981E+02  0.27143142101E+02  0.25500000000E-02 0.  1.
          2   -1    0    0  501    0  0.00000000000E+00 -0.00000000000E+00 -0.25580993792E+04  0.25580993792E+04  0.25500000000E-02 0. -1.
    5000001    1    1    2    0    0 -0.20890375029E+03  0.97983770361E+02 -0.12261549613E+04  0.12541238317E+04  0.12700000000E+03 0.  0.
   -5000001    1    1    2    0    0  0.20890375029E+03 -0.97983770361E+02 -0.13048012759E+04  0.13311186896E+04  0.12700000000E+03 0.  0.
<mgrwt>
<rscale>  0 0.52700989E+03</rscale>
<asrwt>0</asrwt>
<pdfrwt beam="1">  1        2 0.36544261E+00 0.52700989E+03</pdfrwt>
<pdfrwt beam="2">  1       -2 0.38775933E-02 0.52700989E+03</pdfrwt>
<totfact> 0.13186368E+03</totfact>
</mgrwt>
</event>
<event>
 4    1  0.1390278E-004  0.7537430E+03  0.7818608E-02  0.9629496E-01
         -2   -1    0    0    0  501 -0.00000000000E+00  0.00000000000E+00  0.18305595511E+03  0.18305595513E+03  0.25500000000E-02 0.  1.
          2   -1    0    0  501    0  0.00000000000E+00 -0.00000000000E+00 -0.77589450963E+03  0.77589450963E+03  0.25500000000E-02 0. -1.
    5000001    1    1    2    0    0 -0.14008270900E+03  0.28367315116E+03 -0.92027882736E+02  0.35311719478E+03  0.12700000000E+03 0.  0.
   -5000001    1    1    2    0    0  0.14008270900E+03 -0.28367315116E+03 -0.50081067178E+03  0.60583326998E+03  0.12700000000E+03 0.  0.
<mgrwt>
<rscale>  0 0.75374295E+03</rscale>
<asrwt>0</asrwt>
<pdfrwt beam="1">  1        2 0.11084207E+00 0.75374295E+03</pdfrwt>
<pdfrwt beam="2">  1       -2 0.26150851E-01 0.75374295E+03</pdfrwt>
<totfact> 0.52387448E+02</totfact>
</mgrwt>
</event>
<event>
 4    1  0.1390278E-004  0.2936449E+03  0.7818608E-02  0.1088461E+00
         -2   -1    0    0    0  501 -0.00000000000E+00  0.00000000000E+00  0.30121508140E+03  0.30121508141E+03  0.25500000000E-02 0. -1.
          2   -1    0    0  501    0  0.00000000000E+00 -0.00000000000E+00 -0.71566235257E+02  0.71566235302E+02  0.25500000000E-02 0.  1.
    5000001    1    1    2    0    0 -0.97193031957E+00 -0.52796626275E+02  0.18004496274E+03  0.22656923225E+03  0.12700000000E+03 0.  0.
   -5000001    1    1    2    0    0  0.97193031957E+00  0.52796626275E+02  0.49603883404E+02  0.14621208446E+03  0.12700000000E+03 0.  0.
<mgrwt>
<rscale>  0 0.29364488E+03</rscale>
<asrwt>0</asrwt>
<pdfrwt beam="1">  1        2 0.10223748E-01 0.29364488E+03</pdfrwt>
<pdfrwt beam="2">  1       -2 0.43030727E-01 0.29364488E+03</pdfrwt>
<totfact> 0.32188934E+03</totfact>
</mgrwt>
</event>
<event>
 4    1  0.1390278E-004  0.5140355E+03  0.7818608E-02  0.1010179E+00
         -2   -1    0    0    0  501 -0.00000000000E+00  0.00000000000E+00  0.84509517015E+02  0.84509517054E+02  0.25500000000E-02 0. -1.
          2   -1    0    0  501    0  0.00000000000E+00 -0.00000000000E+00 -0.78166493913E+03  0.78166493914E+03  0.25500000000E-02 0.  1.
    5000001    1    1    2    0    0 -0.99530746060E+02 -0.17144204748E+03 -0.52231245333E+03  0.57292062623E+03  0.12700000000E+03 0.  0.
   -5000001    1    1    2    0    0  0.99530746060E+02  0.17144204748E+03 -0.17484296879E+03  0.29325382996E+03  0.12700000000E+03 0.  0.
<mgrwt>
<rscale>  0 0.51403551E+03</rscale>
<asrwt>0</asrwt>
<pdfrwt beam="1">  1        2 0.11166642E+00 0.51403551E+03</pdfrwt>
<pdfrwt beam="2">  1       -2 0.12072789E-01 0.51403551E+03</pdfrwt>
<totfact> 0.19715979E+03</totfact>
</mgrwt>
</event>
<event>
 4    1  0.1390278E-004  0.3749915E+03  0.7818608E-02  0.1052801E+00
          2   -1    0    0  501    0  0.00000000000E+00  0.00000000000E+00  0.47257962463E+03  0.47257962464E+03  0.25500000000E-02 0.  1.
         -2   -1    0    0    0  501 -0.00000000000E+00 -0.00000000000E+00 -0.74388841096E+02  0.74388841140E+02  0.25500000000E-02 0. -1.
    5000001    1    1    2    0    0  0.10581461194E+03  0.15343113043E+02  0.32620023820E+03  0.36601603602E+03  0.12700000000E+03 0.  0.
   -5000001    1    1    2    0    0 -0.10581461194E+03 -0.15343113043E+02  0.71990545332E+02  0.18095242976E+03  0.12700000000E+03 0.  0.
<mgrwt>
<rscale>  0 0.37499147E+03</rscale>
<asrwt>0</asrwt>
<pdfrwt beam="1">  1        2 0.67511376E-01 0.37499147E+03</pdfrwt>
<pdfrwt beam="2">  1       -2 0.10626977E-01 0.37499147E+03</pdfrwt>
<totfact> 0.43621883E+03</totfact>
</mgrwt>
</event>
<event>
 4    1  0.1390278E-004  0.2838712E+03  0.7818608E-02  0.1093593E+00
         -2   -1    0    0    0  501 -0.00000000000E+00  0.00000000000E+00  0.29106299236E+03  0.29106299237E+03  0.25500000000E-02 0. -1.
          2   -1    0    0  501    0  0.00000000000E+00 -0.00000000000E+00 -0.69214272380E+02  0.69214272427E+02  0.25500000000E-02 0.  1.
    5000001    1    1    2    0    0 -0.41747387689E+02 -0.40082258744E+02  0.78139748116E+02  0.15995078018E+03  0.12700000000E+03 0.  0.
   -5000001    1    1    2    0    0  0.41747387689E+02  0.40082258744E+02  0.14370897187E+03  0.20032648462E+03  0.12700000000E+03 0.  0.
<mgrwt>
<rscale>  0 0.28387119E+03</rscale>
<asrwt>0</asrwt>
<pdfrwt beam="1">  1        2 0.98877531E-02 0.28387119E+03</pdfrwt>
<pdfrwt beam="2">  1       -2 0.41580428E-01 0.28387119E+03</pdfrwt>
<totfact> 0.35817034E+03</totfact>
</mgrwt>
</event>
<event>
 4    1  0.1390278E-004  0.3038742E+03  0.7818608E-02  0.1083320E+00
         -2   -1    0    0    0  501 -0.00000000000E+00  0.00000000000E+00  0.20632031825E+03  0.20632031827E+03  0.25500000000E-02 0. -1.
          2   -1    0    0  501    0  0.00000000000E+00 -0.00000000000E+00 -0.11188852874E+03  0.11188852877E+03  0.25500000000E-02 0.  1.
    5000001    1    1    2    0    0 -0.78535144271E+02  0.62393555736E+01  0.18553590402E+02  0.15059858618E+03  0.12700000000E+03 0.  0.
   -5000001    1    1    2    0    0  0.78535144271E+02 -0.62393555736E+01  0.75878199109E+02  0.16761026085E+03  0.12700000000E+03 0.  0.
<mgrwt>
<rscale>  0 0.30387416E+03</rscale>
<asrwt>0</asrwt>
<pdfrwt beam="1">  1        2 0.15984076E-01 0.30387416E+03</pdfrwt>
<pdfrwt beam="2">  1       -2 0.29474331E-01 0.30387416E+03</pdfrwt>
<totfact> 0.38119101E+03</totfact>
</mgrwt>
</event>
<event>
 4    1  0.1390278E-004  0.7684449E+03  0.7818608E-02  0.9606849E-01
          2   -1    0    0  501    0  0.00000000000E+00  0.00000000000E+00  0.13650708106E+04  0.13650708106E+04  0.25500000000E-02 0.  1.
         -2   -1    0    0    0  501 -0.00000000000E+00 -0.00000000000E+00 -0.10814596979E+03  0.10814596982E+03  0.25500000000E-02 0. -1.
    5000001    1    1    2    0    0  0.33685417746E+01 -0.22581381312E+03  0.11723855091E+04  0.12006748133E+04  0.12700000000E+03 0.  0.
   -5000001    1    1    2    0    0 -0.33685417746E+01  0.22581381312E+03  0.84539331740E+02  0.27254196719E+03  0.12700000000E+03 0.  0.
<mgrwt>
<rscale>  0 0.76844494E+03</rscale>
<asrwt>0</asrwt>
<pdfrwt beam="1">  1        2 0.19501012E+00 0.76844494E+03</pdfrwt>
<pdfrwt beam="2">  1       -2 0.15449424E-01 0.76844494E+03</pdfrwt>
<totfact> 0.57990333E+02</totfact>
</mgrwt>
</event>
<event>
 4    1  0.1390278E-004  0.3410128E+03  0.7818608E-02  0.1066365E+00
         -2   -1    0    0    0  501 -0.00000000000E+00  0.00000000000E+00  0.24316927201E+02  0.24316927335E+02  0.25500000000E-02 0. -1.
          2   -1    0    0  501    0  0.00000000000E+00 -0.00000000000E+00 -0.11955635195E+04  0.11955635195E+04  0.25500000000E-02 0.  1.
    5000001    1    1    2    0    0  0.10397322999E+03  0.71493308786E+01 -0.42240267113E+03  0.45322683291E+03  0.12700000000E+03 0.  0.
   -5000001    1    1    2    0    0 -0.10397322999E+03 -0.71493308786E+01 -0.74884392120E+03  0.76665361397E+03  0.12700000000E+03 0.  0.
<mgrwt>
<rscale>  0 0.34101279E+03</rscale>
<asrwt>0</asrwt>
<pdfrwt beam="1">  1        2 0.17079475E+00 0.34101279E+03</pdfrwt>
<pdfrwt beam="2">  1       -2 0.34738475E-02 0.34101279E+03</pdfrwt>
<totfact> 0.76955625E+03</totfact>
</mgrwt>
</event>
<event>
 4    1  0.1390278E-004  0.5111160E+03  0.7818608E-02  0.1010918E+00
          2   -1    0    0  501    0  0.00000000000E+00  0.00000000000E+00  0.10612897789E+04  0.10612897789E+04  0.25500000000E-02 0.  1.
         -2   -1    0    0    0  501 -0.00000000000E+00 -0.00000000000E+00 -0.61538233734E+02  0.61538233787E+02  0.25500000000E-02 0. -1.
    5000001    1    1    2    0    0 -0.10202967045E+03  0.15052784117E+03  0.22102532357E+03  0.31312917187E+03  0.12700000000E+03 0.  0.
   -5000001    1    1    2    0    0  0.10202967045E+03 -0.15052784117E+03  0.77872622157E+03  0.80969884080E+03  0.12700000000E+03 0.  0.
<mgrwt>
<rscale>  0 0.51111603E+03</rscale>
<asrwt>0</asrwt>
<pdfrwt beam="1">  1        2 0.15161282E+00 0.51111603E+03</pdfrwt>
<pdfrwt beam="2">  1       -2 0.87911765E-02 0.51111603E+03</pdfrwt>
<totfact> 0.21869736E+03</totfact>
</mgrwt>
</event>
<event>
 4    1  0.1390278E-004  0.2921438E+03  0.7818608E-02  0.1089235E+00
          2   -1    0    0  501    0  0.00000000000E+00  0.00000000000E+00  0.17018541710E+02  0.17018541902E+02  0.25500000000E-02 0.  1.
         -2   -1    0    0    0  501 -0.00000000000E+00 -0.00000000000E+00 -0.12537504687E+04  0.12537504687E+04  0.25500000000E-02 0. -1.
    5000001    1    1    2    0    0 -0.71085962940E+02  0.46104427654E+01 -0.56810086147E+03  0.58646573567E+03  0.12700000000E+03 0.  0.
   -5000001    1    1    2    0    0  0.71085962940E+02 -0.46104427654E+01 -0.66863106548E+03  0.68430327490E+03  0.12700000000E+03 0.  0.
<mgrwt>
<rscale>  0 0.29214383E+03</rscale>
<asrwt>0</asrwt>
<pdfrwt beam="1">  1        2 0.24312210E-02 0.29214383E+03</pdfrwt>
<pdfrwt beam="2">  1       -2 0.17910715E+00 0.29214383E+03</pdfrwt>
<totfact> 0.82678094E+02</totfact>
</mgrwt>
</event>
<event>
 4    1  0.1390278E-004  0.6751184E+03  0.7818608E-02  0.9760755E-01
         -2   -1    0    0    0  501 -0.00000000000E+00  0.00000000000E+00  0.12602906087E+03  0.12602906089E+03  0.25500000000E-02 0. -1.
          2   -1    0    0  501    0  0.00000000000E+00 -0.00000000000E+00 -0.90412645630E+03  0.90412645631E+03  0.25500000000E-02 0.  1.
    5000001    1    1    2    0    0 -0.22977866026E+03  0.84489946493E+02 -0.92066595897E+02  0.29076114226E+03  0.12700000000E+03 0.  0.
   -5000001    1    1    2    0    0  0.22977866026E+03 -0.84489946493E+02 -0.68603079954E+03  0.73939437494E+03  0.12700000000E+03 0.  0.
<mgrwt>
<rscale>  0 0.67511838E+03</rscale>
<asrwt>0</asrwt>
<pdfrwt beam="1">  1        2 0.12916092E+00 0.67511838E+03</pdfrwt>
<pdfrwt beam="2">  1       -2 0.18004152E-01 0.67511838E+03</pdfrwt>
<totfact> 0.83142215E+02</totfact>
</mgrwt>
</event>
<event>
 4    1  0.1390278E-004  0.3953751E+03  0.7818608E-02  0.1045393E+00
         -2   -1    0    0    0  501 -0.00000000000E+00  0.00000000000E+00  0.11191571507E+03  0.11191571510E+03  0.25500000000E-02 0. -1.
          2   -1    0    0  501    0  0.00000000000E+00 -0.00000000000E+00 -0.34919470942E+03  0.34919470943E+03  0.25500000000E-02 0.  1.
    5000001    1    1    2    0    0  0.13065883293E+03 -0.26829830567E+01 -0.20801224653E+03  0.27654479515E+03  0.12700000000E+03 0.  0.
   -5000001    1    1    2    0    0 -0.13065883293E+03  0.26829830567E+01 -0.29266747818E+02  0.18456562938E+03  0.12700000000E+03 0.  0.
<mgrwt>
<rscale>  0 0.39537514E+03</rscale>
<asrwt>0</asrwt>
<pdfrwt beam="1">  1        2 0.49884958E-01 0.39537514E+03</pdfrwt>
<pdfrwt beam="2">  1       -2 0.15987959E-01 0.39537514E+03</pdfrwt>
<totfact> 0.31119817E+03</totfact>
</mgrwt>
</event>
<event>
 4    1  0.1390278E-004  0.5232789E+03  0.7818608E-02  0.1007875E+00
         -2   -1    0    0    0  501 -0.00000000000E+00  0.00000000000E+00  0.15719392886E+03  0.15719392888E+03  0.25500000000E-02 0. -1.
          2   -1    0    0  501    0  0.00000000000E+00 -0.00000000000E+00 -0.43548245482E+03  0.43548245483E+03  0.25500000000E-02 0.  1.
    5000001    1    1    2    0    0  0.20772530798E+03 -0.50922307528E+02 -0.47246134986E+02  0.25318783986E+03  0.12700000000E+03 0.  0.
   -5000001    1    1    2    0    0 -0.20772530798E+03  0.50922307528E+02 -0.23104239097E+03  0.33948854385E+03  0.12700000000E+03 0.  0.
<mgrwt>
<rscale>  0 0.52327889E+03</rscale>
<asrwt>0</asrwt>
<pdfrwt beam="1">  1        2 0.62211779E-01 0.52327889E+03</pdfrwt>
<pdfrwt beam="2">  1       -2 0.22456276E-01 0.52327889E+03</pdfrwt>
<totfact> 0.13641199E+03</totfact>
</mgrwt>
</event>
<event>
 4    1  0.1390278E-004  0.4238282E+03  0.7818608E-02  0.1035828E+00
         -2   -1    0    0    0  501 -0.00000000000E+00  0.00000000000E+00  0.55660797421E+02  0.55660797479E+02  0.25500000000E-02 0. -1.
          2   -1    0    0  501    0  0.00000000000E+00 -0.00000000000E+00 -0.80680823681E+03  0.80680823681E+03  0.25500000000E-02 0.  1.
    5000001    1    1    2    0    0  0.10530810453E+03  0.11763095599E+03 -0.50186772982E+03  0.54122736158E+03  0.12700000000E+03 0.  0.
   -5000001    1    1    2    0    0 -0.10530810453E+03 -0.11763095599E+03 -0.24927970957E+03  0.32124167271E+03  0.12700000000E+03 0.  0.
<mgrwt>
<rscale>  0 0.42382822E+03</rscale>
<asrwt>0</asrwt>
<pdfrwt beam="1">  1        2 0.11525831E+00 0.42382822E+03</pdfrwt>
<pdfrwt beam="2">  1       -2 0.79515430E-02 0.42382822E+03</pdfrwt>
<totfact> 0.37052409E+03</totfact>
</mgrwt>
</event>
<event>
 4    1  0.1390278E-004  0.5119722E+03  0.7818608E-02  0.1010700E+00
         -2   -1    0    0    0  501 -0.00000000000E+00  0.00000000000E+00  0.76915782567E+02  0.76915782610E+02  0.25500000000E-02 0. -1.
          2   -1    0    0  501    0  0.00000000000E+00 -0.00000000000E+00 -0.85195639288E+03  0.85195639289E+03  0.25500000000E-02 0.  1.
    5000001    1    1    2    0    0 -0.78929920872E+02  0.10243451387E+03 -0.71548832723E+03  0.73808895700E+03  0.12700000000E+03 0.  0.
   -5000001    1    1    2    0    0  0.78929920872E+02 -0.10243451387E+03 -0.59552283086E+02  0.19078321850E+03  0.12700000000E+03 0.  0.
<mgrwt>
<rscale>  0 0.51197224E+03</rscale>
<asrwt>0</asrwt>
<pdfrwt beam="1">  1        2 0.12170805E+00 0.51197224E+03</pdfrwt>
<pdfrwt beam="2">  1       -2 0.10987969E-01 0.51197224E+03</pdfrwt>
<totfact> 0.20596335E+03</totfact>
</mgrwt>
</event>
<event>
 4    1  0.1390278E-004  0.6685901E+03  0.7818608E-02  0.9772508E-01
          2   -1    0    0  501    0  0.00000000000E+00  0.00000000000E+00  0.18870021507E+04  0.18870021507E+04  0.25500000000E-02 0.  1.
         -2   -1    0    0    0  501 -0.00000000000E+00 -0.00000000000E+00 -0.59222604967E+02  0.59222605022E+02  0.25500000000E-02 0. -1.
    5000001    1    1    2    0    0 -0.29734352937E+03 -0.43897864210E+02  0.11254889028E+04  0.11718338053E+04  0.12700000000E+03 0.  0.
   -5000001    1    1    2    0    0  0.29734352937E+03  0.43897864210E+02  0.70229064297E+03  0.77439095045E+03  0.12700000000E+03 0.  0.
<mgrwt>
<rscale>  0 0.66859011E+03</rscale>
<asrwt>0</asrwt>
<pdfrwt beam="1">  1        2 0.26957175E+00 0.66859011E+03</pdfrwt>
<pdfrwt beam="2">  1       -2 0.84603717E-02 0.66859011E+03</pdfrwt>
<totfact> 0.84327373E+02</totfact>
</mgrwt>
</event>
<event>
 4    1  0.1390278E-004  0.9629971E+03  0.7818608E-02  0.9350087E-01
         -2   -1    0    0    0  501 -0.00000000000E+00  0.00000000000E+00  0.37489620363E+03  0.37489620364E+03  0.25500000000E-02 0. -1.
          2   -1    0    0  501    0  0.00000000000E+00 -0.00000000000E+00 -0.61841341949E+03  0.61841341950E+03  0.25500000000E-02 0.  1.
    5000001    1    1    2    0    0  0.28512055177E+03  0.33582204672E+03  0.29983121644E+02  0.45945420195E+03  0.12700000000E+03 0.  0.
   -5000001    1    1    2    0    0 -0.28512055177E+03 -0.33582204672E+03 -0.27350033751E+03  0.53385542118E+03  0.12700000000E+03 0.  0.
<mgrwt>
<rscale>  0 0.96299708E+03</rscale>
<asrwt>0</asrwt>
<pdfrwt beam="1">  1        2 0.88344774E-01 0.96299708E+03</pdfrwt>
<pdfrwt beam="2">  1       -2 0.53556601E-01 0.96299708E+03</pdfrwt>
<totfact> 0.17200683E+02</totfact>
</mgrwt>
</event>
<event>
 4    1  0.1390278E-004  0.8151068E+03  0.7818608E-02  0.9538404E-01
          2   -1    0    0  501    0  0.00000000000E+00  0.00000000000E+00  0.12267220139E+04  0.12267220139E+04  0.25500000000E-02 0.  1.
         -2   -1    0    0    0  501 -0.00000000000E+00 -0.00000000000E+00 -0.13540130789E+03  0.13540130791E+03  0.25500000000E-02 0. -1.
    5000001    1    1    2    0    0 -0.37251733795E+03 -0.22075330297E+02  0.71863536761E+03  0.81964765531E+03  0.12700000000E+03 0.  0.
   -5000001    1    1    2    0    0  0.37251733795E+03  0.22075330297E+02  0.37268533840E+03  0.54247566650E+03  0.12700000000E+03 0.  0.
<mgrwt>
<rscale>  0 0.81510678E+03</rscale>
<asrwt>0</asrwt>
<pdfrwt beam="1">  1        2 0.17524600E+00 0.81510678E+03</pdfrwt>
<pdfrwt beam="2">  1       -2 0.19343044E-01 0.81510678E+03</pdfrwt>
<totfact> 0.46848075E+02</totfact>
</mgrwt>
</event>
<event>
 4    1  0.1390278E-004  0.3708063E+03  0.7818608E-02  0.1054385E+00
         -2   -1    0    0    0  501 -0.00000000000E+00  0.00000000000E+00  0.66674579840E+02  0.66674579888E+02  0.25500000000E-02 0. -1.
          2   -1    0    0  501    0  0.00000000000E+00 -0.00000000000E+00 -0.51555364578E+03  0.51555364579E+03  0.25500000000E-02 0.  1.
    5000001    1    1    2    0    0  0.92503397597E+02  0.86049336894E+02 -0.14940001577E+03  0.23326108047E+03  0.12700000000E+03 0.  0.
   -5000001    1    1    2    0    0 -0.92503397597E+02 -0.86049336894E+02 -0.29947905017E+03  0.34896714521E+03  0.12700000000E+03 0.  0.
<mgrwt>
<rscale>  0 0.37080627E+03</rscale>
<asrwt>0</asrwt>
<pdfrwt beam="1">  1        2 0.73650518E-01 0.37080627E+03</pdfrwt>
<pdfrwt beam="2">  1       -2 0.95249403E-02 0.37080627E+03</pdfrwt>
<totfact> 0.47161113E+03</totfact>
</mgrwt>
</event>
<event>
 4    1  0.1390278E-004  0.6574089E+03  0.7818608E-02  0.9792975E-01
         -2   -1    0    0    0  501 -0.00000000000E+00  0.00000000000E+00  0.81624966620E+02  0.81624966660E+02  0.25500000000E-02 0. -1.
          2   -1    0    0  501    0  0.00000000000E+00 -0.00000000000E+00 -0.13236957830E+04  0.13236957830E+04  0.25500000000E-02 0.  1.
    5000001    1    1    2    0    0 -0.14838862192E+03  0.26073688085E+03 -0.71457435950E+03  0.78533331739E+03  0.12700000000E+03 0.  0.
   -5000001    1    1    2    0    0  0.14838862192E+03 -0.26073688085E+03 -0.52749645689E+03  0.61998743228E+03  0.12700000000E+03 0.  0.
<mgrwt>
<rscale>  0 0.65740893E+03</rscale>
<asrwt>0</asrwt>
<pdfrwt beam="1">  1        2 0.18909938E+00 0.65740893E+03</pdfrwt>
<pdfrwt beam="2">  1       -2 0.11660710E-01 0.65740893E+03</pdfrwt>
<totfact> 0.98134054E+02</totfact>
</mgrwt>
</event>
<event>
 4    1  0.1390278E-004  0.5267629E+03  0.7818608E-02  0.1007020E+00
          2   -1    0    0  501    0  0.00000000000E+00  0.00000000000E+00  0.27452063828E+04  0.27452063828E+04  0.25500000000E-02 0.  1.
         -2   -1    0    0    0  501 -0.00000000000E+00 -0.00000000000E+00 -0.25269423454E+02  0.25269423582E+02  0.25500000000E-02 0. -1.
    5000001    1    1    2    0    0  0.13968621372E+03  0.18200378403E+03  0.14891373901E+04  0.15120505224E+04  0.12700000000E+03 0.  0.
   -5000001    1    1    2    0    0 -0.13968621372E+03 -0.18200378403E+03  0.12307995692E+04  0.12584252840E+04  0.12700000000E+03 0.  0.
<mgrwt>
<rscale>  0 0.52676288E+03</rscale>
<asrwt>0</asrwt>
<pdfrwt beam="1">  1        2 0.39217224E+00 0.52676288E+03</pdfrwt>
<pdfrwt beam="2">  1       -2 0.36099186E-02 0.52676288E+03</pdfrwt>
<totfact> 0.11764400E+03</totfact>
</mgrwt>
</event>
<event>
 4    1  0.1390278E-004  0.2903158E+03  0.7818608E-02  0.1090184E+00
          2   -1    0    0  501    0  0.00000000000E+00  0.00000000000E+00  0.56083988990E+03  0.56083988990E+03  0.25500000000E-02 0.  1.
         -2   -1    0    0    0  501 -0.00000000000E+00 -0.00000000000E+00 -0.37570113179E+02  0.37570113266E+02  0.25500000000E-02 0. -1.
    5000001    1    1    2    0    0  0.63548312148E+02 -0.23972054849E+01  0.32339240070E+03  0.35320784164E+03  0.12700000000E+03 0.  0.
   -5000001    1    1    2    0    0 -0.63548312148E+02  0.23972054849E+01  0.19987737602E+03  0.24520216153E+03  0.12700000000E+03 0.  0.
<mgrwt>
<rscale>  0 0.29031582E+03</rscale>
<asrwt>0</asrwt>
<pdfrwt beam="1">  1        2 0.80119982E-01 0.29031582E+03</pdfrwt>
<pdfrwt beam="2">  1       -2 0.53671592E-02 0.29031582E+03</pdfrwt>
<totfact> 0.10413117E+04</totfact>
</mgrwt>
</event>
<event>
 4    1  0.1390278E-004  0.3035359E+03  0.7818608E-02  0.1083486E+00
          2   -1    0    0  501    0  0.00000000000E+00  0.00000000000E+00  0.30521972884E+03  0.30521972885E+03  0.25500000000E-02 0.  1.
         -2   -1    0    0    0  501 -0.00000000000E+00 -0.00000000000E+00 -0.75465357659E+02  0.75465357702E+02  0.25500000000E-02 0. -1.
    5000001    1    1    2    0    0 -0.41599789950E+02  0.50320930429E+02  0.50415172561E+02  0.15143786907E+03  0.12700000000E+03 0.  0.
   -5000001    1    1    2    0    0  0.41599789950E+02 -0.50320930429E+02  0.17933919862E+03  0.22924721748E+03  0.12700000000E+03 0.  0.
<mgrwt>
<rscale>  0 0.30353594E+03</rscale>
<asrwt>0</asrwt>
<pdfrwt beam="1">  1        2 0.43602820E-01 0.30353594E+03</pdfrwt>
<pdfrwt beam="2">  1       -2 0.10780765E-01 0.30353594E+03</pdfrwt>
<totfact> 0.68233956E+03</totfact>
</mgrwt>
</event>
<event>
 4    1  0.1390278E-004  0.3789111E+03  0.7818608E-02  0.1051337E+00
         -2   -1    0    0    0  501 -0.00000000000E+00  0.00000000000E+00  0.49549758570E+02  0.49549758636E+02  0.25500000000E-02 0. -1.
          2   -1    0    0  501    0  0.00000000000E+00 -0.00000000000E+00 -0.72439123940E+03  0.72439123941E+03  0.25500000000E-02 0.  1.
    5000001    1    1    2    0    0  0.15880305058E+02  0.13756897061E+03 -0.28793369817E+03  0.34382004058E+03  0.12700000000E+03 0.  0.
   -5000001    1    1    2    0    0 -0.15880305058E+02 -0.13756897061E+03 -0.38690778267E+03  0.43012095747E+03  0.12700000000E+03 0.  0.
<mgrwt>
<rscale>  0 0.37891113E+03</rscale>
<asrwt>0</asrwt>
<pdfrwt beam="1">  1        2 0.10348446E+00 0.37891113E+03</pdfrwt>
<pdfrwt beam="2">  1       -2 0.70785374E-02 0.37891113E+03</pdfrwt>
<totfact> 0.50745244E+03</totfact>
</mgrwt>
</event>
<event>
 4    1  0.1390278E-004  0.2753249E+03  0.7818608E-02  0.1098270E+00
         -2   -1    0    0    0  501 -0.00000000000E+00  0.00000000000E+00  0.46151611969E+03  0.46151611970E+03  0.25500000000E-02 0. -1.
          2   -1    0    0  501    0  0.00000000000E+00 -0.00000000000E+00 -0.41062380982E+02  0.41062381061E+02  0.25500000000E-02 0.  1.
    5000001    1    1    2    0    0  0.26798590864E+02  0.37902950400E+02  0.25737570938E+03  0.29073364769E+03  0.12700000000E+03 0.  0.
   -5000001    1    1    2    0    0 -0.26798590864E+02 -0.37902950400E+02  0.16307802933E+03  0.21184485307E+03  0.12700000000E+03 0.  0.
<mgrwt>
<rscale>  0 0.27532490E+03</rscale>
<asrwt>0</asrwt>
<pdfrwt beam="1">  1        2 0.58660550E-02 0.27532490E+03</pdfrwt>
<pdfrwt beam="2">  1       -2 0.65930868E-01 0.27532490E+03</pdfrwt>
<totfact> 0.27520481E+03</totfact>
</mgrwt>
</event>
<event>
 4    1  0.1390278E-004  0.2964900E+03  0.7818608E-02  0.1087008E+00
          2   -1    0    0  501    0  0.00000000000E+00  0.00000000000E+00  0.58110492607E+02  0.58110492663E+02  0.25500000000E-02 0.  1.
         -2   -1    0    0    0  501 -0.00000000000E+00 -0.00000000000E+00 -0.37818611937E+03  0.37818611938E+03  0.25500000000E-02 0. -1.
    5000001    1    1    2    0    0 -0.33145119330E+01  0.56153074839E+02 -0.23626620206E+03  0.27407092520E+03  0.12700000000E+03 0.  0.
   -5000001    1    1    2    0    0  0.33145119330E+01 -0.56153074839E+02 -0.83809424708E+02  0.16222568685E+03  0.12700000000E+03 0.  0.
<mgrwt>
<rscale>  0 0.29649001E+03</rscale>
<asrwt>0</asrwt>
<pdfrwt beam="1">  1        2 0.83014992E-02 0.29649001E+03</pdfrwt>
<pdfrwt beam="2">  1       -2 0.54026587E-01 0.29649001E+03</pdfrwt>
<totfact> 0.26629283E+03</totfact>
</mgrwt>
</event>
<event>
 4    1  0.1390278E-004  0.4516686E+03  0.7818608E-02  0.1027226E+00
         -2   -1    0    0    0  501 -0.00000000000E+00  0.00000000000E+00  0.36645830603E+02  0.36645830691E+02  0.25500000000E-02 0. -1.
          2   -1    0    0  501    0  0.00000000000E+00 -0.00000000000E+00 -0.13917305039E+04  0.13917305039E+04  0.25500000000E-02 0.  1.
    5000001    1    1    2    0    0  0.18519120472E+03 -0.23710414735E+02 -0.66564453388E+03  0.70290085471E+03  0.12700000000E+03 0.  0.
   -5000001    1    1    2    0    0 -0.18519120472E+03  0.23710414735E+02 -0.68944013946E+03  0.72547547992E+03  0.12700000000E+03 0.  0.
<mgrwt>
<rscale>  0 0.45166855E+03</rscale>
<asrwt>0</asrwt>
<pdfrwt beam="1">  1        2 0.19881861E+00 0.45166855E+03</pdfrwt>
<pdfrwt beam="2">  1       -2 0.52351196E-02 0.45166855E+03</pdfrwt>
<totfact> 0.32407131E+03</totfact>
</mgrwt>
</event>
<event>
 4    1  0.1390278E-004  0.4058625E+03  0.7818608E-02  0.1041768E+00
          2   -1    0    0  501    0  0.00000000000E+00  0.00000000000E+00  0.11014067623E+04  0.11014067623E+04  0.25500000000E-02 0.  1.
         -2   -1    0    0    0  501 -0.00000000000E+00 -0.00000000000E+00 -0.37389532202E+02  0.37389532289E+02  0.25500000000E-02 0. -1.
    5000001    1    1    2    0    0 -0.22860994614E+02 -0.44190248034E+02  0.95360532049E+03  0.96331070292E+03  0.12700000000E+03 0.  0.
   -5000001    1    1    2    0    0  0.22860994614E+02  0.44190248034E+02  0.11041190957E+03  0.17548559163E+03  0.12700000000E+03 0.  0.
<mgrwt>
<rscale>  0 0.40586246E+03</rscale>
<asrwt>0</asrwt>
<pdfrwt beam="1">  1        2 0.15734383E+00 0.40586246E+03</pdfrwt>
<pdfrwt beam="2">  1       -2 0.53413614E-02 0.40586246E+03</pdfrwt>
<totfact> 0.45252064E+03</totfact>
</mgrwt>
</event>
<event>
 4    1  0.1390278E-004  0.3465650E+03  0.7818608E-02  0.1064034E+00
         -2   -1    0    0    0  501 -0.00000000000E+00  0.00000000000E+00  0.16941061934E+02  0.16941062126E+02  0.25500000000E-02 0. -1.
          2   -1    0    0  501    0  0.00000000000E+00 -0.00000000000E+00 -0.17724288007E+04  0.17724288008E+04  0.25500000000E-02 0.  1.
    5000001    1    1    2    0    0 -0.82781842454E+01 -0.11752848863E+03 -0.85686511156E+03  0.87420151760E+03  0.12700000000E+03 0.  0.
   -5000001    1    1    2    0    0  0.82781842454E+01  0.11752848863E+03 -0.89862262726E+03  0.91516834528E+03  0.12700000000E+03 0.  0.
<mgrwt>
<rscale>  0 0.34656501E+03</rscale>
<asrwt>0</asrwt>
<pdfrwt beam="1">  1        2 0.25320400E+00 0.34656501E+03</pdfrwt>
<pdfrwt beam="2">  1       -2 0.24201529E-02 0.34656501E+03</pdfrwt>
<totfact> 0.66730279E+03</totfact>
</mgrwt>
</event>
<event>
 4    1  0.1390278E-004  0.6045720E+03  0.7818608E-02  0.9895966E-01
          2   -1    0    0  501    0  0.00000000000E+00  0.00000000000E+00  0.12762755150E+03  0.12762755152E+03  0.25500000000E-02 0.  1.
         -2   -1    0    0    0  501 -0.00000000000E+00 -0.00000000000E+00 -0.71596473641E+03  0.71596473642E+03  0.25500000000E-02 0. -1.
    5000001    1    1    2    0    0  0.27080926319E+03 -0.42561831205E+02 -0.30802831796E+03  0.43146217815E+03  0.12700000000E+03 0.  0.
   -5000001    1    1    2    0    0 -0.27080926319E+03  0.42561831205E+02 -0.28030886695E+03  0.41213010979E+03  0.12700000000E+03 0.  0.
<mgrwt>
<rscale>  0 0.60457200E+03</rscale>
<asrwt>0</asrwt>
<pdfrwt beam="1">  1        2 0.18232508E-01 0.60457200E+03</pdfrwt>
<pdfrwt beam="2">  1       -2 0.10228067E+00 0.60457200E+03</pdfrwt>
<totfact> 0.25109124E+02</totfact>
</mgrwt>
</event>
<event>
 4    1  0.1390278E-004  0.5943572E+03  0.7818608E-02  0.9917183E-01
         -2   -1    0    0    0  501 -0.00000000000E+00  0.00000000000E+00  0.24285624529E+03  0.24285624531E+03  0.25500000000E-02 0. -1.
          2   -1    0    0  501    0  0.00000000000E+00 -0.00000000000E+00 -0.36365183079E+03  0.36365183080E+03  0.25500000000E-02 0.  1.
    5000001    1    1    2    0    0  0.25734896327E+03  0.35873953015E+02 -0.13013740564E+03  0.31714377457E+03  0.12700000000E+03 0.  0.
   -5000001    1    1    2    0    0 -0.25734896327E+03 -0.35873953015E+02  0.93418201486E+01  0.28936430154E+03  0.12700000000E+03 0.  0.
<mgrwt>
<rscale>  0 0.59435719E+03</rscale>
<asrwt>0</asrwt>
<pdfrwt beam="1">  1        2 0.51950262E-01 0.59435719E+03</pdfrwt>
<pdfrwt beam="2">  1       -2 0.34693749E-01 0.59435719E+03</pdfrwt>
<totfact> 0.75303551E+02</totfact>
</mgrwt>
</event>
<event>
 4    1  0.1390278E-004  0.7368414E+03  0.7818608E-02  0.9656223E-01
         -2   -1    0    0    0  501 -0.00000000000E+00  0.00000000000E+00  0.99873149792E+02  0.99873149825E+02  0.25500000000E-02 0. -1.
          2   -1    0    0  501    0  0.00000000000E+00 -0.00000000000E+00 -0.13590620075E+04  0.13590620075E+04  0.25500000000E-02 0.  1.
    5000001    1    1    2    0    0  0.13792510857E+03 -0.82215044731E+02 -0.23116940086E+02  0.20602437252E+03  0.12700000000E+03 0.  0.
   -5000001    1    1    2    0    0 -0.13792510857E+03  0.82215044731E+02 -0.12360719176E+04  0.12529107848E+04  0.12700000000E+03 0.  0.
<mgrwt>
<rscale>  0 0.73684138E+03</rscale>
<asrwt>0</asrwt>
<pdfrwt beam="1">  1        2 0.19415170E+00 0.73684138E+03</pdfrwt>
<pdfrwt beam="2">  1       -2 0.14267594E-01 0.73684138E+03</pdfrwt>
<totfact> 0.66925197E+02</totfact>
</mgrwt>
</event>
<event>
 4    1  0.1390278E-004  0.3084883E+03  0.7818608E-02  0.1081073E+00
         -2   -1    0    0    0  501 -0.00000000000E+00  0.00000000000E+00  0.35590523514E+02  0.35590523605E+02  0.25500000000E-02 0.  1.
          2   -1    0    0  501    0  0.00000000000E+00 -0.00000000000E+00 -0.66847166338E+03  0.66847166338E+03  0.25500000000E-02 0. -1.
    5000001    1    1    2    0    0  0.82968031089E+02  0.10063331640E+02 -0.37583698034E+03  0.40542249643E+03  0.12700000000E+03 0.  0.
   -5000001    1    1    2    0    0 -0.82968031089E+02 -0.10063331640E+02 -0.25704415953E+03  0.29863969055E+03  0.12700000000E+03 0.  0.
<mgrwt>
<rscale>  0 0.30848829E+03</rscale>
<asrwt>0</asrwt>
<pdfrwt beam="1">  1        2 0.95495945E-01 0.30848829E+03</pdfrwt>
<pdfrwt beam="2">  1       -2 0.50843609E-02 0.30848829E+03</pdfrwt>
<totfact> 0.92596912E+03</totfact>
</mgrwt>
</event>
<event>
 4    1  0.1390278E-004  0.2855724E+03  0.7818608E-02  0.1092684E+00
         -2   -1    0    0    0  501 -0.00000000000E+00  0.00000000000E+00  0.22392539573E+02  0.22392539718E+02  0.25500000000E-02 0. -1.
          2   -1    0    0  501    0  0.00000000000E+00 -0.00000000000E+00 -0.91047727383E+03  0.91047727384E+03  0.25500000000E-02 0.  1.
    5000001    1    1    2    0    0 -0.35394316417E+02 -0.37297503213E+02 -0.57532160946E+03  0.59141171420E+03  0.12700000000E+03 0.  0.
   -5000001    1    1    2    0    0  0.35394316417E+02  0.37297503213E+02 -0.31276312480E+03  0.34145809935E+03  0.12700000000E+03 0.  0.
<mgrwt>
<rscale>  0 0.28557240E+03</rscale>
<asrwt>0</asrwt>
<pdfrwt beam="1">  1        2 0.13006816E+00 0.28557240E+03</pdfrwt>
<pdfrwt beam="2">  1       -2 0.31989348E-02 0.28557240E+03</pdfrwt>
<totfact> 0.12685729E+04</totfact>
</mgrwt>
</event>
<event>
 4    1  0.1390278E-004  0.2942858E+03  0.7818608E-02  0.1088132E+00
         -2   -1    0    0    0  501 -0.00000000000E+00  0.00000000000E+00  0.15528389384E+02  0.15528389593E+02  0.25500000000E-02 0. -1.
          2   -1    0    0  501    0  0.00000000000E+00 -0.00000000000E+00 -0.13942867711E+04  0.13942867711E+04  0.25500000000E-02 0.  1.
    5000001    1    1    2    0    0  0.67739675358E+02 -0.21830713101E+02 -0.79176707011E+03  0.80503995986E+03  0.12700000000E+03 0.  0.
   -5000001    1    1    2    0    0 -0.67739675358E+02  0.21830713101E+02 -0.58699131163E+03  0.60477520087E+03  0.12700000000E+03 0.  0.
<mgrwt>
<rscale>  0 0.29428577E+03</rscale>
<asrwt>0</asrwt>
<pdfrwt beam="1">  1        2 0.19918375E+00 0.29428577E+03</pdfrwt>
<pdfrwt beam="2">  1       -2 0.22183422E-02 0.29428577E+03</pdfrwt>
<totfact> 0.11739052E+04</totfact>
</mgrwt>
</event>
<event>
 4    1  0.1390278E-004  0.3594595E+03  0.7818608E-02  0.1058798E+00
         -2   -1    0    0    0  501 -0.00000000000E+00  0.00000000000E+00  0.93028250534E+01  0.93028254029E+01  0.25500000000E-02 0. -1.
          2   -1    0    0  501    0  0.00000000000E+00 -0.00000000000E+00 -0.34723628870E+04  0.34723628870E+04  0.25500000000E-02 0.  1.
    5000001    1    1    2    0    0 -0.95777639295E+02  0.68559658197E+01 -0.25392047073E+04  0.25441914051E+04  0.12700000000E+03 0.  0.
   -5000001    1    1    2    0    0  0.95777639295E+02 -0.68559658197E+01 -0.92385535470E+03  0.93747430731E+03  0.12700000000E+03 0.  0.
<mgrwt>
<rscale>  0 0.35945951E+03</rscale>
<asrwt>0</asrwt>
<pdfrwt beam="1">  1        2 0.49605101E+00 0.35945951E+03</pdfrwt>
<pdfrwt beam="2">  1       -2 0.13289772E-02 0.35945951E+03</pdfrwt>
<totfact> 0.21233699E+03</totfact>
</mgrwt>
</event>
<event>
 4    1  0.1390278E-004  0.4399391E+03  0.7818608E-02  0.1030765E+00
          2   -1    0    0  501    0  0.00000000000E+00  0.00000000000E+00  0.10941188839E+04  0.10941188839E+04  0.25500000000E-02 0.  1.
         -2   -1    0    0    0  501 -0.00000000000E+00 -0.00000000000E+00 -0.44224272593E+02  0.44224272666E+02  0.25500000000E-02 0. -1.
    5000001    1    1    2    0    0  0.15037995437E+03  0.90577337874E+02  0.62310972382E+03  0.65970683848E+03  0.12700000000E+03 0.  0.
   -5000001    1    1    2    0    0 -0.15037995437E+03 -0.90577337874E+02  0.42678488750E+03  0.47863631810E+03  0.12700000000E+03 0.  0.
<mgrwt>
<rscale>  0 0.43993914E+03</rscale>
<asrwt>0</asrwt>
<pdfrwt beam="1">  1        2 0.15630269E+00 0.43993914E+03</pdfrwt>
<pdfrwt beam="2">  1       -2 0.63177534E-02 0.43993914E+03</pdfrwt>
<totfact> 0.35244475E+03</totfact>
</mgrwt>
</event>
<event>
 4    1  0.1390278E-004  0.4696574E+03  0.7818608E-02  0.1022017E+00
          2   -1    0    0  501    0  0.00000000000E+00  0.00000000000E+00  0.31946976304E+03  0.31946976305E+03  0.25500000000E-02 0.  1.
         -2   -1    0    0    0  501 -0.00000000000E+00 -0.00000000000E+00 -0.17261266600E+03  0.17261266602E+03  0.25500000000E-02 0. -1.
    5000001    1    1    2    0    0 -0.13017423601E+03  0.98783094862E+02 -0.42829398091E+02  0.21134518895E+03  0.12700000000E+03 0.  0.
   -5000001    1    1    2    0    0  0.13017423601E+03 -0.98783094862E+02  0.18968649514E+03  0.28073724012E+03  0.12700000000E+03 0.  0.
<mgrwt>
<rscale>  0 0.46965744E+03</rscale>
<asrwt>0</asrwt>
<pdfrwt beam="1">  1        2 0.45638537E-01 0.46965744E+03</pdfrwt>
<pdfrwt beam="2">  1       -2 0.24658953E-01 0.46965744E+03</pdfrwt>
<totfact> 0.16253492E+03</totfact>
</mgrwt>
</event>
<event>
 4    1  0.1390278E-004  0.3873809E+03  0.7818608E-02  0.1048239E+00
          2   -1    0    0  501    0  0.00000000000E+00  0.00000000000E+00  0.15336027230E+04  0.15336027230E+04  0.25500000000E-02 0. -1.
         -2   -1    0    0    0  501 -0.00000000000E+00 -0.00000000000E+00 -0.24462651029E+02  0.24462651162E+02  0.25500000000E-02 0.  1.
    5000001    1    1    2    0    0 -0.40247789068E+02  0.38746433063E+02  0.12981545105E+04  0.13055478941E+04  0.12700000000E+03 0.  0.
   -5000001    1    1    2    0    0  0.40247789068E+02 -0.38746433063E+02  0.21098556147E+03  0.25251748009E+03  0.12700000000E+03 0.  0.
<mgrwt>
<rscale>  0 0.38738089E+03</rscale>
<asrwt>0</asrwt>
<pdfrwt beam="1">  1        2 0.21908612E+00 0.38738089E+03</pdfrwt>
<pdfrwt beam="2">  1       -2 0.34946642E-02 0.38738089E+03</pdfrwt>
<totfact> 0.50714814E+03</totfact>
</mgrwt>
</event>
<event>
 4    1  0.1390278E-004  0.3269675E+03  0.7818608E-02  0.1072487E+00
         -2   -1    0    0    0  501 -0.00000000000E+00  0.00000000000E+00  0.36527299552E+02  0.36527299641E+02  0.25500000000E-02 0. -1.
          2   -1    0    0  501    0  0.00000000000E+00 -0.00000000000E+00 -0.73169749128E+03  0.73169749129E+03  0.25500000000E-02 0.  1.
    5000001    1    1    2    0    0 -0.92851368246E+01 -0.10149922060E+03 -0.31356713060E+03  0.35332938024E+03  0.12700000000E+03 0.  0.
   -5000001    1    1    2    0    0  0.92851368246E+01  0.10149922060E+03 -0.38160306113E+03  0.41489541069E+03  0.12700000000E+03 0.  0.
<mgrwt>
<rscale>  0 0.32696748E+03</rscale>
<asrwt>0</asrwt>
<pdfrwt beam="1">  1        2 0.10452820E+00 0.32696748E+03</pdfrwt>
<pdfrwt beam="2">  1       -2 0.52181861E-02 0.32696748E+03</pdfrwt>
<totfact> 0.80039025E+03</totfact>
</mgrwt>
</event>
<event>
 4    1  0.1390278E-004  0.3982221E+03  0.7818608E-02  0.1044397E+00
         -2   -1    0    0    0  501 -0.00000000000E+00  0.00000000000E+00  0.13985739804E+02  0.13985740036E+02  0.25500000000E-02 0. -1.
          2   -1    0    0  501    0  0.00000000000E+00 -0.00000000000E+00 -0.28346874598E+04  0.28346874598E+04  0.25500000000E-02 0.  1.
    5000001    1    1    2    0    0 -0.22201296292E+02 -0.14010703685E+03 -0.18270569721E+04  0.18369510224E+04  0.12700000000E+03 0.  0.
   -5000001    1    1    2    0    0  0.22201296292E+02  0.14010703685E+03 -0.99364474783E+03  0.10117221774E+04  0.12700000000E+03 0.  0.
<mgrwt>
<rscale>  0 0.39822206E+03</rscale>
<asrwt>0</asrwt>
<pdfrwt beam="1">  1        2 0.40495499E+00 0.39822206E+03</pdfrwt>
<pdfrwt beam="2">  1       -2 0.19979647E-02 0.39822206E+03</pdfrwt>
<totfact> 0.25983450E+03</totfact>
</mgrwt>
</event>
<event>
 4    1  0.1390278E-004  0.3789184E+03  0.7818608E-02  0.1051334E+00
         -2   -1    0    0    0  501 -0.00000000000E+00  0.00000000000E+00  0.59048881303E+02  0.59048881358E+02  0.25500000000E-02 0. -1.
          2   -1    0    0  501    0  0.00000000000E+00 -0.00000000000E+00 -0.60788253673E+03  0.60788253674E+03  0.25500000000E-02 0.  1.
    5000001    1    1    2    0    0  0.86952456648E+02 -0.64649122429E+02 -0.43209543608E+03  0.46322316935E+03  0.12700000000E+03 0.  0.
   -5000001    1    1    2    0    0 -0.86952456648E+02  0.64649122429E+02 -0.11673821935E+03  0.20370824874E+03  0.12700000000E+03 0.  0.
<mgrwt>
<rscale>  0 0.37891838E+03</rscale>
<asrwt>0</asrwt>
<pdfrwt beam="1">  1        2 0.86840359E-01 0.37891838E+03</pdfrwt>
<pdfrwt beam="2">  1       -2 0.84355548E-02 0.37891838E+03</pdfrwt>
<totfact> 0.47418525E+03</totfact>
</mgrwt>
</event>
<event>
 4    1  0.1390278E-004  0.7854215E+03  0.7818608E-02  0.9581362E-01
          2   -1    0    0  501    0  0.00000000000E+00  0.00000000000E+00  0.21106740640E+04  0.21106740640E+04  0.25500000000E-02 0.  1.
         -2   -1    0    0    0  501 -0.00000000000E+00 -0.00000000000E+00 -0.73067529918E+02  0.73067529962E+02  0.25500000000E-02 0. -1.
    5000001    1    1    2    0    0  0.24576400666E+03  0.23027694396E+03  0.58214483635E+03  0.68443336299E+03  0.12700000000E+03 0.  0.
   -5000001    1    1    2    0    0 -0.24576400666E+03 -0.23027694396E+03  0.14554616978E+04  0.14993082310E+04  0.12700000000E+03 0.  0.
<mgrwt>
<rscale>  0 0.78542152E+03</rscale>
<asrwt>0</asrwt>
<pdfrwt beam="1">  1        2 0.30152489E+00 0.78542152E+03</pdfrwt>
<pdfrwt beam="2">  1       -2 0.10438218E-01 0.78542152E+03</pdfrwt>
<totfact> 0.45922317E+02</totfact>
</mgrwt>
</event>
<event>
 4    1  0.1390278E-004  0.2914995E+03  0.7818608E-02  0.1089569E+00
          2   -1    0    0  501    0  0.00000000000E+00  0.00000000000E+00  0.37992528756E+03  0.37992528756E+03  0.25500000000E-02 0.  1.
         -2   -1    0    0    0  501 -0.00000000000E+00 -0.00000000000E+00 -0.55913588709E+02  0.55913588767E+02  0.25500000000E-02 0. -1.
    5000001    1    1    2    0    0 -0.28513806694E+02  0.47136184537E+02  0.23018144287E+03  0.26860259438E+03  0.12700000000E+03 0.  0.
   -5000001    1    1    2    0    0  0.28513806694E+02 -0.47136184537E+02  0.93830255975E+02  0.16723628195E+03  0.12700000000E+03 0.  0.
<mgrwt>
<rscale>  0 0.29149948E+03</rscale>
<asrwt>0</asrwt>
<pdfrwt beam="1">  1        2 0.54275043E-01 0.29149948E+03</pdfrwt>
<pdfrwt beam="2">  1       -2 0.79876552E-02 0.29149948E+03</pdfrwt>
<totfact> 0.86479396E+03</totfact>
</mgrwt>
</event>
<event>
 4    1  0.1390278E-004  0.4734679E+03  0.7818608E-02  0.1020946E+00
          2   -1    0    0  501    0  0.00000000000E+00  0.00000000000E+00  0.27404120680E+04  0.27404120680E+04  0.25500000000E-02 0.  1.
         -2   -1    0    0    0  501 -0.00000000000E+00 -0.00000000000E+00 -0.20450560980E+02  0.20450561139E+02  0.25500000000E-02 0. -1.
    5000001    1    1    2    0    0 -0.71503159111E+02 -0.18616450992E+03  0.12899977607E+04  0.13114850929E+04  0.12700000000E+03 0.  0.
   -5000001    1    1    2    0    0  0.71503159111E+02  0.18616450992E+03  0.14299637464E+04  0.14493775362E+04  0.12700000000E+03 0.  0.
<mgrwt>
<rscale>  0 0.47346791E+03</rscale>
<asrwt>0</asrwt>
<pdfrwt beam="1">  1        2 0.39148732E+00 0.47346791E+03</pdfrwt>
<pdfrwt beam="2">  1       -2 0.29215096E-02 0.47346791E+03</pdfrwt>
<totfact> 0.16381600E+03</totfact>
</mgrwt>
</event>
<event>
 4    1  0.1390278E-004  0.3885962E+03  0.7818608E-02  0.1047802E+00
          2   -1    0    0  501    0  0.00000000000E+00  0.00000000000E+00  0.76363395682E+03  0.76363395682E+03  0.25500000000E-02 0.  1.
         -2   -1    0    0    0  501 -0.00000000000E+00 -0.00000000000E+00 -0.49436983025E+02  0.49436983091E+02  0.25500000000E-02 0. -1.
    5000001    1    1    2    0    0 -0.11894048357E+03  0.19256273692E+02  0.18073225243E+03  0.25161635435E+03  0.12700000000E+03 0.  0.
   -5000001    1    1    2    0    0  0.11894048357E+03 -0.19256273692E+02  0.53346472136E+03  0.56145458556E+03  0.12700000000E+03 0.  0.
<mgrwt>
<rscale>  0 0.38859624E+03</rscale>
<asrwt>0</asrwt>
<pdfrwt beam="1">  1        2 0.10909056E+00 0.38859624E+03</pdfrwt>
<pdfrwt beam="2">  1       -2 0.70624263E-02 0.38859624E+03</pdfrwt>
<totfact> 0.47760700E+03</totfact>
</mgrwt>
</event>
<event>
 4    1  0.1390278E-004  0.3955570E+03  0.7818608E-02  0.1045329E+00
         -2   -1    0    0    0  501 -0.00000000000E+00  0.00000000000E+00  0.11348297964E+03  0.11348297966E+03  0.25500000000E-02 0. -1.
          2   -1    0    0  501    0  0.00000000000E+00 -0.00000000000E+00 -0.34468898191E+03  0.34468898192E+03  0.25500000000E-02 0.  1.
    5000001    1    1    2    0    0 -0.14714091191E+03 -0.33338944790E+02 -0.13299285558E+03  0.23786137314E+03  0.12700000000E+03 0.  0.
   -5000001    1    1    2    0    0  0.14714091191E+03  0.33338944790E+02 -0.98213146692E+02  0.22031058844E+03  0.12700000000E+03 0.  0.
<mgrwt>
<rscale>  0 0.39555699E+03</rscale>
<asrwt>0</asrwt>
<pdfrwt beam="1">  1        2 0.49241283E-01 0.39555699E+03</pdfrwt>
<pdfrwt beam="2">  1       -2 0.16211854E-01 0.39555699E+03</pdfrwt>
<totfact> 0.30834998E+03</totfact>
</mgrwt>
</event>
<event>
 4    1  0.1390278E-004  0.3295320E+03  0.7818608E-02  0.1071344E+00
          2   -1    0    0  501    0  0.00000000000E+00  0.00000000000E+00  0.15195895834E+03  0.15195895837E+03  0.25500000000E-02 0.  1.
         -2   -1    0    0    0  501 -0.00000000000E+00 -0.00000000000E+00 -0.17865242183E+03  0.17865242185E+03  0.25500000000E-02 0. -1.
    5000001    1    1    2    0    0 -0.59520366847E+02 -0.78654337799E+02 -0.49376154689E+02  0.16821469489E+03  0.12700000000E+03 0.  0.
   -5000001    1    1    2    0    0  0.59520366847E+02  0.78654337799E+02  0.22682691206E+02  0.16239668532E+03  0.12700000000E+03 0.  0.
<mgrwt>
<rscale>  0 0.32953201E+03</rscale>
<asrwt>0</asrwt>
<pdfrwt beam="1">  1        2 0.21708423E-01 0.32953201E+03</pdfrwt>
<pdfrwt beam="2">  1       -2 0.25521775E-01 0.32953201E+03</pdfrwt>
<totfact> 0.34689816E+03</totfact>
</mgrwt>
</event>
<event>
 4    1  0.1390278E-004  0.8932419E+03  0.7818608E-02  0.9434069E-01
         -2   -1    0    0    0  501 -0.00000000000E+00  0.00000000000E+00  0.45409025954E+02  0.45409026025E+02  0.25500000000E-02 0. -1.
          2   -1    0    0  501    0  0.00000000000E+00 -0.00000000000E+00 -0.43927449323E+04  0.43927449323E+04  0.25500000000E-02 0.  1.
    5000001    1    1    2    0    0 -0.31724443559E+02  0.42452729487E+03 -0.24019748295E+04  0.24427120063E+04  0.12700000000E+03 0.  0.
   -5000001    1    1    2    0    0  0.31724443559E+02 -0.42452729487E+03 -0.19453610769E+04  0.19954419520E+04  0.12700000000E+03 0.  0.
<mgrwt>
<rscale>  0 0.89324189E+03</rscale>
<asrwt>0</asrwt>
<pdfrwt beam="1">  1        2 0.62753472E+00 0.89324189E+03</pdfrwt>
<pdfrwt beam="2">  1       -2 0.64870065E-02 0.89324189E+03</pdfrwt>
<totfact> 0.43770412E+01</totfact>
</mgrwt>
</event>
<event>
 4    1  0.1390278E-004  0.5506971E+03  0.7818608E-02  0.1001333E+00
         -2   -1    0    0    0  501 -0.00000000000E+00  0.00000000000E+00  0.22267527050E+02  0.22267527196E+02  0.25500000000E-02 0. -1.
          2   -1    0    0  501    0  0.00000000000E+00 -0.00000000000E+00 -0.34048158059E+04  0.34048158059E+04  0.25500000000E-02 0.  1.
    5000001    1    1    2    0    0  0.41156830165E+02 -0.20666554703E+03 -0.24606177750E+04  0.24728876578E+04  0.12700000000E+03 0.  0.
   -5000001    1    1    2    0    0 -0.41156830165E+02  0.20666554703E+03 -0.92193050383E+03  0.95419567537E+03  0.12700000000E+03 0.  0.
<mgrwt>
<rscale>  0 0.55069712E+03</rscale>
<asrwt>0</asrwt>
<pdfrwt beam="1">  1        2 0.48640193E+00 0.55069712E+03</pdfrwt>
<pdfrwt beam="2">  1       -2 0.31810775E-02 0.55069712E+03</pdfrwt>
<totfact> 0.61736833E+02</totfact>
</mgrwt>
</event>
<event>
 4    1  0.1390278E-004  0.5012249E+03  0.7818608E-02  0.1013460E+00
         -2   -1    0    0    0  501 -0.00000000000E+00  0.00000000000E+00  0.53091792848E+03  0.53091792848E+03  0.25500000000E-02 0. -1.
          2   -1    0    0  501    0  0.00000000000E+00 -0.00000000000E+00 -0.11829812963E+03  0.11829812965E+03  0.25500000000E-02 0.  1.
    5000001    1    1    2    0    0 -0.20960780216E+03  0.50224316967E+02  0.18711185397E+03  0.31240639980E+03  0.12700000000E+03 0.  0.
   -5000001    1    1    2    0    0  0.20960780216E+03 -0.50224316967E+02  0.22550794488E+03  0.33680965834E+03  0.12700000000E+03 0.  0.
<mgrwt>
<rscale>  0 0.50122489E+03</rscale>
<asrwt>0</asrwt>
<pdfrwt beam="1">  1        2 0.16899733E-01 0.50122489E+03</pdfrwt>
<pdfrwt beam="2">  1       -2 0.75845418E-01 0.50122489E+03</pdfrwt>
<totfact> 0.54506239E+02</totfact>
</mgrwt>
</event>
<event>
 4    1  0.1390278E-004  0.3523371E+03  0.7818608E-02  0.1061660E+00
          2   -1    0    0  501    0  0.00000000000E+00  0.00000000000E+00  0.21943386187E+04  0.21943386187E+04  0.25500000000E-02 0.  1.
         -2   -1    0    0    0  501 -0.00000000000E+00 -0.00000000000E+00 -0.14143380685E+02  0.14143380915E+02  0.25500000000E-02 0. -1.
    5000001    1    1    2    0    0  0.65781893278E+02 -0.75765030302E+02  0.65408115347E+03  0.67380913664E+03  0.12700000000E+03 0.  0.
   -5000001    1    1    2    0    0 -0.65781893278E+02  0.75765030302E+02  0.15261140846E+04  0.15346728630E+04  0.12700000000E+03 0.  0.
<mgrwt>
<rscale>  0 0.35233715E+03</rscale>
<asrwt>0</asrwt>
<pdfrwt beam="1">  1        2 0.31347711E+00 0.35233715E+03</pdfrwt>
<pdfrwt beam="2">  1       -2 0.20204819E-02 0.35233715E+03</pdfrwt>
<totfact> 0.54052781E+03</totfact>
</mgrwt>
</event>
<event>
 4    1  0.1390278E-004  0.3063159E+03  0.7818608E-02  0.1082125E+00
          2   -1    0    0  501    0  0.00000000000E+00  0.00000000000E+00  0.41703703634E+03  0.41703703635E+03  0.25500000000E-02 0.  1.
         -2   -1    0    0    0  501 -0.00000000000E+00 -0.00000000000E+00 -0.56247644453E+02  0.56247644511E+02  0.25500000000E-02 0. -1.
    5000001    1    1    2    0    0  0.67678514899E+02 -0.45162306761E+02  0.13927285845E+03  0.20529477448E+03  0.12700000000E+03 0.  0.
   -5000001    1    1    2    0    0 -0.67678514899E+02  0.45162306761E+02  0.22151653344E+03  0.26798990637E+03  0.12700000000E+03 0.  0.
<mgrwt>
<rscale>  0 0.30631586E+03</rscale>
<asrwt>0</asrwt>
<pdfrwt beam="1">  1        2 0.59576721E-01 0.30631586E+03</pdfrwt>
<pdfrwt beam="2">  1       -2 0.80353776E-02 0.30631586E+03</pdfrwt>
<totfact> 0.77574018E+03</totfact>
</mgrwt>
</event>
<event>
 4    1  0.1390278E-004  0.4813767E+03  0.7818608E-02  0.1018758E+00
         -2   -1    0    0    0  501 -0.00000000000E+00  0.00000000000E+00  0.31177042085E+03  0.31177042086E+03  0.25500000000E-02 0. -1.
          2   -1    0    0  501    0  0.00000000000E+00 -0.00000000000E+00 -0.18581259691E+03  0.18581259693E+03  0.25500000000E-02 0.  1.
    5000001    1    1    2    0    0  0.78061857268E+02 -0.48950903978E+02 -0.12568161915E+03  0.20103411141E+03  0.12700000000E+03 0.  0.
   -5000001    1    1    2    0    0 -0.78061857268E+02  0.48950903978E+02  0.25163944309E+03  0.29654890638E+03  0.12700000000E+03 0.  0.
<mgrwt>
<rscale>  0 0.48137666E+03</rscale>
<asrwt>0</asrwt>
<pdfrwt beam="1">  1        2 0.26544657E-01 0.48137666E+03</pdfrwt>
<pdfrwt beam="2">  1       -2 0.44538631E-01 0.48137666E+03</pdfrwt>
<totfact> 0.97968473E+02</totfact>
</mgrwt>
</event>
<event>
 4    1  0.1390278E-004  0.4812446E+03  0.7818608E-02  0.1018794E+00
         -2   -1    0    0    0  501 -0.00000000000E+00  0.00000000000E+00  0.10976796848E+04  0.10976796848E+04  0.25500000000E-02 0. -1.
          2   -1    0    0  501    0  0.00000000000E+00 -0.00000000000E+00 -0.52746810935E+02  0.52746810997E+02  0.25500000000E-02 0.  1.
    5000001    1    1    2    0    0 -0.14428770053E+03  0.82062610745E+02  0.23743335553E+03  0.31631757922E+03  0.12700000000E+03 0.  0.
   -5000001    1    1    2    0    0  0.14428770053E+03 -0.82062610745E+02  0.80749951831E+03  0.83410891656E+03  0.12700000000E+03 0.  0.
<mgrwt>
<rscale>  0 0.48124465E+03</rscale>
<asrwt>0</asrwt>
<pdfrwt beam="1">  1        2 0.75352593E-02 0.48124465E+03</pdfrwt>
<pdfrwt beam="2">  1       -2 0.15681137E+00 0.48124465E+03</pdfrwt>
<totfact> 0.25943302E+02</totfact>
</mgrwt>
</event>
<event>
 4    1  0.1390278E-004  0.4128168E+03  0.7818608E-02  0.1039430E+00
         -2   -1    0    0    0  501 -0.00000000000E+00  0.00000000000E+00  0.14836679018E+02  0.14836679237E+02  0.25500000000E-02 0. -1.
          2   -1    0    0  501    0  0.00000000000E+00 -0.00000000000E+00 -0.28715604183E+04  0.28715604183E+04  0.25500000000E-02 0.  1.
    5000001    1    1    2    0    0 -0.14219258531E+03  0.55013849228E+02 -0.10309771660E+04  0.10498991246E+04  0.12700000000E+03 0.  0.
   -5000001    1    1    2    0    0  0.14219258531E+03 -0.55013849228E+02 -0.18257465733E+04  0.18364979730E+04  0.12700000000E+03 0.  0.
<mgrwt>
<rscale>  0 0.41281677E+03</rscale>
<asrwt>0</asrwt>
<pdfrwt beam="1">  1        2 0.41022256E+00 0.41281677E+03</pdfrwt>
<pdfrwt beam="2">  1       -2 0.21195274E-02 0.41281677E+03</pdfrwt>
<totfact> 0.22730987E+03</totfact>
</mgrwt>
</event>
<event>
 4    1  0.1390278E-004  0.4023851E+03  0.7818608E-02  0.1042957E+00
         -2   -1    0    0    0  501 -0.00000000000E+00  0.00000000000E+00  0.19049155808E+02  0.19049155978E+02  0.25500000000E-02 0. -1.
          2   -1    0    0  501    0  0.00000000000E+00 -0.00000000000E+00 -0.21249471450E+04  0.21249471450E+04  0.25500000000E-02 0.  1.
    5000001    1    1    2    0    0  0.60614646187E+02  0.12602214326E+03 -0.68404016859E+03  0.70964474786E+03  0.12700000000E+03 0.  0.
   -5000001    1    1    2    0    0 -0.60614646187E+02 -0.12602214326E+03 -0.14218578206E+04  0.14343515531E+04  0.12700000000E+03 0.  0.
<mgrwt>
<rscale>  0 0.40238514E+03</rscale>
<asrwt>0</asrwt>
<pdfrwt beam="1">  1        2 0.30356373E+00 0.40238514E+03</pdfrwt>
<pdfrwt beam="2">  1       -2 0.27213093E-02 0.40238514E+03</pdfrwt>
<totfact> 0.37487004E+03</totfact>
</mgrwt>
</event>
<event>
 4    1  0.1390278E-004  0.5735161E+03  0.7818608E-02  0.9961928E-01
         -2   -1    0    0    0  501 -0.00000000000E+00  0.00000000000E+00  0.28394653621E+03  0.28394653622E+03  0.25500000000E-02 0.  1.
          2   -1    0    0  501    0  0.00000000000E+00 -0.00000000000E+00 -0.28959744270E+03  0.28959744271E+03  0.25500000000E-02 0. -1.
    5000001    1    1    2    0    0  0.24634278695E+03  0.67501539473E+02  0.26501117166E+02  0.28648304614E+03  0.12700000000E+03 0.  0.
   -5000001    1    1    2    0    0 -0.24634278695E+03 -0.67501539473E+02 -0.32152023657E+02  0.28706093280E+03  0.12700000000E+03 0.  0.
<mgrwt>
<rscale>  0 0.57351614E+03</rscale>
<asrwt>0</asrwt>
<pdfrwt beam="1">  1        2 0.41371063E-01 0.57351614E+03</pdfrwt>
<pdfrwt beam="2">  1       -2 0.40563791E-01 0.57351614E+03</pdfrwt>
<totfact> 0.71752890E+02</totfact>
</mgrwt>
</event>
<event>
 4    1  0.1390278E-004  0.8728033E+03  0.7818608E-02  0.9460232E-01
         -2   -1    0    0    0  501 -0.00000000000E+00  0.00000000000E+00  0.10332600620E+03  0.10332600623E+03  0.25500000000E-02 0. -1.
          2   -1    0    0  501    0  0.00000000000E+00 -0.00000000000E+00 -0.18431604228E+04  0.18431604228E+04  0.25500000000E-02 0.  1.
    5000001    1    1    2    0    0  0.41730915938E+03 -0.10225065862E+02 -0.88802392580E+03  0.98942760183E+03  0.12700000000E+03 0.  0.
   -5000001    1    1    2    0    0 -0.41730915938E+03  0.10225065862E+02 -0.85181049078E+03  0.95705882718E+03  0.12700000000E+03 0.  0.
<mgrwt>
<rscale>  0 0.87280331E+03</rscale>
<asrwt>0</asrwt>
<pdfrwt beam="1">  1        2 0.26330861E+00 0.87280331E+03</pdfrwt>
<pdfrwt beam="2">  1       -2 0.14760859E-01 0.87280331E+03</pdfrwt>
<totfact> 0.35100028E+02</totfact>
</mgrwt>
</event>
<event>
 4    1  0.1390278E-004  0.5433432E+03  0.7818608E-02  0.1003047E+00
          2   -1    0    0  501    0  0.00000000000E+00  0.00000000000E+00  0.80724221380E+03  0.80724221380E+03  0.25500000000E-02 0.  1.
         -2   -1    0    0    0  501 -0.00000000000E+00 -0.00000000000E+00 -0.91429126639E+02  0.91429126674E+02  0.25500000000E-02 0. -1.
    5000001    1    1    2    0    0 -0.23919466963E+02  0.22432664102E+03  0.49411414316E+03  0.55782826142E+03  0.12700000000E+03 0.  0.
   -5000001    1    1    2    0    0  0.23919466963E+02 -0.22432664102E+03  0.22169894400E+03  0.34084307905E+03  0.12700000000E+03 0.  0.
<mgrwt>
<rscale>  0 0.54334317E+03</rscale>
<asrwt>0</asrwt>
<pdfrwt beam="1">  1        2 0.11532032E+00 0.54334317E+03</pdfrwt>
<pdfrwt beam="2">  1       -2 0.13061304E-01 0.54334317E+03</pdfrwt>
<totfact> 0.16622266E+03</totfact>
</mgrwt>
</event>
<event>
 4    1  0.1390278E-004  0.4280806E+03  0.7818608E-02  0.1034468E+00
         -2   -1    0    0    0  501 -0.00000000000E+00  0.00000000000E+00  0.95071057544E+02  0.95071057578E+02  0.25500000000E-02 0. -1.
          2   -1    0    0  501    0  0.00000000000E+00 -0.00000000000E+00 -0.48188427402E+03  0.48188427403E+03  0.25500000000E-02 0.  1.
    5000001    1    1    2    0    0 -0.13880597067E+02 -0.16945895958E+03 -0.15588045305E+03  0.26331867689E+03  0.12700000000E+03 0.  0.
   -5000001    1    1    2    0    0  0.13880597067E+02  0.16945895958E+03 -0.23093276343E+03  0.31363665471E+03  0.12700000000E+03 0.  0.
<mgrwt>
<rscale>  0 0.42808059E+03</rscale>
<asrwt>0</asrwt>
<pdfrwt beam="1">  1        2 0.68840609E-01 0.42808059E+03</pdfrwt>
<pdfrwt beam="2">  1       -2 0.13581580E-01 0.42808059E+03</pdfrwt>
<totfact> 0.28675470E+03</totfact>
</mgrwt>
</event>
<event>
 4    1  0.1390278E-004  0.2979672E+03  0.7818608E-02  0.1086261E+00
          2   -1    0    0  501    0  0.00000000000E+00  0.00000000000E+00  0.92027016747E+02  0.92027016782E+02  0.25500000000E-02 0.  1.
         -2   -1    0    0    0  501 -0.00000000000E+00 -0.00000000000E+00 -0.24119134210E+03  0.24119134211E+03  0.25500000000E-02 0. -1.
    5000001    1    1    2    0    0 -0.57522574797E+02  0.27537228422E+02 -0.12459397412E+03  0.18899683581E+03  0.12700000000E+03 0.  0.
   -5000001    1    1    2    0    0  0.57522574797E+02 -0.27537228422E+02 -0.24570351233E+02  0.14422152308E+03  0.12700000000E+03 0.  0.
<mgrwt>
<rscale>  0 0.29796724E+03</rscale>
<asrwt>0</asrwt>
<pdfrwt beam="1">  1        2 0.13146717E-01 0.29796724E+03</pdfrwt>
<pdfrwt beam="2">  1       -2 0.34455906E-01 0.29796724E+03</pdfrwt>
<totfact> 0.36100630E+03</totfact>
</mgrwt>
</event>
<event>
 4    1  0.1390278E-004  0.5020595E+03  0.7818608E-02  0.1013243E+00
         -2   -1    0    0    0  501 -0.00000000000E+00  0.00000000000E+00  0.37939252292E+02  0.37939252378E+02  0.25500000000E-02 0. -1.
          2   -1    0    0  501    0  0.00000000000E+00 -0.00000000000E+00 -0.16609693128E+04  0.16609693128E+04  0.25500000000E-02 0.  1.
    5000001    1    1    2    0    0  0.96597310502E+02  0.19100234606E+03 -0.70061889428E+03  0.74351111062E+03  0.12700000000E+03 0.  0.
   -5000001    1    1    2    0    0 -0.96597310502E+02 -0.19100234606E+03 -0.92241116624E+03  0.95539745457E+03  0.12700000000E+03 0.  0.
<mgrwt>
<rscale>  0 0.50205949E+03</rscale>
<asrwt>0</asrwt>
<pdfrwt beam="1">  1        2 0.23728128E+00 0.50205949E+03</pdfrwt>
<pdfrwt beam="2">  1       -2 0.54198942E-02 0.50205949E+03</pdfrwt>
<totfact> 0.22296484E+03</totfact>
</mgrwt>
</event>
<event>
 4    1  0.1390278E-004  0.3631829E+03  0.7818608E-02  0.1057331E+00
         -2   -1    0    0    0  501 -0.00000000000E+00  0.00000000000E+00  0.10001990741E+04  0.10001990741E+04  0.25500000000E-02 0. -1.
          2   -1    0    0  501    0  0.00000000000E+00 -0.00000000000E+00 -0.32968891366E+02  0.32968891464E+02  0.25500000000E-02 0.  1.
    5000001    1    1    2    0    0  0.12862823658E+03 -0.14661523439E+02  0.51003786171E+03  0.54132042626E+03  0.12700000000E+03 0.  0.
   -5000001    1    1    2    0    0 -0.12862823658E+03  0.14661523439E+02  0.45719232107E+03  0.49184753935E+03  0.12700000000E+03 0.  0.
<mgrwt>
<rscale>  0 0.36318290E+03</rscale>
<asrwt>0</asrwt>
<pdfrwt beam="1">  1        2 0.47098404E-02 0.36318290E+03</pdfrwt>
<pdfrwt beam="2">  1       -2 0.14288562E+00 0.36318290E+03</pdfrwt>
<totfact> 0.61533314E+02</totfact>
</mgrwt>
</event>
<event>
 4    1  0.1390278E-004  0.4610378E+03  0.7818608E-02  0.1024481E+00
          2   -1    0    0  501    0  0.00000000000E+00  0.00000000000E+00  0.16649705518E+04  0.16649705518E+04  0.25500000000E-02 0.  1.
         -2   -1    0    0    0  501 -0.00000000000E+00 -0.00000000000E+00 -0.31915860447E+02  0.31915860548E+02  0.25500000000E-02 0. -1.
    5000001    1    1    2    0    0 -0.64965676379E+02  0.18086330921E+03  0.78404382943E+03  0.81718162131E+03  0.12700000000E+03 0.  0.
   -5000001    1    1    2    0    0  0.64965676379E+02 -0.18086330921E+03  0.84901086190E+03  0.87970479102E+03  0.12700000000E+03 0.  0.
<mgrwt>
<rscale>  0 0.46103782E+03</rscale>
<asrwt>0</asrwt>
<pdfrwt beam="1">  1        2 0.23785297E+00 0.46103782E+03</pdfrwt>
<pdfrwt beam="2">  1       -2 0.45594079E-02 0.46103782E+03</pdfrwt>
<totfact> 0.29004921E+03</totfact>
</mgrwt>
</event>
<event>
 4    1  0.1390278E-004  0.5118263E+03  0.7818608E-02  0.1010737E+00
          2   -1    0    0  501    0  0.00000000000E+00  0.00000000000E+00  0.17281124086E+04  0.17281124086E+04  0.25500000000E-02 0.  1.
         -2   -1    0    0    0  501 -0.00000000000E+00 -0.00000000000E+00 -0.37897728845E+02  0.37897728931E+02  0.25500000000E-02 0. -1.
    5000001    1    1    2    0    0  0.15396783561E+03  0.15860974554E+03  0.76800093930E+03  0.80920800080E+03  0.12700000000E+03 0.  0.
   -5000001    1    1    2    0    0 -0.15396783561E+03 -0.15860974554E+03  0.92221374044E+03  0.95680213672E+03  0.12700000000E+03 0.  0.
<mgrwt>
<rscale>  0 0.51182628E+03</rscale>
<asrwt>0</asrwt>
<pdfrwt beam="1">  1        2 0.24687321E+00 0.51182628E+03</pdfrwt>
<pdfrwt beam="2">  1       -2 0.54139611E-02 0.51182628E+03</pdfrwt>
<totfact> 0.20648527E+03</totfact>
</mgrwt>
</event>
<event>
 4    1  0.1390278E-004  0.5076162E+03  0.7818608E-02  0.1011810E+00
         -2   -1    0    0    0  501 -0.00000000000E+00  0.00000000000E+00  0.12132799421E+03  0.12132799424E+03  0.25500000000E-02 0. -1.
          2   -1    0    0  501    0  0.00000000000E+00 -0.00000000000E+00 -0.53094539426E+03  0.53094539427E+03  0.25500000000E-02 0.  1.
    5000001    1    1    2    0    0  0.73330555999E+02 -0.18098917460E+03 -0.75318747428E+02  0.24481904640E+03  0.12700000000E+03 0.  0.
   -5000001    1    1    2    0    0 -0.73330555999E+02  0.18098917460E+03 -0.33429865262E+03  0.40745434212E+03  0.12700000000E+03 0.  0.
<mgrwt>
<rscale>  0 0.50761615E+03</rscale>
<asrwt>0</asrwt>
<pdfrwt beam="1">  1        2 0.75849341E-01 0.50761615E+03</pdfrwt>
<pdfrwt beam="2">  1       -2 0.17332571E-01 0.50761615E+03</pdfrwt>
<totfact> 0.17091154E+03</totfact>
</mgrwt>
</event>
<event>
 4    1  0.1390278E-004  0.4003432E+03  0.7818608E-02  0.1043661E+00
         -2   -1    0    0    0  501 -0.00000000000E+00  0.00000000000E+00  0.62520663695E+02  0.62520663747E+02  0.25500000000E-02 0.  1.
          2   -1    0    0  501    0  0.00000000000E+00 -0.00000000000E+00 -0.64088677234E+03  0.64088677234E+03  0.25500000000E-02 0. -1.
    5000001    1    1    2    0    0  0.15137796701E+03  0.21331190393E+02 -0.33110748300E+03  0.38617544443E+03  0.12700000000E+03 0.  0.
   -5000001    1    1    2    0    0 -0.15137796701E+03 -0.21331190393E+02 -0.24725862564E+03  0.31723199166E+03  0.12700000000E+03 0.  0.
<mgrwt>
<rscale>  0 0.40034318E+03</rscale>
<asrwt>0</asrwt>
<pdfrwt beam="1">  1        2 0.91555250E-01 0.40034318E+03</pdfrwt>
<pdfrwt beam="2">  1       -2 0.89315237E-02 0.40034318E+03</pdfrwt>
<totfact> 0.40759178E+03</totfact>
</mgrwt>
</event>
<event>
 4    1  0.1390278E-004  0.3165255E+03  0.7818608E-02  0.1077260E+00
         -2   -1    0    0    0  501 -0.00000000000E+00  0.00000000000E+00  0.30471446887E+02  0.30471446994E+02  0.25500000000E-02 0. -1.
          2   -1    0    0  501    0  0.00000000000E+00 -0.00000000000E+00 -0.82198585111E+03  0.82198585112E+03  0.25500000000E-02 0.  1.
    5000001    1    1    2    0    0 -0.24227270497E+02  0.59703381107E+01 -0.64105012601E+03  0.65398537418E+03  0.12700000000E+03 0.  0.
   -5000001    1    1    2    0    0  0.24227270497E+02 -0.59703381107E+01 -0.15046427821E+03  0.19847192394E+03  0.12700000000E+03 0.  0.
<mgrwt>
<rscale>  0 0.31652550E+03</rscale>
<asrwt>0</asrwt>
<pdfrwt beam="1">  1        2 0.11742654E+00 0.31652550E+03</pdfrwt>
<pdfrwt beam="2">  1       -2 0.43530643E-02 0.31652550E+03</pdfrwt>
<totfact> 0.91290796E+03</totfact>
</mgrwt>
</event>
<event>
 4    1  0.1390278E-004  0.4031323E+03  0.7818608E-02  0.1042700E+00
          2   -1    0    0  501    0  0.00000000000E+00  0.00000000000E+00  0.18205071218E+04  0.18205071218E+04  0.25500000000E-02 0.  1.
         -2   -1    0    0    0  501 -0.00000000000E+00 -0.00000000000E+00 -0.22317359186E+02  0.22317359332E+02  0.25500000000E-02 0. -1.
    5000001    1    1    2    0    0 -0.13714621860E+03 -0.74311772989E+02  0.83974116706E+03  0.86349612190E+03  0.12700000000E+03 0.  0.
   -5000001    1    1    2    0    0  0.13714621860E+03  0.74311772989E+02  0.95844859553E+03  0.97932835921E+03  0.12700000000E+03 0.  0.
<mgrwt>
<rscale>  0 0.40313229E+03</rscale>
<asrwt>0</asrwt>
<pdfrwt beam="1">  1        2 0.26007252E+00 0.40313229E+03</pdfrwt>
<pdfrwt beam="2">  1       -2 0.31881932E-02 0.40313229E+03</pdfrwt>
<totfact> 0.41806581E+03</totfact>
</mgrwt>
</event>
<event>
 4    1  0.1390278E-004  0.3926397E+03  0.7818608E-02  0.1046358E+00
         -2   -1    0    0    0  501 -0.00000000000E+00  0.00000000000E+00  0.67192474100E+02  0.67192474148E+02  0.25500000000E-02 0. -1.
          2   -1    0    0  501    0  0.00000000000E+00 -0.00000000000E+00 -0.57359825629E+03  0.57359825630E+03  0.25500000000E-02 0.  1.
    5000001    1    1    2    0    0  0.12831076320E+03  0.13237447432E+01 -0.37905889882E+03  0.41985718171E+03  0.12700000000E+03 0.  0.
   -5000001    1    1    2    0    0 -0.12831076320E+03 -0.13237447432E+01 -0.12734688337E+03  0.22093354874E+03  0.12700000000E+03 0.  0.
<mgrwt>
<rscale>  0 0.39263971E+03</rscale>
<asrwt>0</asrwt>
<pdfrwt beam="1">  1        2 0.81942605E-01 0.39263971E+03</pdfrwt>
<pdfrwt beam="2">  1       -2 0.95989252E-02 0.39263971E+03</pdfrwt>
<totfact> 0.41315959E+03</totfact>
</mgrwt>
</event>
<event>
 4    1  0.1390278E-004  0.5361770E+03  0.7818608E-02  0.1004745E+00
         -2   -1    0    0    0  501 -0.00000000000E+00  0.00000000000E+00  0.13327713492E+03  0.13327713494E+03  0.25500000000E-02 0.  1.
          2   -1    0    0  501    0  0.00000000000E+00 -0.00000000000E+00 -0.53926317632E+03  0.53926317633E+03  0.25500000000E-02 0. -1.
    5000001    1    1    2    0    0 -0.88961989453E+02  0.17184941533E+03 -0.33329637569E+02  0.23385106768E+03  0.12700000000E+03 0.  0.
   -5000001    1    1    2    0    0  0.88961989453E+02 -0.17184941533E+03 -0.37265640384E+03  0.43868924359E+03  0.12700000000E+03 0.  0.
<mgrwt>
<rscale>  0 0.53617703E+03</rscale>
<asrwt>0</asrwt>
<pdfrwt beam="1">  1        2 0.77037596E-01 0.53617703E+03</pdfrwt>
<pdfrwt beam="2">  1       -2 0.19039591E-01 0.53617703E+03</pdfrwt>
<totfact> 0.14291921E+03</totfact>
</mgrwt>
</event>
<event>
 4    1  0.1390278E-004  0.1326432E+04  0.7818608E-02  0.9008863E-01
         -2   -1    0    0    0  501 -0.00000000000E+00  0.00000000000E+00  0.21979647547E+03  0.21979647548E+03  0.25500000000E-02 0. -1.
          2   -1    0    0  501    0  0.00000000000E+00 -0.00000000000E+00 -0.20011946022E+04  0.20011946022E+04  0.25500000000E-02 0.  1.
    5000001    1    1    2    0    0  0.43980873179E+03 -0.14238713684E+03 -0.16580479172E+04  0.17259657334E+04  0.12700000000E+03 0.  0.
   -5000001    1    1    2    0    0 -0.43980873179E+03  0.14238713684E+03 -0.12335020960E+03  0.49502534431E+03  0.12700000000E+03 0.  0.
<mgrwt>
<rscale>  0 0.13264321E+04</rscale>
<asrwt>0</asrwt>
<pdfrwt beam="1">  1        2 0.28588493E+00 0.13264321E+04</pdfrwt>
<pdfrwt beam="2">  1       -2 0.31399498E-01 0.13264321E+04</pdfrwt>
<totfact> 0.73849094E+01</totfact>
</mgrwt>
</event>
<event>
 4    1  0.1390278E-004  0.3285920E+03  0.7818608E-02  0.1071762E+00
         -2   -1    0    0    0  501 -0.00000000000E+00  0.00000000000E+00  0.38557829593E+02  0.38557829677E+02  0.25500000000E-02 0. -1.
          2   -1    0    0  501    0  0.00000000000E+00 -0.00000000000E+00 -0.70006993377E+03  0.70006993378E+03  0.25500000000E-02 0.  1.
    5000001    1    1    2    0    0  0.11348053269E+02 -0.98738169975E+02 -0.26016573689E+03  0.30609347457E+03  0.12700000000E+03 0.  0.
   -5000001    1    1    2    0    0 -0.11348053269E+02  0.98738169975E+02 -0.40134636729E+03  0.43253428889E+03  0.12700000000E+03 0.  0.
<mgrwt>
<rscale>  0 0.32859201E+03</rscale>
<asrwt>0</asrwt>
<pdfrwt beam="1">  1        2 0.10000998E+00 0.32859201E+03</pdfrwt>
<pdfrwt beam="2">  1       -2 0.55082618E-02 0.32859201E+03</pdfrwt>
<totfact> 0.77706217E+03</totfact>
</mgrwt>
</event>
<event>
 4    1  0.1390278E-004  0.3192037E+03  0.7818608E-02  0.1076016E+00
          2   -1    0    0  501    0  0.00000000000E+00  0.00000000000E+00  0.65909887499E+02  0.65909887549E+02  0.25500000000E-02 0.  1.
         -2   -1    0    0    0  501 -0.00000000000E+00 -0.00000000000E+00 -0.38647853615E+03  0.38647853616E+03  0.25500000000E-02 0. -1.
    5000001    1    1    2    0    0  0.25871895567E+02 -0.91236055404E+02 -0.13375564156E+03  0.20739562299E+03  0.12700000000E+03 0.  0.
   -5000001    1    1    2    0    0 -0.25871895567E+02  0.91236055404E+02 -0.18681300709E+03  0.24499280072E+03  0.12700000000E+03 0.  0.
<mgrwt>
<rscale>  0 0.31920374E+03</rscale>
<asrwt>0</asrwt>
<pdfrwt beam="1">  1        2 0.94156984E-02 0.31920374E+03</pdfrwt>
<pdfrwt beam="2">  1       -2 0.55211218E-01 0.31920374E+03</pdfrwt>
<totfact> 0.21773241E+03</totfact>
</mgrwt>
</event>
<event>
 4    1  0.1390278E-004  0.5940976E+03  0.7818608E-02  0.9917728E-01
         -2   -1    0    0    0  501 -0.00000000000E+00  0.00000000000E+00  0.41726317603E+03  0.41726317603E+03  0.25500000000E-02 0. -1.
          2   -1    0    0  501    0  0.00000000000E+00 -0.00000000000E+00 -0.21146844479E+03  0.21146844480E+03  0.25500000000E-02 0.  1.
    5000001    1    1    2    0    0  0.17197106314E+03  0.18627340124E+02 -0.11447373730E+03  0.24321648975E+03  0.12700000000E+03 0.  0.
   -5000001    1    1    2    0    0 -0.17197106314E+03 -0.18627340124E+02  0.32026846854E+03  0.38551513109E+03  0.12700000000E+03 0.  0.
<mgrwt>
<rscale>  0 0.59409762E+03</rscale>
<asrwt>0</asrwt>
<pdfrwt beam="1">  1        2 0.30209778E-01 0.59409762E+03</pdfrwt>
<pdfrwt beam="2">  1       -2 0.59609026E-01 0.59409762E+03</pdfrwt>
<totfact> 0.46765061E+02</totfact>
</mgrwt>
</event>
<event>
 4    1  0.1390278E-004  0.3351486E+03  0.7818608E-02  0.1068881E+00
         -2   -1    0    0    0  501 -0.00000000000E+00  0.00000000000E+00  0.23125148303E+03  0.23125148305E+03  0.25500000000E-02 0. -1.
          2   -1    0    0  501    0  0.00000000000E+00 -0.00000000000E+00 -0.12143117226E+03  0.12143117228E+03  0.25500000000E-02 0.  1.
    5000001    1    1    2    0    0  0.92044409231E+02  0.50936968298E+02  0.86222401308E+02  0.18609151108E+03  0.12700000000E+03 0.  0.
   -5000001    1    1    2    0    0 -0.92044409231E+02 -0.50936968298E+02  0.23597909470E+02  0.16659114425E+03  0.12700000000E+03 0.  0.
<mgrwt>
<rscale>  0 0.33514856E+03</rscale>
<asrwt>0</asrwt>
<pdfrwt beam="1">  1        2 0.17347311E-01 0.33514856E+03</pdfrwt>
<pdfrwt beam="2">  1       -2 0.33035926E-01 0.33514856E+03</pdfrwt>
<totfact> 0.28157913E+03</totfact>
</mgrwt>
</event>
<event>
 4    1  0.1390278E-004  0.3299836E+03  0.7818608E-02  0.1071144E+00
         -2   -1    0    0    0  501 -0.00000000000E+00  0.00000000000E+00  0.15899846667E+02  0.15899846872E+02  0.25500000000E-02 0. -1.
          2   -1    0    0  501    0  0.00000000000E+00 -0.00000000000E+00 -0.17121102716E+04  0.17121102716E+04  0.25500000000E-02 0.  1.
    5000001    1    1    2    0    0  0.10208842802E+02 -0.84358586062E+02 -0.52222285666E+03  0.54411975110E+03  0.12700000000E+03 0.  0.
   -5000001    1    1    2    0    0 -0.10208842802E+02  0.84358586062E+02 -0.11739875683E+04  0.11838903674E+04  0.12700000000E+03 0.  0.
<mgrwt>
<rscale>  0 0.32998358E+03</rscale>
<asrwt>0</asrwt>
<pdfrwt beam="1">  1        2 0.24458707E+00 0.32998358E+03</pdfrwt>
<pdfrwt beam="2">  1       -2 0.22714078E-02 0.32998358E+03</pdfrwt>
<totfact> 0.78519306E+03</totfact>
</mgrwt>
</event>
<event>
 4    1  0.1390278E-004  0.3151769E+03  0.7818608E-02  0.1077891E+00
         -2   -1    0    0    0  501 -0.00000000000E+00  0.00000000000E+00  0.18810009246E+02  0.18810009419E+02  0.25500000000E-02 0.  1.
          2   -1    0    0  501    0  0.00000000000E+00 -0.00000000000E+00 -0.13202605655E+04  0.13202605655E+04  0.25500000000E-02 0. -1.
    5000001    1    1    2    0    0 -0.51896471164E+02  0.56448947508E+02 -0.87655861262E+03  0.88902403159E+03  0.12700000000E+03 0.  0.
   -5000001    1    1    2    0    0  0.51896471164E+02 -0.56448947508E+02 -0.42489194361E+03  0.45004654331E+03  0.12700000000E+03 0.  0.
<mgrwt>
<rscale>  0 0.31517686E+03</rscale>
<asrwt>0</asrwt>
<pdfrwt beam="1">  1        2 0.18860859E+00 0.31517686E+03</pdfrwt>
<pdfrwt beam="2">  1       -2 0.26871450E-02 0.31517686E+03</pdfrwt>
<totfact> 0.96706340E+03</totfact>
</mgrwt>
</event>
<event>
 4    1  0.1390278E-004  0.4296715E+03  0.7818608E-02  0.1033964E+00
          2   -1    0    0  501    0  0.00000000000E+00  0.00000000000E+00  0.59158175283E+03  0.59158175284E+03  0.25500000000E-02 0.  1.
         -2   -1    0    0    0  501 -0.00000000000E+00 -0.00000000000E+00 -0.78018644027E+02  0.78018644069E+02  0.25500000000E-02 0. -1.
    5000001    1    1    2    0    0  0.11702734361E+03 -0.78335954284E+01  0.58009753847E+02  0.18234828190E+03  0.12700000000E+03 0.  0.
   -5000001    1    1    2    0    0 -0.11702734361E+03  0.78335954284E+01  0.45555335496E+03  0.48725211501E+03  0.12700000000E+03 0.  0.
<mgrwt>
<rscale>  0 0.42967153E+03</rscale>
<asrwt>0</asrwt>
<pdfrwt beam="1">  1        2 0.84511678E-01 0.42967153E+03</pdfrwt>
<pdfrwt beam="2">  1       -2 0.11145521E-01 0.42967153E+03</pdfrwt>
<totfact> 0.31388882E+03</totfact>
</mgrwt>
</event>
<event>
 4    1  0.1390278E-004  0.3477537E+03  0.7818608E-02  0.1063541E+00
         -2   -1    0    0    0  501 -0.00000000000E+00  0.00000000000E+00  0.49570682024E+02  0.49570682090E+02  0.25500000000E-02 0. -1.
          2   -1    0    0  501    0  0.00000000000E+00 -0.00000000000E+00 -0.60989986542E+03  0.60989986542E+03  0.25500000000E-02 0.  1.
    5000001    1    1    2    0    0  0.11484944379E+03  0.12640891515E+02 -0.22809317274E+03  0.28549200046E+03  0.12700000000E+03 0.  0.
   -5000001    1    1    2    0    0 -0.11484944379E+03 -0.12640891515E+02 -0.33223601065E+03  0.37397854705E+03  0.12700000000E+03 0.  0.
<mgrwt>
<rscale>  0 0.34775366E+03</rscale>
<asrwt>0</asrwt>
<pdfrwt beam="1">  1        2 0.87128547E-01 0.34775366E+03</pdfrwt>
<pdfrwt beam="2">  1       -2 0.70815264E-02 0.34775366E+03</pdfrwt>
<totfact> 0.62051405E+03</totfact>
</mgrwt>
</event>
<event>
 4    1  0.1390278E-004  0.6548291E+03  0.7818608E-02  0.9797760E-01
         -2   -1    0    0    0  501 -0.00000000000E+00  0.00000000000E+00  0.61111361884E+02  0.61111361937E+02  0.25500000000E-02 0. -1.
          2   -1    0    0  501    0  0.00000000000E+00 -0.00000000000E+00 -0.17541795604E+04  0.17541795604E+04  0.25500000000E-02 0.  1.
    5000001    1    1    2    0    0 -0.69026002683E+02 -0.14255912795E+03 -0.15586263593E+04  0.15717928687E+04  0.12700000000E+03 0.  0.
   -5000001    1    1    2    0    0  0.69026002683E+02  0.14255912795E+03 -0.13444183916E+03  0.24349805364E+03  0.12700000000E+03 0.  0.
<mgrwt>
<rscale>  0 0.65482914E+03</rscale>
<asrwt>0</asrwt>
<pdfrwt beam="1">  1        2 0.25059705E+00 0.65482914E+03</pdfrwt>
<pdfrwt beam="2">  1       -2 0.87301957E-02 0.65482914E+03</pdfrwt>
<totfact> 0.93680860E+02</totfact>
</mgrwt>
</event>
<event>
 4    1  0.1390278E-004  0.2959763E+03  0.7818608E-02  0.1087269E+00
         -2   -1    0    0    0  501 -0.00000000000E+00  0.00000000000E+00  0.14178228414E+02  0.14178228644E+02  0.25500000000E-02 0. -1.
          2   -1    0    0  501    0  0.00000000000E+00 -0.00000000000E+00 -0.15446567060E+04  0.15446567061E+04  0.25500000000E-02 0.  1.
    5000001    1    1    2    0    0  0.46340706848E+02  0.58662315777E+02 -0.69403718828E+03  0.70951063918E+03  0.12700000000E+03 0.  0.
   -5000001    1    1    2    0    0 -0.46340706848E+02 -0.58662315777E+02 -0.83644128936E+03  0.84932429551E+03  0.12700000000E+03 0.  0.
<mgrwt>
<rscale>  0 0.29597632E+03</rscale>
<asrwt>0</asrwt>
<pdfrwt beam="1">  1        2 0.22066514E+00 0.29597632E+03</pdfrwt>
<pdfrwt beam="2">  1       -2 0.20254622E-02 0.29597632E+03</pdfrwt>
<totfact> 0.11257136E+04</totfact>
</mgrwt>
</event>
<event>
 4    1  0.1390278E-004  0.3316140E+03  0.7818608E-02  0.1070425E+00
          2   -1    0    0  501    0  0.00000000000E+00  0.00000000000E+00  0.54108354392E+03  0.54108354392E+03  0.25500000000E-02 0.  1.
         -2   -1    0    0    0  501 -0.00000000000E+00 -0.00000000000E+00 -0.50809094923E+02  0.50809094987E+02  0.25500000000E-02 0. -1.
    5000001    1    1    2    0    0  0.15511240073E+02  0.95229781176E+02  0.16425113611E+03  0.22894703646E+03  0.12700000000E+03 0.  0.
   -5000001    1    1    2    0    0 -0.15511240073E+02 -0.95229781176E+02  0.32602331288E+03  0.36294560245E+03  0.12700000000E+03 0.  0.
<mgrwt>
<rscale>  0 0.33161402E+03</rscale>
<asrwt>0</asrwt>
<pdfrwt beam="1">  1        2 0.77297647E-01 0.33161402E+03</pdfrwt>
<pdfrwt beam="2">  1       -2 0.72584424E-02 0.33161402E+03</pdfrwt>
<totfact> 0.68364848E+03</totfact>
</mgrwt>
</event>
<event>
 4    1  0.1390278E-004  0.1562176E+04  0.7818608E-02  0.8844128E-01
         -2   -1    0    0    0  501 -0.00000000000E+00  0.00000000000E+00  0.14059946497E+04  0.14059946497E+04  0.25500000000E-02 0. -1.
          2   -1    0    0  501    0  0.00000000000E+00 -0.00000000000E+00 -0.43392670104E+03  0.43392670105E+03  0.25500000000E-02 0.  1.
    5000001    1    1    2    0    0  0.23182029110E+03  0.73473313829E+03  0.46259060710E+03  0.90757506667E+03  0.12700000000E+03 0.  0.
   -5000001    1    1    2    0    0 -0.23182029110E+03 -0.73473313829E+03  0.50947734154E+03  0.93234628406E+03  0.12700000000E+03 0.  0.
<mgrwt>
<rscale>  0 0.15621762E+04</rscale>
<asrwt>0</asrwt>
<pdfrwt beam="1">  1        2 0.61989529E-01 0.15621762E+04</pdfrwt>
<pdfrwt beam="2">  1       -2 0.20085638E+00 0.15621762E+04</pdfrwt>
<totfact> 0.99746094E+00</totfact>
</mgrwt>
</event>
<event>
 4    1  0.1390278E-004  0.3107981E+03  0.7818608E-02  0.1079964E+00
         -2   -1    0    0    0  501 -0.00000000000E+00  0.00000000000E+00  0.37044056198E+03  0.37044056199E+03  0.25500000000E-02 0. -1.
          2   -1    0    0  501    0  0.00000000000E+00 -0.00000000000E+00 -0.65189593593E+02  0.65189593643E+02  0.25500000000E-02 0.  1.
    5000001    1    1    2    0    0 -0.59897257140E+02 -0.51155933237E+02  0.21234397291E+03  0.25966049709E+03  0.12700000000E+03 0.  0.
   -5000001    1    1    2    0    0  0.59897257140E+02  0.51155933237E+02  0.92906995476E+02  0.17596965854E+03  0.12700000000E+03 0.  0.
<mgrwt>
<rscale>  0 0.31079813E+03</rscale>
<asrwt>0</asrwt>
<pdfrwt beam="1">  1        2 0.93127991E-02 0.31079813E+03</pdfrwt>
<pdfrwt beam="2">  1       -2 0.52920080E-01 0.31079813E+03</pdfrwt>
<totfact> 0.24046635E+03</totfact>
</mgrwt>
</event>
<event>
 4    1  0.1390278E-004  0.2885262E+03  0.7818608E-02  0.1091121E+00
         -2   -1    0    0    0  501 -0.00000000000E+00  0.00000000000E+00  0.83038287868E+03  0.83038287868E+03  0.25500000000E-02 0. -1.
          2   -1    0    0  501    0  0.00000000000E+00 -0.00000000000E+00 -0.25062948560E+02  0.25062948690E+02  0.25500000000E-02 0.  1.
    5000001    1    1    2    0    0  0.49149223860E+02 -0.27984513163E+02  0.51687771304E+03  0.53524793266E+03  0.12700000000E+03 0.  0.
   -5000001    1    1    2    0    0 -0.49149223860E+02  0.27984513163E+02  0.28844221708E+03  0.32019789471E+03  0.12700000000E+03 0.  0.
<mgrwt>
<rscale>  0 0.28852621E+03</rscale>
<asrwt>0</asrwt>
<pdfrwt beam="1">  1        2 0.35804207E-02 0.28852621E+03</pdfrwt>
<pdfrwt beam="2">  1       -2 0.11862614E+00 0.28852621E+03</pdfrwt>
<totfact> 0.14090378E+03</totfact>
</mgrwt>
</event>
<event>
 4    1  0.1390278E-004  0.3360692E+03  0.7818608E-02  0.1068483E+00
          2   -1    0    0  501    0  0.00000000000E+00  0.00000000000E+00  0.13108412030E+04  0.13108412030E+04  0.25500000000E-02 0.  1.
         -2   -1    0    0    0  501 -0.00000000000E+00 -0.00000000000E+00 -0.21540083891E+02  0.21540084042E+02  0.25500000000E-02 0. -1.
    5000001    1    1    2    0    0  0.71064236187E+02 -0.34780843235E+01  0.31189753920E+03  0.34419659745E+03  0.12700000000E+03 0.  0.
   -5000001    1    1    2    0    0 -0.71064236187E+02  0.34780843235E+01  0.97740357994E+03  0.98818468963E+03  0.12700000000E+03 0.  0.
<mgrwt>
<rscale>  0 0.33606922E+03</rscale>
<asrwt>0</asrwt>
<pdfrwt beam="1">  1        2 0.18726310E+00 0.33606922E+03</pdfrwt>
<pdfrwt beam="2">  1       -2 0.30771537E-02 0.33606922E+03</pdfrwt>
<totfact> 0.80002145E+03</totfact>
</mgrwt>
</event>
<event>
 4    1  0.1390278E-004  0.3378545E+03  0.7818608E-02  0.1067713E+00
         -2   -1    0    0    0  501 -0.00000000000E+00  0.00000000000E+00  0.99779222365E+02  0.99779222398E+02  0.25500000000E-02 0. -1.
          2   -1    0    0  501    0  0.00000000000E+00 -0.00000000000E+00 -0.28599563621E+03  0.28599563622E+03  0.25500000000E-02 0.  1.
    5000001    1    1    2    0    0 -0.47254939645E+02 -0.84641175556E+02 -0.15575610091E+03  0.22312803699E+03  0.12700000000E+03 0.  0.
   -5000001    1    1    2    0    0  0.47254939645E+02  0.84641175556E+02 -0.30460312927E+02  0.16264682162E+03  0.12700000000E+03 0.  0.
<mgrwt>
<rscale>  0 0.33785454E+03</rscale>
<asrwt>0</asrwt>
<pdfrwt beam="1">  1        2 0.40856519E-01 0.33785454E+03</pdfrwt>
<pdfrwt beam="2">  1       -2 0.14254175E-01 0.33785454E+03</pdfrwt>
<totfact> 0.46637697E+03</totfact>
</mgrwt>
</event>
<event>
 4    1  0.1390278E-004  0.8251932E+03  0.7818608E-02  0.9524250E-01
          2   -1    0    0  501    0  0.00000000000E+00  0.00000000000E+00  0.28766654115E+04  0.28766654115E+04  0.25500000000E-02 0.  1.
         -2   -1    0    0    0  501 -0.00000000000E+00 -0.00000000000E+00 -0.59178232532E+02  0.59178232587E+02  0.25500000000E-02 0. -1.
    5000001    1    1    2    0    0  0.13520628739E+03  0.28173257708E+03  0.56342439842E+03  0.65668107775E+03  0.12700000000E+03 0.  0.
   -5000001    1    1    2    0    0 -0.13520628739E+03 -0.28173257708E+03  0.22540627805E+04  0.22791625663E+04  0.12700000000E+03 0.  0.
<mgrwt>
<rscale>  0 0.82519325E+03</rscale>
<asrwt>0</asrwt>
<pdfrwt beam="1">  1        2 0.41095239E+00 0.82519325E+03</pdfrwt>
<pdfrwt beam="2">  1       -2 0.84540294E-02 0.82519325E+03</pdfrwt>
<totfact> 0.25777905E+02</totfact>
</mgrwt>
</event>
<event>
 4    1  0.1390278E-004  0.2844755E+03  0.7818608E-02  0.1093269E+00
          2   -1    0    0  501    0  0.00000000000E+00  0.00000000000E+00  0.34363810779E+04  0.34363810779E+04  0.25500000000E-02 0.  1.
         -2   -1    0    0    0  501 -0.00000000000E+00 -0.00000000000E+00 -0.58874673188E+01  0.58874678710E+01  0.25500000000E-02 0. -1.
    5000001    1    1    2    0    0  0.29363423000E+02 -0.35598431833E+02  0.22527449124E+04  0.22567937654E+04  0.12700000000E+03 0.  0.
   -5000001    1    1    2    0    0 -0.29363423000E+02  0.35598431833E+02  0.11777486982E+04  0.11854747804E+04  0.12700000000E+03 0.  0.
<mgrwt>
<rscale>  0 0.28447553E+03</rscale>
<asrwt>0</asrwt>
<pdfrwt beam="1">  1        2 0.49091066E+00 0.28447553E+03</pdfrwt>
<pdfrwt beam="2">  1       -2 0.84106837E-03 0.28447553E+03</pdfrwt>
<totfact> 0.43758259E+03</totfact>
</mgrwt>
</event>
<event>
 4    1  0.1390278E-004  0.3050922E+03  0.7818608E-02  0.1082722E+00
         -2   -1    0    0    0  501 -0.00000000000E+00  0.00000000000E+00  0.24812942035E+02  0.24812942166E+02  0.25500000000E-02 0. -1.
          2   -1    0    0  501    0  0.00000000000E+00 -0.00000000000E+00 -0.93782960992E+03  0.93782960992E+03  0.25500000000E-02 0.  1.
    5000001    1    1    2    0    0  0.14272781345E+02 -0.83264823294E+02 -0.46325255287E+03  0.48771781886E+03  0.12700000000E+03 0.  0.
   -5000001    1    1    2    0    0 -0.14272781345E+02  0.83264823294E+02 -0.44976411501E+03  0.47492473323E+03  0.12700000000E+03 0.  0.
<mgrwt>
<rscale>  0 0.30509219E+03</rscale>
<asrwt>0</asrwt>
<pdfrwt beam="1">  1        2 0.13397564E+00 0.30509219E+03</pdfrwt>
<pdfrwt beam="2">  1       -2 0.35447066E-02 0.30509219E+03</pdfrwt>
<totfact> 0.10486470E+04</totfact>
</mgrwt>
</event>
<event>
 4    1  0.1390278E-004  0.3982158E+03  0.7818608E-02  0.1044399E+00
         -2   -1    0    0    0  501 -0.00000000000E+00  0.00000000000E+00  0.17619270372E+02  0.17619270557E+02  0.25500000000E-02 0. -1.
          2   -1    0    0  501    0  0.00000000000E+00 -0.00000000000E+00 -0.22500336728E+04  0.22500336728E+04  0.25500000000E-02 0.  1.
    5000001    1    1    2    0    0 -0.14838433311E+03  0.14212644390E+02 -0.13211346312E+04  0.13355694005E+04  0.12700000000E+03 0.  0.
   -5000001    1    1    2    0    0  0.14838433311E+03 -0.14212644390E+02 -0.91127977114E+03  0.93208354286E+03  0.12700000000E+03 0.  0.
<mgrwt>
<rscale>  0 0.39821578E+03</rscale>
<asrwt>0</asrwt>
<pdfrwt beam="1">  1        2 0.32143320E+00 0.39821578E+03</pdfrwt>
<pdfrwt beam="2">  1       -2 0.25170401E-02 0.39821578E+03</pdfrwt>
<totfact> 0.36527561E+03</totfact>
</mgrwt>
</event>
<event>
 4    1  0.1390278E-004  0.4810998E+03  0.7818608E-02  0.1018833E+00
          2   -1    0    0  501    0  0.00000000000E+00  0.00000000000E+00  0.16039446674E+03  0.16039446676E+03  0.25500000000E-02 0.  1.
         -2   -1    0    0    0  501 -0.00000000000E+00 -0.00000000000E+00 -0.36076220914E+03  0.36076220915E+03  0.25500000000E-02 0. -1.
    5000001    1    1    2    0    0  0.10845723092E+03 -0.17287699791E+03 -0.11021996820E+03  0.26443688989E+03  0.12700000000E+03 0.  0.
   -5000001    1    1    2    0    0 -0.10845723092E+03  0.17287699791E+03 -0.90147774198E+02  0.25671978603E+03  0.12700000000E+03 0.  0.
<mgrwt>
<rscale>  0 0.48109983E+03</rscale>
<asrwt>0</asrwt>
<pdfrwt beam="1">  1        2 0.22913495E-01 0.48109983E+03</pdfrwt>
<pdfrwt beam="2">  1       -2 0.51537458E-01 0.48109983E+03</pdfrwt>
<totfact> 0.86492495E+02</totfact>
</mgrwt>
</event>
<event>
 4    1  0.1390278E-004  0.3905630E+03  0.7818608E-02  0.1047097E+00
         -2   -1    0    0    0  501 -0.00000000000E+00  0.00000000000E+00  0.20673592082E+02  0.20673592239E+02  0.25500000000E-02 0. -1.
          2   -1    0    0  501    0  0.00000000000E+00 -0.00000000000E+00 -0.18446167872E+04  0.18446167872E+04  0.25500000000E-02 0.  1.
    5000001    1    1    2    0    0  0.95612980912E+02 -0.66824437717E+02 -0.13496513567E+04  0.13606230676E+04  0.12700000000E+03 0.  0.
   -5000001    1    1    2    0    0 -0.95612980912E+02  0.66824437717E+02 -0.47429183844E+03  0.50466731181E+03  0.12700000000E+03 0.  0.
<mgrwt>
<rscale>  0 0.39056295E+03</rscale>
<asrwt>0</asrwt>
<pdfrwt beam="1">  1        2 0.26351658E+00 0.39056295E+03</pdfrwt>
<pdfrwt beam="2">  1       -2 0.29533715E-02 0.39056295E+03</pdfrwt>
<totfact> 0.45639674E+03</totfact>
</mgrwt>
</event>
<event>
 4    1  0.1390278E-004  0.5099210E+03  0.7818608E-02  0.1011221E+00
         -2   -1    0    0    0  501 -0.00000000000E+00  0.00000000000E+00  0.13344512364E+03  0.13344512367E+03  0.25500000000E-02 0. -1.
          2   -1    0    0  501    0  0.00000000000E+00 -0.00000000000E+00 -0.48712799958E+03  0.48712799958E+03  0.25500000000E-02 0.  1.
    5000001    1    1    2    0    0  0.15124713822E+03 -0.15592040313E+03 -0.22685678040E+03  0.33879177638E+03  0.12700000000E+03 0.  0.
   -5000001    1    1    2    0    0 -0.15124713822E+03  0.15592040313E+03 -0.12682609554E+03  0.28178134687E+03  0.12700000000E+03 0.  0.
<mgrwt>
<rscale>  0 0.50992100E+03</rscale>
<asrwt>0</asrwt>
<pdfrwt beam="1">  1        2 0.69589713E-01 0.50992100E+03</pdfrwt>
<pdfrwt beam="2">  1       -2 0.19063589E-01 0.50992100E+03</pdfrwt>
<totfact> 0.16008726E+03</totfact>
</mgrwt>
</event>
<event>
 4    1  0.1390278E-004  0.3605861E+03  0.7818608E-02  0.1058352E+00
          2   -1    0    0  501    0  0.00000000000E+00  0.00000000000E+00  0.22040168871E+03  0.22040168873E+03  0.25500000000E-02 0.  1.
         -2   -1    0    0    0  501 -0.00000000000E+00 -0.00000000000E+00 -0.14748337351E+03  0.14748337354E+03  0.25500000000E-02 0. -1.
    5000001    1    1    2    0    0 -0.84989839030E+02 -0.86463146066E+02  0.78244712714E+02  0.19222482523E+03  0.12700000000E+03 0.  0.
   -5000001    1    1    2    0    0  0.84989839030E+02  0.86463146066E+02 -0.53263975147E+01  0.17566023704E+03  0.12700000000E+03 0.  0.
<mgrwt>
<rscale>  0 0.36058610E+03</rscale>
<asrwt>0</asrwt>
<pdfrwt beam="1">  1        2 0.31485955E-01 0.36058610E+03</pdfrwt>
<pdfrwt beam="2">  1       -2 0.21069053E-01 0.36058610E+03</pdfrwt>
<totfact> 0.32081537E+03</totfact>
</mgrwt>
</event>
<event>
 4    1  0.1390278E-004  0.3951911E+03  0.7818608E-02  0.1045458E+00
          2   -1    0    0  501    0  0.00000000000E+00  0.00000000000E+00  0.50382641780E+03  0.50382641781E+03  0.25500000000E-02 0. -1.
         -2   -1    0    0    0  501 -0.00000000000E+00 -0.00000000000E+00 -0.77494953500E+02  0.77494953542E+02  0.25500000000E-02 0.  1.
    5000001    1    1    2    0    0  0.48028290673E+02  0.11141093742E+03  0.34633597931E+03  0.38832553901E+03  0.12700000000E+03 0.  0.
   -5000001    1    1    2    0    0 -0.48028290673E+02 -0.11141093742E+03  0.79995484991E+02  0.19299583234E+03  0.12700000000E+03 0.  0.
<mgrwt>
<rscale>  0 0.39519112E+03</rscale>
<asrwt>0</asrwt>
<pdfrwt beam="1">  1        2 0.71975202E-01 0.39519112E+03</pdfrwt>
<pdfrwt beam="2">  1       -2 0.11070708E-01 0.39519112E+03</pdfrwt>
<totfact> 0.38057651E+03</totfact>
</mgrwt>
</event>
<event>
 4    1  0.1390278E-004  0.3604075E+03  0.7818608E-02  0.1058423E+00
          2   -1    0    0  501    0  0.00000000000E+00  0.00000000000E+00  0.18645465216E+04  0.18645465216E+04  0.25500000000E-02 0.  1.
         -2   -1    0    0    0  501 -0.00000000000E+00 -0.00000000000E+00 -0.17416237734E+02  0.17416237921E+02  0.25500000000E-02 0. -1.
    5000001    1    1    2    0    0  0.36318467737E+02  0.94948192493E+02  0.51874553672E+03  0.54365441434E+03  0.12700000000E+03 0.  0.
   -5000001    1    1    2    0    0 -0.36318467737E+02 -0.94948192493E+02  0.13283847471E+04  0.13383083452E+04  0.12700000000E+03 0.  0.
<mgrwt>
<rscale>  0 0.36040747E+03</rscale>
<asrwt>0</asrwt>
<pdfrwt beam="1">  1        2 0.26636384E+00 0.36040747E+03</pdfrwt>
<pdfrwt beam="2">  1       -2 0.24880335E-02 0.36040747E+03</pdfrwt>
<totfact> 0.57670239E+03</totfact>
</mgrwt>
</event>
<event>
 4    1  0.1390278E-004  0.3102348E+03  0.7818608E-02  0.1080233E+00
         -2   -1    0    0    0  501 -0.00000000000E+00  0.00000000000E+00  0.61519376455E+02  0.61519376508E+02  0.25500000000E-02 0. -1.
          2   -1    0    0  501    0  0.00000000000E+00 -0.00000000000E+00 -0.39111912955E+03  0.39111912956E+03  0.25500000000E-02 0.  1.
    5000001    1    1    2    0    0  0.13863054626E+02 -0.73027712812E+02 -0.93216078191E+02  0.17419376669E+03  0.12700000000E+03 0.  0.
   -5000001    1    1    2    0    0 -0.13863054626E+02  0.73027712812E+02 -0.23638367491E+03  0.27844473937E+03  0.12700000000E+03 0.  0.
<mgrwt>
<rscale>  0 0.31023478E+03</rscale>
<asrwt>0</asrwt>
<pdfrwt beam="1">  1        2 0.55874160E-01 0.31023478E+03</pdfrwt>
<pdfrwt beam="2">  1       -2 0.87884826E-02 0.31023478E+03</pdfrwt>
<totfact> 0.72279800E+03</totfact>
</mgrwt>
</event>
<event>
 4    1  0.1390278E-004  0.3287069E+03  0.7818608E-02  0.1071710E+00
         -2   -1    0    0    0  501 -0.00000000000E+00  0.00000000000E+00  0.69914853583E+03  0.69914853583E+03  0.25500000000E-02 0. -1.
          2   -1    0    0  501    0  0.00000000000E+00 -0.00000000000E+00 -0.38635658472E+02  0.38635658557E+02  0.25500000000E-02 0.  1.
    5000001    1    1    2    0    0  0.10185997981E+03  0.21196359624E+02  0.31311528069E+03  0.35354620652E+03  0.12700000000E+03 0.  0.
   -5000001    1    1    2    0    0 -0.10185997981E+03 -0.21196359624E+02  0.34739759667E+03  0.38423798787E+03  0.12700000000E+03 0.  0.
<mgrwt>
<rscale>  0 0.32870695E+03</rscale>
<asrwt>0</asrwt>
<pdfrwt beam="1">  1        2 0.55193801E-02 0.32870695E+03</pdfrwt>
<pdfrwt beam="2">  1       -2 0.99878357E-01 0.32870695E+03</pdfrwt>
<totfact> 0.11921571E+03</totfact>
</mgrwt>
</event>
<event>
 4    1  0.1390278E-004  0.4690325E+03  0.7818608E-02  0.1022194E+00
          2   -1    0    0  501    0  0.00000000000E+00  0.00000000000E+00  0.12985770688E+04  0.12985770688E+04  0.25500000000E-02 0.  1.
         -2   -1    0    0    0  501 -0.00000000000E+00 -0.00000000000E+00 -0.42352414880E+02  0.42352414956E+02  0.25500000000E-02 0. -1.
    5000001    1    1    2    0    0  0.16810421476E+03 -0.60780207751E+02  0.39036350850E+03  0.44773421741E+03  0.12700000000E+03 0.  0.
   -5000001    1    1    2    0    0 -0.16810421476E+03  0.60780207751E+02  0.86586114540E+03  0.89319526633E+03  0.12700000000E+03 0.  0.
<mgrwt>
<rscale>  0 0.46903251E+03</rscale>
<asrwt>0</asrwt>
<pdfrwt beam="1">  1        2 0.18551102E+00 0.46903251E+03</pdfrwt>
<pdfrwt beam="2">  1       -2 0.60503447E-02 0.46903251E+03</pdfrwt>
<totfact> 0.29022556E+03</totfact>
</mgrwt>
</event>
<event>
 4    1  0.1390278E-004  0.3956364E+03  0.7818608E-02  0.1045301E+00
          2   -1    0    0  501    0  0.00000000000E+00  0.00000000000E+00  0.16319262585E+03  0.16319262587E+03  0.25500000000E-02 0.  1.
         -2   -1    0    0    0  501 -0.00000000000E+00 -0.00000000000E+00 -0.23979045944E+03  0.23979045945E+03  0.25500000000E-02 0. -1.
    5000001    1    1    2    0    0  0.38903116406E+02 -0.75390728221E+02  0.89756846071E+02  0.17715108180E+03  0.12700000000E+03 0.  0.
   -5000001    1    1    2    0    0 -0.38903116406E+02  0.75390728221E+02 -0.16635467966E+03  0.22583200352E+03  0.12700000000E+03 0.  0.
<mgrwt>
<rscale>  0 0.39563637E+03</rscale>
<asrwt>0</asrwt>
<pdfrwt beam="1">  1        2 0.23313232E-01 0.39563637E+03</pdfrwt>
<pdfrwt beam="2">  1       -2 0.34255780E-01 0.39563637E+03</pdfrwt>
<totfact> 0.18765521E+03</totfact>
</mgrwt>
</event>
<event>
 4    1  0.1390278E-004  0.4055091E+03  0.7818608E-02  0.1041889E+00
          2   -1    0    0  501    0  0.00000000000E+00  0.00000000000E+00  0.28371503051E+03  0.28371503052E+03  0.25500000000E-02 0.  1.
         -2   -1    0    0    0  501 -0.00000000000E+00 -0.00000000000E+00 -0.14489680745E+03  0.14489680747E+03  0.25500000000E-02 0. -1.
    5000001    1    1    2    0    0 -0.72419284717E+02  0.10204220268E+02  0.21750493031E+03  0.26227099271E+03  0.12700000000E+03 0.  0.
   -5000001    1    1    2    0    0  0.72419284717E+02 -0.10204220268E+02 -0.78686707246E+02  0.16634084528E+03  0.12700000000E+03 0.  0.
<mgrwt>
<rscale>  0 0.40550907E+03</rscale>
<asrwt>0</asrwt>
<pdfrwt beam="1">  1        2 0.40530719E-01 0.40550907E+03</pdfrwt>
<pdfrwt beam="2">  1       -2 0.20699544E-01 0.40550907E+03</pdfrwt>
<totfact> 0.25132562E+03</totfact>
</mgrwt>
</event>
<event>
 4    1  0.1390278E-004  0.3857456E+03  0.7818608E-02  0.1048830E+00
          2   -1    0    0  501    0  0.00000000000E+00  0.00000000000E+00  0.89662050171E+03  0.89662050172E+03  0.25500000000E-02 0. -1.
         -2   -1    0    0    0  501 -0.00000000000E+00 -0.00000000000E+00 -0.41489024081E+02  0.41489024159E+02  0.25500000000E-02 0.  1.
    5000001    1    1    2    0    0 -0.49005094003E+02  0.73290229974E+01  0.95753619249E+02  0.16659222496E+03  0.12700000000E+03 0.  0.
   -5000001    1    1    2    0    0  0.49005094003E+02 -0.73290229974E+01  0.75937785838E+03  0.77151730092E+03  0.12700000000E+03 0.  0.
<mgrwt>
<rscale>  0 0.38574556E+03</rscale>
<asrwt>0</asrwt>
<pdfrwt beam="1">  1        2 0.12808864E+00 0.38574556E+03</pdfrwt>
<pdfrwt beam="2">  1       -2 0.59270036E-02 0.38574556E+03</pdfrwt>
<totfact> 0.51132055E+03</totfact>
</mgrwt>
</event>
<event>
 4    1  0.1390278E-004  0.4296419E+03  0.7818608E-02  0.1033973E+00
          2   -1    0    0  501    0  0.00000000000E+00  0.00000000000E+00  0.19668577179E+04  0.19668577179E+04  0.25500000000E-02 0.  1.
         -2   -1    0    0    0  501 -0.00000000000E+00 -0.00000000000E+00 -0.23462824056E+02  0.23462824195E+02  0.25500000000E-02 0. -1.
    5000001    1    1    2    0    0 -0.16175279458E+03 -0.50170921580E+02  0.80224955857E+03  0.82970744371E+03  0.12700000000E+03 0.  0.
   -5000001    1    1    2    0    0  0.16175279458E+03  0.50170921580E+02  0.11411453353E+04  0.11606130984E+04  0.12700000000E+03 0.  0.
<mgrwt>
<rscale>  0 0.42964188E+03</rscale>
<asrwt>0</asrwt>
<pdfrwt beam="1">  1        2 0.28097979E+00 0.42964188E+03</pdfrwt>
<pdfrwt beam="2">  1       -2 0.33518307E-02 0.42964188E+03</pdfrwt>
<totfact> 0.32776431E+03</totfact>
</mgrwt>
</event>
<event>
 4    1  0.1390278E-004  0.3029545E+03  0.7818608E-02  0.1083773E+00
          2   -1    0    0  501    0  0.00000000000E+00  0.00000000000E+00  0.42980857047E+03  0.42980857048E+03  0.25500000000E-02 0.  1.
         -2   -1    0    0    0  501 -0.00000000000E+00 -0.00000000000E+00 -0.53385056354E+02  0.53385056415E+02  0.25500000000E-02 0. -1.
    5000001    1    1    2    0    0  0.13397485025E+02  0.80100723069E+02  0.21190806711E+03  0.26005700788E+03  0.12700000000E+03 0.  0.
   -5000001    1    1    2    0    0 -0.13397485025E+02 -0.80100723069E+02  0.16451544701E+03  0.22313661901E+03  0.12700000000E+03 0.  0.
<mgrwt>
<rscale>  0 0.30295448E+03</rscale>
<asrwt>0</asrwt>
<pdfrwt beam="1">  1        2 0.61401225E-01 0.30295448E+03</pdfrwt>
<pdfrwt beam="2">  1       -2 0.76264365E-02 0.30295448E+03</pdfrwt>
<totfact> 0.81424670E+03</totfact>
</mgrwt>
</event>
<event>
 4    1  0.1390278E-004  0.6496718E+03  0.7818608E-02  0.9807395E-01
          2   -1    0    0  501    0  0.00000000000E+00  0.00000000000E+00  0.12247143894E+04  0.12247143894E+04  0.25500000000E-02 0.  1.
         -2   -1    0    0    0  501 -0.00000000000E+00 -0.00000000000E+00 -0.86157527886E+02  0.86157527924E+02  0.25500000000E-02 0. -1.
    5000001    1    1    2    0    0  0.22831120622E+02 -0.29095153869E+03  0.43827556229E+03  0.54165351142E+03  0.12700000000E+03 0.  0.
   -5000001    1    1    2    0    0 -0.22831120622E+02  0.29095153869E+03  0.70028129919E+03  0.76921840587E+03  0.12700000000E+03 0.  0.
<mgrwt>
<rscale>  0 0.64967181E+03</rscale>
<asrwt>0</asrwt>
<pdfrwt beam="1">  1        2 0.17495922E+00 0.64967181E+03</pdfrwt>
<pdfrwt beam="2">  1       -2 0.12308217E-01 0.64967181E+03</pdfrwt>
<totfact> 0.10177412E+03</totfact>
</mgrwt>
</event>
<event>
 4    1  0.1390278E-004  0.3647626E+03  0.7818608E-02  0.1056714E+00
          2   -1    0    0  501    0  0.00000000000E+00  0.00000000000E+00  0.18164701024E+04  0.18164701024E+04  0.25500000000E-02 0.  1.
         -2   -1    0    0    0  501 -0.00000000000E+00 -0.00000000000E+00 -0.18311851296E+02  0.18311851474E+02  0.25500000000E-02 0. -1.
    5000001    1    1    2    0    0  0.66030973632E+02 -0.11910968212E+02  0.14644191731E+04  0.14714463888E+04  0.12700000000E+03 0.  0.
   -5000001    1    1    2    0    0 -0.66030973632E+02  0.11910968212E+02  0.33373907798E+03  0.36333556502E+03  0.12700000000E+03 0.  0.
<mgrwt>
<rscale>  0 0.36476256E+03</rscale>
<asrwt>0</asrwt>
<pdfrwt beam="1">  1        2 0.25949551E+00 0.36476256E+03</pdfrwt>
<pdfrwt beam="2">  1       -2 0.26159809E-02 0.36476256E+03</pdfrwt>
<totfact> 0.56523046E+03</totfact>
</mgrwt>
</event>
<event>
 4    1  0.1390278E-004  0.3003227E+03  0.7818608E-02  0.1085079E+00
          2   -1    0    0  501    0  0.00000000000E+00  0.00000000000E+00  0.13225660726E+04  0.13225660726E+04  0.25500000000E-02 0. -1.
         -2   -1    0    0    0  501 -0.00000000000E+00 -0.00000000000E+00 -0.17049006753E+02  0.17049006944E+02  0.25500000000E-02 0.  1.
    5000001    1    1    2    0    0  0.39770648950E+00  0.70758061567E+02  0.48511075476E+03  0.50642699951E+03  0.12700000000E+03 0.  0.
   -5000001    1    1    2    0    0 -0.39770648950E+00 -0.70758061567E+02  0.82040631109E+03  0.83318808004E+03  0.12700000000E+03 0.  0.
<mgrwt>
<rscale>  0 0.30032275E+03</rscale>
<asrwt>0</asrwt>
<pdfrwt beam="1">  1        2 0.18893804E+00 0.30032275E+03</pdfrwt>
<pdfrwt beam="2">  1       -2 0.24355720E-02 0.30032275E+03</pdfrwt>
<totfact> 0.11147058E+04</totfact>
</mgrwt>
</event>
<event>
 4    1  0.1390278E-004  0.5111462E+03  0.7818608E-02  0.1010910E+00
          2   -1    0    0  501    0  0.00000000000E+00  0.00000000000E+00  0.15990392259E+04  0.15990392259E+04  0.25500000000E-02 0.  1.
         -2   -1    0    0    0  501 -0.00000000000E+00 -0.00000000000E+00 -0.40848026516E+02  0.40848026595E+02  0.25500000000E-02 0. -1.
    5000001    1    1    2    0    0  0.18019413455E+03 -0.11019655461E+03  0.56208399692E+03  0.61374312735E+03  0.12700000000E+03 0.  0.
   -5000001    1    1    2    0    0 -0.18019413455E+03  0.11019655461E+03  0.99610720246E+03  0.10261441251E+04  0.12700000000E+03 0.  0.
<mgrwt>
<rscale>  0 0.51114615E+03</rscale>
<asrwt>0</asrwt>
<pdfrwt beam="1">  1        2 0.22843425E+00 0.51114615E+03</pdfrwt>
<pdfrwt beam="2">  1       -2 0.58354305E-02 0.51114615E+03</pdfrwt>
<totfact> 0.21368967E+03</totfact>
</mgrwt>
</event>
<event>
 4    1  0.1390278E-004  0.4624298E+03  0.7818608E-02  0.1024079E+00
          2   -1    0    0  501    0  0.00000000000E+00  0.00000000000E+00  0.54152472020E+03  0.54152472021E+03  0.25500000000E-02 0.  1.
         -2   -1    0    0    0  501 -0.00000000000E+00 -0.00000000000E+00 -0.98721844494E+02  0.98721844526E+02  0.25500000000E-02 0. -1.
    5000001    1    1    2    0    0  0.15181240597E+03 -0.10641677444E+03  0.14607777965E+03  0.26802845781E+03  0.12700000000E+03 0.  0.
   -5000001    1    1    2    0    0 -0.15181240597E+03  0.10641677444E+03  0.29672509606E+03  0.37221810692E+03  0.12700000000E+03 0.  0.
<mgrwt>
<rscale>  0 0.46242975E+03</rscale>
<asrwt>0</asrwt>
<pdfrwt beam="1">  1        2 0.77360673E-01 0.46242975E+03</pdfrwt>
<pdfrwt beam="2">  1       -2 0.14103121E-01 0.46242975E+03</pdfrwt>
<totfact> 0.23629684E+03</totfact>
</mgrwt>
</event>
<event>
 4    1  0.1390278E-004  0.4638223E+03  0.7818608E-02  0.1023678E+00
         -2   -1    0    0    0  501 -0.00000000000E+00  0.00000000000E+00  0.12598143290E+03  0.12598143293E+03  0.25500000000E-02 0. -1.
          2   -1    0    0  501    0  0.00000000000E+00 -0.00000000000E+00 -0.42691041243E+03  0.42691041243E+03  0.25500000000E-02 0.  1.
    5000001    1    1    2    0    0 -0.21418752837E+02  0.12691385445E+03 -0.32356771891E+03  0.37066286319E+03  0.12700000000E+03 0.  0.
   -5000001    1    1    2    0    0  0.21418752837E+02 -0.12691385445E+03  0.22638739390E+02  0.18222898217E+03  0.12700000000E+03 0.  0.
<mgrwt>
<rscale>  0 0.46382232E+03</rscale>
<asrwt>0</asrwt>
<pdfrwt beam="1">  1        2 0.60987201E-01 0.46382232E+03</pdfrwt>
<pdfrwt beam="2">  1       -2 0.17997348E-01 0.46382232E+03</pdfrwt>
<totfact> 0.20466222E+03</totfact>
</mgrwt>
</event>
<event>
 4    1  0.1390278E-004  0.8151322E+03  0.7818608E-02  0.9538369E-01
         -2   -1    0    0    0  501 -0.00000000000E+00  0.00000000000E+00  0.80381999469E+02  0.80381999510E+02  0.25500000000E-02 0. -1.
          2   -1    0    0  501    0  0.00000000000E+00 -0.00000000000E+00 -0.20665087800E+04  0.20665087800E+04  0.25500000000E-02 0.  1.
    5000001    1    1    2    0    0 -0.26786946768E+03  0.20463801715E+03 -0.14952164941E+04  0.15379961424E+04  0.12700000000E+03 0.  0.
   -5000001    1    1    2    0    0  0.26786946768E+03 -0.20463801715E+03 -0.49091028637E+03  0.60889463707E+03  0.12700000000E+03 0.  0.
<mgrwt>
<rscale>  0 0.81513216E+03</rscale>
<asrwt>0</asrwt>
<pdfrwt beam="1">  1        2 0.29521551E+00 0.81513216E+03</pdfrwt>
<pdfrwt beam="2">  1       -2 0.11483144E-01 0.81513216E+03</pdfrwt>
<totfact> 0.41259113E+02</totfact>
</mgrwt>
</event>
<event>
 4    1  0.1390278E-004  0.3024072E+03  0.7818608E-02  0.1084043E+00
          2   -1    0    0  501    0  0.00000000000E+00  0.00000000000E+00  0.10662613191E+04  0.10662613191E+04  0.25500000000E-02 0.  1.
         -2   -1    0    0    0  501 -0.00000000000E+00 -0.00000000000E+00 -0.21441767951E+02  0.21441768103E+02  0.25500000000E-02 0. -1.
    5000001    1    1    2    0    0 -0.28733643356E+02 -0.69730325690E+02  0.63871477613E+03  0.65557112950E+03  0.12700000000E+03 0.  0.
   -5000001    1    1    2    0    0  0.28733643356E+02  0.69730325690E+02  0.40610477502E+03  0.43213195771E+03  0.12700000000E+03 0.  0.
<mgrwt>
<rscale>  0 0.30240719E+03</rscale>
<asrwt>0</asrwt>
<pdfrwt beam="1">  1        2 0.15232303E+00 0.30240719E+03</pdfrwt>
<pdfrwt beam="2">  1       -2 0.30631100E-02 0.30240719E+03</pdfrwt>
<totfact> 0.10948617E+04</totfact>
</mgrwt>
</event>
<event>
 4    1  0.1390278E-004  0.3219562E+03  0.7818608E-02  0.1074753E+00
         -2   -1    0    0    0  501 -0.00000000000E+00  0.00000000000E+00  0.27573125499E+02  0.27573125617E+02  0.25500000000E-02 0. -1.
          2   -1    0    0  501    0  0.00000000000E+00 -0.00000000000E+00 -0.93982640165E+03  0.93982640165E+03  0.25500000000E-02 0.  1.
    5000001    1    1    2    0    0 -0.58010327699E+02  0.79717728696E+02 -0.43193192480E+03  0.46088426102E+03  0.12700000000E+03 0.  0.
   -5000001    1    1    2    0    0  0.58010327699E+02 -0.79717728696E+02 -0.48032135135E+03  0.50651526625E+03  0.12700000000E+03 0.  0.
<mgrwt>
<rscale>  0 0.32195622E+03</rscale>
<asrwt>0</asrwt>
<pdfrwt beam="1">  1        2 0.13426089E+00 0.32195622E+03</pdfrwt>
<pdfrwt beam="2">  1       -2 0.39390185E-02 0.32195622E+03</pdfrwt>
<totfact> 0.89355125E+03</totfact>
</mgrwt>
</event>
<event>
 4    1  0.1390278E-004  0.3829417E+03  0.7818608E-02  0.1049852E+00
         -2   -1    0    0    0  501 -0.00000000000E+00  0.00000000000E+00  0.21858339182E+02  0.21858339331E+02  0.25500000000E-02 0. -1.
          2   -1    0    0  501    0  0.00000000000E+00 -0.00000000000E+00 -0.16772126385E+04  0.16772126386E+04  0.25500000000E-02 0.  1.
    5000001    1    1    2    0    0 -0.12619214502E+03  0.60207234529E+02 -0.96676606524E+03  0.98504568089E+03  0.12700000000E+03 0.  0.
   -5000001    1    1    2    0    0  0.12619214502E+03 -0.60207234529E+02 -0.68858823413E+03  0.71402529699E+03  0.12700000000E+03 0.  0.
<mgrwt>
<rscale>  0 0.38294168E+03</rscale>
<asrwt>0</asrwt>
<pdfrwt beam="1">  1        2 0.23960172E+00 0.38294168E+03</pdfrwt>
<pdfrwt beam="2">  1       -2 0.31226210E-02 0.38294168E+03</pdfrwt>
<totfact> 0.50852841E+03</totfact>
</mgrwt>
</event>
<event>
 4    1  0.1390278E-004  0.3944865E+03  0.7818608E-02  0.1045706E+00
          2   -1    0    0  501    0  0.00000000000E+00  0.00000000000E+00  0.53728230158E+03  0.53728230159E+03  0.25500000000E-02 0.  1.
         -2   -1    0    0    0  501 -0.00000000000E+00 -0.00000000000E+00 -0.72410522403E+02  0.72410522447E+02  0.25500000000E-02 0. -1.
    5000001    1    1    2    0    0  0.11580117672E+01  0.10272329876E+03  0.61568745865E+02  0.17456553946E+03  0.12700000000E+03 0.  0.
   -5000001    1    1    2    0    0 -0.11580117672E+01 -0.10272329876E+03  0.40330303331E+03  0.43512728457E+03  0.12700000000E+03 0.  0.
<mgrwt>
<rscale>  0 0.39448646E+03</rscale>
<asrwt>0</asrwt>
<pdfrwt beam="1">  1        2 0.76754617E-01 0.39448646E+03</pdfrwt>
<pdfrwt beam="2">  1       -2 0.10344360E-01 0.39448646E+03</pdfrwt>
<totfact> 0.39488562E+03</totfact>
</mgrwt>
</event>
<event>
 4    1  0.1390278E-004  0.4039120E+03  0.7818608E-02  0.1042433E+00
         -2   -1    0    0    0  501 -0.00000000000E+00  0.00000000000E+00  0.69104466318E+02  0.69104466365E+02  0.25500000000E-02 0. -1.
          2   -1    0    0  501    0  0.00000000000E+00 -0.00000000000E+00 -0.59021126874E+03  0.59021126875E+03  0.25500000000E-02 0.  1.
    5000001    1    1    2    0    0 -0.10826249612E+03 -0.11151460917E+03 -0.29708827166E+03  0.35853412289E+03  0.12700000000E+03 0.  0.
   -5000001    1    1    2    0    0  0.10826249612E+03  0.11151460917E+03 -0.22401853077E+03  0.30078161222E+03  0.12700000000E+03 0.  0.
<mgrwt>
<rscale>  0 0.40391204E+03</rscale>
<asrwt>0</asrwt>
<pdfrwt beam="1">  1        2 0.84315893E-01 0.40391204E+03</pdfrwt>
<pdfrwt beam="2">  1       -2 0.98720669E-02 0.40391204E+03</pdfrwt>
<totfact> 0.38242778E+03</totfact>
</mgrwt>
</event>
<event>
 4    1  0.1390278E-004  0.3217934E+03  0.7818608E-02  0.1074827E+00
         -2   -1    0    0    0  501 -0.00000000000E+00  0.00000000000E+00  0.49545236831E+03  0.49545236831E+03  0.25500000000E-02 0. -1.
          2   -1    0    0  501    0  0.00000000000E+00 -0.00000000000E+00 -0.52250739938E+02  0.52250740001E+02  0.25500000000E-02 0.  1.
    5000001    1    1    2    0    0 -0.32466247181E+02  0.92435139241E+02  0.24315964972E+03  0.29129697462E+03  0.12700000000E+03 0.  0.
   -5000001    1    1    2    0    0  0.32466247181E+02 -0.92435139241E+02  0.20004197865E+03  0.25640613369E+03  0.12700000000E+03 0.  0.
<mgrwt>
<rscale>  0 0.32179343E+03</rscale>
<asrwt>0</asrwt>
<pdfrwt beam="1">  1        2 0.74643912E-02 0.32179343E+03</pdfrwt>
<pdfrwt beam="2">  1       -2 0.70778912E-01 0.32179343E+03</pdfrwt>
<totfact> 0.17380121E+03</totfact>
</mgrwt>
</event>
<event>
 4    1  0.1390278E-004  0.5902513E+03  0.7818608E-02  0.9925840E-01
          2   -1    0    0  501    0  0.00000000000E+00  0.00000000000E+00  0.20117423733E+04  0.20117423733E+04  0.25500000000E-02 0.  1.
         -2   -1    0    0    0  501 -0.00000000000E+00 -0.00000000000E+00 -0.43295378936E+02  0.43295379011E+02  0.25500000000E-02 0. -1.
    5000001    1    1    2    0    0 -0.81706485511E+02 -0.24662512963E+03  0.11893221781E+04  0.12239755503E+04  0.12700000000E+03 0.  0.
   -5000001    1    1    2    0    0  0.81706485511E+02  0.24662512963E+03  0.77912481621E+03  0.83106220199E+03  0.12700000000E+03 0.  0.
<mgrwt>
<rscale>  0 0.59025130E+03</rscale>
<asrwt>0</asrwt>
<pdfrwt beam="1">  1        2 0.28739179E+00 0.59025130E+03</pdfrwt>
<pdfrwt beam="2">  1       -2 0.61850537E-02 0.59025130E+03</pdfrwt>
<totfact> 0.12042793E+03</totfact>
</mgrwt>
</event>
<event>
 4    1  0.1390278E-004  0.4720548E+03  0.7818608E-02  0.1021342E+00
          2   -1    0    0  501    0  0.00000000000E+00  0.00000000000E+00  0.72470112171E+03  0.72470112172E+03  0.25500000000E-02 0.  1.
         -2   -1    0    0    0  501 -0.00000000000E+00 -0.00000000000E+00 -0.76871590184E+02  0.76871590226E+02  0.25500000000E-02 0. -1.
    5000001    1    1    2    0    0 -0.16899966809E+03  0.97622404985E+02  0.38943631418E+03  0.45374074599E+03  0.12700000000E+03 0.  0.
   -5000001    1    1    2    0    0  0.16899966809E+03 -0.97622404985E+02  0.25839321735E+03  0.34783196596E+03  0.12700000000E+03 0.  0.
<mgrwt>
<rscale>  0 0.47205478E+03</rscale>
<asrwt>0</asrwt>
<pdfrwt beam="1">  1        2 0.10352873E+00 0.47205478E+03</pdfrwt>
<pdfrwt beam="2">  1       -2 0.10981656E-01 0.47205478E+03</pdfrwt>
<totfact> 0.25275829E+03</totfact>
</mgrwt>
</event>
<event>
 4    1  0.1390278E-004  0.4253306E+03  0.7818608E-02  0.1035345E+00
          2   -1    0    0  501    0  0.00000000000E+00  0.00000000000E+00  0.18203376967E+04  0.18203376967E+04  0.25500000000E-02 0.  1.
         -2   -1    0    0    0  501 -0.00000000000E+00 -0.00000000000E+00 -0.24845131967E+02  0.24845132098E+02  0.25500000000E-02 0. -1.
    5000001    1    1    2    0    0 -0.44577031980E+02 -0.15830857142E+03  0.10941113042E+04  0.11136683804E+04  0.12700000000E+03 0.  0.
   -5000001    1    1    2    0    0  0.44577031980E+02  0.15830857142E+03  0.70138126054E+03  0.73151444839E+03  0.12700000000E+03 0.  0.
<mgrwt>
<rscale>  0 0.42533060E+03</rscale>
<asrwt>0</asrwt>
<pdfrwt beam="1">  1        2 0.26004825E+00 0.42533060E+03</pdfrwt>
<pdfrwt beam="2">  1       -2 0.35493045E-02 0.42533060E+03</pdfrwt>
<totfact> 0.35542363E+03</totfact>
</mgrwt>
</event>
<event>
 4    1  0.1390278E-004  0.4263641E+03  0.7818608E-02  0.1035015E+00
          2   -1    0    0  501    0  0.00000000000E+00  0.00000000000E+00  0.65035760649E+03  0.65035760650E+03  0.25500000000E-02 0.  1.
         -2   -1    0    0    0  501 -0.00000000000E+00 -0.00000000000E+00 -0.69879396304E+02  0.69879396350E+02  0.25500000000E-02 0. -1.
    5000001    1    1    2    0    0 -0.15282762785E+03  0.33063324584E+02  0.17237655889E+03  0.26512665902E+03  0.12700000000E+03 0.  0.
   -5000001    1    1    2    0    0  0.15282762785E+03 -0.33063324584E+02  0.40810165130E+03  0.45511034383E+03  0.12700000000E+03 0.  0.
<mgrwt>
<rscale>  0 0.42636415E+03</rscale>
<asrwt>0</asrwt>
<pdfrwt beam="1">  1        2 0.92908227E-01 0.42636415E+03</pdfrwt>
<pdfrwt beam="2">  1       -2 0.99827712E-02 0.42636415E+03</pdfrwt>
<totfact> 0.33560295E+03</totfact>
</mgrwt>
</event>
<event>
 4    1  0.1390278E-004  0.3066938E+03  0.7818608E-02  0.1081941E+00
          2   -1    0    0  501    0  0.00000000000E+00  0.00000000000E+00  0.12685722545E+04  0.12685722545E+04  0.25500000000E-02 0.  1.
         -2   -1    0    0    0  501 -0.00000000000E+00 -0.00000000000E+00 -0.18536807007E+02  0.18536807183E+02  0.25500000000E-02 0. -1.
    5000001    1    1    2    0    0 -0.25648274745E+02 -0.82020044500E+02  0.62050263961E+03  0.63916949823E+03  0.12700000000E+03 0.  0.
   -5000001    1    1    2    0    0  0.25648274745E+02  0.82020044500E+02  0.62953280786E+03  0.64793956344E+03  0.12700000000E+03 0.  0.
<mgrwt>
<rscale>  0 0.30669385E+03</rscale>
<asrwt>0</asrwt>
<pdfrwt beam="1">  1        2 0.18122459E+00 0.30669385E+03</pdfrwt>
<pdfrwt beam="2">  1       -2 0.26481155E-02 0.30669385E+03</pdfrwt>
<totfact> 0.10520531E+04</totfact>
</mgrwt>
</event>
<event>
 4    1  0.1390278E-004  0.3544434E+03  0.7818608E-02  0.1060806E+00
         -2   -1    0    0    0  501 -0.00000000000E+00  0.00000000000E+00  0.17865187036E+02  0.17865187218E+02  0.25500000000E-02 0. -1.
          2   -1    0    0  501    0  0.00000000000E+00 -0.00000000000E+00 -0.17580301796E+04  0.17580301796E+04  0.25500000000E-02 0.  1.
    5000001    1    1    2    0    0  0.45839023712E+02 -0.11306505922E+03 -0.96948697093E+03  0.98535217588E+03  0.12700000000E+03 0.  0.
   -5000001    1    1    2    0    0 -0.45839023712E+02  0.11306505922E+03 -0.77067802167E+03  0.79054319097E+03  0.12700000000E+03 0.  0.
<mgrwt>
<rscale>  0 0.35444344E+03</rscale>
<asrwt>0</asrwt>
<pdfrwt beam="1">  1        2 0.25114706E+00 0.35444344E+03</pdfrwt>
<pdfrwt beam="2">  1       -2 0.25521707E-02 0.35444344E+03</pdfrwt>
<totfact> 0.62682525E+03</totfact>
</mgrwt>
</event>
<event>
 4    1  0.1390278E-004  0.4119687E+03  0.7818608E-02  0.1039712E+00
         -2   -1    0    0    0  501 -0.00000000000E+00  0.00000000000E+00  0.90647537153E+03  0.90647537153E+03  0.25500000000E-02 0. -1.
          2   -1    0    0  501    0  0.00000000000E+00 -0.00000000000E+00 -0.46807173543E+02  0.46807173612E+02  0.25500000000E-02 0.  1.
    5000001    1    1    2    0    0  0.13110170124E+03 -0.80182171070E+02  0.54970823844E+03  0.58474351987E+03  0.12700000000E+03 0.  0.
   -5000001    1    1    2    0    0 -0.13110170124E+03  0.80182171070E+02  0.30995995955E+03  0.36853902527E+03  0.12700000000E+03 0.  0.
<mgrwt>
<rscale>  0 0.41196869E+03</rscale>
<asrwt>0</asrwt>
<pdfrwt beam="1">  1        2 0.66867400E-02 0.41196869E+03</pdfrwt>
<pdfrwt beam="2">  1       -2 0.12949646E+00 0.41196869E+03</pdfrwt>
<totfact> 0.49649059E+02</totfact>
</mgrwt>
</event>
<event>
 4    1  0.1390278E-004  0.6864380E+03  0.7818608E-02  0.9740710E-01
          2   -1    0    0  501    0  0.00000000000E+00  0.00000000000E+00  0.11018475574E+04  0.11018475574E+04  0.25500000000E-02 0.  1.
         -2   -1    0    0    0  501 -0.00000000000E+00 -0.00000000000E+00 -0.10691067518E+03  0.10691067521E+03  0.25500000000E-02 0. -1.
    5000001    1    1    2    0    0  0.25475142308E+03  0.18505385761E+03  0.58598916334E+03  0.67724110724E+03  0.12700000000E+03 0.  0.
   -5000001    1    1    2    0    0 -0.25475142308E+03 -0.18505385761E+03  0.40894771884E+03  0.53151712533E+03  0.12700000000E+03 0.  0.
<mgrwt>
<rscale>  0 0.68643795E+03</rscale>
<asrwt>0</asrwt>
<pdfrwt beam="1">  1        2 0.15740681E+00 0.68643795E+03</pdfrwt>
<pdfrwt beam="2">  1       -2 0.15272952E-01 0.68643795E+03</pdfrwt>
<totfact> 0.83268511E+02</totfact>
</mgrwt>
</event>
<event>
 4    1  0.1390278E-004  0.2738664E+03  0.7818608E-02  0.1099087E+00
         -2   -1    0    0    0  501 -0.00000000000E+00  0.00000000000E+00  0.17267128219E+03  0.17267128221E+03  0.25500000000E-02 0. -1.
          2   -1    0    0  501    0  0.00000000000E+00 -0.00000000000E+00 -0.10859191937E+03  0.10859191940E+03  0.25500000000E-02 0.  1.
    5000001    1    1    2    0    0  0.35330998932E+02 -0.37686176412E+01 -0.58237199406E+01  0.13200529413E+03  0.12700000000E+03 0.  0.
   -5000001    1    1    2    0    0 -0.35330998932E+02  0.37686176412E+01  0.69903082763E+02  0.14925790748E+03  0.12700000000E+03 0.  0.
<mgrwt>
<rscale>  0 0.27386643E+03</rscale>
<asrwt>0</asrwt>
<pdfrwt beam="1">  1        2 0.15513131E-01 0.27386643E+03</pdfrwt>
<pdfrwt beam="2">  1       -2 0.24667326E-01 0.27386643E+03</pdfrwt>
<totfact> 0.54098735E+03</totfact>
</mgrwt>
</event>
<event>
 4    1  0.1390278E-004  0.2811410E+03  0.7818608E-02  0.1095067E+00
         -2   -1    0    0    0  501 -0.00000000000E+00  0.00000000000E+00  0.48229451983E+02  0.48229452050E+02  0.25500000000E-02 0. -1.
          2   -1    0    0  501    0  0.00000000000E+00 -0.00000000000E+00 -0.40970965381E+03  0.40970965382E+03  0.25500000000E-02 0.  1.
    5000001    1    1    2    0    0  0.43367015996E+02  0.39398009413E+02 -0.15781013641E+03  0.21086948659E+03  0.12700000000E+03 0.  0.
   -5000001    1    1    2    0    0 -0.43367015996E+02 -0.39398009413E+02 -0.20367006542E+03  0.24706961928E+03  0.12700000000E+03 0.  0.
<mgrwt>
<rscale>  0 0.28114105E+03</rscale>
<asrwt>0</asrwt>
<pdfrwt beam="1">  1        2 0.58529948E-01 0.28114105E+03</pdfrwt>
<pdfrwt beam="2">  1       -2 0.68899220E-02 0.28114105E+03</pdfrwt>
<totfact> 0.10016410E+04</totfact>
</mgrwt>
</event>
<event>
 4    1  0.1390278E-004  0.3735610E+03  0.7818608E-02  0.1053340E+00
         -2   -1    0    0    0  501 -0.00000000000E+00  0.00000000000E+00  0.21860787666E+02  0.21860787815E+02  0.25500000000E-02 0. -1.
          2   -1    0    0  501    0  0.00000000000E+00 -0.00000000000E+00 -0.15958689704E+04  0.15958689704E+04  0.25500000000E-02 0.  1.
    5000001    1    1    2    0    0  0.11888567070E+03 -0.67350194396E+02 -0.74635639144E+03  0.76931574430E+03  0.12700000000E+03 0.  0.
   -5000001    1    1    2    0    0 -0.11888567070E+03  0.67350194396E+02 -0.82765179130E+03  0.84841401392E+03  0.12700000000E+03 0.  0.
<mgrwt>
<rscale>  0 0.37356099E+03</rscale>
<asrwt>0</asrwt>
<pdfrwt beam="1">  1        2 0.22798121E+00 0.37356099E+03</pdfrwt>
<pdfrwt beam="2">  1       -2 0.31229707E-02 0.37356099E+03</pdfrwt>
<totfact> 0.55858437E+03</totfact>
</mgrwt>
</event>
<event>
 4    1  0.1390278E-004  0.3940261E+03  0.7818608E-02  0.1045868E+00
         -2   -1    0    0    0  501 -0.00000000000E+00  0.00000000000E+00  0.13322000014E+03  0.13322000016E+03  0.25500000000E-02 0. -1.
          2   -1    0    0  501    0  0.00000000000E+00 -0.00000000000E+00 -0.29135369563E+03  0.29135369564E+03  0.25500000000E-02 0.  1.
    5000001    1    1    2    0    0  0.14094419610E+03  0.24886001244E+02 -0.12961376872E+03  0.23111319416E+03  0.12700000000E+03 0.  0.
   -5000001    1    1    2    0    0 -0.14094419610E+03 -0.24886001244E+02 -0.28519926772E+02  0.19346050164E+03  0.12700000000E+03 0.  0.
<mgrwt>
<rscale>  0 0.39402609E+03</rscale>
<asrwt>0</asrwt>
<pdfrwt beam="1">  1        2 0.41621956E-01 0.39402609E+03</pdfrwt>
<pdfrwt beam="2">  1       -2 0.19031429E-01 0.39402609E+03</pdfrwt>
<totfact> 0.28206824E+03</totfact>
</mgrwt>
</event>
<event>
 4    1  0.1390278E-004  0.3788610E+03  0.7818608E-02  0.1051356E+00
          2   -1    0    0  501    0  0.00000000000E+00  0.00000000000E+00  0.38590467752E+03  0.38590467753E+03  0.25500000000E-02 0.  1.
         -2   -1    0    0    0  501 -0.00000000000E+00 -0.00000000000E+00 -0.92986466640E+02  0.92986466675E+02  0.25500000000E-02 0. -1.
    5000001    1    1    2    0    0 -0.51701992480E+02  0.84548005698E+02  0.27244066962E+03  0.31650336453E+03  0.12700000000E+03 0.  0.
   -5000001    1    1    2    0    0  0.51701992480E+02 -0.84548005698E+02  0.20477541267E+02  0.16238777968E+03  0.12700000000E+03 0.  0.
<mgrwt>
<rscale>  0 0.37886099E+03</rscale>
<asrwt>0</asrwt>
<pdfrwt beam="1">  1        2 0.55129239E-01 0.37886099E+03</pdfrwt>
<pdfrwt beam="2">  1       -2 0.13283781E-01 0.37886099E+03</pdfrwt>
<totfact> 0.37928368E+03</totfact>
</mgrwt>
</event>
<event>
 4    1  0.1390278E-004  0.3505465E+03  0.7818608E-02  0.1062391E+00
         -2   -1    0    0    0  501 -0.00000000000E+00  0.00000000000E+00  0.22137255806E+02  0.22137255953E+02  0.25500000000E-02 0. -1.
          2   -1    0    0  501    0  0.00000000000E+00 -0.00000000000E+00 -0.13877381994E+04  0.13877381994E+04  0.25500000000E-02 0.  1.
    5000001    1    1    2    0    0 -0.14711543522E+02 -0.77438993834E+02 -0.10509446398E+04  0.10615210140E+04  0.12700000000E+03 0.  0.
   -5000001    1    1    2    0    0  0.14711543522E+02  0.77438993834E+02 -0.31465630376E+03  0.34835444130E+03  0.12700000000E+03 0.  0.
<mgrwt>
<rscale>  0 0.35054652E+03</rscale>
<asrwt>0</asrwt>
<pdfrwt beam="1">  1        2 0.19824826E+00 0.35054652E+03</pdfrwt>
<pdfrwt beam="2">  1       -2 0.31624660E-02 0.35054652E+03</pdfrwt>
<totfact> 0.70014628E+03</totfact>
</mgrwt>
</event>
<event>
 4    1  0.1390278E-004  0.3365124E+03  0.7818608E-02  0.1068291E+00
          2   -1    0    0  501    0  0.00000000000E+00  0.00000000000E+00  0.33695990074E+04  0.33695990074E+04  0.25500000000E-02 0.  1.
         -2   -1    0    0    0  501 -0.00000000000E+00 -0.00000000000E+00 -0.84016365934E+01  0.84016369804E+01  0.25500000000E-02 0. -1.
    5000001    1    1    2    0    0 -0.51040195462E+02 -0.84485553550E+02  0.21762732110E+04  0.21822092015E+04  0.12700000000E+03 0.  0.
   -5000001    1    1    2    0    0  0.51040195462E+02  0.84485553550E+02  0.11849241598E+04  0.11957914429E+04  0.12700000000E+03 0.  0.
<mgrwt>
<rscale>  0 0.33651239E+03</rscale>
<asrwt>0</asrwt>
<pdfrwt beam="1">  1        2 0.48137231E+00 0.33651239E+03</pdfrwt>
<pdfrwt beam="2">  1       -2 0.12002313E-02 0.33651239E+03</pdfrwt>
<totfact> 0.28316759E+03</totfact>
</mgrwt>
</event>
<event>
 4    1  0.1390278E-004  0.4075940E+03  0.7818608E-02  0.1041181E+00
          2   -1    0    0  501    0  0.00000000000E+00  0.00000000000E+00  0.27642728758E+04  0.27642728758E+04  0.25500000000E-02 0.  1.
         -2   -1    0    0    0  501 -0.00000000000E+00 -0.00000000000E+00 -0.15025004083E+02  0.15025004299E+02  0.25500000000E-02 0. -1.
    5000001    1    1    2    0    0 -0.13300483783E+03 -0.51074554121E+02  0.88741123927E+03  0.90770402916E+03  0.12700000000E+03 0.  0.
   -5000001    1    1    2    0    0  0.13300483783E+03  0.51074554121E+02  0.18618366325E+04  0.18715938510E+04  0.12700000000E+03 0.  0.
<mgrwt>
<rscale>  0 0.40759397E+03</rscale>
<asrwt>0</asrwt>
<pdfrwt beam="1">  1        2 0.39489669E+00 0.40759397E+03</pdfrwt>
<pdfrwt beam="2">  1       -2 0.21464261E-02 0.40759397E+03</pdfrwt>
<totfact> 0.25400514E+03</totfact>
</mgrwt>
</event>
<event>
 4    1  0.1390278E-004  0.3134822E+03  0.7818608E-02  0.1078689E+00
         -2   -1    0    0    0  501 -0.00000000000E+00  0.00000000000E+00  0.26075484048E+02  0.26075484173E+02  0.25500000000E-02 0. -1.
          2   -1    0    0  501    0  0.00000000000E+00 -0.00000000000E+00 -0.94217884088E+03  0.94217884088E+03  0.25500000000E-02 0.  1.
    5000001    1    1    2    0    0 -0.89797983009E+02 -0.74056625872E+01 -0.51332552242E+03  0.53642391218E+03  0.12700000000E+03 0.  0.
   -5000001    1    1    2    0    0  0.89797983009E+02  0.74056625872E+01 -0.40277783441E+03  0.43183041287E+03  0.12700000000E+03 0.  0.
<mgrwt>
<rscale>  0 0.31348218E+03</rscale>
<asrwt>0</asrwt>
<pdfrwt beam="1">  1        2 0.13459696E+00 0.31348218E+03</pdfrwt>
<pdfrwt beam="2">  1       -2 0.37250697E-02 0.31348218E+03</pdfrwt>
<totfact> 0.96808198E+03</totfact>
</mgrwt>
</event>
<event>
 4    1  0.1390278E-004  0.7615440E+03  0.7818608E-02  0.9617412E-01
         -2   -1    0    0    0  501 -0.00000000000E+00  0.00000000000E+00  0.45569245347E+02  0.45569245419E+02  0.25500000000E-02 0. -1.
          2   -1    0    0  501    0  0.00000000000E+00 -0.00000000000E+00 -0.31816924691E+04  0.31816924691E+04  0.25500000000E-02 0.  1.
    5000001    1    1    2    0    0 -0.19614534285E+03  0.21903212284E+03 -0.24407810148E+04  0.24617044966E+04  0.12700000000E+03 0.  0.
   -5000001    1    1    2    0    0  0.19614534285E+03 -0.21903212284E+03 -0.69534220892E+03  0.76555721789E+03  0.12700000000E+03 0.  0.
<mgrwt>
<rscale>  0 0.76154402E+03</rscale>
<asrwt>0</asrwt>
<pdfrwt beam="1">  1        2 0.45452736E+00 0.76154402E+03</pdfrwt>
<pdfrwt beam="2">  1       -2 0.65098942E-02 0.76154402E+03</pdfrwt>
<totfact> 0.26717730E+02</totfact>
</mgrwt>
</event>
<event>
 4    1  0.1390278E-004  0.4354801E+03  0.7818608E-02  0.1032143E+00
         -2   -1    0    0    0  501 -0.00000000000E+00  0.00000000000E+00  0.32864782174E+03  0.32864782175E+03  0.25500000000E-02 0. -1.
          2   -1    0    0  501    0  0.00000000000E+00 -0.00000000000E+00 -0.14425999514E+03  0.14425999516E+03  0.25500000000E-02 0.  1.
    5000001    1    1    2    0    0  0.46934643376E+02  0.14566825911E+03  0.18846796111E+03  0.27399137728E+03  0.12700000000E+03 0.  0.
   -5000001    1    1    2    0    0 -0.46934643376E+02 -0.14566825911E+03 -0.40801345055E+01  0.19891643964E+03  0.12700000000E+03 0.  0.
<mgrwt>
<rscale>  0 0.43548012E+03</rscale>
<asrwt>0</asrwt>
<pdfrwt beam="1">  1        2 0.20608571E-01 0.43548012E+03</pdfrwt>
<pdfrwt beam="2">  1       -2 0.46949688E-01 0.43548012E+03</pdfrwt>
<totfact> 0.11781390E+03</totfact>
</mgrwt>
</event>
<event>
 4    1  0.1390278E-004  0.5929502E+03  0.7818608E-02  0.9920141E-01
          2   -1    0    0  501    0  0.00000000000E+00  0.00000000000E+00  0.29222531335E+04  0.29222531335E+04  0.25500000000E-02 0.  1.
         -2   -1    0    0    0  501 -0.00000000000E+00 -0.00000000000E+00 -0.30078672823E+02  0.30078672931E+02  0.25500000000E-02 0. -1.
    5000001    1    1    2    0    0 -0.94318494237E+02  0.23268383642E+03  0.98085189371E+03  0.10204103015E+04  0.12700000000E+03 0.  0.
   -5000001    1    1    2    0    0  0.94318494237E+02 -0.23268383642E+03  0.19113225670E+04  0.19319215049E+04  0.12700000000E+03 0.  0.
<mgrwt>
<rscale>  0 0.59295024E+03</rscale>
<asrwt>0</asrwt>
<pdfrwt beam="1">  1        2 0.41746458E+00 0.59295024E+03</pdfrwt>
<pdfrwt beam="2">  1       -2 0.42969549E-02 0.59295024E+03</pdfrwt>
<totfact> 0.72133242E+02</totfact>
</mgrwt>
</event>
<event>
 4    1  0.1390278E-004  0.3017448E+03  0.7818608E-02  0.1084372E+00
         -2   -1    0    0    0  501 -0.00000000000E+00  0.00000000000E+00  0.14690820977E+02  0.14690821198E+02  0.25500000000E-02 0. -1.
          2   -1    0    0  501    0  0.00000000000E+00 -0.00000000000E+00 -0.15494357883E+04  0.15494357883E+04  0.25500000000E-02 0.  1.
    5000001    1    1    2    0    0  0.66560147185E+00  0.73525707885E+02 -0.58579736031E+03  0.60389901481E+03  0.12700000000E+03 0.  0.
   -5000001    1    1    2    0    0 -0.66560147185E+00 -0.73525707885E+02 -0.94894760706E+03  0.96022759473E+03  0.12700000000E+03 0.  0.
<mgrwt>
<rscale>  0 0.30174482E+03</rscale>
<asrwt>0</asrwt>
<pdfrwt beam="1">  1        2 0.22134787E+00 0.30174482E+03</pdfrwt>
<pdfrwt beam="2">  1       -2 0.20986897E-02 0.30174482E+03</pdfrwt>
<totfact> 0.10627680E+04</totfact>
</mgrwt>
</event>
<event>
 4    1  0.1390278E-004  0.3435899E+03  0.7818608E-02  0.1065277E+00
          2   -1    0    0  501    0  0.00000000000E+00  0.00000000000E+00  0.41346675036E+02  0.41346675115E+02  0.25500000000E-02 0.  1.
         -2   -1    0    0    0  501 -0.00000000000E+00 -0.00000000000E+00 -0.71380617597E+03  0.71380617597E+03  0.25500000000E-02 0. -1.
    5000001    1    1    2    0    0 -0.10815669944E+03  0.21011553463E+02 -0.25867540524E+03  0.30851470353E+03  0.12700000000E+03 0.  0.
   -5000001    1    1    2    0    0  0.10815669944E+03 -0.21011553463E+02 -0.41378409569E+03  0.44663814756E+03  0.12700000000E+03 0.  0.
<mgrwt>
<rscale>  0 0.34358994E+03</rscale>
<asrwt>0</asrwt>
<pdfrwt beam="1">  1        2 0.59066683E-02 0.34358994E+03</pdfrwt>
<pdfrwt beam="2">  1       -2 0.10197230E+00 0.34358994E+03</pdfrwt>
<totfact> 0.10393635E+03</totfact>
</mgrwt>
</event>
<event>
 4    1  0.1390278E-004  0.3029121E+03  0.7818608E-02  0.1083794E+00
          2   -1    0    0  501    0  0.00000000000E+00  0.00000000000E+00  0.65628597758E+02  0.65628597808E+02  0.25500000000E-02 0.  1.
         -2   -1    0    0    0  501 -0.00000000000E+00 -0.00000000000E+00 -0.34952655069E+03  0.34952655069E+03  0.25500000000E-02 0. -1.
    5000001    1    1    2    0    0  0.69329570328E+02  0.38936512151E+02 -0.11169445712E+03  0.18688845082E+03  0.12700000000E+03 0.  0.
   -5000001    1    1    2    0    0 -0.69329570328E+02 -0.38936512151E+02 -0.17220349581E+03  0.22826669768E+03  0.12700000000E+03 0.  0.
<mgrwt>
<rscale>  0 0.30291212E+03</rscale>
<asrwt>0</asrwt>
<pdfrwt beam="1">  1        2 0.93755141E-02 0.30291212E+03</pdfrwt>
<pdfrwt beam="2">  1       -2 0.49932363E-01 0.30291212E+03</pdfrwt>
<totfact> 0.26782907E+03</totfact>
</mgrwt>
</event>
<event>
 4    1  0.1390278E-004  0.4331347E+03  0.7818608E-02  0.1032874E+00
          2   -1    0    0  501    0  0.00000000000E+00  0.00000000000E+00  0.27679465566E+04  0.27679465566E+04  0.25500000000E-02 0.  1.
         -2   -1    0    0    0  501 -0.00000000000E+00 -0.00000000000E+00 -0.16944482047E+02  0.16944482239E+02  0.25500000000E-02 0. -1.
    5000001    1    1    2    0    0  0.15779349351E+03  0.55523571949E+02  0.10358389848E+04  0.10569167687E+04  0.12700000000E+03 0.  0.
   -5000001    1    1    2    0    0 -0.15779349351E+03 -0.55523571949E+02  0.17151630898E+04  0.17279742701E+04  0.12700000000E+03 0.  0.
<mgrwt>
<rscale>  0 0.43313472E+03</rscale>
<asrwt>0</asrwt>
<pdfrwt beam="1">  1        2 0.39542098E+00 0.43313472E+03</pdfrwt>
<pdfrwt beam="2">  1       -2 0.24206400E-02 0.43313472E+03</pdfrwt>
<totfact> 0.21092892E+03</totfact>
</mgrwt>
</event>
<event>
 4    1  0.1390278E-004  0.2953790E+03  0.7818608E-02  0.1087574E+00
         -2   -1    0    0    0  501 -0.00000000000E+00  0.00000000000E+00  0.13094611742E+02  0.13094611991E+02  0.25500000000E-02 0. -1.
          2   -1    0    0  501    0  0.00000000000E+00 -0.00000000000E+00 -0.16657380323E+04  0.16657380323E+04  0.25500000000E-02 0.  1.
    5000001    1    1    2    0    0 -0.27536665381E+02 -0.43484265240E+02 -0.11393896986E+04  0.11476005554E+04  0.12700000000E+03 0.  0.
   -5000001    1    1    2    0    0  0.27536665381E+02  0.43484265240E+02 -0.51325372191E+03  0.53123208894E+03  0.12700000000E+03 0.  0.
<mgrwt>
<rscale>  0 0.29537903E+03</rscale>
<asrwt>0</asrwt>
<pdfrwt beam="1">  1        2 0.23796244E+00 0.29537903E+03</pdfrwt>
<pdfrwt beam="2">  1       -2 0.18706599E-02 0.29537903E+03</pdfrwt>
<totfact> 0.11010754E+04</totfact>
</mgrwt>
</event>
<event>
 4    1  0.1390278E-004  0.4751791E+03  0.7818608E-02  0.1020469E+00
         -2   -1    0    0    0  501 -0.00000000000E+00  0.00000000000E+00  0.52901277514E+02  0.52901277575E+02  0.25500000000E-02 0. -1.
          2   -1    0    0  501    0  0.00000000000E+00 -0.00000000000E+00 -0.10670592768E+04  0.10670592769E+04  0.25500000000E-02 0.  1.
    5000001    1    1    2    0    0 -0.17848838533E+03  0.91964627784E+02 -0.51191069289E+03  0.56435552089E+03  0.12700000000E+03 0.  0.
   -5000001    1    1    2    0    0  0.17848838533E+03 -0.91964627784E+02 -0.50224730644E+03  0.55560503354E+03  0.12700000000E+03 0.  0.
<mgrwt>
<rscale>  0 0.47517912E+03</rscale>
<asrwt>0</asrwt>
<pdfrwt beam="1">  1        2 0.15243703E+00 0.47517912E+03</pdfrwt>
<pdfrwt beam="2">  1       -2 0.75573260E-02 0.47517912E+03</pdfrwt>
<totfact> 0.27595632E+03</totfact>
</mgrwt>
</event>
<event>
 4    1  0.1390278E-004  0.8489561E+03  0.7818608E-02  0.9491739E-01
          2   -1    0    0  501    0  0.00000000000E+00  0.00000000000E+00  0.22441946288E+04  0.22441946288E+04  0.25500000000E-02 0.  1.
         -2   -1    0    0    0  501 -0.00000000000E+00 -0.00000000000E+00 -0.80287866089E+02  0.80287866130E+02  0.25500000000E-02 0. -1.
    5000001    1    1    2    0    0  0.28981344510E+03 -0.21063616500E+03  0.15992428456E+04  0.16437962483E+04  0.12700000000E+03 0.  0.
   -5000001    1    1    2    0    0 -0.28981344510E+03  0.21063616500E+03  0.56466391711E+03  0.68068624656E+03  0.12700000000E+03 0.  0.
<mgrwt>
<rscale>  0 0.84895606E+03</rscale>
<asrwt>0</asrwt>
<pdfrwt beam="1">  1        2 0.32059920E+00 0.84895606E+03</pdfrwt>
<pdfrwt beam="2">  1       -2 0.11469696E-01 0.84895606E+03</pdfrwt>
<totfact> 0.33494479E+02</totfact>
</mgrwt>
</event>
<event>
 4    1  0.1390278E-004  0.4263245E+03  0.7818608E-02  0.1035027E+00
         -2   -1    0    0    0  501 -0.00000000000E+00  0.00000000000E+00  0.14053452375E+03  0.14053452377E+03  0.25500000000E-02 0. -1.
          2   -1    0    0  501    0  0.00000000000E+00 -0.00000000000E+00 -0.32332365750E+03  0.32332365751E+03  0.25500000000E-02 0.  1.
    5000001    1    1    2    0    0  0.15002171546E+03  0.81990476503E+02 -0.81651721707E+02  0.22808980031E+03  0.12700000000E+03 0.  0.
   -5000001    1    1    2    0    0 -0.15002171546E+03 -0.81990476503E+02 -0.10113741205E+03  0.23576838097E+03  0.12700000000E+03 0.  0.
<mgrwt>
<rscale>  0 0.42632446E+03</rscale>
<asrwt>0</asrwt>
<pdfrwt beam="1">  1        2 0.46189094E-01 0.42632446E+03</pdfrwt>
<pdfrwt beam="2">  1       -2 0.20076361E-01 0.42632446E+03</pdfrwt>
<totfact> 0.22992390E+03</totfact>
</mgrwt>
</event>
<event>
 4    1  0.1390278E-004  0.3087958E+03  0.7818608E-02  0.1080925E+00
          2   -1    0    0  501    0  0.00000000000E+00  0.00000000000E+00  0.18413711790E+04  0.18413711790E+04  0.25500000000E-02 0.  1.
         -2   -1    0    0    0  501 -0.00000000000E+00 -0.00000000000E+00 -0.12946173331E+02  0.12946173582E+02  0.25500000000E-02 0. -1.
    5000001    1    1    2    0    0 -0.33993374188E+02 -0.72147350090E+02  0.11347619403E+04  0.11446285209E+04  0.12700000000E+03 0.  0.
   -5000001    1    1    2    0    0  0.33993374188E+02  0.72147350090E+02  0.69366306533E+03  0.70968883168E+03  0.12700000000E+03 0.  0.
<mgrwt>
<rscale>  0 0.30879579E+03</rscale>
<asrwt>0</asrwt>
<pdfrwt beam="1">  1        2 0.26305278E+00 0.30879579E+03</pdfrwt>
<pdfrwt beam="2">  1       -2 0.18494551E-02 0.30879579E+03</pdfrwt>
<totfact> 0.91791618E+03</totfact>
</mgrwt>
</event>
<event>
 4    1  0.1390278E-004  0.4462256E+03  0.7818608E-02  0.1028854E+00
         -2   -1    0    0    0  501 -0.00000000000E+00  0.00000000000E+00  0.12013740123E+03  0.12013740125E+03  0.25500000000E-02 0. -1.
          2   -1    0    0  501    0  0.00000000000E+00 -0.00000000000E+00 -0.41435330033E+03  0.41435330034E+03  0.25500000000E-02 0.  1.
    5000001    1    1    2    0    0 -0.67069347474E+02 -0.96581732169E+02  0.21540086878E+02  0.17441130612E+03  0.12700000000E+03 0.  0.
   -5000001    1    1    2    0    0  0.67069347474E+02  0.96581732169E+02 -0.31575598599E+03  0.36007939548E+03  0.12700000000E+03 0.  0.
<mgrwt>
<rscale>  0 0.44622563E+03</rscale>
<asrwt>0</asrwt>
<pdfrwt beam="1">  1        2 0.59193328E-01 0.44622563E+03</pdfrwt>
<pdfrwt beam="2">  1       -2 0.17162486E-01 0.44622563E+03</pdfrwt>
<totfact> 0.22926176E+03</totfact>
</mgrwt>
</event>
<event>
 4    1  0.1390278E-004  0.5587137E+03  0.7818608E-02  0.9994969E-01
          2   -1    0    0  501    0  0.00000000000E+00  0.00000000000E+00  0.32410764257E+04  0.32410764257E+04  0.25500000000E-02 0.  1.
         -2   -1    0    0    0  501 -0.00000000000E+00 -0.00000000000E+00 -0.24078493529E+02  0.24078493664E+02  0.25500000000E-02 0. -1.
    5000001    1    1    2    0    0 -0.27060690067E+01  0.24712645088E+03  0.14398867643E+04  0.14664520789E+04  0.12700000000E+03 0.  0.
   -5000001    1    1    2    0    0  0.27060690067E+01 -0.24712645088E+03  0.17771111678E+04  0.17987028405E+04  0.12700000000E+03 0.  0.
<mgrwt>
<rscale>  0 0.55871366E+03</rscale>
<asrwt>0</asrwt>
<pdfrwt beam="1">  1        2 0.46301100E+00 0.55871366E+03</pdfrwt>
<pdfrwt beam="2">  1       -2 0.34397842E-02 0.55871366E+03</pdfrwt>
<totfact> 0.67953253E+02</totfact>
</mgrwt>
</event>
<event>
 4    1  0.1390278E-004  0.2964343E+03  0.7818608E-02  0.1087037E+00
          2   -1    0    0  501    0  0.00000000000E+00  0.00000000000E+00  0.33255632987E+04  0.33255632987E+04  0.25500000000E-02 0. -1.
         -2   -1    0    0    0  501 -0.00000000000E+00 -0.00000000000E+00 -0.66058939592E+01  0.66058944514E+01  0.25500000000E-02 0.  1.
    5000001    1    1    2    0    0  0.25986081221E+02  0.71548938727E+02  0.15842471188E+04  0.15911513003E+04  0.12700000000E+03 0.  0.
   -5000001    1    1    2    0    0 -0.25986081221E+02 -0.71548938727E+02  0.17347102859E+04  0.17410178928E+04  0.12700000000E+03 0.  0.
<mgrwt>
<rscale>  0 0.29643427E+03</rscale>
<asrwt>0</asrwt>
<pdfrwt beam="1">  1        2 0.47508169E+00 0.29643427E+03</pdfrwt>
<pdfrwt beam="2">  1       -2 0.94369676E-03 0.29643427E+03</pdfrwt>
<totfact> 0.42746849E+03</totfact>
</mgrwt>
</event>
<event>
 4    1  0.1390278E-004  0.3446826E+03  0.7818608E-02  0.1064819E+00
          2   -1    0    0  501    0  0.00000000000E+00  0.00000000000E+00  0.19535012765E+03  0.19535012767E+03  0.25500000000E-02 0.  1.
         -2   -1    0    0    0  501 -0.00000000000E+00 -0.00000000000E+00 -0.15204253021E+03  0.15204253023E+03  0.25500000000E-02 0. -1.
    5000001    1    1    2    0    0  0.11577389376E+03 -0.12971669276E+02  0.22478161285E+02  0.17379909785E+03  0.12700000000E+03 0.  0.
   -5000001    1    1    2    0    0 -0.11577389376E+03  0.12971669276E+02  0.20829436160E+02  0.17359356005E+03  0.12700000000E+03 0.  0.
<mgrwt>
<rscale>  0 0.34468262E+03</rscale>
<asrwt>0</asrwt>
<pdfrwt beam="1">  1        2 0.27907161E-01 0.34468262E+03</pdfrwt>
<pdfrwt beam="2">  1       -2 0.21720361E-01 0.34468262E+03</pdfrwt>
<totfact> 0.34746233E+03</totfact>
</mgrwt>
</event>
<event>
 4    1  0.1390278E-004  0.4753957E+03  0.7818608E-02  0.1020408E+00
          2   -1    0    0  501    0  0.00000000000E+00  0.00000000000E+00  0.12666196797E+04  0.12666196797E+04  0.25500000000E-02 0.  1.
         -2   -1    0    0    0  501 -0.00000000000E+00 -0.00000000000E+00 -0.44607122752E+02  0.44607122825E+02  0.25500000000E-02 0. -1.
    5000001    1    1    2    0    0  0.14472533865E+03  0.87385835539E+02  0.91048863801E+03  0.93471935245E+03  0.12700000000E+03 0.  0.
   -5000001    1    1    2    0    0 -0.14472533865E+03 -0.87385835539E+02  0.31152391899E+03  0.37650745013E+03  0.12700000000E+03 0.  0.
<mgrwt>
<rscale>  0 0.47539567E+03</rscale>
<asrwt>0</asrwt>
<pdfrwt beam="1">  1        2 0.18094566E+00 0.47539567E+03</pdfrwt>
<pdfrwt beam="2">  1       -2 0.63724465E-02 0.47539567E+03</pdfrwt>
<totfact> 0.27853652E+03</totfact>
</mgrwt>
</event>
<event>
 4    1  0.1390278E-004  0.5434778E+03  0.7818608E-02  0.1003015E+00
         -2   -1    0    0    0  501 -0.00000000000E+00  0.00000000000E+00  0.30427245864E+02  0.30427245971E+02  0.25500000000E-02 0. -1.
          2   -1    0    0  501    0  0.00000000000E+00 -0.00000000000E+00 -0.24268393226E+04  0.24268393226E+04  0.25500000000E-02 0.  1.
    5000001    1    1    2    0    0  0.10639767168E+03 -0.20505609688E+03 -0.90018713293E+03  0.93799485164E+03  0.12700000000E+03 0.  0.
   -5000001    1    1    2    0    0 -0.10639767168E+03  0.20505609688E+03 -0.14962249438E+04  0.15192717169E+04  0.12700000000E+03 0.  0.
<mgrwt>
<rscale>  0 0.54347783E+03</rscale>
<asrwt>0</asrwt>
<pdfrwt beam="1">  1        2 0.34669121E+00 0.54347783E+03</pdfrwt>
<pdfrwt beam="2">  1       -2 0.43467510E-02 0.54347783E+03</pdfrwt>
<totfact> 0.12900887E+03</totfact>
</mgrwt>
</event>
<event>
 4    1  0.1390278E-004  0.3808306E+03  0.7818608E-02  0.1050627E+00
         -2   -1    0    0    0  501 -0.00000000000E+00  0.00000000000E+00  0.72717091423E+02  0.72717091467E+02  0.25500000000E-02 0. -1.
          2   -1    0    0  501    0  0.00000000000E+00 -0.00000000000E+00 -0.49861715815E+03  0.49861715815E+03  0.25500000000E-02 0.  1.
    5000001    1    1    2    0    0 -0.12677149025E+02  0.13374989716E+03 -0.14454135917E+03  0.23467200431E+03  0.12700000000E+03 0.  0.
   -5000001    1    1    2    0    0  0.12677149025E+02 -0.13374989716E+03 -0.28135870756E+03  0.33666224531E+03  0.12700000000E+03 0.  0.
<mgrwt>
<rscale>  0 0.38083062E+03</rscale>
<asrwt>0</asrwt>
<pdfrwt beam="1">  1        2 0.71231020E-01 0.38083062E+03</pdfrwt>
<pdfrwt beam="2">  1       -2 0.10388156E-01 0.38083062E+03</pdfrwt>
<totfact> 0.42634366E+03</totfact>
</mgrwt>
</event>
<event>
 4    1  0.1390278E-004  0.7050441E+03  0.7818608E-02  0.9708645E-01
          2   -1    0    0  501    0  0.00000000000E+00  0.00000000000E+00  0.64479840217E+03  0.64479840218E+03  0.25500000000E-02 0.  1.
         -2   -1    0    0    0  501 -0.00000000000E+00 -0.00000000000E+00 -0.19272966723E+03  0.19272966724E+03  0.25500000000E-02 0. -1.
    5000001    1    1    2    0    0 -0.20286754145E+03 -0.23522167169E+03  0.35429721058E+03  0.48799588895E+03  0.12700000000E+03 0.  0.
   -5000001    1    1    2    0    0  0.20286754145E+03  0.23522167169E+03  0.97771524366E+02  0.34953218047E+03  0.12700000000E+03 0.  0.
<mgrwt>
<rscale>  0 0.70504406E+03</rscale>
<asrwt>0</asrwt>
<pdfrwt beam="1">  1        2 0.92114056E-01 0.70504406E+03</pdfrwt>
<pdfrwt beam="2">  1       -2 0.27532810E-01 0.70504406E+03</pdfrwt>
<totfact> 0.60047893E+02</totfact>
</mgrwt>
</event>
<event>
 4    1  0.1390278E-004  0.4927349E+03  0.7818608E-02  0.1015693E+00
          2   -1    0    0  501    0  0.00000000000E+00  0.00000000000E+00  0.20692351121E+03  0.20692351122E+03  0.25500000000E-02 0.  1.
         -2   -1    0    0    0  501 -0.00000000000E+00 -0.00000000000E+00 -0.29333026128E+03  0.29333026129E+03  0.25500000000E-02 0. -1.
    5000001    1    1    2    0    0 -0.22838959156E+02 -0.10119215255E+03 -0.22987437628E+03  0.28236979063E+03  0.12700000000E+03 0.  0.
   -5000001    1    1    2    0    0  0.22838959156E+02  0.10119215255E+03  0.14346762620E+03  0.21788398188E+03  0.12700000000E+03 0.  0.
<mgrwt>
<rscale>  0 0.49273493E+03</rscale>
<asrwt>0</asrwt>
<pdfrwt beam="1">  1        2 0.29560502E-01 0.49273493E+03</pdfrwt>
<pdfrwt beam="2">  1       -2 0.41904323E-01 0.49273493E+03</pdfrwt>
<totfact> 0.97838441E+02</totfact>
</mgrwt>
</event>
<event>
 4    1  0.1390278E-004  0.4404878E+03  0.7818608E-02  0.1030597E+00
         -2   -1    0    0    0  501 -0.00000000000E+00  0.00000000000E+00  0.54170808571E+02  0.54170808631E+02  0.25500000000E-02 0. -1.
          2   -1    0    0  501    0  0.00000000000E+00 -0.00000000000E+00 -0.89545246327E+03  0.89545246328E+03  0.25500000000E-02 0.  1.
    5000001    1    1    2    0    0 -0.16943297722E+03  0.40527440371E+02 -0.32354697229E+03  0.38879512660E+03  0.12700000000E+03 0.  0.
   -5000001    1    1    2    0    0  0.16943297722E+03 -0.40527440371E+02 -0.51773468241E+03  0.56082814531E+03  0.12700000000E+03 0.  0.
<mgrwt>
<rscale>  0 0.44048784E+03</rscale>
<asrwt>0</asrwt>
<pdfrwt beam="1">  1        2 0.12792177E+00 0.44048784E+03</pdfrwt>
<pdfrwt beam="2">  1       -2 0.77386875E-02 0.44048784E+03</pdfrwt>
<totfact> 0.33816909E+03</totfact>
</mgrwt>
</event>
<event>
 4    1  0.1390278E-004  0.4793270E+03  0.7818608E-02  0.1019320E+00
          2   -1    0    0  501    0  0.00000000000E+00  0.00000000000E+00  0.13486576235E+03  0.13486576238E+03  0.25500000000E-02 0.  1.
         -2   -1    0    0    0  501 -0.00000000000E+00 -0.00000000000E+00 -0.42589447954E+03  0.42589447954E+03  0.25500000000E-02 0. -1.
    5000001    1    1    2    0    0  0.82507332199E+02 -0.17976110189E+03 -0.20023812352E+03  0.30878118422E+03  0.12700000000E+03 0.  0.
   -5000001    1    1    2    0    0 -0.82507332199E+02  0.17976110189E+03 -0.90790593664E+02  0.25197905770E+03  0.12700000000E+03 0.  0.
<mgrwt>
<rscale>  0 0.47932696E+03</rscale>
<asrwt>0</asrwt>
<pdfrwt beam="1">  1        2 0.19266538E-01 0.47932696E+03</pdfrwt>
<pdfrwt beam="2">  1       -2 0.60842067E-01 0.47932696E+03</pdfrwt>
<totfact> 0.75043401E+02</totfact>
</mgrwt>
</event>
<event>
 4    1  0.1390278E-004  0.9461311E+03  0.7818608E-02  0.9369684E-01
         -2   -1    0    0    0  501 -0.00000000000E+00  0.00000000000E+00  0.12127248520E+03  0.12127248522E+03  0.25500000000E-02 0. -1.
          2   -1    0    0  501    0  0.00000000000E+00 -0.00000000000E+00 -0.18453570681E+04  0.18453570681E+04  0.25500000000E-02 0.  1.
    5000001    1    1    2    0    0 -0.36275035224E+03 -0.14265835262E+03 -0.13527102977E+04  0.14134685611E+04  0.12700000000E+03 0.  0.
   -5000001    1    1    2    0    0  0.36275035224E+03  0.14265835262E+03 -0.37137428513E+03  0.55316099219E+03  0.12700000000E+03 0.  0.
<mgrwt>
<rscale>  0 0.94613115E+03</rscale>
<asrwt>0</asrwt>
<pdfrwt beam="1">  1        2 0.26362242E+00 0.94613115E+03</pdfrwt>
<pdfrwt beam="2">  1       -2 0.17324642E-01 0.94613115E+03</pdfrwt>
<totfact> 0.26510687E+02</totfact>
</mgrwt>
</event>
<event>
 4    1  0.1390278E-004  0.9831475E+03  0.7818608E-02  0.9327224E-01
          2   -1    0    0  501    0  0.00000000000E+00  0.00000000000E+00  0.32209062291E+04  0.32209062291E+04  0.25500000000E-02 0.  1.
         -2   -1    0    0    0  501 -0.00000000000E+00 -0.00000000000E+00 -0.75023841725E+02  0.75023841768E+02  0.25500000000E-02 0. -1.
    5000001    1    1    2    0    0 -0.20252033998E+03  0.42483324841E+03  0.13604390552E+04  0.14451370869E+04  0.12700000000E+03 0.  0.
   -5000001    1    1    2    0    0  0.20252033998E+03 -0.42483324841E+03  0.17854433322E+04  0.18507929840E+04  0.12700000000E+03 0.  0.
<mgrwt>
<rscale>  0 0.98314752E+03</rscale>
<asrwt>0</asrwt>
<pdfrwt beam="1">  1        2 0.46012940E+00 0.98314752E+03</pdfrwt>
<pdfrwt beam="2">  1       -2 0.10717693E-01 0.98314752E+03</pdfrwt>
<totfact> 0.11121377E+02</totfact>
</mgrwt>
</event>
<event>
 4    1  0.1390278E-004  0.3177616E+03  0.7818608E-02  0.1076684E+00
         -2   -1    0    0    0  501 -0.00000000000E+00  0.00000000000E+00  0.14548780362E+03  0.14548780364E+03  0.25500000000E-02 0. -1.
          2   -1    0    0  501    0  0.00000000000E+00 -0.00000000000E+00 -0.17350669263E+03  0.17350669265E+03  0.25500000000E-02 0.  1.
    5000001    1    1    2    0    0 -0.23124256057E+02  0.39045213925E+02 -0.98328475255E+02  0.16690341217E+03  0.12700000000E+03 0.  0.
   -5000001    1    1    2    0    0  0.23124256057E+02 -0.39045213925E+02  0.70309586247E+02  0.15209108411E+03  0.12700000000E+03 0.  0.
<mgrwt>
<rscale>  0 0.31776159E+03</rscale>
<asrwt>0</asrwt>
<pdfrwt beam="1">  1        2 0.24786670E-01 0.31776159E+03</pdfrwt>
<pdfrwt beam="2">  1       -2 0.20783972E-01 0.31776159E+03</pdfrwt>
<totfact> 0.42725658E+03</totfact>
</mgrwt>
</event>
<event>
 4    1  0.1390278E-004  0.5822158E+03  0.7818608E-02  0.9943005E-01
         -2   -1    0    0    0  501 -0.00000000000E+00  0.00000000000E+00  0.25120390056E+02  0.25120390185E+02  0.25500000000E-02 0. -1.
          2   -1    0    0  501    0  0.00000000000E+00 -0.00000000000E+00 -0.33735068024E+04  0.33735068024E+04  0.25500000000E-02 0.  1.
    5000001    1    1    2    0    0  0.16663094689E+03  0.17993169024E+03 -0.22115361015E+04  0.22287131295E+04  0.12700000000E+03 0.  0.
   -5000001    1    1    2    0    0 -0.16663094689E+03 -0.17993169024E+03 -0.11368503109E+04  0.11699140631E+04  0.12700000000E+03 0.  0.
<mgrwt>
<rscale>  0 0.58221579E+03</rscale>
<asrwt>0</asrwt>
<pdfrwt beam="1">  1        2 0.48192926E+00 0.58221579E+03</pdfrwt>
<pdfrwt beam="2">  1       -2 0.35886293E-02 0.58221579E+03</pdfrwt>
<totfact> 0.53371671E+02</totfact>
</mgrwt>
</event>
<event>
 4    1  0.1390278E-004  0.5138565E+03  0.7818608E-02  0.1010224E+00
         -2   -1    0    0    0  501 -0.00000000000E+00  0.00000000000E+00  0.18383568009E+02  0.18383568186E+02  0.25500000000E-02 0. -1.
          2   -1    0    0  501    0  0.00000000000E+00 -0.00000000000E+00 -0.35908228066E+04  0.35908228066E+04  0.25500000000E-02 0.  1.
    5000001    1    1    2    0    0 -0.56841114011E+02  0.21598504732E+03 -0.17747154651E+04  0.17932162265E+04  0.12700000000E+03 0.  0.
   -5000001    1    1    2    0    0  0.56841114011E+02 -0.21598504732E+03 -0.17977237734E+04  0.18159901482E+04  0.12700000000E+03 0.  0.
<mgrwt>
<rscale>  0 0.51385654E+03</rscale>
<asrwt>0</asrwt>
<pdfrwt beam="1">  1        2 0.51297424E+00 0.51385654E+03</pdfrwt>
<pdfrwt beam="2">  1       -2 0.26262263E-02 0.51385654E+03</pdfrwt>
<totfact> 0.64336607E+02</totfact>
</mgrwt>
</event>
<event>
 4    1  0.1390278E-004  0.4217435E+03  0.7818608E-02  0.1036500E+00
          2   -1    0    0  501    0  0.00000000000E+00  0.00000000000E+00  0.75086801017E+03  0.75086801018E+03  0.25500000000E-02 0.  1.
         -2   -1    0    0    0  501 -0.00000000000E+00 -0.00000000000E+00 -0.59220651255E+02  0.59220651310E+02  0.25500000000E-02 0. -1.
    5000001    1    1    2    0    0  0.95972346066E+02  0.89707417909E+02  0.14363830037E+03  0.23242003651E+03  0.12700000000E+03 0.  0.
   -5000001    1    1    2    0    0 -0.95972346066E+02 -0.89707417909E+02  0.54800905854E+03  0.57766862498E+03  0.12700000000E+03 0.  0.
<mgrwt>
<rscale>  0 0.42174349E+03</rscale>
<asrwt>0</asrwt>
<pdfrwt beam="1">  1        2 0.10726686E+00 0.42174349E+03</pdfrwt>
<pdfrwt beam="2">  1       -2 0.84600928E-02 0.42174349E+03</pdfrwt>
<totfact> 0.36740328E+03</totfact>
</mgrwt>
</event>
<event>
 4    1  0.1390278E-004  0.2794919E+03  0.7818608E-02  0.1095967E+00
         -2   -1    0    0    0  501 -0.00000000000E+00  0.00000000000E+00  0.28236686176E+03  0.28236686177E+03  0.25500000000E-02 0. -1.
          2   -1    0    0  501    0  0.00000000000E+00 -0.00000000000E+00 -0.69161550483E+02  0.69161550530E+02  0.25500000000E-02 0.  1.
    5000001    1    1    2    0    0 -0.33554992358E+02 -0.46452129127E+02  0.93045155125E+02  0.16754145369E+03  0.12700000000E+03 0.  0.
   -5000001    1    1    2    0    0  0.33554992358E+02  0.46452129127E+02  0.12016015616E+03  0.18398695861E+03  0.12700000000E+03 0.  0.
<mgrwt>
<rscale>  0 0.27949190E+03</rscale>
<asrwt>0</asrwt>
<pdfrwt beam="1">  1        2 0.98802214E-02 0.27949190E+03</pdfrwt>
<pdfrwt beam="2">  1       -2 0.40338123E-01 0.27949190E+03</pdfrwt>
<totfact> 0.37981427E+03</totfact>
</mgrwt>
</event>
<event>
 4    1  0.1390278E-004  0.2961502E+03  0.7818608E-02  0.1087181E+00
         -2   -1    0    0    0  501 -0.00000000000E+00  0.00000000000E+00  0.19841685707E+02  0.19841685871E+02  0.25500000000E-02 0.  1.
          2   -1    0    0  501    0  0.00000000000E+00 -0.00000000000E+00 -0.11050588528E+04  0.11050588528E+04  0.25500000000E-02 0. -1.
    5000001    1    1    2    0    0  0.48204833779E+02  0.57699806965E+02 -0.58823016251E+03  0.60646244551E+03  0.12700000000E+03 0.  0.
   -5000001    1    1    2    0    0 -0.48204833779E+02 -0.57699806965E+02 -0.49698700459E+03  0.51843809317E+03  0.12700000000E+03 0.  0.
<mgrwt>
<rscale>  0 0.29615017E+03</rscale>
<asrwt>0</asrwt>
<pdfrwt beam="1">  1        2 0.15786551E+00 0.29615017E+03</pdfrwt>
<pdfrwt beam="2">  1       -2 0.28345272E-02 0.29615017E+03</pdfrwt>
<totfact> 0.11674437E+04</totfact>
</mgrwt>
</event>
<event>
 4    1  0.1390278E-004  0.5152993E+03  0.7818608E-02  0.1009861E+00
         -2   -1    0    0    0  501 -0.00000000000E+00  0.00000000000E+00  0.35216564561E+02  0.35216564654E+02  0.25500000000E-02 0. -1.
          2   -1    0    0  501    0  0.00000000000E+00 -0.00000000000E+00 -0.18850033817E+04  0.18850033817E+04  0.25500000000E-02 0.  1.
    5000001    1    1    2    0    0  0.19229444434E+03  0.79582522804E+02 -0.12354139973E+04  0.12592407538E+04  0.12700000000E+03 0.  0.
   -5000001    1    1    2    0    0 -0.19229444434E+03 -0.79582522804E+02 -0.61437281981E+03  0.66097919254E+03  0.12700000000E+03 0.  0.
<mgrwt>
<rscale>  0 0.51529930E+03</rscale>
<asrwt>0</asrwt>
<pdfrwt beam="1">  1        2 0.26928613E+00 0.51529930E+03</pdfrwt>
<pdfrwt beam="2">  1       -2 0.50309390E-02 0.51529930E+03</pdfrwt>
<totfact> 0.19293451E+03</totfact>
</mgrwt>
</event>
<event>
 4    1  0.1390278E-004  0.3587753E+03  0.7818608E-02  0.1059070E+00
          2   -1    0    0  501    0  0.00000000000E+00  0.00000000000E+00  0.14891855923E+04  0.14891855923E+04  0.25500000000E-02 0.  1.
         -2   -1    0    0    0  501 -0.00000000000E+00 -0.00000000000E+00 -0.21609081852E+02  0.21609082003E+02  0.25500000000E-02 0. -1.
    5000001    1    1    2    0    0  0.20896727666E+02 -0.12465817050E+03  0.69741731387E+03  0.72006683188E+03  0.12700000000E+03 0.  0.
   -5000001    1    1    2    0    0 -0.20896727666E+02  0.12465817050E+03  0.77015919655E+03  0.79072784239E+03  0.12700000000E+03 0.  0.
<mgrwt>
<rscale>  0 0.35877533E+03</rscale>
<asrwt>0</asrwt>
<pdfrwt beam="1">  1        2 0.21274083E+00 0.35877533E+03</pdfrwt>
<pdfrwt beam="2">  1       -2 0.30870113E-02 0.35877533E+03</pdfrwt>
<totfact> 0.64371845E+03</totfact>
</mgrwt>
</event>
<event>
 4    1  0.1390278E-004  0.3272274E+03  0.7818608E-02  0.1072370E+00
         -2   -1    0    0    0  501 -0.00000000000E+00  0.00000000000E+00  0.99108375521E+01  0.99108378801E+01  0.25500000000E-02 0. -1.
          2   -1    0    0  501    0  0.00000000000E+00 -0.00000000000E+00 -0.27010268192E+04  0.27010268192E+04  0.25500000000E-02 0.  1.
    5000001    1    1    2    0    0  0.15852282464E+02  0.62009111083E+02 -0.20157388283E+04  0.20207494769E+04  0.12700000000E+03 0.  0.
   -5000001    1    1    2    0    0 -0.15852282464E+02 -0.62009111083E+02 -0.67537715339E+03  0.69018818017E+03  0.12700000000E+03 0.  0.
<mgrwt>
<rscale>  0 0.32722737E+03</rscale>
<asrwt>0</asrwt>
<pdfrwt beam="1">  1        2 0.38586050E+00 0.32722737E+03</pdfrwt>
<pdfrwt beam="2">  1       -2 0.14158357E-02 0.32722737E+03</pdfrwt>
<totfact> 0.50898806E+03</totfact>
</mgrwt>
</event>
<event>
 4    1  0.1390278E-004  0.3668113E+03  0.7818608E-02  0.1055919E+00
         -2   -1    0    0    0  501 -0.00000000000E+00  0.00000000000E+00  0.14161836317E+03  0.14161836320E+03  0.25500000000E-02 0. -1.
          2   -1    0    0  501    0  0.00000000000E+00 -0.00000000000E+00 -0.23752312461E+03  0.23752312462E+03  0.25500000000E-02 0.  1.
    5000001    1    1    2    0    0  0.70281953445E+01  0.11666990900E+03 -0.11206458706E+03  0.20578808243E+03  0.12700000000E+03 0.  0.
   -5000001    1    1    2    0    0 -0.70281953445E+01 -0.11666990900E+03  0.16159825628E+02  0.17335340539E+03  0.12700000000E+03 0.  0.
<mgrwt>
<rscale>  0 0.36681132E+03</rscale>
<asrwt>0</asrwt>
<pdfrwt beam="1">  1        2 0.33931875E-01 0.36681132E+03</pdfrwt>
<pdfrwt beam="2">  1       -2 0.20231195E-01 0.36681132E+03</pdfrwt>
<totfact> 0.31704771E+03</totfact>
</mgrwt>
</event>
<event>
 4    1  0.1390278E-004  0.1243842E+04  0.7818608E-02  0.9075324E-01
          2   -1    0    0  501    0  0.00000000000E+00  0.00000000000E+00  0.12108624071E+04  0.12108624071E+04  0.25500000000E-02 0. -1.
         -2   -1    0    0    0  501 -0.00000000000E+00 -0.00000000000E+00 -0.31943013063E+03  0.31943013064E+03  0.25500000000E-02 0.  1.
    5000001    1    1    2    0    0  0.38562510031E+03  0.41188891585E+03  0.72706851459E+03  0.92904080744E+03  0.12700000000E+03 0.  0.
   -5000001    1    1    2    0    0 -0.38562510031E+03 -0.41188891585E+03  0.16436376192E+03  0.60125173033E+03  0.12700000000E+03 0.  0.
<mgrwt>
<rscale>  0 0.12438423E+04</rscale>
<asrwt>0</asrwt>
<pdfrwt beam="1">  1        2 0.17298034E+00 0.12438423E+04</pdfrwt>
<pdfrwt beam="2">  1       -2 0.45632877E-01 0.12438423E+04</pdfrwt>
<totfact> 0.94385575E+01</totfact>
</mgrwt>
</event>
<event>
 4    1  0.1390278E-004  0.3567543E+03  0.7818608E-02  0.1059876E+00
          2   -1    0    0  501    0  0.00000000000E+00  0.00000000000E+00  0.31773574262E+04  0.31773574262E+04  0.25500000000E-02 0.  1.
         -2   -1    0    0    0  501 -0.00000000000E+00 -0.00000000000E+00 -0.10014112235E+02  0.10014112559E+02  0.25500000000E-02 0. -1.
    5000001    1    1    2    0    0 -0.60146428471E+02  0.19814744628E+01  0.25651465503E+04  0.25689934495E+04  0.12700000000E+03 0.  0.
   -5000001    1    1    2    0    0  0.60146428471E+02 -0.19814744628E+01  0.60219676368E+03  0.61837808927E+03  0.12700000000E+03 0.  0.
<mgrwt>
<rscale>  0 0.35675434E+03</rscale>
<asrwt>0</asrwt>
<pdfrwt beam="1">  1        2 0.45390781E+00 0.35675434E+03</pdfrwt>
<pdfrwt beam="2">  1       -2 0.14305887E-02 0.35675434E+03</pdfrwt>
<totfact> 0.27976931E+03</totfact>
</mgrwt>
</event>
<event>
 4    1  0.1390278E-004  0.1768342E+04  0.7818608E-02  0.8723318E-01
          2   -1    0    0  501    0  0.00000000000E+00  0.00000000000E+00  0.13517823677E+04  0.13517823677E+04  0.25500000000E-02 0.  1.
         -2   -1    0    0    0  501 -0.00000000000E+00 -0.00000000000E+00 -0.57831696962E+03  0.57831696962E+03  0.25500000000E-02 0. -1.
    5000001    1    1    2    0    0  0.60000932662E+03 -0.49352889316E+03  0.82610712458E+03  0.11411239817E+04  0.12700000000E+03 0.  0.
   -5000001    1    1    2    0    0 -0.60000932662E+03  0.49352889316E+03 -0.52641726460E+02  0.78897535562E+03  0.12700000000E+03 0.  0.
<mgrwt>
<rscale>  0 0.17683424E+04</rscale>
<asrwt>0</asrwt>
<pdfrwt beam="1">  1        2 0.19311177E+00 0.17683424E+04</pdfrwt>
<pdfrwt beam="2">  1       -2 0.82616709E-01 0.17683424E+04</pdfrwt>
<totfact> 0.21449575E+01</totfact>
</mgrwt>
</event>
<event>
 4    1  0.1390278E-004  0.2695625E+03  0.7818608E-02  0.1101530E+00
          2   -1    0    0  501    0  0.00000000000E+00  0.00000000000E+00  0.87696326896E+03  0.87696326897E+03  0.25500000000E-02 0.  1.
         -2   -1    0    0    0  501 -0.00000000000E+00 -0.00000000000E+00 -0.20714640885E+02  0.20714641042E+02  0.25500000000E-02 0. -1.
    5000001    1    1    2    0    0 -0.26257862955E+02  0.13069635971E+02  0.54235739528E+03  0.55779999548E+03  0.12700000000E+03 0.  0.
   -5000001    1    1    2    0    0  0.26257862955E+02 -0.13069635971E+02  0.31389123280E+03  0.33987791453E+03  0.12700000000E+03 0.  0.
<mgrwt>
<rscale>  0 0.26956245E+03</rscale>
<asrwt>0</asrwt>
<pdfrwt beam="1">  1        2 0.12528048E+00 0.26956245E+03</pdfrwt>
<pdfrwt beam="2">  1       -2 0.29592341E-02 0.26956245E+03</pdfrwt>
<totfact> 0.14920869E+04</totfact>
</mgrwt>
</event>
<event>
 4    1  0.1390278E-004  0.3490944E+03  0.7818608E-02  0.1062987E+00
          2   -1    0    0  501    0  0.00000000000E+00  0.00000000000E+00  0.95484150003E+02  0.95484150037E+02  0.25500000000E-02 0.  1.
         -2   -1    0    0    0  501 -0.00000000000E+00 -0.00000000000E+00 -0.31907623905E+03  0.31907623906E+03  0.25500000000E-02 0. -1.
    5000001    1    1    2    0    0 -0.96027491667E+02  0.65270553189E+02 -0.14654424704E+03  0.22602154899E+03  0.12700000000E+03 0.  0.
   -5000001    1    1    2    0    0  0.96027491667E+02 -0.65270553189E+02 -0.77047842010E+02  0.18853884010E+03  0.12700000000E+03 0.  0.
<mgrwt>
<rscale>  0 0.34909439E+03</rscale>
<asrwt>0</asrwt>
<pdfrwt beam="1">  1        2 0.13640593E-01 0.34909439E+03</pdfrwt>
<pdfrwt beam="2">  1       -2 0.45582319E-01 0.34909439E+03</pdfrwt>
<totfact> 0.20287988E+03</totfact>
</mgrwt>
</event>
<event>
 4    1  0.1390278E-004  0.4064952E+03  0.7818608E-02  0.1041554E+00
         -2   -1    0    0    0  501 -0.00000000000E+00  0.00000000000E+00  0.13597532406E+03  0.13597532409E+03  0.25500000000E-02 0. -1.
          2   -1    0    0  501    0  0.00000000000E+00 -0.00000000000E+00 -0.30380213154E+03  0.30380213155E+03  0.25500000000E-02 0.  1.
    5000001    1    1    2    0    0  0.14815067870E+03 -0.30327618541E+02 -0.13593584138E+03  0.23974140447E+03  0.12700000000E+03 0.  0.
   -5000001    1    1    2    0    0 -0.14815067870E+03  0.30327618541E+02 -0.31890966096E+02  0.20003605116E+03  0.12700000000E+03 0.  0.
<mgrwt>
<rscale>  0 0.40649523E+03</rscale>
<asrwt>0</asrwt>
<pdfrwt beam="1">  1        2 0.43400304E-01 0.40649523E+03</pdfrwt>
<pdfrwt beam="2">  1       -2 0.19425046E-01 0.40649523E+03</pdfrwt>
<totfact> 0.26032437E+03</totfact>
</mgrwt>
</event>
<event>
 4    1  0.1390278E-004  0.3500892E+03  0.7818608E-02  0.1062578E+00
         -2   -1    0    0    0  501 -0.00000000000E+00  0.00000000000E+00  0.80326529086E+03  0.80326529087E+03  0.25500000000E-02 0. -1.
          2   -1    0    0  501    0  0.00000000000E+00 -0.00000000000E+00 -0.38145079479E+02  0.38145079565E+02  0.25500000000E-02 0.  1.
    5000001    1    1    2    0    0  0.11332290447E+03  0.22570888867E+02  0.30069940677E+03  0.34626674535E+03  0.12700000000E+03 0.  0.
   -5000001    1    1    2    0    0 -0.11332290447E+03 -0.22570888867E+02  0.46442080461E+03  0.49514362508E+03  0.12700000000E+03 0.  0.
<mgrwt>
<rscale>  0 0.35008924E+03</rscale>
<asrwt>0</asrwt>
<pdfrwt beam="1">  1        2 0.54492977E-02 0.35008924E+03</pdfrwt>
<pdfrwt beam="2">  1       -2 0.11475217E+00 0.35008924E+03</pdfrwt>
<totfact> 0.87325146E+02</totfact>
</mgrwt>
</event>
<event>
 4    1  0.1390278E-004  0.4200844E+03  0.7818608E-02  0.1037039E+00
          2   -1    0    0  501    0  0.00000000000E+00  0.00000000000E+00  0.11176427677E+04  0.11176427677E+04  0.25500000000E-02 0.  1.
         -2   -1    0    0    0  501 -0.00000000000E+00 -0.00000000000E+00 -0.39473900655E+02  0.39473900738E+02  0.25500000000E-02 0. -1.
    5000001    1    1    2    0    0  0.13439867074E+03  0.28049739336E+02  0.27576174605E+03  0.33320163739E+03  0.12700000000E+03 0.  0.
   -5000001    1    1    2    0    0 -0.13439867074E+03 -0.28049739336E+02  0.80240712097E+03  0.82391503103E+03  0.12700000000E+03 0.  0.
<mgrwt>
<rscale>  0 0.42008437E+03</rscale>
<asrwt>0</asrwt>
<pdfrwt beam="1">  1        2 0.15966325E+00 0.42008437E+03</pdfrwt>
<pdfrwt beam="2">  1       -2 0.56391288E-02 0.42008437E+03</pdfrwt>
<totfact> 0.40749194E+03</totfact>
</mgrwt>
</event>
<event>
 4    1  0.1390278E-004  0.4049603E+03  0.7818608E-02  0.1042075E+00
          2   -1    0    0  501    0  0.00000000000E+00  0.00000000000E+00  0.54634008861E+03  0.54634008861E+03  0.25500000000E-02 0.  1.
         -2   -1    0    0    0  501 -0.00000000000E+00 -0.00000000000E+00 -0.75041570373E+02  0.75041570416E+02  0.25500000000E-02 0. -1.
    5000001    1    1    2    0    0 -0.36575919770E+02 -0.12330677019E+03  0.37566813736E+03  0.41689076136E+03  0.12700000000E+03 0.  0.
   -5000001    1    1    2    0    0  0.36575919770E+02  0.12330677019E+03  0.95630380877E+02  0.20449089767E+03  0.12700000000E+03 0.  0.
<mgrwt>
<rscale>  0 0.40496033E+03</rscale>
<asrwt>0</asrwt>
<pdfrwt beam="1">  1        2 0.78048581E-01 0.40496033E+03</pdfrwt>
<pdfrwt beam="2">  1       -2 0.10720225E-01 0.40496033E+03</pdfrwt>
<totfact> 0.36596924E+03</totfact>
</mgrwt>
</event>
<event>
 4    1  0.1390278E-004  0.3563903E+03  0.7818608E-02  0.1060022E+00
         -2   -1    0    0    0  501 -0.00000000000E+00  0.00000000000E+00  0.35773633029E+03  0.35773633030E+03  0.25500000000E-02 0. -1.
          2   -1    0    0  501    0  0.00000000000E+00 -0.00000000000E+00 -0.88762311515E+02  0.88762311552E+02  0.25500000000E-02 0.  1.
    5000001    1    1    2    0    0 -0.10313270823E+03  0.17343141570E+02  0.48712421646E+02  0.17157808744E+03  0.12700000000E+03 0.  0.
   -5000001    1    1    2    0    0  0.10313270823E+03 -0.17343141570E+02  0.22026159713E+03  0.27492055441E+03  0.12700000000E+03 0.  0.
<mgrwt>
<rscale>  0 0.35639026E+03</rscale>
<asrwt>0</asrwt>
<pdfrwt beam="1">  1        2 0.12680330E-01 0.35639026E+03</pdfrwt>
<pdfrwt beam="2">  1       -2 0.51105190E-01 0.35639026E+03</pdfrwt>
<totfact> 0.17658303E+03</totfact>
</mgrwt>
</event>
<event>
 4    1  0.1390278E-004  0.6027298E+03  0.7818608E-02  0.9899759E-01
         -2   -1    0    0    0  501 -0.00000000000E+00  0.00000000000E+00  0.47126140865E+02  0.47126140934E+02  0.25500000000E-02 0.  1.
          2   -1    0    0  501    0  0.00000000000E+00 -0.00000000000E+00 -0.19271854111E+04  0.19271854111E+04  0.25500000000E-02 0. -1.
    5000001    1    1    2    0    0  0.11393104232E+03  0.23280480966E+03 -0.65609871738E+03  0.71677952591E+03  0.12700000000E+03 0.  0.
   -5000001    1    1    2    0    0 -0.11393104232E+03 -0.23280480966E+03 -0.12239605529E+04  0.12575320262E+04  0.12700000000E+03 0.  0.
<mgrwt>
<rscale>  0 0.60272983E+03</rscale>
<asrwt>0</asrwt>
<pdfrwt beam="1">  1        2 0.27531215E+00 0.60272983E+03</pdfrwt>
<pdfrwt beam="2">  1       -2 0.67323070E-02 0.60272983E+03</pdfrwt>
<totfact> 0.11614645E+03</totfact>
</mgrwt>
</event>
<event>
 4    1  0.1390278E-004  0.4483135E+03  0.7818608E-02  0.1028226E+00
          2   -1    0    0  501    0  0.00000000000E+00  0.00000000000E+00  0.23053426548E+03  0.23053426550E+03  0.25500000000E-02 0.  1.
         -2   -1    0    0    0  501 -0.00000000000E+00 -0.00000000000E+00 -0.21795565565E+03  0.21795565566E+03  0.25500000000E-02 0. -1.
    5000001    1    1    2    0    0  0.13632574293E+03 -0.11332140525E+03  0.58182620419E+02  0.22570039076E+03  0.12700000000E+03 0.  0.
   -5000001    1    1    2    0    0 -0.13632574293E+03  0.11332140525E+03 -0.45604010584E+02  0.22278953040E+03  0.12700000000E+03 0.  0.
<mgrwt>
<rscale>  0 0.44831349E+03</rscale>
<asrwt>0</asrwt>
<pdfrwt beam="1">  1        2 0.32933467E-01 0.44831349E+03</pdfrwt>
<pdfrwt beam="2">  1       -2 0.31136522E-01 0.44831349E+03</pdfrwt>
<totfact> 0.15233668E+03</totfact>
</mgrwt>
</event>
<event>
 4    1  0.1390278E-004  0.3388999E+03  0.7818608E-02  0.1067265E+00
         -2   -1    0    0    0  501 -0.00000000000E+00  0.00000000000E+00  0.26470174843E+03  0.26470174844E+03  0.25500000000E-02 0. -1.
          2   -1    0    0  501    0  0.00000000000E+00 -0.00000000000E+00 -0.10847409749E+03  0.10847409752E+03  0.25500000000E-02 0.  1.
    5000001    1    1    2    0    0  0.61566899107E+02 -0.89096074357E+02  0.45903117854E+02  0.17310311886E+03  0.12700000000E+03 0.  0.
   -5000001    1    1    2    0    0 -0.61566899107E+02  0.89096074357E+02  0.11032453308E+03  0.20007272711E+03  0.12700000000E+03 0.  0.
<mgrwt>
<rscale>  0 0.33889989E+03</rscale>
<asrwt>0</asrwt>
<pdfrwt beam="1">  1        2 0.15496300E-01 0.33889989E+03</pdfrwt>
<pdfrwt beam="2">  1       -2 0.37814535E-01 0.33889989E+03</pdfrwt>
<totfact> 0.24973398E+03</totfact>
</mgrwt>
</event>
<event>
 4    1  0.1390278E-004  0.4245170E+03  0.7818608E-02  0.1035606E+00
          2   -1    0    0  501    0  0.00000000000E+00  0.00000000000E+00  0.44356186837E+03  0.44356186838E+03  0.25500000000E-02 0.  1.
         -2   -1    0    0    0  501 -0.00000000000E+00 -0.00000000000E+00 -0.10157247487E+03  0.10157247490E+03  0.25500000000E-02 0. -1.
    5000001    1    1    2    0    0 -0.10583583653E+03 -0.91072726065E+02  0.29568885438E+03  0.35079390578E+03  0.12700000000E+03 0.  0.
   -5000001    1    1    2    0    0  0.10583583653E+03  0.91072726065E+02  0.46300539126E+02  0.19434043751E+03  0.12700000000E+03 0.  0.
<mgrwt>
<rscale>  0 0.42451703E+03</rscale>
<asrwt>0</asrwt>
<pdfrwt beam="1">  1        2 0.63365982E-01 0.42451703E+03</pdfrwt>
<pdfrwt beam="2">  1       -2 0.14510353E-01 0.42451703E+03</pdfrwt>
<totfact> 0.28175895E+03</totfact>
</mgrwt>
</event>
<event>
 4    1  0.1390278E-004  0.4611968E+03  0.7818608E-02  0.1024435E+00
         -2   -1    0    0    0  501 -0.00000000000E+00  0.00000000000E+00  0.16243802974E+02  0.16243803174E+02  0.25500000000E-02 0. -1.
          2   -1    0    0  501    0  0.00000000000E+00 -0.00000000000E+00 -0.32735948871E+04  0.32735948871E+04  0.25500000000E-02 0.  1.
    5000001    1    1    2    0    0  0.13237242404E+03 -0.28347554092E+02 -0.65267956244E+03  0.67856145904E+03  0.12700000000E+03 0.  0.
   -5000001    1    1    2    0    0 -0.13237242404E+03  0.28347554092E+02 -0.26046715217E+04  0.26112772312E+04  0.12700000000E+03 0.  0.
<mgrwt>
<rscale>  0 0.46119684E+03</rscale>
<asrwt>0</asrwt>
<pdfrwt beam="1">  1        2 0.46765599E+00 0.46119684E+03</pdfrwt>
<pdfrwt beam="2">  1       -2 0.23205454E-02 0.46119684E+03</pdfrwt>
<totfact> 0.11933203E+03</totfact>
</mgrwt>
</event>
<event>
 4    1  0.1390278E-004  0.3058202E+03  0.7818608E-02  0.1082367E+00
          2   -1    0    0  501    0  0.00000000000E+00  0.00000000000E+00  0.94668804793E+02  0.94668804827E+02  0.25500000000E-02 0.  1.
         -2   -1    0    0    0  501 -0.00000000000E+00 -0.00000000000E+00 -0.24698202819E+03  0.24698202820E+03  0.25500000000E-02 0. -1.
    5000001    1    1    2    0    0  0.54923962250E+02 -0.65044923676E+02 -0.78657084244E+02  0.17194016583E+03  0.12700000000E+03 0.  0.
   -5000001    1    1    2    0    0 -0.54923962250E+02  0.65044923676E+02 -0.73656139153E+02  0.16971066720E+03  0.12700000000E+03 0.  0.
<mgrwt>
<rscale>  0 0.30582017E+03</rscale>
<asrwt>0</asrwt>
<pdfrwt beam="1">  1        2 0.13524115E-01 0.30582017E+03</pdfrwt>
<pdfrwt beam="2">  1       -2 0.35283147E-01 0.30582017E+03</pdfrwt>
<totfact> 0.33402867E+03</totfact>
</mgrwt>
</event>
<event>
 4    1  0.1390278E-004  0.3735051E+03  0.7818608E-02  0.1053361E+00
         -2   -1    0    0    0  501 -0.00000000000E+00  0.00000000000E+00  0.34917391679E+02  0.34917391772E+02  0.25500000000E-02 0. -1.
          2   -1    0    0  501    0  0.00000000000E+00 -0.00000000000E+00 -0.99882950233E+03  0.99882950234E+03  0.25500000000E-02 0.  1.
    5000001    1    1    2    0    0 -0.13470880073E+03 -0.17367436705E+02 -0.43406362677E+03  0.47221639206E+03  0.12700000000E+03 0.  0.
   -5000001    1    1    2    0    0  0.13470880073E+03  0.17367436705E+02 -0.52984848389E+03  0.56153050205E+03  0.12700000000E+03 0.  0.
<mgrwt>
<rscale>  0 0.37350513E+03</rscale>
<asrwt>0</asrwt>
<pdfrwt beam="1">  1        2 0.14268991E+00 0.37350513E+03</pdfrwt>
<pdfrwt beam="2">  1       -2 0.49881994E-02 0.37350513E+03</pdfrwt>
<totfact> 0.57648779E+03</totfact>
</mgrwt>
</event>
<event>
 4    1  0.1390278E-004  0.5424205E+03  0.7818608E-02  0.1003264E+00
          2   -1    0    0  501    0  0.00000000000E+00  0.00000000000E+00  0.75177356018E+03  0.75177356018E+03  0.25500000000E-02 0.  1.
         -2   -1    0    0    0  501 -0.00000000000E+00 -0.00000000000E+00 -0.97841958882E+02  0.97841958915E+02  0.25500000000E-02 0. -1.
    5000001    1    1    2    0    0  0.86067182655E+02  0.15212576920E+03  0.70180485275E+02  0.22716538050E+03  0.12700000000E+03 0.  0.
   -5000001    1    1    2    0    0 -0.86067182655E+02 -0.15212576920E+03  0.58375111602E+03  0.62245013860E+03  0.12700000000E+03 0.  0.
<mgrwt>
<rscale>  0 0.54242049E+03</rscale>
<asrwt>0</asrwt>
<pdfrwt beam="1">  1        2 0.10739622E+00 0.54242049E+03</pdfrwt>
<pdfrwt beam="2">  1       -2 0.13977423E-01 0.54242049E+03</pdfrwt>
<totfact> 0.16246621E+03</totfact>
</mgrwt>
</event>
<event>
 4    1  0.1390278E-004  0.2938740E+03  0.7818608E-02  0.1088344E+00
          2   -1    0    0  501    0  0.00000000000E+00  0.00000000000E+00  0.92539042102E+03  0.92539042102E+03  0.25500000000E-02 0.  1.
         -2   -1    0    0    0  501 -0.00000000000E+00 -0.00000000000E+00 -0.23331209226E+02  0.23331209365E+02  0.25500000000E-02 0. -1.
    5000001    1    1    2    0    0 -0.13725873908E+02 -0.72520820834E+02  0.46302601767E+03  0.48576718921E+03  0.12700000000E+03 0.  0.
   -5000001    1    1    2    0    0  0.13725873908E+02  0.72520820834E+02  0.43903319412E+03  0.46295444118E+03  0.12700000000E+03 0.  0.
<mgrwt>
<rscale>  0 0.29387397E+03</rscale>
<asrwt>0</asrwt>
<pdfrwt beam="1">  1        2 0.13219862E+00 0.29387397E+03</pdfrwt>
<pdfrwt beam="2">  1       -2 0.33330301E-02 0.29387397E+03</pdfrwt>
<totfact> 0.11690800E+04</totfact>
</mgrwt>
</event>
<event>
 4    1  0.1390278E-004  0.3761552E+03  0.7818608E-02  0.1052364E+00
          2   -1    0    0  501    0  0.00000000000E+00  0.00000000000E+00  0.17073433784E+04  0.17073433784E+04  0.25500000000E-02 0.  1.
         -2   -1    0    0    0  501 -0.00000000000E+00 -0.00000000000E+00 -0.20718265162E+02  0.20718265319E+02  0.25500000000E-02 0. -1.
    5000001    1    1    2    0    0  0.78530568796E+02 -0.28439458412E+02  0.13521569620E+04  0.13606738415E+04  0.12700000000E+03 0.  0.
   -5000001    1    1    2    0    0 -0.78530568796E+02  0.28439458412E+02  0.33446815116E+03  0.36738780215E+03  0.12700000000E+03 0.  0.
<mgrwt>
<rscale>  0 0.37615525E+03</rscale>
<asrwt>0</asrwt>
<pdfrwt beam="1">  1        2 0.24390624E+00 0.37615525E+03</pdfrwt>
<pdfrwt beam="2">  1       -2 0.29597517E-02 0.37615525E+03</pdfrwt>
<totfact> 0.53234622E+03</totfact>
</mgrwt>
</event>
<event>
 4    1  0.1390278E-004  0.3910256E+03  0.7818608E-02  0.1046932E+00
          2   -1    0    0  501    0  0.00000000000E+00  0.00000000000E+00  0.34775862048E+03  0.34775862049E+03  0.25500000000E-02 0.  1.
         -2   -1    0    0    0  501 -0.00000000000E+00 -0.00000000000E+00 -0.10991895534E+03  0.10991895537E+03  0.25500000000E-02 0. -1.
    5000001    1    1    2    0    0 -0.21850194614E+02  0.13673466852E+03  0.18219436630E+03  0.26172043804E+03  0.12700000000E+03 0.  0.
   -5000001    1    1    2    0    0  0.21850194614E+02 -0.13673466852E+03  0.55645298841E+02  0.19595713782E+03  0.12700000000E+03 0.  0.
<mgrwt>
<rscale>  0 0.39102565E+03</rscale>
<asrwt>0</asrwt>
<pdfrwt beam="1">  1        2 0.49679802E-01 0.39102565E+03</pdfrwt>
<pdfrwt beam="2">  1       -2 0.15702708E-01 0.39102565E+03</pdfrwt>
<totfact> 0.32211300E+03</totfact>
</mgrwt>
</event>
<event>
 4    1  0.1390278E-004  0.3245652E+03  0.7818608E-02  0.1073567E+00
          2   -1    0    0  501    0  0.00000000000E+00  0.00000000000E+00  0.24832901886E+04  0.24832901886E+04  0.25500000000E-02 0.  1.
         -2   -1    0    0    0  501 -0.00000000000E+00 -0.00000000000E+00 -0.10605142751E+02  0.10605143057E+02  0.25500000000E-02 0. -1.
    5000001    1    1    2    0    0  0.61942181520E+02 -0.40413843238E+02  0.70752408173E+03  0.72262676314E+03  0.12700000000E+03 0.  0.
   -5000001    1    1    2    0    0 -0.61942181520E+02  0.40413843238E+02  0.17651609642E+04  0.17712685686E+04  0.12700000000E+03 0.  0.
<mgrwt>
<rscale>  0 0.32456523E+03</rscale>
<asrwt>0</asrwt>
<pdfrwt beam="1">  1        2 0.35475621E+00 0.32456523E+03</pdfrwt>
<pdfrwt beam="2">  1       -2 0.15150184E-02 0.32456523E+03</pdfrwt>
<totfact> 0.59412820E+03</totfact>
</mgrwt>
</event>
<event>
 4    1  0.1390278E-004  0.4134404E+03  0.7818608E-02  0.1039223E+00
         -2   -1    0    0    0  501 -0.00000000000E+00  0.00000000000E+00  0.95874692319E+02  0.95874692353E+02  0.25500000000E-02 0. -1.
          2   -1    0    0  501    0  0.00000000000E+00 -0.00000000000E+00 -0.44571982210E+03  0.44571982211E+03  0.25500000000E-02 0.  1.
    5000001    1    1    2    0    0 -0.87512603807E+02 -0.17610149577E+02 -0.35374989388E+03  0.38631148134E+03  0.12700000000E+03 0.  0.
   -5000001    1    1    2    0    0  0.87512603807E+02  0.17610149577E+02  0.39047640987E+01  0.15528303312E+03  0.12700000000E+03 0.  0.
<mgrwt>
<rscale>  0 0.41344045E+03</rscale>
<asrwt>0</asrwt>
<pdfrwt beam="1">  1        2 0.63674259E-01 0.41344045E+03</pdfrwt>
<pdfrwt beam="2">  1       -2 0.13696385E-01 0.41344045E+03</pdfrwt>
<totfact> 0.30829796E+03</totfact>
</mgrwt>
</event>
<event>
 4    1  0.1390278E-004  0.3582449E+03  0.7818608E-02  0.1059281E+00
          2   -1    0    0  501    0  0.00000000000E+00  0.00000000000E+00  0.10063647307E+04  0.10063647307E+04  0.25500000000E-02 0.  1.
         -2   -1    0    0    0  501 -0.00000000000E+00 -0.00000000000E+00 -0.31881935888E+02  0.31881935990E+02  0.25500000000E-02 0. -1.
    5000001    1    1    2    0    0 -0.12875933025E+02 -0.53004459613E+02  0.15704846128E+03  0.20920918140E+03  0.12700000000E+03 0.  0.
   -5000001    1    1    2    0    0  0.12875933025E+02  0.53004459613E+02  0.81743433349E+03  0.82903748525E+03  0.12700000000E+03 0.  0.
<mgrwt>
<rscale>  0 0.35824492E+03</rscale>
<asrwt>0</asrwt>
<pdfrwt beam="1">  1        2 0.14376640E+00 0.35824492E+03</pdfrwt>
<pdfrwt beam="2">  1       -2 0.45545620E-02 0.35824492E+03</pdfrwt>
<totfact> 0.65513772E+03</totfact>
</mgrwt>
</event>
<event>
 4    1  0.1390278E-004  0.4835933E+03  0.7818608E-02  0.1018152E+00
         -2   -1    0    0    0  501 -0.00000000000E+00  0.00000000000E+00  0.10231252301E+03  0.10231252304E+03  0.25500000000E-02 0. -1.
          2   -1    0    0  501    0  0.00000000000E+00 -0.00000000000E+00 -0.57144145372E+03  0.57144145372E+03  0.25500000000E-02 0.  1.
    5000001    1    1    2    0    0 -0.18233980114E+03  0.86561282309E+02 -0.17890592193E+03  0.29812243722E+03  0.12700000000E+03 0.  0.
   -5000001    1    1    2    0    0  0.18233980114E+03 -0.86561282309E+02 -0.29022300877E+03  0.37563153954E+03  0.12700000000E+03 0.  0.
<mgrwt>
<rscale>  0 0.48359329E+03</rscale>
<asrwt>0</asrwt>
<pdfrwt beam="1">  1        2 0.81634492E-01 0.48359329E+03</pdfrwt>
<pdfrwt beam="2">  1       -2 0.14616075E-01 0.48359329E+03</pdfrwt>
<totfact> 0.20936509E+03</totfact>
</mgrwt>
</event>
<event>
 4    1  0.1390278E-004  0.4729212E+03  0.7818608E-02  0.1021099E+00
         -2   -1    0    0    0  501 -0.00000000000E+00  0.00000000000E+00  0.42362305403E+02  0.42362305480E+02  0.25500000000E-02 0. -1.
          2   -1    0    0  501    0  0.00000000000E+00 -0.00000000000E+00 -0.13198910026E+04  0.13198910026E+04  0.25500000000E-02 0.  1.
    5000001    1    1    2    0    0  0.95076234788E+02  0.12428971085E+03 -0.28249778481E+03  0.34701789733E+03  0.12700000000E+03 0.  0.
   -5000001    1    1    2    0    0 -0.95076234788E+02 -0.12428971085E+03 -0.99503091241E+03  0.10152354108E+04  0.12700000000E+03 0.  0.
<mgrwt>
<rscale>  0 0.47292124E+03</rscale>
<asrwt>0</asrwt>
<pdfrwt beam="1">  1        2 0.18855583E+00 0.47292124E+03</pdfrwt>
<pdfrwt beam="2">  1       -2 0.60517587E-02 0.47292124E+03</pdfrwt>
<totfact> 0.28256040E+03</totfact>
</mgrwt>
</event>
<event>
 4    1  0.1390278E-004  0.5076352E+03  0.7818608E-02  0.1011805E+00
          2   -1    0    0  501    0  0.00000000000E+00  0.00000000000E+00  0.30508225505E+03  0.30508225506E+03  0.25500000000E-02 0.  1.
         -2   -1    0    0    0  501 -0.00000000000E+00 -0.00000000000E+00 -0.21116723663E+03  0.21116723664E+03  0.25500000000E-02 0. -1.
    5000001    1    1    2    0    0  0.19682163679E+03 -0.93050401014E+02  0.16495193387E+02  0.25258310562E+03  0.12700000000E+03 0.  0.
   -5000001    1    1    2    0    0 -0.19682163679E+03  0.93050401014E+02  0.77419825033E+02  0.26366638608E+03  0.12700000000E+03 0.  0.
<mgrwt>
<rscale>  0 0.50763521E+03</rscale>
<asrwt>0</asrwt>
<pdfrwt beam="1">  1        2 0.43583179E-01 0.50763521E+03</pdfrwt>
<pdfrwt beam="2">  1       -2 0.30166749E-01 0.50763521E+03</pdfrwt>
<totfact> 0.11868513E+03</totfact>
</mgrwt>
</event>
<event>
 4    1  0.1390278E-004  0.3751642E+03  0.7818608E-02  0.1052736E+00
         -2   -1    0    0    0  501 -0.00000000000E+00  0.00000000000E+00  0.53575756079E+02  0.53575756139E+02  0.25500000000E-02 0. -1.
          2   -1    0    0  501    0  0.00000000000E+00 -0.00000000000E+00 -0.65677173769E+03  0.65677173770E+03  0.25500000000E-02 0.  1.
    5000001    1    1    2    0    0  0.10977728785E+03 -0.25430326626E+02 -0.15059419471E+03  0.22694793659E+03  0.12700000000E+03 0.  0.
   -5000001    1    1    2    0    0 -0.10977728785E+03  0.25430326626E+02 -0.45260178690E+03  0.48339955725E+03  0.12700000000E+03 0.  0.
<mgrwt>
<rscale>  0 0.37516419E+03</rscale>
<asrwt>0</asrwt>
<pdfrwt beam="1">  1        2 0.93824529E-01 0.37516419E+03</pdfrwt>
<pdfrwt beam="2">  1       -2 0.76536798E-02 0.37516419E+03</pdfrwt>
<totfact> 0.50479628E+03</totfact>
</mgrwt>
</event>
<event>
 4    1  0.1390278E-004  0.3290864E+03  0.7818608E-02  0.1071542E+00
          2   -1    0    0  501    0  0.00000000000E+00  0.00000000000E+00  0.16589462887E+04  0.16589462887E+04  0.25500000000E-02 0.  1.
         -2   -1    0    0    0  501 -0.00000000000E+00 -0.00000000000E+00 -0.16320280947E+02  0.16320281147E+02  0.25500000000E-02 0. -1.
    5000001    1    1    2    0    0 -0.83532090131E+02 -0.47094982495E+02  0.60836022093E+03  0.62882963183E+03  0.12700000000E+03 0.  0.
   -5000001    1    1    2    0    0  0.83532090131E+02  0.47094982495E+02  0.10342657869E+04  0.10464369381E+04  0.12700000000E+03 0.  0.
<mgrwt>
<rscale>  0 0.32908643E+03</rscale>
<asrwt>0</asrwt>
<pdfrwt beam="1">  1        2 0.23699226E+00 0.32908643E+03</pdfrwt>
<pdfrwt beam="2">  1       -2 0.23314693E-02 0.32908643E+03</pdfrwt>
<totfact> 0.80275504E+03</totfact>
</mgrwt>
</event>
<event>
 4    1  0.1390278E-004  0.3455967E+03  0.7818608E-02  0.1064437E+00
          2   -1    0    0  501    0  0.00000000000E+00  0.00000000000E+00  0.66609691984E+02  0.66609692033E+02  0.25500000000E-02 0.  1.
         -2   -1    0    0    0  501 -0.00000000000E+00 -0.00000000000E+00 -0.44827222384E+03  0.44827222385E+03  0.25500000000E-02 0. -1.
    5000001    1    1    2    0    0  0.11069117129E+03  0.24923378112E+02 -0.14722809492E+03  0.22511957292E+03  0.12700000000E+03 0.  0.
   -5000001    1    1    2    0    0 -0.11069117129E+03 -0.24923378112E+02 -0.23443443694E+03  0.28976234296E+03  0.12700000000E+03 0.  0.
<mgrwt>
<rscale>  0 0.34559673E+03</rscale>
<asrwt>0</asrwt>
<pdfrwt beam="1">  1        2 0.95156705E-02 0.34559673E+03</pdfrwt>
<pdfrwt beam="2">  1       -2 0.64038888E-01 0.34559673E+03</pdfrwt>
<totfact> 0.15819335E+03</totfact>
</mgrwt>
</event>
<event>
 4    1  0.1390278E-004  0.2761869E+03  0.7818608E-02  0.1097790E+00
         -2   -1    0    0    0  501 -0.00000000000E+00  0.00000000000E+00  0.22210376652E+02  0.22210376798E+02  0.25500000000E-02 0. -1.
          2   -1    0    0  501    0  0.00000000000E+00 -0.00000000000E+00 -0.85859851581E+03  0.85859851582E+03  0.25500000000E-02 0.  1.
    5000001    1    1    2    0    0 -0.17734515509E+02 -0.47514573036E+02 -0.47942700512E+03  0.49854929639E+03  0.12700000000E+03 0.  0.
   -5000001    1    1    2    0    0  0.17734515509E+02  0.47514573036E+02 -0.35696113404E+03  0.38225959623E+03  0.12700000000E+03 0.  0.
<mgrwt>
<rscale>  0 0.27618687E+03</rscale>
<asrwt>0</asrwt>
<pdfrwt beam="1">  1        2 0.12265691E+00 0.27618687E+03</pdfrwt>
<pdfrwt beam="2">  1       -2 0.31729115E-02 0.27618687E+03</pdfrwt>
<totfact> 0.13831541E+04</totfact>
</mgrwt>
</event>
<event>
 4    1  0.1390278E-004  0.5011282E+03  0.7818608E-02  0.1013485E+00
         -2   -1    0    0    0  501 -0.00000000000E+00  0.00000000000E+00  0.70099092995E+02  0.70099093042E+02  0.25500000000E-02 0. -1.
          2   -1    0    0  501    0  0.00000000000E+00 -0.00000000000E+00 -0.89562314247E+03  0.89562314247E+03  0.25500000000E-02 0.  1.
    5000001    1    1    2    0    0 -0.74648238062E+02 -0.17449853735E+03 -0.61146115985E+03  0.65271421693E+03  0.12700000000E+03 0.  0.
   -5000001    1    1    2    0    0  0.74648238062E+02  0.17449853735E+03 -0.21406288963E+03  0.31300801858E+03  0.12700000000E+03 0.  0.
<mgrwt>
<rscale>  0 0.50112821E+03</rscale>
<asrwt>0</asrwt>
<pdfrwt beam="1">  1        2 0.12794616E+00 0.50112821E+03</pdfrwt>
<pdfrwt beam="2">  1       -2 0.10014157E-01 0.50112821E+03</pdfrwt>
<totfact> 0.22418969E+03</totfact>
</mgrwt>
</event>
<event>
 4    1  0.1390278E-004  0.4349919E+03  0.7818608E-02  0.1032295E+00
          2   -1    0    0  501    0  0.00000000000E+00  0.00000000000E+00  0.96718712678E+03  0.96718712679E+03  0.25500000000E-02 0.  1.
         -2   -1    0    0    0  501 -0.00000000000E+00 -0.00000000000E+00 -0.48909345642E+02  0.48909345709E+02  0.25500000000E-02 0. -1.
    5000001    1    1    2    0    0 -0.12096893992E+03 -0.94995292229E+02  0.25660298452E+03  0.32501027928E+03  0.12700000000E+03 0.  0.
   -5000001    1    1    2    0    0  0.12096893992E+03  0.94995292229E+02  0.66167479662E+03  0.69108619322E+03  0.12700000000E+03 0.  0.
<mgrwt>
<rscale>  0 0.43499191E+03</rscale>
<asrwt>0</asrwt>
<pdfrwt beam="1">  1        2 0.13816957E+00 0.43499191E+03</pdfrwt>
<pdfrwt beam="2">  1       -2 0.69870502E-02 0.43499191E+03</pdfrwt>
<totfact> 0.35810394E+03</totfact>
</mgrwt>
</event>
<event>
 4    1  0.1390278E-004  0.7213295E+03  0.7818608E-02  0.9681436E-01
          2   -1    0    0  501    0  0.00000000000E+00  0.00000000000E+00  0.98871323203E+03  0.98871323204E+03  0.25500000000E-02 0.  1.
         -2   -1    0    0    0  501 -0.00000000000E+00 -0.00000000000E+00 -0.13156398605E+03  0.13156398608E+03  0.25500000000E-02 0. -1.
    5000001    1    1    2    0    0 -0.40434572574E+02  0.29815163166E+03  0.66625416084E+03  0.74199255856E+03  0.12700000000E+03 0.  0.
   -5000001    1    1    2    0    0  0.40434572574E+02 -0.29815163166E+03  0.19089508514E+03  0.37828465955E+03  0.12700000000E+03 0.  0.
<mgrwt>
<rscale>  0 0.72132948E+03</rscale>
<asrwt>0</asrwt>
<pdfrwt beam="1">  1        2 0.14124474E+00 0.72132948E+03</pdfrwt>
<pdfrwt beam="2">  1       -2 0.18794856E-01 0.72132948E+03</pdfrwt>
<totfact> 0.68166842E+02</totfact>
</mgrwt>
</event>
<event>
 4    1  0.1390278E-004  0.6471476E+03  0.7818608E-02  0.9812146E-01
          2   -1    0    0  501    0  0.00000000000E+00  0.00000000000E+00  0.80246540835E+03  0.80246540836E+03  0.25500000000E-02 0.  1.
         -2   -1    0    0    0  501 -0.00000000000E+00 -0.00000000000E+00 -0.13047291618E+03  0.13047291621E+03  0.25500000000E-02 0. -1.
    5000001    1    1    2    0    0  0.10281738529E+03  0.15191299219E+03  0.67384543774E+03  0.70982085478E+03  0.12700000000E+03 0.  0.
   -5000001    1    1    2    0    0 -0.10281738529E+03 -0.15191299219E+03 -0.18529455718E+01  0.22311746978E+03  0.12700000000E+03 0.  0.
<mgrwt>
<rscale>  0 0.64714759E+03</rscale>
<asrwt>0</asrwt>
<pdfrwt beam="1">  1        2 0.11463791E+00 0.64714759E+03</pdfrwt>
<pdfrwt beam="2">  1       -2 0.18638988E-01 0.64714759E+03</pdfrwt>
<totfact> 0.91660502E+02</totfact>
</mgrwt>
</event>
<event>
 4    1  0.1390278E-004  0.3380488E+03  0.7818608E-02  0.1067630E+00
         -2   -1    0    0    0  501 -0.00000000000E+00  0.00000000000E+00  0.15596763736E+02  0.15596763945E+02  0.25500000000E-02 0. -1.
          2   -1    0    0  501    0  0.00000000000E+00 -0.00000000000E+00 -0.18317417366E+04  0.18317417366E+04  0.25500000000E-02 0.  1.
    5000001    1    1    2    0    0  0.13073362582E+01 -0.50067358525E+02 -0.36346831488E+03  0.38826107897E+03  0.12700000000E+03 0.  0.
   -5000001    1    1    2    0    0 -0.13073362582E+01  0.50067358525E+02 -0.14526766580E+04  0.14590774216E+04  0.12700000000E+03 0.  0.
<mgrwt>
<rscale>  0 0.33804877E+03</rscale>
<asrwt>0</asrwt>
<pdfrwt beam="1">  1        2 0.26167725E+00 0.33804877E+03</pdfrwt>
<pdfrwt beam="2">  1       -2 0.22281103E-02 0.33804877E+03</pdfrwt>
<totfact> 0.70519340E+03</totfact>
</mgrwt>
</event>
<event>
 4    1  0.1390278E-004  0.3527477E+03  0.7818608E-02  0.1061493E+00
          2   -1    0    0  501    0  0.00000000000E+00  0.00000000000E+00  0.26861317619E+04  0.26861317619E+04  0.25500000000E-02 0.  1.
         -2   -1    0    0    0  501 -0.00000000000E+00 -0.00000000000E+00 -0.11580864221E+02  0.11580864502E+02  0.25500000000E-02 0. -1.
    5000001    1    1    2    0    0  0.43952370763E+02 -0.10101690478E+03  0.92953677334E+03  0.94461835624E+03  0.12700000000E+03 0.  0.
   -5000001    1    1    2    0    0 -0.43952370763E+02  0.10101690478E+03  0.17450141244E+04  0.17530942702E+04  0.12700000000E+03 0.  0.
<mgrwt>
<rscale>  0 0.35274766E+03</rscale>
<asrwt>0</asrwt>
<pdfrwt beam="1">  1        2 0.38373374E+00 0.35274766E+03</pdfrwt>
<pdfrwt beam="2">  1       -2 0.16544065E-02 0.35274766E+03</pdfrwt>
<totfact> 0.41146484E+03</totfact>
</mgrwt>
</event>
<event>
 4    1  0.1390278E-004  0.4332185E+03  0.7818608E-02  0.1032848E+00
         -2   -1    0    0    0  501 -0.00000000000E+00  0.00000000000E+00  0.34429723605E+02  0.34429723700E+02  0.25500000000E-02 0. -1.
          2   -1    0    0  501    0  0.00000000000E+00 -0.00000000000E+00 -0.13627633103E+04  0.13627633103E+04  0.25500000000E-02 0.  1.
    5000001    1    1    2    0    0 -0.16453719443E+03 -0.42001890038E+02 -0.52160521532E+03  0.56306096275E+03  0.12700000000E+03 0.  0.
   -5000001    1    1    2    0    0  0.16453719443E+03  0.42001890038E+02 -0.80672837138E+03  0.83413207127E+03  0.12700000000E+03 0.  0.
<mgrwt>
<rscale>  0 0.43321849E+03</rscale>
<asrwt>0</asrwt>
<pdfrwt beam="1">  1        2 0.19468044E+00 0.43321849E+03</pdfrwt>
<pdfrwt beam="2">  1       -2 0.49185328E-02 0.43321849E+03</pdfrwt>
<totfact> 0.36954652E+03</totfact>
</mgrwt>
</event>
<event>
 4    1  0.1390278E-004  0.3852513E+03  0.7818608E-02  0.1049010E+00
          2   -1    0    0  501    0  0.00000000000E+00  0.00000000000E+00  0.20988154117E+04  0.20988154117E+04  0.25500000000E-02 0.  1.
         -2   -1    0    0    0  501 -0.00000000000E+00 -0.00000000000E+00 -0.17678848265E+02  0.17678848449E+02  0.25500000000E-02 0. -1.
    5000001    1    1    2    0    0  0.47277212924E+01 -0.10233128464E+03  0.16030218868E+04  0.16113045065E+04  0.12700000000E+03 0.  0.
   -5000001    1    1    2    0    0 -0.47277212924E+01  0.10233128464E+03  0.47811467668E+03  0.50518975368E+03  0.12700000000E+03 0.  0.
<mgrwt>
<rscale>  0 0.38525129E+03</rscale>
<asrwt>0</asrwt>
<pdfrwt beam="1">  1        2 0.29983087E+00 0.38525129E+03</pdfrwt>
<pdfrwt beam="2">  1       -2 0.25255490E-02 0.38525129E+03</pdfrwt>
<totfact> 0.43205808E+03</totfact>
</mgrwt>
</event>
<event>
 4    1  0.1390278E-004  0.7243300E+03  0.7818608E-02  0.9676506E-01
         -2   -1    0    0    0  501 -0.00000000000E+00  0.00000000000E+00  0.13556294338E+03  0.13556294340E+03  0.25500000000E-02 0. -1.
          2   -1    0    0  501    0  0.00000000000E+00 -0.00000000000E+00 -0.96754666770E+03  0.96754666771E+03  0.25500000000E-02 0.  1.
    5000001    1    1    2    0    0  0.32474255739E+03 -0.60388147134E+02 -0.29871557844E+03  0.46310307027E+03  0.12700000000E+03 0.  0.
   -5000001    1    1    2    0    0 -0.32474255739E+03  0.60388147134E+02 -0.53326814589E+03  0.64000654083E+03  0.12700000000E+03 0.  0.
<mgrwt>
<rscale>  0 0.72432996E+03</rscale>
<asrwt>0</asrwt>
<pdfrwt beam="1">  1        2 0.13822095E+00 0.72432996E+03</pdfrwt>
<pdfrwt beam="2">  1       -2 0.19366135E-01 0.72432996E+03</pdfrwt>
<totfact> 0.66690997E+02</totfact>
</mgrwt>
</event>
<event>
 4    1  0.1390278E-004  0.6470066E+03  0.7818608E-02  0.9812412E-01
          2   -1    0    0  501    0  0.00000000000E+00  0.00000000000E+00  0.10164096372E+04  0.10164096372E+04  0.25500000000E-02 0.  1.
         -2   -1    0    0    0  501 -0.00000000000E+00 -0.00000000000E+00 -0.10296476710E+03  0.10296476713E+03  0.25500000000E-02 0. -1.
    5000001    1    1    2    0    0  0.21072756853E+03 -0.61593512831E+02  0.80414387585E+03  0.84319407139E+03  0.12700000000E+03 0.  0.
   -5000001    1    1    2    0    0 -0.21072756853E+03  0.61593512831E+02  0.10930099423E+03  0.27618033293E+03  0.12700000000E+03 0.  0.
<mgrwt>
<rscale>  0 0.64700659E+03</rscale>
<asrwt>0</asrwt>
<pdfrwt beam="1">  1        2 0.14520138E+00 0.64700659E+03</pdfrwt>
<pdfrwt beam="2">  1       -2 0.14709252E-01 0.64700659E+03</pdfrwt>
<totfact> 0.99850995E+02</totfact>
</mgrwt>
</event>
<event>
 4    1  0.1390278E-004  0.4049434E+03  0.7818608E-02  0.1042081E+00
          2   -1    0    0  501    0  0.00000000000E+00  0.00000000000E+00  0.85729452409E+03  0.85729452409E+03  0.25500000000E-02 0.  1.
         -2   -1    0    0    0  501 -0.00000000000E+00 -0.00000000000E+00 -0.47818796525E+02  0.47818796593E+02  0.25500000000E-02 0. -1.
    5000001    1    1    2    0    0 -0.83294941797E+02  0.11244363388E+03  0.24225888429E+03  0.30724580574E+03  0.12700000000E+03 0.  0.
   -5000001    1    1    2    0    0  0.83294941797E+02 -0.11244363388E+03  0.56721684327E+03  0.59786751494E+03  0.12700000000E+03 0.  0.
<mgrwt>
<rscale>  0 0.40494342E+03</rscale>
<asrwt>0</asrwt>
<pdfrwt beam="1">  1        2 0.12247064E+00 0.40494342E+03</pdfrwt>
<pdfrwt beam="2">  1       -2 0.68312572E-02 0.40494342E+03</pdfrwt>
<totfact> 0.43500684E+03</totfact>
</mgrwt>
</event>
<event>
 4    1  0.1390278E-004  0.2950850E+03  0.7818608E-02  0.1087724E+00
          2   -1    0    0  501    0  0.00000000000E+00  0.00000000000E+00  0.17653268243E+04  0.17653268244E+04  0.25500000000E-02 0.  1.
         -2   -1    0    0    0  501 -0.00000000000E+00 -0.00000000000E+00 -0.12331311744E+02  0.12331312008E+02  0.25500000000E-02 0. -1.
    5000001    1    1    2    0    0  0.49419094589E+02 -0.30005446341E+02  0.58776070053E+03  0.60409785201E+03  0.12700000000E+03 0.  0.
   -5000001    1    1    2    0    0 -0.49419094589E+02  0.30005446341E+02  0.11652348121E+04  0.11735602843E+04  0.12700000000E+03 0.  0.
<mgrwt>
<rscale>  0 0.29508504E+03</rscale>
<asrwt>0</asrwt>
<pdfrwt beam="1">  1        2 0.25218935E+00 0.29508504E+03</pdfrwt>
<pdfrwt beam="2">  1       -2 0.17616174E-02 0.29508504E+03</pdfrwt>
<totfact> 0.10739414E+04</totfact>
</mgrwt>
</event>
<event>
 4    1  0.1390278E-004  0.5173787E+03  0.7818608E-02  0.1009340E+00
          2   -1    0    0  501    0  0.00000000000E+00  0.00000000000E+00  0.16779542536E+03  0.16779542538E+03  0.25500000000E-02 0. -1.
         -2   -1    0    0    0  501 -0.00000000000E+00 -0.00000000000E+00 -0.39882001987E+03  0.39882001988E+03  0.25500000000E-02 0.  1.
    5000001    1    1    2    0    0  0.52119975492E+02 -0.85053788534E+02 -0.33683481218E+03  0.37354695753E+03  0.12700000000E+03 0.  0.
   -5000001    1    1    2    0    0 -0.52119975492E+02  0.85053788534E+02  0.10581021766E+03  0.19306848772E+03  0.12700000000E+03 0.  0.
<mgrwt>
<rscale>  0 0.51737868E+03</rscale>
<asrwt>0</asrwt>
<pdfrwt beam="1">  1        2 0.23970775E-01 0.51737868E+03</pdfrwt>
<pdfrwt beam="2">  1       -2 0.56974288E-01 0.51737868E+03</pdfrwt>
<totfact> 0.66849909E+02</totfact>
</mgrwt>
</event>
<event>
 4    1  0.1390278E-004  0.2625847E+03  0.7818608E-02  0.1105600E+00
         -2   -1    0    0    0  501 -0.00000000000E+00  0.00000000000E+00  0.85852361790E+01  0.85852365577E+01  0.25500000000E-02 0. -1.
          2   -1    0    0  501    0  0.00000000000E+00 -0.00000000000E+00 -0.20078284311E+04  0.20078284311E+04  0.25500000000E-02 0.  1.
    5000001    1    1    2    0    0 -0.28293991419E+02  0.11880220894E+02 -0.10988550579E+04  0.11065952864E+04  0.12700000000E+03 0.  0.
   -5000001    1    1    2    0    0  0.28293991419E+02 -0.11880220894E+02 -0.90038813702E+03  0.90981838126E+03  0.12700000000E+03 0.  0.
<mgrwt>
<rscale>  0 0.26258470E+03</rscale>
<asrwt>0</asrwt>
<pdfrwt beam="1">  1        2 0.28683233E+00 0.26258470E+03</pdfrwt>
<pdfrwt beam="2">  1       -2 0.12264636E-02 0.26258470E+03</pdfrwt>
<totfact> 0.13849180E+04</totfact>
</mgrwt>
</event>
<event>
 4    1  0.1390278E-004  0.3988693E+03  0.7818608E-02  0.1044172E+00
         -2   -1    0    0    0  501 -0.00000000000E+00  0.00000000000E+00  0.62821174933E+02  0.62821174985E+02  0.25500000000E-02 0. -1.
          2   -1    0    0  501    0  0.00000000000E+00 -0.00000000000E+00 -0.63313331147E+03  0.63313331147E+03  0.25500000000E-02 0.  1.
    5000001    1    1    2    0    0  0.60502662832E+01  0.14477324931E+03 -0.19534826155E+03  0.27438265749E+03  0.12700000000E+03 0.  0.
   -5000001    1    1    2    0    0 -0.60502662832E+01 -0.14477324931E+03 -0.37496387498E+03  0.42157182897E+03  0.12700000000E+03 0.  0.
<mgrwt>
<rscale>  0 0.39886929E+03</rscale>
<asrwt>0</asrwt>
<pdfrwt beam="1">  1        2 0.90447612E-01 0.39886929E+03</pdfrwt>
<pdfrwt beam="2">  1       -2 0.89744539E-02 0.39886929E+03</pdfrwt>
<totfact> 0.41029481E+03</totfact>
</mgrwt>
</event>
<event>
 4    1  0.1390278E-004  0.2581736E+03  0.7818608E-02  0.1108246E+00
         -2   -1    0    0    0  501 -0.00000000000E+00  0.00000000000E+00  0.42821702144E+02  0.42821702220E+02  0.25500000000E-02 0. -1.
          2   -1    0    0  501    0  0.00000000000E+00 -0.00000000000E+00 -0.38913455400E+03  0.38913455400E+03  0.25500000000E-02 0.  1.
    5000001    1    1    2    0    0  0.17864958233E+02 -0.12750403182E+02 -0.16101336997E+03  0.20624266005E+03  0.12700000000E+03 0.  0.
   -5000001    1    1    2    0    0 -0.17864958233E+02  0.12750403182E+02 -0.18529948188E+03  0.22571359618E+03  0.12700000000E+03 0.  0.
<mgrwt>
<rscale>  0 0.25817362E+03</rscale>
<asrwt>0</asrwt>
<pdfrwt beam="1">  1        2 0.55590649E-01 0.25817362E+03</pdfrwt>
<pdfrwt beam="2">  1       -2 0.61173862E-02 0.25817362E+03</pdfrwt>
<totfact> 0.12670980E+04</totfact>
</mgrwt>
</event>
<event>
 4    1  0.1390278E-004  0.5394795E+03  0.7818608E-02  0.1003959E+00
          2   -1    0    0  501    0  0.00000000000E+00  0.00000000000E+00  0.77955730388E+03  0.77955730388E+03  0.25500000000E-02 0.  1.
         -2   -1    0    0    0  501 -0.00000000000E+00 -0.00000000000E+00 -0.93334412363E+02  0.93334412398E+02  0.25500000000E-02 0. -1.
    5000001    1    1    2    0    0  0.95065377104E+02  0.20170086300E+03  0.47761075136E+03  0.54218234375E+03  0.12700000000E+03 0.  0.
   -5000001    1    1    2    0    0 -0.95065377104E+02 -0.20170086300E+03  0.20861214015E+03  0.33070937253E+03  0.12700000000E+03 0.  0.
<mgrwt>
<rscale>  0 0.53947946E+03</rscale>
<asrwt>0</asrwt>
<pdfrwt beam="1">  1        2 0.11136533E+00 0.53947946E+03</pdfrwt>
<pdfrwt beam="2">  1       -2 0.13333488E-01 0.53947946E+03</pdfrwt>
<totfact> 0.16791261E+03</totfact>
</mgrwt>
</event>
<event>
 4    1  0.1390278E-004  0.5551791E+03  0.7818608E-02  0.1000302E+00
          2   -1    0    0  501    0  0.00000000000E+00  0.00000000000E+00  0.37723663717E+03  0.37723663718E+03  0.25500000000E-02 0.  1.
         -2   -1    0    0    0  501 -0.00000000000E+00 -0.00000000000E+00 -0.20426421959E+03  0.20426421960E+03  0.25500000000E-02 0. -1.
    5000001    1    1    2    0    0 -0.11567410136E+02 -0.11967197388E+03  0.31227992231E+03  0.35791470519E+03  0.12700000000E+03 0.  0.
   -5000001    1    1    2    0    0  0.11567410136E+02  0.11967197388E+03 -0.13930750473E+03  0.22358615159E+03  0.12700000000E+03 0.  0.
<mgrwt>
<rscale>  0 0.55517906E+03</rscale>
<asrwt>0</asrwt>
<pdfrwt beam="1">  1        2 0.53890948E-01 0.55517906E+03</pdfrwt>
<pdfrwt beam="2">  1       -2 0.29180603E-01 0.55517906E+03</pdfrwt>
<totfact> 0.99862882E+02</totfact>
</mgrwt>
</event>
<event>
 4    1  0.1390278E-004  0.5396252E+03  0.7818608E-02  0.1003924E+00
          2   -1    0    0  501    0  0.00000000000E+00  0.00000000000E+00  0.15483243022E+04  0.15483243022E+04  0.25500000000E-02 0.  1.
         -2   -1    0    0    0  501 -0.00000000000E+00 -0.00000000000E+00 -0.47017817298E+02  0.47017817367E+02  0.25500000000E-02 0. -1.
    5000001    1    1    2    0    0  0.21647763848E+03 -0.98500426839E+02  0.72036977429E+03  0.76917261636E+03  0.12700000000E+03 0.  0.
   -5000001    1    1    2    0    0 -0.21647763848E+03  0.98500426839E+02  0.78093671061E+03  0.82616950321E+03  0.12700000000E+03 0.  0.
<mgrwt>
<rscale>  0 0.53962516E+03</rscale>
<asrwt>0</asrwt>
<pdfrwt beam="1">  1        2 0.22118918E+00 0.53962516E+03</pdfrwt>
<pdfrwt beam="2">  1       -2 0.67168311E-02 0.53962516E+03</pdfrwt>
<totfact> 0.18190620E+03</totfact>
</mgrwt>
</event>
<event>
 4    1  0.1390278E-004  0.6505866E+03  0.7818608E-02  0.9805679E-01
         -2   -1    0    0    0  501 -0.00000000000E+00  0.00000000000E+00  0.21561605849E+03  0.21561605851E+03  0.25500000000E-02 0. -1.
          2   -1    0    0  501    0  0.00000000000E+00 -0.00000000000E+00 -0.49075990753E+03  0.49075990753E+03  0.25500000000E-02 0.  1.
    5000001    1    1    2    0    0  0.27282776773E+03 -0.12254494005E+03 -0.15419719380E+03  0.35966377042E+03  0.12700000000E+03 0.  0.
   -5000001    1    1    2    0    0 -0.27282776773E+03  0.12254494005E+03 -0.12094665523E+03  0.34671219562E+03  0.12700000000E+03 0.  0.
<mgrwt>
<rscale>  0 0.65058656E+03</rscale>
<asrwt>0</asrwt>
<pdfrwt beam="1">  1        2 0.70108558E-01 0.65058656E+03</pdfrwt>
<pdfrwt beam="2">  1       -2 0.30802294E-01 0.65058656E+03</pdfrwt>
<totfact> 0.67236883E+02</totfact>
</mgrwt>
</event>
<event>
 4    1  0.1390278E-004  0.3897718E+03  0.7818608E-02  0.1047380E+00
         -2   -1    0    0    0  501 -0.00000000000E+00  0.00000000000E+00  0.23986667086E+03  0.23986667088E+03  0.25500000000E-02 0. -1.
          2   -1    0    0  501    0  0.00000000000E+00 -0.00000000000E+00 -0.15834010318E+03  0.15834010320E+03  0.25500000000E-02 0.  1.
    5000001    1    1    2    0    0  0.14496989018E+03  0.21683402108E+02  0.21242873487E+02  0.19510689034E+03  0.12700000000E+03 0.  0.
   -5000001    1    1    2    0    0 -0.14496989018E+03 -0.21683402108E+02  0.60283694201E+02  0.20309988373E+03  0.12700000000E+03 0.  0.
<mgrwt>
<rscale>  0 0.38977180E+03</rscale>
<asrwt>0</asrwt>
<pdfrwt beam="1">  1        2 0.22620015E-01 0.38977180E+03</pdfrwt>
<pdfrwt beam="2">  1       -2 0.34266667E-01 0.38977180E+03</pdfrwt>
<totfact> 0.19406622E+03</totfact>
</mgrwt>
</event>
<event>
 4    1  0.1390278E-004  0.6248090E+03  0.7818608E-02  0.9855231E-01
          2   -1    0    0  501    0  0.00000000000E+00  0.00000000000E+00  0.10199565196E+04  0.10199565196E+04  0.25500000000E-02 0.  1.
         -2   -1    0    0    0  501 -0.00000000000E+00 -0.00000000000E+00 -0.95686992818E+02  0.95686992852E+02  0.25500000000E-02 0. -1.
    5000001    1    1    2    0    0  0.26095310115E+03  0.50487825672E+02  0.27638317071E+03  0.40393340861E+03  0.12700000000E+03 0.  0.
   -5000001    1    1    2    0    0 -0.26095310115E+03 -0.50487825672E+02  0.64788635611E+03  0.71171010389E+03  0.12700000000E+03 0.  0.
<mgrwt>
<rscale>  0 0.62480900E+03</rscale>
<asrwt>0</asrwt>
<pdfrwt beam="1">  1        2 0.14570808E+00 0.62480900E+03</pdfrwt>
<pdfrwt beam="2">  1       -2 0.13669570E-01 0.62480900E+03</pdfrwt>
<totfact> 0.11240972E+03</totfact>
</mgrwt>
</event>
<event>
 4    1  0.1390278E-004  0.9443109E+03  0.7818608E-02  0.9371825E-01
         -2   -1    0    0    0  501 -0.00000000000E+00  0.00000000000E+00  0.23004302262E+03  0.23004302264E+03  0.25500000000E-02 0. -1.
          2   -1    0    0  501    0  0.00000000000E+00 -0.00000000000E+00 -0.96908303272E+03  0.96908303273E+03  0.25500000000E-02 0.  1.
    5000001    1    1    2    0    0  0.18752587422E+03  0.40994809439E+03 -0.44548159431E+03  0.64637933481E+03  0.12700000000E+03 0.  0.
   -5000001    1    1    2    0    0 -0.18752587422E+03 -0.40994809439E+03 -0.29355841579E+03  0.55274672055E+03  0.12700000000E+03 0.  0.
<mgrwt>
<rscale>  0 0.94431094E+03</rscale>
<asrwt>0</asrwt>
<pdfrwt beam="1">  1        2 0.13844043E+00 0.94431094E+03</pdfrwt>
<pdfrwt beam="2">  1       -2 0.32863289E-01 0.94431094E+03</pdfrwt>
<totfact> 0.25318305E+02</totfact>
</mgrwt>
</event>
<event>
 4    1  0.1390278E-004  0.5853112E+03  0.7818608E-02  0.9936358E-01
         -2   -1    0    0    0  501 -0.00000000000E+00  0.00000000000E+00  0.11464439947E+03  0.11464439950E+03  0.25500000000E-02 0. -1.
          2   -1    0    0  501    0  0.00000000000E+00 -0.00000000000E+00 -0.74706926271E+03  0.74706926271E+03  0.25500000000E-02 0.  1.
    5000001    1    1    2    0    0 -0.23115359303E+03 -0.58058505156E+02 -0.48222593653E+03  0.55269668667E+03  0.12700000000E+03 0.  0.
   -5000001    1    1    2    0    0  0.23115359303E+03  0.58058505156E+02 -0.15019892671E+03  0.30901697554E+03  0.12700000000E+03 0.  0.
<mgrwt>
<rscale>  0 0.58531122E+03</rscale>
<asrwt>0</asrwt>
<pdfrwt beam="1">  1        2 0.10672418E+00 0.58531122E+03</pdfrwt>
<pdfrwt beam="2">  1       -2 0.16377772E-01 0.58531122E+03</pdfrwt>
<totfact> 0.12536457E+03</totfact>
</mgrwt>
</event>
<event>
 4    1  0.1390278E-004  0.3265753E+03  0.7818608E-02  0.1072662E+00
          2   -1    0    0  501    0  0.00000000000E+00  0.00000000000E+00  0.33038805751E+03  0.33038805752E+03  0.25500000000E-02 0.  1.
         -2   -1    0    0    0  501 -0.00000000000E+00 -0.00000000000E+00 -0.80701654600E+02  0.80701654641E+02  0.25500000000E-02 0. -1.
    5000001    1    1    2    0    0  0.28925993228E+02  0.93239330641E+02  0.84965640895E+02  0.18132414620E+03  0.12700000000E+03 0.  0.
   -5000001    1    1    2    0    0 -0.28925993228E+02 -0.93239330641E+02  0.16472076202E+03  0.22976556596E+03  0.12700000000E+03 0.  0.
<mgrwt>
<rscale>  0 0.32657534E+03</rscale>
<asrwt>0</asrwt>
<pdfrwt beam="1">  1        2 0.47198293E-01 0.32657534E+03</pdfrwt>
<pdfrwt beam="2">  1       -2 0.11528808E-01 0.32657534E+03</pdfrwt>
<totfact> 0.56358718E+03</totfact>
</mgrwt>
</event>
<event>
 4    1  0.1390278E-004  0.2921961E+03  0.7818608E-02  0.1089208E+00
         -2   -1    0    0    0  501 -0.00000000000E+00  0.00000000000E+00  0.42172979752E+02  0.42172979829E+02  0.25500000000E-02 0. -1.
          2   -1    0    0  501    0  0.00000000000E+00 -0.00000000000E+00 -0.50612135797E+03  0.50612135798E+03  0.25500000000E-02 0.  1.
    5000001    1    1    2    0    0  0.27281244509E+02 -0.66148787696E+02 -0.21361579407E+03  0.25861290743E+03  0.12700000000E+03 0.  0.
   -5000001    1    1    2    0    0 -0.27281244509E+02  0.66148787696E+02 -0.25033258416E+03  0.28968143038E+03  0.12700000000E+03 0.  0.
<mgrwt>
<rscale>  0 0.29219614E+03</rscale>
<asrwt>0</asrwt>
<pdfrwt beam="1">  1        2 0.72303048E-01 0.29219614E+03</pdfrwt>
<pdfrwt beam="2">  1       -2 0.60247117E-02 0.29219614E+03</pdfrwt>
<totfact> 0.97883349E+03</totfact>
</mgrwt>
</event>
<event>
 4    1  0.1390278E-004  0.5768579E+03  0.7818608E-02  0.9954617E-01
          2   -1    0    0  501    0  0.00000000000E+00  0.00000000000E+00  0.10170053345E+04  0.10170053345E+04  0.25500000000E-02 0.  1.
         -2   -1    0    0    0  501 -0.00000000000E+00 -0.00000000000E+00 -0.81800211827E+02  0.81800211867E+02  0.25500000000E-02 0. -1.
    5000001    1    1    2    0    0 -0.25093636134E+03 -0.63952438708E+02  0.47105229885E+03  0.55233888159E+03  0.12700000000E+03 0.  0.
   -5000001    1    1    2    0    0  0.25093636134E+03  0.63952438708E+02  0.46415282381E+03  0.54646666477E+03  0.12700000000E+03 0.  0.
<mgrwt>
<rscale>  0 0.57685787E+03</rscale>
<asrwt>0</asrwt>
<pdfrwt beam="1">  1        2 0.14528648E+00 0.57685787E+03</pdfrwt>
<pdfrwt beam="2">  1       -2 0.11685744E-01 0.57685787E+03</pdfrwt>
<totfact> 0.14645305E+03</totfact>
</mgrwt>
</event>
<event>
 4    1  0.1390278E-004  0.4003303E+03  0.7818608E-02  0.1043665E+00
          2   -1    0    0  501    0  0.00000000000E+00  0.00000000000E+00  0.10763113913E+04  0.10763113913E+04  0.25500000000E-02 0.  1.
         -2   -1    0    0    0  501 -0.00000000000E+00 -0.00000000000E+00 -0.37225366517E+02  0.37225366604E+02  0.25500000000E-02 0. -1.
    5000001    1    1    2    0    0 -0.13619390552E+03  0.56142875038E+02  0.65108050446E+03  0.67951131382E+03  0.12700000000E+03 0.  0.
   -5000001    1    1    2    0    0  0.13619390552E+03 -0.56142875038E+02  0.38800552033E+03  0.43402544410E+03  0.12700000000E+03 0.  0.
<mgrwt>
<rscale>  0 0.40033029E+03</rscale>
<asrwt>0</asrwt>
<pdfrwt beam="1">  1        2 0.15375878E+00 0.40033029E+03</pdfrwt>
<pdfrwt beam="2">  1       -2 0.53179091E-02 0.40033029E+03</pdfrwt>
<totfact> 0.47092988E+03</totfact>
</mgrwt>
</event>
<event>
 4    1  0.1390278E-004  0.3685925E+03  0.7818608E-02  0.1055232E+00
          2   -1    0    0  501    0  0.00000000000E+00  0.00000000000E+00  0.29263875151E+03  0.29263875152E+03  0.25500000000E-02 0.  1.
         -2   -1    0    0    0  501 -0.00000000000E+00 -0.00000000000E+00 -0.11606498327E+03  0.11606498330E+03  0.25500000000E-02 0. -1.
    5000001    1    1    2    0    0 -0.16273625911E+02  0.13023098442E+03  0.60874698102E+02  0.19250888050E+03  0.12700000000E+03 0.  0.
   -5000001    1    1    2    0    0  0.16273625911E+02 -0.13023098442E+03  0.11569907014E+03  0.21619485432E+03  0.12700000000E+03 0.  0.
<mgrwt>
<rscale>  0 0.36859252E+03</rscale>
<asrwt>0</asrwt>
<pdfrwt beam="1">  1        2 0.41805535E-01 0.36859252E+03</pdfrwt>
<pdfrwt beam="2">  1       -2 0.16580712E-01 0.36859252E+03</pdfrwt>
<totfact> 0.35428679E+03</totfact>
</mgrwt>
</event>
<event>
 4    1  0.1390278E-004  0.3571999E+03  0.7818608E-02  0.1059698E+00
          2   -1    0    0  501    0  0.00000000000E+00  0.00000000000E+00  0.30710393933E+03  0.30710393934E+03  0.25500000000E-02 0.  1.
         -2   -1    0    0    0  501 -0.00000000000E+00 -0.00000000000E+00 -0.10386691217E+03  0.10386691220E+03  0.25500000000E-02 0. -1.
    5000001    1    1    2    0    0  0.90790459214E+02  0.68776757522E+02  0.16245327959E+03  0.23556998516E+03  0.12700000000E+03 0.  0.
   -5000001    1    1    2    0    0 -0.90790459214E+02 -0.68776757522E+02  0.40783747570E+02  0.17540086638E+03  0.12700000000E+03 0.  0.
<mgrwt>
<rscale>  0 0.35719988E+03</rscale>
<asrwt>0</asrwt>
<pdfrwt beam="1">  1        2 0.43871992E-01 0.35719988E+03</pdfrwt>
<pdfrwt beam="2">  1       -2 0.14838130E-01 0.35719988E+03</pdfrwt>
<totfact> 0.40448735E+03</totfact>
</mgrwt>
</event>
<event>
 4    1  0.1390278E-004  0.3895230E+03  0.7818608E-02  0.1047469E+00
          2   -1    0    0  501    0  0.00000000000E+00  0.00000000000E+00  0.34600250902E+03  0.34600250903E+03  0.25500000000E-02 0.  1.
         -2   -1    0    0    0  501 -0.00000000000E+00 -0.00000000000E+00 -0.10962941035E+03  0.10962941038E+03  0.25500000000E-02 0. -1.
    5000001    1    1    2    0    0  0.47050731573E+02  0.13960529281E+03  0.10651033525E+03  0.22175856384E+03  0.12700000000E+03 0.  0.
   -5000001    1    1    2    0    0 -0.47050731573E+02 -0.13960529281E+03  0.12986276342E+03  0.23387335557E+03  0.12700000000E+03 0.  0.
<mgrwt>
<rscale>  0 0.38952305E+03</rscale>
<asrwt>0</asrwt>
<pdfrwt beam="1">  1        2 0.49428930E-01 0.38952305E+03</pdfrwt>
<pdfrwt beam="2">  1       -2 0.15661344E-01 0.38952305E+03</pdfrwt>
<totfact> 0.32530501E+03</totfact>
</mgrwt>
</event>
<event>
 4    1  0.1390278E-004  0.6143107E+03  0.7818608E-02  0.9876153E-01
         -2   -1    0    0    0  501 -0.00000000000E+00  0.00000000000E+00  0.88794284784E+02  0.88794284821E+02  0.25500000000E-02 0. -1.
          2   -1    0    0  501    0  0.00000000000E+00 -0.00000000000E+00 -0.10625053764E+04  0.10625053764E+04  0.25500000000E-02 0.  1.
    5000001    1    1    2    0    0  0.12337229273E+03  0.17948190095E+03 -0.81566263477E+03  0.85373825564E+03  0.12700000000E+03 0.  0.
   -5000001    1    1    2    0    0 -0.12337229273E+03 -0.17948190095E+03 -0.15804845684E+03  0.29756140558E+03  0.12700000000E+03 0.  0.
<mgrwt>
<rscale>  0 0.61431069E+03</rscale>
<asrwt>0</asrwt>
<pdfrwt beam="1">  1        2 0.15178647E+00 0.61431069E+03</pdfrwt>
<pdfrwt beam="2">  1       -2 0.12684898E-01 0.61431069E+03</pdfrwt>
<totfact> 0.12007408E+03</totfact>
</mgrwt>
</event>
<event>
 4    1  0.1390278E-004  0.3499214E+03  0.7818608E-02  0.1062647E+00
         -2   -1    0    0    0  501 -0.00000000000E+00  0.00000000000E+00  0.29222928649E+03  0.29222928650E+03  0.25500000000E-02 0. -1.
          2   -1    0    0  501    0  0.00000000000E+00 -0.00000000000E+00 -0.10475077472E+03  0.10475077475E+03  0.25500000000E-02 0.  1.
    5000001    1    1    2    0    0 -0.99521775471E+02 -0.51927396312E+02  0.44533447379E+02  0.17525200774E+03  0.12700000000E+03 0.  0.
   -5000001    1    1    2    0    0  0.99521775471E+02  0.51927396312E+02  0.14294506439E+03  0.22172805351E+03  0.12700000000E+03 0.  0.
<mgrwt>
<rscale>  0 0.34992139E+03</rscale>
<asrwt>0</asrwt>
<pdfrwt beam="1">  1        2 0.14964396E-01 0.34992139E+03</pdfrwt>
<pdfrwt beam="2">  1       -2 0.41747041E-01 0.34992139E+03</pdfrwt>
<totfact> 0.21550134E+03</totfact>
</mgrwt>
</event>
<event>
 4    1  0.1390278E-004  0.3198013E+03  0.7818608E-02  0.1075741E+00
         -2   -1    0    0    0  501 -0.00000000000E+00  0.00000000000E+00  0.28185045019E+03  0.28185045020E+03  0.25500000000E-02 0. -1.
          2   -1    0    0  501    0  0.00000000000E+00 -0.00000000000E+00 -0.90715543357E+02  0.90715543392E+02  0.25500000000E-02 0.  1.
    5000001    1    1    2    0    0 -0.63974476933E+02 -0.60479534637E+02  0.47693378298E+02  0.16172249733E+03  0.12700000000E+03 0.  0.
   -5000001    1    1    2    0    0  0.63974476933E+02  0.60479534637E+02  0.14344152853E+03  0.21084349626E+03  0.12700000000E+03 0.  0.
<mgrwt>
<rscale>  0 0.31980129E+03</rscale>
<asrwt>0</asrwt>
<pdfrwt beam="1">  1        2 0.12959363E-01 0.31980129E+03</pdfrwt>
<pdfrwt beam="2">  1       -2 0.40264350E-01 0.31980129E+03</pdfrwt>
<totfact> 0.27416547E+03</totfact>
</mgrwt>
</event>
<event>
 4    1  0.1390278E-004  0.5640514E+03  0.7818608E-02  0.9982929E-01
          2   -1    0    0  501    0  0.00000000000E+00  0.00000000000E+00  0.36355275579E+03  0.36355275580E+03  0.25500000000E-02 0.  1.
         -2   -1    0    0    0  501 -0.00000000000E+00 -0.00000000000E+00 -0.21878117588E+03  0.21878117590E+03  0.25500000000E-02 0. -1.
    5000001    1    1    2    0    0 -0.21138243392E+02  0.20427645386E+03 -0.78055590978E+02  0.25376636936E+03  0.12700000000E+03 0.  0.
   -5000001    1    1    2    0    0  0.21138243392E+02 -0.20427645386E+03  0.22282717088E+03  0.32856756234E+03  0.12700000000E+03 0.  0.
<mgrwt>
<rscale>  0 0.56405141E+03</rscale>
<asrwt>0</asrwt>
<pdfrwt beam="1">  1        2 0.51936107E-01 0.56405141E+03</pdfrwt>
<pdfrwt beam="2">  1       -2 0.31254454E-01 0.56405141E+03</pdfrwt>
<totfact> 0.91633812E+02</totfact>
</mgrwt>
</event>
<event>
 4    1  0.1390278E-004  0.5397604E+03  0.7818608E-02  0.1003892E+00
         -2   -1    0    0    0  501 -0.00000000000E+00  0.00000000000E+00  0.35006265380E+02  0.35006265473E+02  0.25500000000E-02 0. -1.
          2   -1    0    0  501    0  0.00000000000E+00 -0.00000000000E+00 -0.20806370010E+04  0.20806370010E+04  0.25500000000E-02 0.  1.
    5000001    1    1    2    0    0  0.22658413441E+03 -0.44385570490E+02 -0.12512267325E+04  0.12786742294E+04  0.12700000000E+03 0.  0.
   -5000001    1    1    2    0    0 -0.22658413441E+03  0.44385570490E+02 -0.79440400315E+03  0.83696903710E+03  0.12700000000E+03 0.  0.
<mgrwt>
<rscale>  0 0.53976043E+03</rscale>
<asrwt>0</asrwt>
<pdfrwt beam="1">  1        2 0.29723378E+00 0.53976043E+03</pdfrwt>
<pdfrwt beam="2">  1       -2 0.50008964E-02 0.53976043E+03</pdfrwt>
<totfact> 0.15528191E+03</totfact>
</mgrwt>
</event>
<event>
 4    1  0.1390278E-004  0.4546743E+03  0.7818608E-02  0.1026337E+00
         -2   -1    0    0    0  501 -0.00000000000E+00  0.00000000000E+00  0.35662922428E+02  0.35662922519E+02  0.25500000000E-02 0. -1.
          2   -1    0    0  501    0  0.00000000000E+00 -0.00000000000E+00 -0.14491849467E+04  0.14491849467E+04  0.25500000000E-02 0.  1.
    5000001    1    1    2    0    0  0.90127861697E+02  0.16325438888E+03 -0.61566246940E+03  0.65570138262E+03  0.12700000000E+03 0.  0.
   -5000001    1    1    2    0    0 -0.90127861697E+02 -0.16325438888E+03 -0.79785955487E+03  0.82914648660E+03  0.12700000000E+03 0.  0.
<mgrwt>
<rscale>  0 0.45467426E+03</rscale>
<asrwt>0</asrwt>
<pdfrwt beam="1">  1        2 0.20702638E+00 0.45467426E+03</pdfrwt>
<pdfrwt beam="2">  1       -2 0.50947041E-02 0.45467426E+03</pdfrwt>
<totfact> 0.31535212E+03</totfact>
</mgrwt>
</event>
<event>
 4    1  0.1390278E-004  0.3462063E+03  0.7818608E-02  0.1064183E+00
          2   -1    0    0  501    0  0.00000000000E+00  0.00000000000E+00  0.87615426516E+02  0.87615426553E+02  0.25500000000E-02 0.  1.
         -2   -1    0    0    0  501 -0.00000000000E+00 -0.00000000000E+00 -0.34200259846E+03  0.34200259847E+03  0.25500000000E-02 0. -1.
    5000001    1    1    2    0    0 -0.10101612416E+03  0.25724771510E+02 -0.19481784255E+03  0.25485096230E+03  0.12700000000E+03 0.  0.
   -5000001    1    1    2    0    0  0.10101612416E+03 -0.25724771510E+02 -0.59569329393E+02  0.17476706272E+03  0.12700000000E+03 0.  0.
<mgrwt>
<rscale>  0 0.34620632E+03</rscale>
<asrwt>0</asrwt>
<pdfrwt beam="1">  1        2 0.12516490E-01 0.34620632E+03</pdfrwt>
<pdfrwt beam="2">  1       -2 0.48857513E-01 0.34620632E+03</pdfrwt>
<totfact> 0.19623857E+03</totfact>
</mgrwt>
</event>
<event>
 4    1  0.1390278E-004  0.8739840E+03  0.7818608E-02  0.9458700E-01
          2   -1    0    0  501    0  0.00000000000E+00  0.00000000000E+00  0.84427311583E+03  0.84427311584E+03  0.25500000000E-02 0.  1.
         -2   -1    0    0    0  501 -0.00000000000E+00 -0.00000000000E+00 -0.22618508607E+03  0.22618508608E+03  0.25500000000E-02 0. -1.
    5000001    1    1    2    0    0  0.37569282031E+03  0.18341340597E+03  0.31747780086E+03  0.54009881203E+03  0.12700000000E+03 0.  0.
   -5000001    1    1    2    0    0 -0.37569282031E+03 -0.18341340597E+03  0.30061022891E+03  0.53035938989E+03  0.12700000000E+03 0.  0.
<mgrwt>
<rscale>  0 0.87398395E+03</rscale>
<asrwt>0</asrwt>
<pdfrwt beam="1">  1        2 0.12061044E+00 0.87398395E+03</pdfrwt>
<pdfrwt beam="2">  1       -2 0.32312156E-01 0.87398395E+03</pdfrwt>
<totfact> 0.31622645E+02</totfact>
</mgrwt>
</event>
<event>
 4    1  0.1390278E-004  0.3251794E+03  0.7818608E-02  0.1073290E+00
          2   -1    0    0  501    0  0.00000000000E+00  0.00000000000E+00  0.21310260333E+03  0.21310260334E+03  0.25500000000E-02 0.  1.
         -2   -1    0    0    0  501 -0.00000000000E+00 -0.00000000000E+00 -0.12405014393E+03  0.12405014395E+03  0.25500000000E-02 0. -1.
    5000001    1    1    2    0    0 -0.27966192906E+02 -0.83108577081E+02 -0.85167056520E+01  0.15456609526E+03  0.12700000000E+03 0.  0.
   -5000001    1    1    2    0    0  0.27966192906E+02  0.83108577081E+02  0.97569165053E+02  0.18258665203E+03  0.12700000000E+03 0.  0.
<mgrwt>
<rscale>  0 0.32517939E+03</rscale>
<asrwt>0</asrwt>
<pdfrwt beam="1">  1        2 0.30443229E-01 0.32517939E+03</pdfrwt>
<pdfrwt beam="2">  1       -2 0.17721449E-01 0.32517939E+03</pdfrwt>
<totfact> 0.44658414E+03</totfact>
</mgrwt>
</event>
<event>
 4    1  0.1390278E-004  0.2932268E+03  0.7818608E-02  0.1088676E+00
         -2   -1    0    0    0  501 -0.00000000000E+00  0.00000000000E+00  0.29334935799E+02  0.29334935910E+02  0.25500000000E-02 0. -1.
          2   -1    0    0  501    0  0.00000000000E+00 -0.00000000000E+00 -0.73276064547E+03  0.73276064548E+03  0.25500000000E-02 0.  1.
    5000001    1    1    2    0    0 -0.69190952674E+02 -0.14188501311E+02 -0.30119694462E+03  0.33442084407E+03  0.12700000000E+03 0.  0.
   -5000001    1    1    2    0    0  0.69190952674E+02  0.14188501311E+02 -0.40222876505E+03  0.42767473732E+03  0.12700000000E+03 0.  0.
<mgrwt>
<rscale>  0 0.29322678E+03</rscale>
<asrwt>0</asrwt>
<pdfrwt beam="1">  1        2 0.10468008E+00 0.29322678E+03</pdfrwt>
<pdfrwt beam="2">  1       -2 0.41907056E-02 0.29322678E+03</pdfrwt>
<totfact> 0.11110420E+04</totfact>
</mgrwt>
</event>
<event>
 4    1  0.1390278E-004  0.9011736E+03  0.7818608E-02  0.9424116E-01
         -2   -1    0    0    0  501 -0.00000000000E+00  0.00000000000E+00  0.26179969448E+03  0.26179969450E+03  0.25500000000E-02 0.  1.
          2   -1    0    0  501    0  0.00000000000E+00 -0.00000000000E+00 -0.77551077478E+03  0.77551077478E+03  0.25500000000E-02 0. -1.
    5000001    1    1    2    0    0  0.26604071623E+02  0.43146906269E+03 -0.25096873694E+03  0.51573989143E+03  0.12700000000E+03 0.  0.
   -5000001    1    1    2    0    0 -0.26604071623E+02 -0.43146906269E+03 -0.26274234335E+03  0.52157057785E+03  0.12700000000E+03 0.  0.
<mgrwt>
<rscale>  0 0.90117364E+03</rscale>
<asrwt>0</asrwt>
<pdfrwt beam="1">  1        2 0.11078725E+00 0.90117364E+03</pdfrwt>
<pdfrwt beam="2">  1       -2 0.37399957E-01 0.90117364E+03</pdfrwt>
<totfact> 0.26695460E+02</totfact>
</mgrwt>
</event>
<event>
 4    1  0.1390278E-004  0.1075830E+04  0.7818608E-02  0.9229075E-01
         -2   -1    0    0    0  501 -0.00000000000E+00  0.00000000000E+00  0.91052470310E+02  0.91052470346E+02  0.25500000000E-02 0. -1.
          2   -1    0    0  501    0  0.00000000000E+00 -0.00000000000E+00 -0.31778653452E+04  0.31778653452E+04  0.25500000000E-02 0.  1.
    5000001    1    1    2    0    0 -0.15996334505E+02  0.51865690002E+03 -0.13521341668E+04  0.14538420367E+04  0.12700000000E+03 0.  0.
   -5000001    1    1    2    0    0  0.15996334505E+02 -0.51865690002E+03 -0.17346787081E+04  0.18150757789E+04  0.12700000000E+03 0.  0.
<mgrwt>
<rscale>  0 0.10758299E+04</rscale>
<asrwt>0</asrwt>
<pdfrwt beam="1">  1        2 0.45398069E+00 0.10758299E+04</pdfrwt>
<pdfrwt beam="2">  1       -2 0.13007498E-01 0.10758299E+04</pdfrwt>
<totfact> 0.84583694E+01</totfact>
</mgrwt>
</event>
<event>
 4    1  0.1390278E-004  0.3072495E+03  0.7818608E-02  0.1081672E+00
         -2   -1    0    0    0  501 -0.00000000000E+00  0.00000000000E+00  0.22072038615E+03  0.22072038616E+03  0.25500000000E-02 0. -1.
          2   -1    0    0  501    0  0.00000000000E+00 -0.00000000000E+00 -0.10692518402E+03  0.10692518405E+03  0.25500000000E-02 0.  1.
    5000001    1    1    2    0    0 -0.63079009735E+02 -0.34632871749E+02  0.10796353327E+03  0.18155859052E+03  0.12700000000E+03 0.  0.
   -5000001    1    1    2    0    0  0.63079009735E+02  0.34632871749E+02  0.58316688568E+01  0.14608697969E+03  0.12700000000E+03 0.  0.
<mgrwt>
<rscale>  0 0.30724953E+03</rscale>
<asrwt>0</asrwt>
<pdfrwt beam="1">  1        2 0.15275026E-01 0.30724953E+03</pdfrwt>
<pdfrwt beam="2">  1       -2 0.31531484E-01 0.30724953E+03</pdfrwt>
<totfact> 0.35572811E+03</totfact>
</mgrwt>
</event>
<event>
 4    1  0.1390278E-004  0.3285788E+03  0.7818608E-02  0.1071767E+00
         -2   -1    0    0    0  501 -0.00000000000E+00  0.00000000000E+00  0.13196360003E+02  0.13196360249E+02  0.25500000000E-02 0.  1.
          2   -1    0    0  501    0  0.00000000000E+00 -0.00000000000E+00 -0.20453376085E+04  0.20453376085E+04  0.25500000000E-02 0. -1.
    5000001    1    1    2    0    0 -0.73887117533E+02  0.50305961389E+02 -0.13518174160E+04  0.13607091247E+04  0.12700000000E+03 0.  0.
   -5000001    1    1    2    0    0  0.73887117533E+02 -0.50305961389E+02 -0.68032383256E+03  0.69782484410E+03  0.12700000000E+03 0.  0.
<mgrwt>
<rscale>  0 0.32857883E+03</rscale>
<asrwt>0</asrwt>
<pdfrwt beam="1">  1        2 0.29219088E+00 0.32857883E+03</pdfrwt>
<pdfrwt beam="2">  1       -2 0.18851956E-02 0.32857883E+03</pdfrwt>
<totfact> 0.70908448E+03</totfact>
</mgrwt>
</event>
<event>
 4    1  0.1390278E-004  0.4329001E+03  0.7818608E-02  0.1032948E+00
          2   -1    0    0  501    0  0.00000000000E+00  0.00000000000E+00  0.47541588319E+03  0.47541588320E+03  0.25500000000E-02 0.  1.
         -2   -1    0    0    0  501 -0.00000000000E+00 -0.00000000000E+00 -0.98546623659E+02  0.98546623692E+02  0.25500000000E-02 0. -1.
    5000001    1    1    2    0    0 -0.47551086059E+01 -0.17015951549E+03  0.13305329043E+03  0.25061733752E+03  0.12700000000E+03 0.  0.
   -5000001    1    1    2    0    0  0.47551086059E+01  0.17015951549E+03  0.24381596910E+03  0.32334516938E+03  0.12700000000E+03 0.  0.
<mgrwt>
<rscale>  0 0.43290013E+03</rscale>
<asrwt>0</asrwt>
<pdfrwt beam="1">  1        2 0.67916553E-01 0.43290013E+03</pdfrwt>
<pdfrwt beam="2">  1       -2 0.14078089E-01 0.43290013E+03</pdfrwt>
<totfact> 0.27434945E+03</totfact>
</mgrwt>
</event>
<event>
 4    1  0.1390278E-004  0.3436953E+03  0.7818608E-02  0.1065233E+00
         -2   -1    0    0    0  501 -0.00000000000E+00  0.00000000000E+00  0.44509626465E+02  0.44509626538E+02  0.25500000000E-02 0. -1.
          2   -1    0    0  501    0  0.00000000000E+00 -0.00000000000E+00 -0.66348811367E+03  0.66348811368E+03  0.25500000000E-02 0.  1.
    5000001    1    1    2    0    0  0.20964316961E+02 -0.10540508507E+03 -0.22081832194E+03  0.27647688122E+03  0.12700000000E+03 0.  0.
   -5000001    1    1    2    0    0 -0.20964316961E+02  0.10540508507E+03 -0.39816016527E+03  0.43152085900E+03  0.12700000000E+03 0.  0.
<mgrwt>
<rscale>  0 0.34369526E+03</rscale>
<asrwt>0</asrwt>
<pdfrwt beam="1">  1        2 0.94784010E-01 0.34369526E+03</pdfrwt>
<pdfrwt beam="2">  1       -2 0.63585185E-02 0.34369526E+03</pdfrwt>
<totfact> 0.66464240E+03</totfact>
</mgrwt>
</event>
<event>
 4    1  0.1390278E-004  0.4035720E+03  0.7818608E-02  0.1042550E+00
         -2   -1    0    0    0  501 -0.00000000000E+00  0.00000000000E+00  0.59964657665E+02  0.59964657719E+02  0.25500000000E-02 0. -1.
          2   -1    0    0  501    0  0.00000000000E+00 -0.00000000000E+00 -0.67902633905E+03  0.67902633905E+03  0.25500000000E-02 0.  1.
    5000001    1    1    2    0    0 -0.22670697823E+02  0.15014133250E+03 -0.38120723257E+03  0.42953967736E+03  0.12700000000E+03 0.  0.
   -5000001    1    1    2    0    0  0.22670697823E+02 -0.15014133250E+03 -0.23785444881E+03  0.30945131941E+03  0.12700000000E+03 0.  0.
<mgrwt>
<rscale>  0 0.40357196E+03</rscale>
<asrwt>0</asrwt>
<pdfrwt beam="1">  1        2 0.97003759E-01 0.40357196E+03</pdfrwt>
<pdfrwt beam="2">  1       -2 0.85663800E-02 0.40357196E+03</pdfrwt>
<totfact> 0.40672423E+03</totfact>
</mgrwt>
</event>
<event>
 4    1  0.1390278E-004  0.4863227E+03  0.7818608E-02  0.1017412E+00
          2   -1    0    0  501    0  0.00000000000E+00  0.00000000000E+00  0.93624191228E+03  0.93624191229E+03  0.25500000000E-02 0.  1.
         -2   -1    0    0    0  501 -0.00000000000E+00 -0.00000000000E+00 -0.63154015984E+02  0.63154016035E+02  0.25500000000E-02 0. -1.
    5000001    1    1    2    0    0 -0.17217495713E+03 -0.10271687156E+03  0.54535189992E+03  0.59475429071E+03  0.12700000000E+03 0.  0.
   -5000001    1    1    2    0    0  0.17217495713E+03  0.10271687156E+03  0.32773599638E+03  0.40464163761E+03  0.12700000000E+03 0.  0.
<mgrwt>
<rscale>  0 0.48632268E+03</rscale>
<asrwt>0</asrwt>
<pdfrwt beam="1">  1        2 0.13374884E+00 0.48632268E+03</pdfrwt>
<pdfrwt beam="2">  1       -2 0.90220027E-02 0.48632268E+03</pdfrwt>
<totfact> 0.24983598E+03</totfact>
</mgrwt>
</event>
<event>
 4    1  0.1390278E-004  0.3665775E+03  0.7818608E-02  0.1056009E+00
          2   -1    0    0  501    0  0.00000000000E+00  0.00000000000E+00  0.26881565120E+03  0.26881565121E+03  0.25500000000E-02 0.  1.
         -2   -1    0    0    0  501 -0.00000000000E+00 -0.00000000000E+00 -0.12497326748E+03  0.12497326751E+03  0.25500000000E-02 0. -1.
    5000001    1    1    2    0    0  0.12702642885E+03  0.34989696134E+02  0.60872904104E+02  0.19285876417E+03  0.12700000000E+03 0.  0.
   -5000001    1    1    2    0    0 -0.12702642885E+03 -0.34989696134E+02  0.82969479610E+02  0.20093015455E+03  0.12700000000E+03 0.  0.
<mgrwt>
<rscale>  0 0.36657752E+03</rscale>
<asrwt>0</asrwt>
<pdfrwt beam="1">  1        2 0.38402235E-01 0.36657752E+03</pdfrwt>
<pdfrwt beam="2">  1       -2 0.17853324E-01 0.36657752E+03</pdfrwt>
<totfact> 0.34291718E+03</totfact>
</mgrwt>
</event>
<event>
 4    1  0.1390278E-004  0.4592925E+03  0.7818608E-02  0.1024987E+00
          2   -1    0    0  501    0  0.00000000000E+00  0.00000000000E+00  0.45463232095E+03  0.45463232096E+03  0.25500000000E-02 0.  1.
         -2   -1    0    0    0  501 -0.00000000000E+00 -0.00000000000E+00 -0.11600013419E+03  0.11600013422E+03  0.25500000000E-02 0. -1.
    5000001    1    1    2    0    0 -0.99717899712E+02 -0.14557561852E+03  0.77406771329E+02  0.23077419370E+03  0.12700000000E+03 0.  0.
   -5000001    1    1    2    0    0  0.99717899712E+02  0.14557561852E+03  0.26122541543E+03  0.33985826148E+03  0.12700000000E+03 0.  0.
<mgrwt>
<rscale>  0 0.45929254E+03</rscale>
<asrwt>0</asrwt>
<pdfrwt beam="1">  1        2 0.64947477E-01 0.45929254E+03</pdfrwt>
<pdfrwt beam="2">  1       -2 0.16571447E-01 0.45929254E+03</pdfrwt>
<totfact> 0.21958051E+03</totfact>
</mgrwt>
</event>
<event>
 4    1  0.1390278E-004  0.6641597E+03  0.7818608E-02  0.9780566E-01
         -2   -1    0    0    0  501 -0.00000000000E+00  0.00000000000E+00  0.25719633065E+02  0.25719633192E+02  0.25500000000E-02 0. -1.
          2   -1    0    0  501    0  0.00000000000E+00 -0.00000000000E+00 -0.42876591913E+04  0.42876591913E+04  0.25500000000E-02 0.  1.
    5000001    1    1    2    0    0  0.19692865398E+03 -0.20245020082E+03 -0.29097954937E+04  0.29262272287E+04  0.12700000000E+03 0.  0.
   -5000001    1    1    2    0    0 -0.19692865398E+03  0.20245020082E+03 -0.13521440645E+04  0.13871515958E+04  0.12700000000E+03 0.  0.
<mgrwt>
<rscale>  0 0.66415968E+03</rscale>
<asrwt>0</asrwt>
<pdfrwt beam="1">  1        2 0.61252229E+00 0.66415968E+03</pdfrwt>
<pdfrwt beam="2">  1       -2 0.36742360E-02 0.66415968E+03</pdfrwt>
<totfact> 0.13132516E+02</totfact>
</mgrwt>
</event>
<event>
 4    1  0.1390278E-004  0.5395132E+03  0.7818608E-02  0.1003951E+00
         -2   -1    0    0    0  501 -0.00000000000E+00  0.00000000000E+00  0.78362212555E+02  0.78362212597E+02  0.25500000000E-02 0. -1.
          2   -1    0    0  501    0  0.00000000000E+00 -0.00000000000E+00 -0.92861889929E+03  0.92861889929E+03  0.25500000000E-02 0.  1.
    5000001    1    1    2    0    0 -0.23420872795E+03 -0.32449769757E+02 -0.47565799024E+03  0.54615587471E+03  0.12700000000E+03 0.  0.
   -5000001    1    1    2    0    0  0.23420872795E+03  0.32449769757E+02 -0.37459869649E+03  0.46082523717E+03  0.12700000000E+03 0.  0.
<mgrwt>
<rscale>  0 0.53951323E+03</rscale>
<asrwt>0</asrwt>
<pdfrwt beam="1">  1        2 0.13265984E+00 0.53951323E+03</pdfrwt>
<pdfrwt beam="2">  1       -2 0.11194602E-01 0.53951323E+03</pdfrwt>
<totfact> 0.17821964E+03</totfact>
</mgrwt>
</event>
<event>
 4    1  0.1390278E-004  0.7112889E+03  0.7818608E-02  0.9698119E-01
          2   -1    0    0  501    0  0.00000000000E+00  0.00000000000E+00  0.67693501466E+03  0.67693501467E+03  0.25500000000E-02 0.  1.
         -2   -1    0    0    0  501 -0.00000000000E+00 -0.00000000000E+00 -0.18684657610E+03  0.18684657612E+03  0.25500000000E-02 0. -1.
    5000001    1    1    2    0    0 -0.25003570939E+03  0.17988620538E+03  0.39612266122E+03  0.51760898909E+03  0.12700000000E+03 0.  0.
   -5000001    1    1    2    0    0  0.25003570939E+03 -0.17988620538E+03  0.93965777344E+02  0.34617260170E+03  0.12700000000E+03 0.  0.
<mgrwt>
<rscale>  0 0.71128894E+03</rscale>
<asrwt>0</asrwt>
<pdfrwt beam="1">  1        2 0.96705002E-01 0.71128894E+03</pdfrwt>
<pdfrwt beam="2">  1       -2 0.26692368E-01 0.71128894E+03</pdfrwt>
<totfact> 0.59895626E+02</totfact>
</mgrwt>
</event>
<event>
 4    1  0.1390278E-004  0.3251410E+03  0.7818608E-02  0.1073307E+00
          2   -1    0    0  501    0  0.00000000000E+00  0.00000000000E+00  0.15283349982E+04  0.15283349982E+04  0.25500000000E-02 0.  1.
         -2   -1    0    0    0  501 -0.00000000000E+00 -0.00000000000E+00 -0.17292782160E+02  0.17292782348E+02  0.25500000000E-02 0. -1.
    5000001    1    1    2    0    0 -0.71439362440E+02  0.38305847059E+02  0.10458188103E+04  0.10566157790E+04  0.12700000000E+03 0.  0.
   -5000001    1    1    2    0    0  0.71439362440E+02 -0.38305847059E+02  0.46522340572E+03  0.48901200155E+03  0.12700000000E+03 0.  0.
<mgrwt>
<rscale>  0 0.32514098E+03</rscale>
<asrwt>0</asrwt>
<pdfrwt beam="1">  1        2 0.21833365E+00 0.32514098E+03</pdfrwt>
<pdfrwt beam="2">  1       -2 0.24703966E-02 0.32514098E+03</pdfrwt>
<totfact> 0.85655331E+03</totfact>
</mgrwt>
</event>
<event>
 4    1  0.1390278E-004  0.7176905E+03  0.7818608E-02  0.9687448E-01
         -2   -1    0    0    0  501 -0.00000000000E+00  0.00000000000E+00  0.14844460792E+03  0.14844460794E+03  0.25500000000E-02 0. -1.
          2   -1    0    0  501    0  0.00000000000E+00 -0.00000000000E+00 -0.86746099113E+03  0.86746099113E+03  0.25500000000E-02 0.  1.
    5000001    1    1    2    0    0 -0.30593683347E+03 -0.54082959041E+02 -0.17979508633E+03  0.38075922261E+03  0.12700000000E+03 0.  0.
   -5000001    1    1    2    0    0  0.30593683347E+03  0.54082959041E+02 -0.53922129688E+03  0.63514637647E+03  0.12700000000E+03 0.  0.
<mgrwt>
<rscale>  0 0.71769048E+03</rscale>
<asrwt>0</asrwt>
<pdfrwt beam="1">  1        2 0.12392300E+00 0.71769048E+03</pdfrwt>
<pdfrwt beam="2">  1       -2 0.21206373E-01 0.71769048E+03</pdfrwt>
<totfact> 0.65991711E+02</totfact>
</mgrwt>
</event>
<event>
 4    1  0.1390278E-004  0.6370932E+03  0.7818608E-02  0.9831304E-01
         -2   -1    0    0    0  501 -0.00000000000E+00  0.00000000000E+00  0.19572753829E+03  0.19572753831E+03  0.25500000000E-02 0.  1.
          2   -1    0    0  501    0  0.00000000000E+00 -0.00000000000E+00 -0.51843463459E+03  0.51843463460E+03  0.25500000000E-02 0. -1.
    5000001    1    1    2    0    0 -0.84600512100E+02  0.21854214827E+03  0.34174603925E+02  0.26872815403E+03  0.12700000000E+03 0.  0.
   -5000001    1    1    2    0    0  0.84600512100E+02 -0.21854214827E+03 -0.35688170022E+03  0.44543401887E+03  0.12700000000E+03 0.  0.
<mgrwt>
<rscale>  0 0.63709320E+03</rscale>
<asrwt>0</asrwt>
<pdfrwt beam="1">  1        2 0.74062090E-01 0.63709320E+03</pdfrwt>
<pdfrwt beam="2">  1       -2 0.27961077E-01 0.63709320E+03</pdfrwt>
<totfact> 0.75505535E+02</totfact>
</mgrwt>
</event>
<event>
 4    1  0.1390278E-004  0.3536005E+03  0.7818608E-02  0.1061147E+00
         -2   -1    0    0    0  501 -0.00000000000E+00  0.00000000000E+00  0.19698077376E+02  0.19698077541E+02  0.25500000000E-02 0. -1.
          2   -1    0    0  501    0  0.00000000000E+00 -0.00000000000E+00 -0.15868716622E+04  0.15868716622E+04  0.25500000000E-02 0.  1.
    5000001    1    1    2    0    0  0.11819377707E+03  0.24783295263E+02 -0.88968805308E+03  0.90678432522E+03  0.12700000000E+03 0.  0.
   -5000001    1    1    2    0    0 -0.11819377707E+03 -0.24783295263E+02 -0.67748553175E+03  0.69978541453E+03  0.12700000000E+03 0.  0.
<mgrwt>
<rscale>  0 0.35360046E+03</rscale>
<asrwt>0</asrwt>
<pdfrwt beam="1">  1        2 0.22669587E+00 0.35360046E+03</pdfrwt>
<pdfrwt beam="2">  1       -2 0.28140121E-02 0.35360046E+03</pdfrwt>
<totfact> 0.65963451E+03</totfact>
</mgrwt>
</event>
<event>
 4    1  0.1390278E-004  0.3449834E+03  0.7818608E-02  0.1064693E+00
          2   -1    0    0  501    0  0.00000000000E+00  0.00000000000E+00  0.82595048936E+03  0.82595048936E+03  0.25500000000E-02 0.  1.
         -2   -1    0    0    0  501 -0.00000000000E+00 -0.00000000000E+00 -0.36023204518E+02  0.36023204608E+02  0.25500000000E-02 0. -1.
    5000001    1    1    2    0    0 -0.93500272952E+02  0.69803642066E+02  0.38724870642E+03  0.42391674904E+03  0.12700000000E+03 0.  0.
   -5000001    1    1    2    0    0  0.93500272952E+02 -0.69803642066E+02  0.40267857841E+03  0.43805694493E+03  0.12700000000E+03 0.  0.
<mgrwt>
<rscale>  0 0.34498338E+03</rscale>
<asrwt>0</asrwt>
<pdfrwt beam="1">  1        2 0.11799292E+00 0.34498338E+03</pdfrwt>
<pdfrwt beam="2">  1       -2 0.51461724E-02 0.34498338E+03</pdfrwt>
<totfact> 0.70482679E+03</totfact>
</mgrwt>
</event>
<event>
 4    1  0.1390278E-004  0.4785745E+03  0.7818608E-02  0.1019528E+00
          2   -1    0    0  501    0  0.00000000000E+00  0.00000000000E+00  0.59790739074E+03  0.59790739075E+03  0.25500000000E-02 0.  1.
         -2   -1    0    0    0  501 -0.00000000000E+00 -0.00000000000E+00 -0.95764646173E+02  0.95764646207E+02  0.25500000000E-02 0. -1.
    5000001    1    1    2    0    0 -0.16413678790E+03  0.11721812420E+03  0.28176478310E+03  0.36905469348E+03  0.12700000000E+03 0.  0.
   -5000001    1    1    2    0    0  0.16413678790E+03 -0.11721812420E+03  0.22037796147E+03  0.32461734347E+03  0.12700000000E+03 0.  0.
<mgrwt>
<rscale>  0 0.47857451E+03</rscale>
<asrwt>0</asrwt>
<pdfrwt beam="1">  1        2 0.85415340E-01 0.47857451E+03</pdfrwt>
<pdfrwt beam="2">  1       -2 0.13680664E-01 0.47857451E+03</pdfrwt>
<totfact> 0.22175107E+03</totfact>
</mgrwt>
</event>
<event>
 4    1  0.1390278E-004  0.4668367E+03  0.7818608E-02  0.1022817E+00
         -2   -1    0    0    0  501 -0.00000000000E+00  0.00000000000E+00  0.32045510354E+02  0.32045510456E+02  0.25500000000E-02 0. -1.
          2   -1    0    0  501    0  0.00000000000E+00 -0.00000000000E+00 -0.17002105465E+04  0.17002105465E+04  0.25500000000E-02 0.  1.
    5000001    1    1    2    0    0 -0.18548542635E+03  0.17340494067E+02 -0.60991715606E+03  0.65025646739E+03  0.12700000000E+03 0.  0.
   -5000001    1    1    2    0    0  0.18548542635E+03 -0.17340494067E+02 -0.10582478801E+04  0.10819995896E+04  0.12700000000E+03 0.  0.
<mgrwt>
<rscale>  0 0.46683665E+03</rscale>
<asrwt>0</asrwt>
<pdfrwt beam="1">  1        2 0.24288716E+00 0.46683665E+03</pdfrwt>
<pdfrwt beam="2">  1       -2 0.45779311E-02 0.46683665E+03</pdfrwt>
<totfact> 0.27665419E+03</totfact>
</mgrwt>
</event>
<event>
 4    1  0.1390278E-004  0.3276399E+03  0.7818608E-02  0.1072186E+00
          2   -1    0    0  501    0  0.00000000000E+00  0.00000000000E+00  0.33042549533E+03  0.33042549534E+03  0.25500000000E-02 0.  1.
         -2   -1    0    0    0  501 -0.00000000000E+00 -0.00000000000E+00 -0.81219422400E+02  0.81219422440E+02  0.25500000000E-02 0. -1.
    5000001    1    1    2    0    0  0.10283604572E+03 -0.94650724495E+01  0.11635205428E+03  0.20082738964E+03  0.12700000000E+03 0.  0.
   -5000001    1    1    2    0    0 -0.10283604572E+03  0.94650724495E+01  0.13285401865E+03  0.21081752813E+03  0.12700000000E+03 0.  0.
<mgrwt>
<rscale>  0 0.32763985E+03</rscale>
<asrwt>0</asrwt>
<pdfrwt beam="1">  1        2 0.47203643E-01 0.32763985E+03</pdfrwt>
<pdfrwt beam="2">  1       -2 0.11602774E-01 0.32763985E+03</pdfrwt>
<totfact> 0.55777842E+03</totfact>
</mgrwt>
</event>
<event>
 4    1  0.1390278E-004  0.7519187E+03  0.7818608E-02  0.9632345E-01
         -2   -1    0    0    0  501 -0.00000000000E+00  0.00000000000E+00  0.29104886350E+03  0.29104886351E+03  0.25500000000E-02 0. -1.
          2   -1    0    0  501    0  0.00000000000E+00 -0.00000000000E+00 -0.48564153022E+03  0.48564153022E+03  0.25500000000E-02 0.  1.
    5000001    1    1    2    0    0 -0.12026116074E+03  0.98418221982E+02  0.23108834375E+03  0.30607142274E+03  0.12700000000E+03 0.  0.
   -5000001    1    1    2    0    0  0.12026116074E+03 -0.98418221982E+02 -0.42568101046E+03  0.47061897100E+03  0.12700000000E+03 0.  0.
<mgrwt>
<rscale>  0 0.75191865E+03</rscale>
<asrwt>0</asrwt>
<pdfrwt beam="1">  1        2 0.69377362E-01 0.75191865E+03</pdfrwt>
<pdfrwt beam="2">  1       -2 0.41578409E-01 0.75191865E+03</pdfrwt>
<totfact> 0.38285422E+02</totfact>
</mgrwt>
</event>
<event>
 4    1  0.1390278E-004  0.7354158E+03  0.7818608E-02  0.9658513E-01
         -2   -1    0    0    0  501 -0.00000000000E+00  0.00000000000E+00  0.58899811030E+02  0.58899811086E+02  0.25500000000E-02 0. -1.
          2   -1    0    0  501    0  0.00000000000E+00 -0.00000000000E+00 -0.22955779986E+04  0.22955779986E+04  0.25500000000E-02 0.  1.
    5000001    1    1    2    0    0 -0.11575761157E+03  0.31129279050E+03 -0.81839745228E+03  0.89230399302E+03  0.12700000000E+03 0.  0.
   -5000001    1    1    2    0    0  0.11575761157E+03 -0.31129279050E+03 -0.14182807353E+04  0.14621738166E+04  0.12700000000E+03 0.  0.
<mgrwt>
<rscale>  0 0.73541583E+03</rscale>
<asrwt>0</asrwt>
<pdfrwt beam="1">  1        2 0.32793966E+00 0.73541583E+03</pdfrwt>
<pdfrwt beam="2">  1       -2 0.84142601E-02 0.73541583E+03</pdfrwt>
<totfact> 0.52636638E+02</totfact>
</mgrwt>
</event>
<event>
 4    1  0.1390278E-004  0.2948913E+03  0.7818608E-02  0.1087823E+00
         -2   -1    0    0    0  501 -0.00000000000E+00  0.00000000000E+00  0.21353671619E+02  0.21353671771E+02  0.25500000000E-02 0. -1.
          2   -1    0    0  501    0  0.00000000000E+00 -0.00000000000E+00 -0.10181019622E+04  0.10181019622E+04  0.25500000000E-02 0.  1.
    5000001    1    1    2    0    0 -0.23089730624E+02 -0.70762916714E+02 -0.46873811688E+03  0.49130942211E+03  0.12700000000E+03 0.  0.
   -5000001    1    1    2    0    0  0.23089730624E+02  0.70762916714E+02 -0.52801017366E+03  0.54814621182E+03  0.12700000000E+03 0.  0.
<mgrwt>
<rscale>  0 0.29489127E+03</rscale>
<asrwt>0</asrwt>
<pdfrwt beam="1">  1        2 0.14544311E+00 0.29489127E+03</pdfrwt>
<pdfrwt beam="2">  1       -2 0.30505252E-02 0.29489127E+03</pdfrwt>
<totfact> 0.11738980E+04</totfact>
</mgrwt>
</event>
<event>
 4    1  0.1390278E-004  0.4267054E+03  0.7818608E-02  0.1034906E+00
          2   -1    0    0  501    0  0.00000000000E+00  0.00000000000E+00  0.17561246891E+04  0.17561246891E+04  0.25500000000E-02 0.  1.
         -2   -1    0    0    0  501 -0.00000000000E+00 -0.00000000000E+00 -0.25920354698E+02  0.25920354823E+02  0.25500000000E-02 0. -1.
    5000001    1    1    2    0    0  0.77887146836E+02 -0.15247134429E+03  0.90161938465E+03  0.92647743267E+03  0.12700000000E+03 0.  0.
   -5000001    1    1    2    0    0 -0.77887146836E+02  0.15247134429E+03  0.82858494971E+03  0.85556761121E+03  0.12700000000E+03 0.  0.
<mgrwt>
<rscale>  0 0.42670540E+03</rscale>
<asrwt>0</asrwt>
<pdfrwt beam="1">  1        2 0.25087500E+00 0.42670540E+03</pdfrwt>
<pdfrwt beam="2">  1       -2 0.37029072E-02 0.42670540E+03</pdfrwt>
<totfact> 0.35880593E+03</totfact>
</mgrwt>
</event>
<event>
 4    1  0.1390278E-004  0.3756801E+03  0.7818608E-02  0.1052542E+00
         -2   -1    0    0    0  501 -0.00000000000E+00  0.00000000000E+00  0.77685451376E+01  0.77685455561E+01  0.25500000000E-02 0. -1.
          2   -1    0    0  501    0  0.00000000000E+00 -0.00000000000E+00 -0.45418896336E+04  0.45418896336E+04  0.25500000000E-02 0.  1.
    5000001    1    1    2    0    0 -0.73141054119E+02 -0.10521193671E+03 -0.29004862350E+04  0.29060916305E+04  0.12700000000E+03 0.  0.
   -5000001    1    1    2    0    0  0.73141054119E+02  0.10521193671E+03 -0.16336348534E+04  0.16435665486E+04  0.12700000000E+03 0.  0.
<mgrwt>
<rscale>  0 0.37568005E+03</rscale>
<asrwt>0</asrwt>
<pdfrwt beam="1">  1        2 0.64883968E+00 0.37568005E+03</pdfrwt>
<pdfrwt beam="2">  1       -2 0.11097951E-02 0.37568005E+03</pdfrwt>
<totfact> 0.53610205E+02</totfact>
</mgrwt>
</event>
<event>
 4    1  0.1390278E-004  0.2955790E+03  0.7818608E-02  0.1087472E+00
          2   -1    0    0  501    0  0.00000000000E+00  0.00000000000E+00  0.24411860402E+03  0.24411860403E+03  0.25500000000E-02 0.  1.
         -2   -1    0    0    0  501 -0.00000000000E+00 -0.00000000000E+00 -0.89471820761E+02  0.89471820797E+02  0.25500000000E-02 0. -1.
    5000001    1    1    2    0    0  0.51276121074E+02  0.40765209527E+02  0.11987764064E+03  0.18652263033E+03  0.12700000000E+03 0.  0.
   -5000001    1    1    2    0    0 -0.51276121074E+02 -0.40765209527E+02  0.34769142618E+02  0.14706779450E+03  0.12700000000E+03 0.  0.
<mgrwt>
<rscale>  0 0.29557900E+03</rscale>
<asrwt>0</asrwt>
<pdfrwt beam="1">  1        2 0.34874085E-01 0.29557900E+03</pdfrwt>
<pdfrwt beam="2">  1       -2 0.12781689E-01 0.29557900E+03</pdfrwt>
<totfact> 0.65956228E+03</totfact>
</mgrwt>
</event>
<event>
 4    1  0.1390278E-004  0.3785504E+03  0.7818608E-02  0.1051471E+00
          2   -1    0    0  501    0  0.00000000000E+00  0.00000000000E+00  0.42648801764E+03  0.42648801765E+03  0.25500000000E-02 0.  1.
         -2   -1    0    0    0  501 -0.00000000000E+00 -0.00000000000E+00 -0.84000264736E+02  0.84000264775E+02  0.25500000000E-02 0. -1.
    5000001    1    1    2    0    0 -0.52674765730E+02 -0.12664815279E+03  0.13120078554E+03  0.22837914020E+03  0.12700000000E+03 0.  0.
   -5000001    1    1    2    0    0  0.52674765730E+02  0.12664815279E+03  0.21128696736E+03  0.28210914223E+03  0.12700000000E+03 0.  0.
<mgrwt>
<rscale>  0 0.37855043E+03</rscale>
<asrwt>0</asrwt>
<pdfrwt beam="1">  1        2 0.60926860E-01 0.37855043E+03</pdfrwt>
<pdfrwt beam="2">  1       -2 0.12000038E-01 0.37855043E+03</pdfrwt>
<totfact> 0.40140635E+03</totfact>
</mgrwt>
</event>
<event>
 4    1  0.1390278E-004  0.5561386E+03  0.7818608E-02  0.1000083E+00
          2   -1    0    0  501    0  0.00000000000E+00  0.00000000000E+00  0.16348076887E+04  0.16348076887E+04  0.25500000000E-02 0.  1.
         -2   -1    0    0    0  501 -0.00000000000E+00 -0.00000000000E+00 -0.47297631151E+02  0.47297631220E+02  0.25500000000E-02 0. -1.
    5000001    1    1    2    0    0 -0.21857836065E+03 -0.79067897804E+02  0.53772711704E+03  0.59942279287E+03  0.12700000000E+03 0.  0.
   -5000001    1    1    2    0    0  0.21857836065E+03  0.79067897804E+02  0.10497829405E+04  0.10826825270E+04  0.12700000000E+03 0.  0.
<mgrwt>
<rscale>  0 0.55613858E+03</rscale>
<asrwt>0</asrwt>
<pdfrwt beam="1">  1        2 0.23354396E+00 0.55613858E+03</pdfrwt>
<pdfrwt beam="2">  1       -2 0.67568043E-02 0.55613858E+03</pdfrwt>
<totfact> 0.16263389E+03</totfact>
</mgrwt>
</event>
<event>
 4    1  0.1390278E-004  0.4038060E+03  0.7818608E-02  0.1042470E+00
          2   -1    0    0  501    0  0.00000000000E+00  0.00000000000E+00  0.18448092743E+04  0.18448092744E+04  0.25500000000E-02 0.  1.
         -2   -1    0    0    0  501 -0.00000000000E+00 -0.00000000000E+00 -0.22097034294E+02  0.22097034441E+02  0.25500000000E-02 0. -1.
    5000001    1    1    2    0    0  0.85129230399E+02  0.11926119550E+03  0.65123387536E+03  0.67948861582E+03  0.12700000000E+03 0.  0.
   -5000001    1    1    2    0    0 -0.85129230399E+02 -0.11926119550E+03  0.11714783647E+04  0.11874176930E+04  0.12700000000E+03 0.  0.
<mgrwt>
<rscale>  0 0.40380596E+03</rscale>
<asrwt>0</asrwt>
<pdfrwt beam="1">  1        2 0.26354423E+00 0.40380596E+03</pdfrwt>
<pdfrwt beam="2">  1       -2 0.31567186E-02 0.40380596E+03</pdfrwt>
<totfact> 0.41273038E+03</totfact>
</mgrwt>
</event>
<event>
 4    1  0.1390278E-004  0.9346771E+03  0.7818608E-02  0.9383242E-01
         -2   -1    0    0    0  501 -0.00000000000E+00  0.00000000000E+00  0.18682599971E+03  0.18682599973E+03  0.25500000000E-02 0. -1.
          2   -1    0    0  501    0  0.00000000000E+00 -0.00000000000E+00 -0.11690307327E+04  0.11690307327E+04  0.25500000000E-02 0.  1.
    5000001    1    1    2    0    0  0.24094179266E+03  0.35944425805E+03 -0.31330161162E+03  0.54912659919E+03  0.12700000000E+03 0.  0.
   -5000001    1    1    2    0    0 -0.24094179266E+03 -0.35944425805E+03 -0.66890312133E+03  0.80673013321E+03  0.12700000000E+03 0.  0.
<mgrwt>
<rscale>  0 0.93467713E+03</rscale>
<asrwt>0</asrwt>
<pdfrwt beam="1">  1        2 0.16700439E+00 0.93467713E+03</pdfrwt>
<pdfrwt beam="2">  1       -2 0.26689429E-01 0.93467713E+03</pdfrwt>
<totfact> 0.28289780E+02</totfact>
</mgrwt>
</event>
<event>
 4    1  0.1390278E-004  0.3198458E+03  0.7818608E-02  0.1075720E+00
          2   -1    0    0  501    0  0.00000000000E+00  0.00000000000E+00  0.56919025641E+03  0.56919025641E+03  0.25500000000E-02 0.  1.
         -2   -1    0    0    0  501 -0.00000000000E+00 -0.00000000000E+00 -0.44932825660E+02  0.44932825733E+02  0.25500000000E-02 0. -1.
    5000001    1    1    2    0    0 -0.21115848196E+02 -0.76059918492E+02  0.15325374862E+03  0.21411842917E+03  0.12700000000E+03 0.  0.
   -5000001    1    1    2    0    0  0.21115848196E+02  0.76059918492E+02  0.37100368213E+03  0.40000465297E+03  0.12700000000E+03 0.  0.
<mgrwt>
<rscale>  0 0.31984575E+03</rscale>
<asrwt>0</asrwt>
<pdfrwt beam="1">  1        2 0.81312892E-01 0.31984575E+03</pdfrwt>
<pdfrwt beam="2">  1       -2 0.64189753E-02 0.31984575E+03</pdfrwt>
<totfact> 0.78045337E+03</totfact>
</mgrwt>
</event>
<event>
 4    1  0.1390278E-004  0.7219751E+03  0.7818608E-02  0.9680373E-01
         -2   -1    0    0    0  501 -0.00000000000E+00  0.00000000000E+00  0.42492665482E+03  0.42492665483E+03  0.25500000000E-02 0. -1.
          2   -1    0    0  501    0  0.00000000000E+00 -0.00000000000E+00 -0.30666938673E+03  0.30666938674E+03  0.25500000000E-02 0.  1.
    5000001    1    1    2    0    0  0.21914737393E+01  0.31079213591E+03  0.19350972052E+03  0.38751976238E+03  0.12700000000E+03 0.  0.
   -5000001    1    1    2    0    0 -0.21914737393E+01 -0.31079213591E+03 -0.75252452430E+02  0.34407627919E+03  0.12700000000E+03 0.  0.
<mgrwt>
<rscale>  0 0.72197506E+03</rscale>
<asrwt>0</asrwt>
<pdfrwt beam="1">  1        2 0.43809913E-01 0.72197506E+03</pdfrwt>
<pdfrwt beam="2">  1       -2 0.60703808E-01 0.72197506E+03</pdfrwt>
<totfact> 0.29658996E+02</totfact>
</mgrwt>
</event>
<event>
 4    1  0.1390278E-004  0.3506922E+03  0.7818608E-02  0.1062331E+00
         -2   -1    0    0    0  501 -0.00000000000E+00  0.00000000000E+00  0.39003311357E+02  0.39003311440E+02  0.25500000000E-02 0. -1.
          2   -1    0    0  501    0  0.00000000000E+00 -0.00000000000E+00 -0.78829858356E+03  0.78829858357E+03  0.25500000000E-02 0.  1.
    5000001    1    1    2    0    0 -0.44549016464E+02 -0.11117770948E+03 -0.41356539371E+03  0.44889913436E+03  0.12700000000E+03 0.  0.
   -5000001    1    1    2    0    0  0.44549016464E+02  0.11117770948E+03 -0.33572987850E+03  0.37840276065E+03  0.12700000000E+03 0.  0.
<mgrwt>
<rscale>  0 0.35069220E+03</rscale>
<asrwt>0</asrwt>
<pdfrwt beam="1">  1        2 0.11261407E+00 0.35069220E+03</pdfrwt>
<pdfrwt beam="2">  1       -2 0.55719021E-02 0.35069220E+03</pdfrwt>
<totfact> 0.66174286E+03</totfact>
</mgrwt>
</event>
<event>
 4    1  0.1390278E-004  0.3207992E+03  0.7818608E-02  0.1075282E+00
         -2   -1    0    0    0  501 -0.00000000000E+00  0.00000000000E+00  0.12293442705E+03  0.12293442708E+03  0.25500000000E-02 0. -1.
          2   -1    0    0  501    0  0.00000000000E+00 -0.00000000000E+00 -0.20928251986E+03  0.20928251987E+03  0.25500000000E-02 0.  1.
    5000001    1    1    2    0    0  0.19632217268E+00  0.78634683230E+02  0.17348953215E+02  0.15037765169E+03  0.12700000000E+03 0.  0.
   -5000001    1    1    2    0    0 -0.19632217268E+00 -0.78634683230E+02 -0.10369704602E+03  0.18183929526E+03  0.12700000000E+03 0.  0.
<mgrwt>
<rscale>  0 0.32079917E+03</rscale>
<asrwt>0</asrwt>
<pdfrwt beam="1">  1        2 0.29897503E-01 0.32079917E+03</pdfrwt>
<pdfrwt beam="2">  1       -2 0.17562061E-01 0.32079917E+03</pdfrwt>
<totfact> 0.46240446E+03</totfact>
</mgrwt>
</event>
<event>
 4    1  0.1390278E-004  0.8190547E+03  0.7818608E-02  0.9532839E-01
          2   -1    0    0  501    0  0.00000000000E+00  0.00000000000E+00  0.31434760969E+04  0.31434760969E+04  0.25500000000E-02 0.  1.
         -2   -1    0    0    0  501 -0.00000000000E+00 -0.00000000000E+00 -0.53352607130E+02  0.53352607191E+02  0.25500000000E-02 0. -1.
    5000001    1    1    2    0    0 -0.21820610008E+03 -0.31549510839E+03  0.12852045497E+04  0.13472307894E+04  0.12700000000E+03 0.  0.
   -5000001    1    1    2    0    0  0.21820610008E+03  0.31549510839E+03  0.18049189401E+04  0.18495979146E+04  0.12700000000E+03 0.  0.
<mgrwt>
<rscale>  0 0.81905469E+03</rscale>
<asrwt>0</asrwt>
<pdfrwt beam="1">  1        2 0.44906795E+00 0.81905469E+03</pdfrwt>
<pdfrwt beam="2">  1       -2 0.76218021E-02 0.81905469E+03</pdfrwt>
<totfact> 0.21723321E+02</totfact>
</mgrwt>
</event>
<event>
 4    1  0.1390278E-004  0.4666366E+03  0.7818608E-02  0.1022874E+00
         -2   -1    0    0    0  501 -0.00000000000E+00  0.00000000000E+00  0.15976494092E+03  0.15976494094E+03  0.25500000000E-02 0. -1.
          2   -1    0    0  501    0  0.00000000000E+00 -0.00000000000E+00 -0.34073444980E+03  0.34073444980E+03  0.25500000000E-02 0.  1.
    5000001    1    1    2    0    0 -0.17674901395E+03 -0.77701784405E+02 -0.56051515814E+02  0.23779939793E+03  0.12700000000E+03 0.  0.
   -5000001    1    1    2    0    0  0.17674901395E+03  0.77701784405E+02 -0.12491799307E+03  0.26269999281E+03  0.12700000000E+03 0.  0.
<mgrwt>
<rscale>  0 0.46663656E+03</rscale>
<asrwt>0</asrwt>
<pdfrwt beam="1">  1        2 0.48676350E-01 0.46663656E+03</pdfrwt>
<pdfrwt beam="2">  1       -2 0.22823563E-01 0.46663656E+03</pdfrwt>
<totfact> 0.17370453E+03</totfact>
</mgrwt>
</event>
<event>
 4    1  0.1390278E-004  0.3276154E+03  0.7818608E-02  0.1072197E+00
         -2   -1    0    0    0  501 -0.00000000000E+00  0.00000000000E+00  0.16067527059E+02  0.16067527262E+02  0.25500000000E-02 0. -1.
          2   -1    0    0  501    0  0.00000000000E+00 -0.00000000000E+00 -0.16700122509E+04  0.16700122509E+04  0.25500000000E-02 0.  1.
    5000001    1    1    2    0    0 -0.10256004615E+03 -0.56218282987E+01 -0.89079735709E+03  0.90564844140E+03  0.12700000000E+03 0.  0.
   -5000001    1    1    2    0    0  0.10256004615E+03  0.56218282987E+01 -0.76314736679E+03  0.78043133680E+03  0.12700000000E+03 0.  0.
<mgrwt>
<rscale>  0 0.32761543E+03</rscale>
<asrwt>0</asrwt>
<pdfrwt beam="1">  1        2 0.23857307E+00 0.32761543E+03</pdfrwt>
<pdfrwt beam="2">  1       -2 0.22953621E-02 0.32761543E+03</pdfrwt>
<totfact> 0.81116017E+03</totfact>
</mgrwt>
</event>
<event>
 4    1  0.1390278E-004  0.2796442E+03  0.7818608E-02  0.1095883E+00
          2   -1    0    0  501    0  0.00000000000E+00  0.00000000000E+00  0.30232477527E+03  0.30232477528E+03  0.25500000000E-02 0.  1.
         -2   -1    0    0    0  501 -0.00000000000E+00 -0.00000000000E+00 -0.64666278801E+02  0.64666278851E+02  0.25500000000E-02 0. -1.
    5000001    1    1    2    0    0 -0.51315855601E+02 -0.28069323168E+02  0.11898606173E+03  0.18359707739E+03  0.12700000000E+03 0.  0.
   -5000001    1    1    2    0    0  0.51315855601E+02  0.28069323168E+02  0.11867243474E+03  0.18339397674E+03  0.12700000000E+03 0.  0.
<mgrwt>
<rscale>  0 0.27964419E+03</rscale>
<asrwt>0</asrwt>
<pdfrwt beam="1">  1        2 0.43189254E-01 0.27964419E+03</pdfrwt>
<pdfrwt beam="2">  1       -2 0.92380398E-02 0.27964419E+03</pdfrwt>
<totfact> 0.87879448E+03</totfact>
</mgrwt>
</event>
<event>
 4    1  0.1390278E-004  0.3551939E+03  0.7818608E-02  0.1060503E+00
          2   -1    0    0  501    0  0.00000000000E+00  0.00000000000E+00  0.81990790290E+03  0.81990790291E+03  0.25500000000E-02 0.  1.
         -2   -1    0    0    0  501 -0.00000000000E+00 -0.00000000000E+00 -0.38468554996E+02  0.38468555080E+02  0.25500000000E-02 0. -1.
    5000001    1    1    2    0    0 -0.10391739991E+03  0.52681436803E+02  0.28712737264E+03  0.33488100559E+03  0.12700000000E+03 0.  0.
   -5000001    1    1    2    0    0  0.10391739991E+03 -0.52681436803E+02  0.49431197527E+03  0.52349545240E+03  0.12700000000E+03 0.  0.
<mgrwt>
<rscale>  0 0.35519388E+03</rscale>
<asrwt>0</asrwt>
<pdfrwt beam="1">  1        2 0.11712969E+00 0.35519388E+03</pdfrwt>
<pdfrwt beam="2">  1       -2 0.54955082E-02 0.35519388E+03</pdfrwt>
<totfact> 0.64362523E+03</totfact>
</mgrwt>
</event>
<event>
 4    1  0.1390278E-004  0.3937417E+03  0.7818608E-02  0.1045969E+00
         -2   -1    0    0    0  501 -0.00000000000E+00  0.00000000000E+00  0.16706090823E+03  0.16706090825E+03  0.25500000000E-02 0. -1.
          2   -1    0    0  501    0  0.00000000000E+00 -0.00000000000E+00 -0.23199995610E+03  0.23199995611E+03  0.25500000000E-02 0.  1.
    5000001    1    1    2    0    0 -0.91833326296E+02 -0.11781376475E+03 -0.14462100338E+02  0.19660008985E+03  0.12700000000E+03 0.  0.
   -5000001    1    1    2    0    0  0.91833326296E+02  0.11781376475E+03 -0.50476947531E+02  0.20246077451E+03  0.12700000000E+03 0.  0.
<mgrwt>
<rscale>  0 0.39374166E+03</rscale>
<asrwt>0</asrwt>
<pdfrwt beam="1">  1        2 0.33142851E-01 0.39374166E+03</pdfrwt>
<pdfrwt beam="2">  1       -2 0.23865844E-01 0.39374166E+03</pdfrwt>
<totfact> 0.24416552E+03</totfact>
</mgrwt>
</event>
<event>
 4    1  0.1390278E-004  0.5497172E+03  0.7818608E-02  0.1001559E+00
          2   -1    0    0  501    0  0.00000000000E+00  0.00000000000E+00  0.14249533836E+04  0.14249533836E+04  0.25500000000E-02 0.  1.
         -2   -1    0    0    0  501 -0.00000000000E+00 -0.00000000000E+00 -0.53017341119E+02  0.53017341181E+02  0.25500000000E-02 0. -1.
    5000001    1    1    2    0    0  0.10173467421E+03  0.32016068358E+02  0.12752766529E+04  0.12860149742E+04  0.12700000000E+03 0.  0.
   -5000001    1    1    2    0    0 -0.10173467421E+03 -0.32016068358E+02  0.96659389588E+02  0.19195575054E+03  0.12700000000E+03 0.  0.
<mgrwt>
<rscale>  0 0.54971716E+03</rscale>
<asrwt>0</asrwt>
<pdfrwt beam="1">  1        2 0.20356473E+00 0.54971716E+03</pdfrwt>
<pdfrwt beam="2">  1       -2 0.75739072E-02 0.54971716E+03</pdfrwt>
<totfact> 0.17443194E+03</totfact>
</mgrwt>
</event>
<event>
 4    1  0.1390278E-004  0.3385383E+03  0.7818608E-02  0.1067420E+00
         -2   -1    0    0    0  501 -0.00000000000E+00  0.00000000000E+00  0.91608922646E+02  0.91608922681E+02  0.25500000000E-02 0. -1.
          2   -1    0    0  501    0  0.00000000000E+00 -0.00000000000E+00 -0.31276486498E+03  0.31276486499E+03  0.25500000000E-02 0.  1.
    5000001    1    1    2    0    0  0.47010636310E+02 -0.10092779955E+03 -0.12401942739E+03  0.20953815648E+03  0.12700000000E+03 0.  0.
   -5000001    1    1    2    0    0 -0.47010636310E+02  0.10092779955E+03 -0.97136514938E+02  0.19483563119E+03  0.12700000000E+03 0.  0.
<mgrwt>
<rscale>  0 0.33853834E+03</rscale>
<asrwt>0</asrwt>
<pdfrwt beam="1">  1        2 0.44680694E-01 0.33853834E+03</pdfrwt>
<pdfrwt beam="2">  1       -2 0.13086989E-01 0.33853834E+03</pdfrwt>
<totfact> 0.48715277E+03</totfact>
</mgrwt>
</event>
<event>
 4    1  0.1390278E-004  0.3678340E+03  0.7818608E-02  0.1055524E+00
          2   -1    0    0  501    0  0.00000000000E+00  0.00000000000E+00  0.31305294117E+04  0.31305294117E+04  0.25500000000E-02 0.  1.
         -2   -1    0    0    0  501 -0.00000000000E+00 -0.00000000000E+00 -0.10805027832E+02  0.10805028132E+02  0.25500000000E-02 0. -1.
    5000001    1    1    2    0    0  0.11264239932E+03  0.16858928016E+02  0.97289503238E+03  0.98773796000E+03  0.12700000000E+03 0.  0.
   -5000001    1    1    2    0    0 -0.11264239932E+03 -0.16858928016E+02  0.21468293515E+04  0.21535964798E+04  0.12700000000E+03 0.  0.
<mgrwt>
<rscale>  0 0.36783397E+03</rscale>
<asrwt>0</asrwt>
<pdfrwt beam="1">  1        2 0.44721813E+00 0.36783397E+03</pdfrwt>
<pdfrwt beam="2">  1       -2 0.15435767E-02 0.36783397E+03</pdfrwt>
<totfact> 0.26510554E+03</totfact>
</mgrwt>
</event>
<event>
 4    1  0.1390278E-004  0.1616765E+04  0.7818608E-02  0.8810314E-01
         -2   -1    0    0    0  501 -0.00000000000E+00  0.00000000000E+00  0.10674429421E+04  0.10674429421E+04  0.25500000000E-02 0. -1.
          2   -1    0    0  501    0  0.00000000000E+00 -0.00000000000E+00 -0.61219390957E+03  0.61219390957E+03  0.25500000000E-02 0.  1.
    5000001    1    1    2    0    0 -0.54409440808E+03 -0.58345176688E+03  0.19648597222E+03  0.83137863003E+03  0.12700000000E+03 0.  0.
   -5000001    1    1    2    0    0  0.54409440808E+03  0.58345176688E+03  0.25876306029E+03  0.84825822163E+03  0.12700000000E+03 0.  0.
<mgrwt>
<rscale>  0 0.16167648E+04</rscale>
<asrwt>0</asrwt>
<pdfrwt beam="1">  1        2 0.87456273E-01 0.16167648E+04</pdfrwt>
<pdfrwt beam="2">  1       -2 0.15249185E+00 0.16167648E+04</pdfrwt>
<totfact> 0.14574565E+01</totfact>
</mgrwt>
</event>
<event>
 4    1  0.1390278E-004  0.7196172E+03  0.7818608E-02  0.9684260E-01
          2   -1    0    0  501    0  0.00000000000E+00  0.00000000000E+00  0.18881330406E+04  0.18881330406E+04  0.25500000000E-02 0. -1.
         -2   -1    0    0    0  501 -0.00000000000E+00 -0.00000000000E+00 -0.68566263385E+02  0.68566263433E+02  0.25500000000E-02 0.  1.
    5000001    1    1    2    0    0  0.72786219278E+02  0.36441195604E+01  0.16109860425E+02  0.14730797985E+03  0.12700000000E+03 0.  0.
   -5000001    1    1    2    0    0 -0.72786219278E+02 -0.36441195604E+01  0.18034569168E+04  0.18093913242E+04  0.12700000000E+03 0.  0.
<mgrwt>
<rscale>  0 0.71961720E+03</rscale>
<asrwt>0</asrwt>
<pdfrwt beam="1">  1        2 0.26973327E+00 0.71961720E+03</pdfrwt>
<pdfrwt beam="2">  1       -2 0.97951813E-02 0.71961720E+03</pdfrwt>
<totfact> 0.66291039E+02</totfact>
</mgrwt>
</event>
<event>
 4    1  0.1390278E-004  0.6245190E+03  0.7818608E-02  0.9855803E-01
          2   -1    0    0  501    0  0.00000000000E+00  0.00000000000E+00  0.14620327412E+04  0.14620327412E+04  0.25500000000E-02 0.  1.
         -2   -1    0    0    0  501 -0.00000000000E+00 -0.00000000000E+00 -0.66692067242E+02  0.66692067291E+02  0.25500000000E-02 0. -1.
    5000001    1    1    2    0    0 -0.18206178998E+03 -0.20753981143E+03  0.52187293898E+03  0.60390366214E+03  0.12700000000E+03 0.  0.
   -5000001    1    1    2    0    0  0.18206178998E+03  0.20753981143E+03  0.87346773493E+03  0.92482114631E+03  0.12700000000E+03 0.  0.
<mgrwt>
<rscale>  0 0.62451897E+03</rscale>
<asrwt>0</asrwt>
<pdfrwt beam="1">  1        2 0.20886181E+00 0.62451897E+03</pdfrwt>
<pdfrwt beam="2">  1       -2 0.95274386E-02 0.62451897E+03</pdfrwt>
<totfact> 0.11524312E+03</totfact>
</mgrwt>
</event>
<event>
 4    1  0.1390278E-004  0.3241129E+03  0.7818608E-02  0.1073772E+00
          2   -1    0    0  501    0  0.00000000000E+00  0.00000000000E+00  0.93319348804E+02  0.93319348839E+02  0.25500000000E-02 0.  1.
         -2   -1    0    0    0  501 -0.00000000000E+00 -0.00000000000E+00 -0.28142386892E+03  0.28142386893E+03  0.25500000000E-02 0. -1.
    5000001    1    1    2    0    0  0.56560019398E+02  0.77546104030E+02 -0.58966261643E+02  0.16975998956E+03  0.12700000000E+03 0.  0.
   -5000001    1    1    2    0    0 -0.56560019398E+02 -0.77546104030E+02 -0.12913825848E+03  0.20498322821E+03  0.12700000000E+03 0.  0.
<mgrwt>
<rscale>  0 0.32411290E+03</rscale>
<asrwt>0</asrwt>
<pdfrwt beam="1">  1        2 0.13331336E-01 0.32411290E+03</pdfrwt>
<pdfrwt beam="2">  1       -2 0.40203410E-01 0.32411290E+03</pdfrwt>
<totfact> 0.26579664E+03</totfact>
</mgrwt>
</event>
<event>
 4    1  0.1390278E-004  0.2631741E+03  0.7818608E-02  0.1105251E+00
          2   -1    0    0  501    0  0.00000000000E+00  0.00000000000E+00  0.19802685596E+04  0.19802685596E+04  0.25500000000E-02 0.  1.
         -2   -1    0    0    0  501 -0.00000000000E+00 -0.00000000000E+00 -0.87438368908E+01  0.87438372626E+01  0.25500000000E-02 0. -1.
    5000001    1    1    2    0    0  0.22656433685E+02  0.25925395344E+02  0.97941406975E+03  0.98821372189E+03  0.12700000000E+03 0.  0.
   -5000001    1    1    2    0    0 -0.22656433685E+02 -0.25925395344E+02  0.99211065295E+03  0.10007986750E+04  0.12700000000E+03 0.  0.
<mgrwt>
<rscale>  0 0.26317405E+03</rscale>
<asrwt>0</asrwt>
<pdfrwt beam="1">  1        2 0.28289522E+00 0.26317405E+03</pdfrwt>
<pdfrwt beam="2">  1       -2 0.12491209E-02 0.26317405E+03</pdfrwt>
<totfact> 0.13908612E+04</totfact>
</mgrwt>
</event>
<event>
 4    1  0.1390278E-004  0.3549637E+03  0.7818608E-02  0.1060596E+00
         -2   -1    0    0    0  501 -0.00000000000E+00  0.00000000000E+00  0.13316988715E+02  0.13316988959E+02  0.25500000000E-02 0. -1.
          2   -1    0    0  501    0  0.00000000000E+00 -0.00000000000E+00 -0.23653857273E+04  0.23653857273E+04  0.25500000000E-02 0.  1.
    5000001    1    1    2    0    0 -0.27673548744E+02 -0.10091207866E+03 -0.73042646227E+03  0.74873285603E+03  0.12700000000E+03 0.  0.
   -5000001    1    1    2    0    0  0.27673548744E+02  0.10091207866E+03 -0.16216422763E+04  0.16299698602E+04  0.12700000000E+03 0.  0.
<mgrwt>
<rscale>  0 0.35496375E+03</rscale>
<asrwt>0</asrwt>
<pdfrwt beam="1">  1        2 0.33791198E+00 0.35496375E+03</pdfrwt>
<pdfrwt beam="2">  1       -2 0.19024285E-02 0.35496375E+03</pdfrwt>
<totfact> 0.48605008E+03</totfact>
</mgrwt>
</event>
<event>
 4    1  0.1390278E-004  0.4629965E+03  0.7818608E-02  0.1023916E+00
         -2   -1    0    0    0  501 -0.00000000000E+00  0.00000000000E+00  0.32020134110E+02  0.32020134212E+02  0.25500000000E-02 0. -1.
          2   -1    0    0  501    0  0.00000000000E+00 -0.00000000000E+00 -0.16736797232E+04  0.16736797232E+04  0.25500000000E-02 0.  1.
    5000001    1    1    2    0    0 -0.17618506812E+03 -0.64170274939E+02 -0.99764270216E+03  0.10230244198E+04  0.12700000000E+03 0.  0.
   -5000001    1    1    2    0    0  0.17618506812E+03  0.64170274939E+02 -0.64401688693E+03  0.68267543757E+03  0.12700000000E+03 0.  0.
<mgrwt>
<rscale>  0 0.46299654E+03</rscale>
<asrwt>0</asrwt>
<pdfrwt beam="1">  1        2 0.23909705E+00 0.46299654E+03</pdfrwt>
<pdfrwt beam="2">  1       -2 0.45743059E-02 0.46299654E+03</pdfrwt>
<totfact> 0.28568133E+03</totfact>
</mgrwt>
</event>
<event>
 4    1  0.1390278E-004  0.3134228E+03  0.7818608E-02  0.1078717E+00
         -2   -1    0    0    0  501 -0.00000000000E+00  0.00000000000E+00  0.24550101241E+02  0.24550101374E+02  0.25500000000E-02 0. -1.
          2   -1    0    0  501    0  0.00000000000E+00 -0.00000000000E+00 -0.10003406734E+04  0.10003406734E+04  0.25500000000E-02 0.  1.
    5000001    1    1    2    0    0  0.60854592051E+02  0.55168190094E+02 -0.35375957038E+03  0.38473581093E+03  0.12700000000E+03 0.  0.
   -5000001    1    1    2    0    0 -0.60854592051E+02 -0.55168190094E+02 -0.62203100180E+03  0.64015496387E+03  0.12700000000E+03 0.  0.
<mgrwt>
<rscale>  0 0.31342281E+03</rscale>
<asrwt>0</asrwt>
<pdfrwt beam="1">  1        2 0.14290578E+00 0.31342281E+03</pdfrwt>
<pdfrwt beam="2">  1       -2 0.35071580E-02 0.31342281E+03</pdfrwt>
<totfact> 0.97772204E+03</totfact>
</mgrwt>
</event>
<event>
 4    1  0.1390278E-004  0.3375546E+03  0.7818608E-02  0.1067842E+00
         -2   -1    0    0    0  501 -0.00000000000E+00  0.00000000000E+00  0.27904320967E+02  0.27904321083E+02  0.25500000000E-02 0. -1.
          2   -1    0    0  501    0  0.00000000000E+00 -0.00000000000E+00 -0.10208372150E+04  0.10208372150E+04  0.25500000000E-02 0.  1.
    5000001    1    1    2    0    0  0.79096836513E+02 -0.20340980970E+02 -0.73075702296E+03  0.74619360200E+03  0.12700000000E+03 0.  0.
   -5000001    1    1    2    0    0 -0.79096836513E+02  0.20340980970E+02 -0.26217587112E+03  0.30254793413E+03  0.12700000000E+03 0.  0.
<mgrwt>
<rscale>  0 0.33755455E+03</rscale>
<asrwt>0</asrwt>
<pdfrwt beam="1">  1        2 0.14583386E+00 0.33755455E+03</pdfrwt>
<pdfrwt beam="2">  1       -2 0.39863322E-02 0.33755455E+03</pdfrwt>
<totfact> 0.78542030E+03</totfact>
</mgrwt>
</event>
<event>
 4    1  0.1390278E-004  0.7097567E+03  0.7818608E-02  0.9700691E-01
          2   -1    0    0  501    0  0.00000000000E+00  0.00000000000E+00  0.12829242585E+04  0.12829242585E+04  0.25500000000E-02 0.  1.
         -2   -1    0    0    0  501 -0.00000000000E+00 -0.00000000000E+00 -0.98165300419E+02  0.98165300452E+02  0.25500000000E-02 0. -1.
    5000001    1    1    2    0    0 -0.25210897787E+03 -0.13606953228E+02  0.17474099343E+03  0.33227624153E+03  0.12700000000E+03 0.  0.
   -5000001    1    1    2    0    0  0.25210897787E+03  0.13606953228E+02  0.10100179647E+04  0.10488133175E+04  0.12700000000E+03 0.  0.
<mgrwt>
<rscale>  0 0.70975671E+03</rscale>
<asrwt>0</asrwt>
<pdfrwt beam="1">  1        2 0.18327489E+00 0.70975671E+03</pdfrwt>
<pdfrwt beam="2">  1       -2 0.14023615E-01 0.70975671E+03</pdfrwt>
<totfact> 0.75879450E+02</totfact>
</mgrwt>
</event>
<event>
 4    1  0.1390278E-004  0.6580006E+03  0.7818608E-02  0.9791881E-01
         -2   -1    0    0    0  501 -0.00000000000E+00  0.00000000000E+00  0.14171498352E+03  0.14171498354E+03  0.25500000000E-02 0. -1.
          2   -1    0    0  501    0  0.00000000000E+00 -0.00000000000E+00 -0.76379496207E+03  0.76379496207E+03  0.25500000000E-02 0.  1.
    5000001    1    1    2    0    0  0.27770817094E+03 -0.97801437332E+02 -0.20967768578E+03  0.38311966964E+03  0.12700000000E+03 0.  0.
   -5000001    1    1    2    0    0 -0.27770817094E+03  0.97801437332E+02 -0.41240229278E+03  0.52239027598E+03  0.12700000000E+03 0.  0.
<mgrwt>
<rscale>  0 0.65800058E+03</rscale>
<asrwt>0</asrwt>
<pdfrwt beam="1">  1        2 0.10911356E+00 0.65800058E+03</pdfrwt>
<pdfrwt beam="2">  1       -2 0.20244998E-01 0.65800058E+03</pdfrwt>
<totfact> 0.84519751E+02</totfact>
</mgrwt>
</event>
<event>
 4    1  0.1390278E-004  0.3753712E+03  0.7818608E-02  0.1052658E+00
          2   -1    0    0  501    0  0.00000000000E+00  0.00000000000E+00  0.21131598070E+04  0.21131598070E+04  0.25500000000E-02 0.  1.
         -2   -1    0    0    0  501 -0.00000000000E+00 -0.00000000000E+00 -0.16669770587E+02  0.16669770782E+02  0.25500000000E-02 0. -1.
    5000001    1    1    2    0    0  0.34609537280E+01  0.13745629904E+03  0.11265939531E+04  0.11420372794E+04  0.12700000000E+03 0.  0.
   -5000001    1    1    2    0    0 -0.34609537280E+01 -0.13745629904E+03  0.96989608331E+03  0.98779229840E+03  0.12700000000E+03 0.  0.
<mgrwt>
<rscale>  0 0.37537123E+03</rscale>
<asrwt>0</asrwt>
<pdfrwt beam="1">  1        2 0.30187975E+00 0.37537123E+03</pdfrwt>
<pdfrwt beam="2">  1       -2 0.23813976E-02 0.37537123E+03</pdfrwt>
<totfact> 0.46413582E+03</totfact>
</mgrwt>
</event>
<event>
 4    1  0.1390278E-004  0.3876692E+03  0.7818608E-02  0.1048135E+00
          2   -1    0    0  501    0  0.00000000000E+00  0.00000000000E+00  0.16633478104E+04  0.16633478104E+04  0.25500000000E-02 0.  1.
         -2   -1    0    0    0  501 -0.00000000000E+00 -0.00000000000E+00 -0.22588096722E+02  0.22588096866E+02  0.25500000000E-02 0. -1.
    5000001    1    1    2    0    0  0.12796401998E+03  0.66372437528E+02  0.70842027049E+03  0.73400842674E+03  0.12700000000E+03 0.  0.
   -5000001    1    1    2    0    0 -0.12796401998E+03 -0.66372437528E+02  0.93233944322E+03  0.95192748056E+03  0.12700000000E+03 0.  0.
<mgrwt>
<rscale>  0 0.38766925E+03</rscale>
<asrwt>0</asrwt>
<pdfrwt beam="1">  1        2 0.23762100E+00 0.38766925E+03</pdfrwt>
<pdfrwt beam="2">  1       -2 0.32268726E-02 0.38766925E+03</pdfrwt>
<totfact> 0.49181401E+03</totfact>
</mgrwt>
</event>
<event>
 4    1  0.1390278E-004  0.5779176E+03  0.7818608E-02  0.9952310E-01
          2   -1    0    0  501    0  0.00000000000E+00  0.00000000000E+00  0.76187143288E+03  0.76187143289E+03  0.25500000000E-02 0. -1.
         -2   -1    0    0    0  501 -0.00000000000E+00 -0.00000000000E+00 -0.10959484605E+03  0.10959484608E+03  0.25500000000E-02 0.  1.
    5000001    1    1    2    0    0 -0.25668049597E+03  0.21450459583E+02  0.27790339403E+03  0.39963019861E+03  0.12700000000E+03 0.  0.
   -5000001    1    1    2    0    0  0.25668049597E+03 -0.21450459583E+02  0.37437319281E+03  0.47183608035E+03  0.12700000000E+03 0.  0.
<mgrwt>
<rscale>  0 0.57791758E+03</rscale>
<asrwt>0</asrwt>
<pdfrwt beam="1">  1        2 0.10883877E+00 0.57791758E+03</pdfrwt>
<pdfrwt beam="2">  1       -2 0.15656407E-01 0.57791758E+03</pdfrwt>
<totfact> 0.13203726E+03</totfact>
</mgrwt>
</event>
<event>
 4    1  0.1390278E-004  0.3820581E+03  0.7818608E-02  0.1050176E+00
          2   -1    0    0  501    0  0.00000000000E+00  0.00000000000E+00  0.13586177954E+04  0.13586177954E+04  0.25500000000E-02 0.  1.
         -2   -1    0    0    0  501 -0.00000000000E+00 -0.00000000000E+00 -0.26859717782E+02  0.26859717903E+02  0.25500000000E-02 0. -1.
    5000001    1    1    2    0    0 -0.10907006868E+03  0.72834368788E+02  0.86979380495E+03  0.88874708905E+03  0.12700000000E+03 0.  0.
   -5000001    1    1    2    0    0  0.10907006868E+03 -0.72834368788E+02  0.46196427263E+03  0.49673042422E+03  0.12700000000E+03 0.  0.
<mgrwt>
<rscale>  0 0.38205806E+03</rscale>
<asrwt>0</asrwt>
<pdfrwt beam="1">  1        2 0.19408830E+00 0.38205806E+03</pdfrwt>
<pdfrwt beam="2">  1       -2 0.38371016E-02 0.38205806E+03</pdfrwt>
<totfact> 0.54223236E+03</totfact>
</mgrwt>
</event>
<event>
 4    1  0.1390278E-004  0.3097801E+03  0.7818608E-02  0.1080451E+00
         -2   -1    0    0    0  501 -0.00000000000E+00  0.00000000000E+00  0.25181549494E+02  0.25181549623E+02  0.25500000000E-02 0. -1.
          2   -1    0    0  501    0  0.00000000000E+00 -0.00000000000E+00 -0.95271858562E+03  0.95271858563E+03  0.25500000000E-02 0.  1.
    5000001    1    1    2    0    0  0.66289483013E+02 -0.32818305304E+02 -0.30942306535E+03  0.34255360178E+03  0.12700000000E+03 0.  0.
   -5000001    1    1    2    0    0 -0.66289483013E+02  0.32818305304E+02 -0.61811397078E+03  0.63534653347E+03  0.12700000000E+03 0.  0.
<mgrwt>
<rscale>  0 0.30978012E+03</rscale>
<asrwt>0</asrwt>
<pdfrwt beam="1">  1        2 0.13610263E+00 0.30978012E+03</pdfrwt>
<pdfrwt beam="2">  1       -2 0.35973648E-02 0.30978012E+03</pdfrwt>
<totfact> 0.10048737E+04</totfact>
</mgrwt>
</event>
<event>
 4    1  0.1390278E-004  0.4718966E+03  0.7818608E-02  0.1021386E+00
         -2   -1    0    0    0  501 -0.00000000000E+00  0.00000000000E+00  0.30287006699E+02  0.30287006807E+02  0.25500000000E-02 0. -1.
          2   -1    0    0  501    0  0.00000000000E+00 -0.00000000000E+00 -0.18381349867E+04  0.18381349867E+04  0.25500000000E-02 0.  1.
    5000001    1    1    2    0    0 -0.65014675086E+02  0.32790147902E+02 -0.16365767294E+04  0.16431112235E+04  0.12700000000E+03 0.  0.
   -5000001    1    1    2    0    0  0.65014675086E+02 -0.32790147902E+02 -0.17127125063E+03  0.22531076998E+03  0.12700000000E+03 0.  0.
<mgrwt>
<rscale>  0 0.47189663E+03</rscale>
<asrwt>0</asrwt>
<pdfrwt beam="1">  1        2 0.26259064E+00 0.47189663E+03</pdfrwt>
<pdfrwt beam="2">  1       -2 0.43267164E-02 0.47189663E+03</pdfrwt>
<totfact> 0.25722456E+03</totfact>
</mgrwt>
</event>
<event>
 4    1  0.1390278E-004  0.2745941E+03  0.7818608E-02  0.1098679E+00
          2   -1    0    0  501    0  0.00000000000E+00  0.00000000000E+00  0.13643197165E+04  0.13643197165E+04  0.25500000000E-02 0.  1.
         -2   -1    0    0    0  501 -0.00000000000E+00 -0.00000000000E+00 -0.13816764989E+02  0.13816765224E+02  0.25500000000E-02 0. -1.
    5000001    1    1    2    0    0 -0.35341873128E+02  0.33033934723E+02  0.77324000962E+03  0.78509196997E+03  0.12700000000E+03 0.  0.
   -5000001    1    1    2    0    0  0.35341873128E+02 -0.33033934723E+02  0.57726294187E+03  0.59304451173E+03  0.12700000000E+03 0.  0.
<mgrwt>
<rscale>  0 0.27459414E+03</rscale>
<asrwt>0</asrwt>
<pdfrwt beam="1">  1        2 0.19490278E+00 0.27459414E+03</pdfrwt>
<pdfrwt beam="2">  1       -2 0.19738239E-02 0.27459414E+03</pdfrwt>
<totfact> 0.14422962E+04</totfact>
</mgrwt>
</event>
<event>
 4    1  0.1390278E-004  0.4467670E+03  0.7818608E-02  0.1028691E+00
         -2   -1    0    0    0  501 -0.00000000000E+00  0.00000000000E+00  0.49170346885E+02  0.49170346952E+02  0.25500000000E-02 0. -1.
          2   -1    0    0  501    0  0.00000000000E+00 -0.00000000000E+00 -0.10148432927E+04  0.10148432927E+04  0.25500000000E-02 0.  1.
    5000001    1    1    2    0    0  0.34793726610E+02  0.17933966197E+03 -0.53034172016E+03  0.57512142884E+03  0.12700000000E+03 0.  0.
   -5000001    1    1    2    0    0 -0.34793726610E+02 -0.17933966197E+03 -0.43533122563E+03  0.48889221079E+03  0.12700000000E+03 0.  0.
<mgrwt>
<rscale>  0 0.44676704E+03</rscale>
<asrwt>0</asrwt>
<pdfrwt beam="1">  1        2 0.14497760E+00 0.44676704E+03</pdfrwt>
<pdfrwt beam="2">  1       -2 0.70243359E-02 0.44676704E+03</pdfrwt>
<totfact> 0.33237173E+03</totfact>
</mgrwt>
</event>
<event>
 4    1  0.1390278E-004  0.5059502E+03  0.7818608E-02  0.1012237E+00
         -2   -1    0    0    0  501 -0.00000000000E+00  0.00000000000E+00  0.23816572969E+02  0.23816573105E+02  0.25500000000E-02 0. -1.
          2   -1    0    0  501    0  0.00000000000E+00 -0.00000000000E+00 -0.26870535338E+04  0.26870535338E+04  0.25500000000E-02 0.  1.
    5000001    1    1    2    0    0 -0.16845767818E+03 -0.12239126142E+03 -0.16914335863E+04  0.17089277887E+04  0.12700000000E+03 0.  0.
   -5000001    1    1    2    0    0  0.16845767818E+03  0.12239126142E+03 -0.97180337448E+03  0.10019423181E+04  0.12700000000E+03 0.  0.
<mgrwt>
<rscale>  0 0.50595022E+03</rscale>
<asrwt>0</asrwt>
<pdfrwt beam="1">  1        2 0.38386460E+00 0.50595022E+03</pdfrwt>
<pdfrwt beam="2">  1       -2 0.34023693E-02 0.50595022E+03</pdfrwt>
<totfact> 0.13828506E+03</totfact>
</mgrwt>
</event>
<event>
 4    1  0.1390278E-004  0.2877631E+03  0.7818608E-02  0.1091523E+00
          2   -1    0    0  501    0  0.00000000000E+00  0.00000000000E+00  0.52052892937E+03  0.52052892937E+03  0.25500000000E-02 0.  1.
         -2   -1    0    0    0  501 -0.00000000000E+00 -0.00000000000E+00 -0.39770900251E+02  0.39770900333E+02  0.25500000000E-02 0. -1.
    5000001    1    1    2    0    0 -0.47600629655E+02 -0.33768443211E+02  0.30688782432E+03  0.33721693969E+03  0.12700000000E+03 0.  0.
   -5000001    1    1    2    0    0  0.47600629655E+02  0.33768443211E+02  0.17387020479E+03  0.22308289001E+03  0.12700000000E+03 0.  0.
<mgrwt>
<rscale>  0 0.28776313E+03</rscale>
<asrwt>0</asrwt>
<pdfrwt beam="1">  1        2 0.74361269E-01 0.28776313E+03</pdfrwt>
<pdfrwt beam="2">  1       -2 0.56815577E-02 0.28776313E+03</pdfrwt>
<totfact> 0.10374495E+04</totfact>
</mgrwt>
</event>
<event>
 4    1  0.1390278E-004  0.4665690E+03  0.7818608E-02  0.1022893E+00
          2   -1    0    0  501    0  0.00000000000E+00  0.00000000000E+00  0.72685229215E+03  0.72685229215E+03  0.25500000000E-02 0.  1.
         -2   -1    0    0    0  501 -0.00000000000E+00 -0.00000000000E+00 -0.74873050328E+02  0.74873050372E+02  0.25500000000E-02 0. -1.
    5000001    1    1    2    0    0  0.13323299948E+03  0.13441342806E+03  0.41146998301E+03  0.47037702826E+03  0.12700000000E+03 0.  0.
   -5000001    1    1    2    0    0 -0.13323299948E+03 -0.13441342806E+03  0.24050925881E+03  0.33134831426E+03  0.12700000000E+03 0.  0.
<mgrwt>
<rscale>  0 0.46656896E+03</rscale>
<asrwt>0</asrwt>
<pdfrwt beam="1">  1        2 0.10383604E+00 0.46656896E+03</pdfrwt>
<pdfrwt beam="2">  1       -2 0.10696150E-01 0.46656896E+03</pdfrwt>
<totfact> 0.26281648E+03</totfact>
</mgrwt>
</event>
<event>
 4    1  0.1390278E-004  0.4397340E+03  0.7818608E-02  0.1030828E+00
         -2   -1    0    0    0  501 -0.00000000000E+00  0.00000000000E+00  0.21485825671E+02  0.21485825822E+02  0.25500000000E-02 0. -1.
          2   -1    0    0  501    0  0.00000000000E+00 -0.00000000000E+00 -0.22499246850E+04  0.22499246850E+04  0.25500000000E-02 0.  1.
    5000001    1    1    2    0    0 -0.17192472700E+03  0.25917005274E+02 -0.13442219948E+04  0.13613565199E+04  0.12700000000E+03 0.  0.
   -5000001    1    1    2    0    0  0.17192472700E+03 -0.25917005274E+02 -0.88421686452E+03  0.91005399093E+03  0.12700000000E+03 0.  0.
<mgrwt>
<rscale>  0 0.43973396E+03</rscale>
<asrwt>0</asrwt>
<pdfrwt beam="1">  1        2 0.32141766E+00 0.43973396E+03</pdfrwt>
<pdfrwt beam="2">  1       -2 0.30694051E-02 0.43973396E+03</pdfrwt>
<totfact> 0.27070460E+03</totfact>
</mgrwt>
</event>
<event>
 4    1  0.1390278E-004  0.5997429E+03  0.7818608E-02  0.9905940E-01
          2   -1    0    0  501    0  0.00000000000E+00  0.00000000000E+00  0.13549890647E+04  0.13549890647E+04  0.25500000000E-02 0.  1.
         -2   -1    0    0    0  501 -0.00000000000E+00 -0.00000000000E+00 -0.66364283458E+02  0.66364283507E+02  0.25500000000E-02 0. -1.
    5000001    1    1    2    0    0 -0.25911868794E+03 -0.77480964363E+01  0.83672085774E+03  0.88511768778E+03  0.12700000000E+03 0.  0.
   -5000001    1    1    2    0    0  0.25911868794E+03  0.77480964363E+01  0.45190392347E+03  0.53623566040E+03  0.12700000000E+03 0.  0.
<mgrwt>
<rscale>  0 0.59974287E+03</rscale>
<asrwt>0</asrwt>
<pdfrwt beam="1">  1        2 0.19356986E+00 0.59974287E+03</pdfrwt>
<pdfrwt beam="2">  1       -2 0.94806121E-02 0.59974287E+03</pdfrwt>
<totfact> 0.13250906E+03</totfact>
</mgrwt>
</event>
<event>
 4    1  0.1390278E-004  0.3434650E+03  0.7818608E-02  0.1065330E+00
         -2   -1    0    0    0  501 -0.00000000000E+00  0.00000000000E+00  0.59446464349E+03  0.59446464350E+03  0.25500000000E-02 0. -1.
          2   -1    0    0  501    0  0.00000000000E+00 -0.00000000000E+00 -0.49611117324E+02  0.49611117390E+02  0.25500000000E-02 0.  1.
    5000001    1    1    2    0    0  0.93861418092E+02 -0.22613684463E+02  0.15321007553E+03  0.22118696114E+03  0.12700000000E+03 0.  0.
   -5000001    1    1    2    0    0 -0.93861418092E+02  0.22613684463E+02  0.39164345063E+03  0.42288879975E+03  0.12700000000E+03 0.  0.
<mgrwt>
<rscale>  0 0.34346502E+03</rscale>
<asrwt>0</asrwt>
<pdfrwt beam="1">  1        2 0.70873031E-02 0.34346502E+03</pdfrwt>
<pdfrwt beam="2">  1       -2 0.84923513E-01 0.34346502E+03</pdfrwt>
<totfact> 0.12464468E+03</totfact>
</mgrwt>
</event>
<event>
 4    1  0.1390278E-004  0.5823401E+03  0.7818608E-02  0.9942737E-01
         -2   -1    0    0    0  501 -0.00000000000E+00  0.00000000000E+00  0.45494746994E+02  0.45494747066E+02  0.25500000000E-02 0. -1.
          2   -1    0    0  501    0  0.00000000000E+00 -0.00000000000E+00 -0.18635120747E+04  0.18635120747E+04  0.25500000000E-02 0.  1.
    5000001    1    1    2    0    0 -0.33352222944E+02 -0.15512438563E+03 -0.22548922517E+03  0.30356273892E+03  0.12700000000E+03 0.  0.
   -5000001    1    1    2    0    0  0.33352222944E+02  0.15512438563E+03 -0.15925281026E+04  0.16054440829E+04  0.12700000000E+03 0.  0.
<mgrwt>
<rscale>  0 0.58234014E+03</rscale>
<asrwt>0</asrwt>
<pdfrwt beam="1">  1        2 0.26621596E+00 0.58234014E+03</pdfrwt>
<pdfrwt beam="2">  1       -2 0.64992508E-02 0.58234014E+03</pdfrwt>
<totfact> 0.13229804E+03</totfact>
</mgrwt>
</event>
<event>
 4    1  0.1390278E-004  0.3444499E+03  0.7818608E-02  0.1064916E+00
          2   -1    0    0  501    0  0.00000000000E+00  0.00000000000E+00  0.26041626861E+04  0.26041626861E+04  0.25500000000E-02 0.  1.
         -2   -1    0    0    0  501 -0.00000000000E+00 -0.00000000000E+00 -0.11390005956E+02  0.11390006241E+02  0.25500000000E-02 0. -1.
    5000001    1    1    2    0    0  0.10963798219E+03  0.36611674172E+02  0.11969365756E+04  0.12091927340E+04  0.12700000000E+03 0.  0.
   -5000001    1    1    2    0    0 -0.10963798219E+03 -0.36611674172E+02  0.13958361045E+04  0.14063599583E+04  0.12700000000E+03 0.  0.
<mgrwt>
<rscale>  0 0.34444987E+03</rscale>
<asrwt>0</asrwt>
<pdfrwt beam="1">  1        2 0.37202285E+00 0.34444987E+03</pdfrwt>
<pdfrwt beam="2">  1       -2 0.16271454E-02 0.34444987E+03</pdfrwt>
<totfact> 0.46449428E+03</totfact>
</mgrwt>
</event>
<event>
 4    1  0.1390278E-004  0.3878670E+03  0.7818608E-02  0.1048064E+00
          2   -1    0    0  501    0  0.00000000000E+00  0.00000000000E+00  0.13612334113E+04  0.13612334113E+04  0.25500000000E-02 0.  1.
         -2   -1    0    0    0  501 -0.00000000000E+00 -0.00000000000E+00 -0.27629503738E+02  0.27629503855E+02  0.25500000000E-02 0. -1.
    5000001    1    1    2    0    0  0.51206867522E+02 -0.13506668339E+03  0.57792584317E+03  0.60909148118E+03  0.12700000000E+03 0.  0.
   -5000001    1    1    2    0    0 -0.51206867522E+02  0.13506668339E+03  0.75567806436E+03  0.77977143394E+03  0.12700000000E+03 0.  0.
<mgrwt>
<rscale>  0 0.38786701E+03</rscale>
<asrwt>0</asrwt>
<pdfrwt beam="1">  1        2 0.19446194E+00 0.38786701E+03</pdfrwt>
<pdfrwt beam="2">  1       -2 0.39470714E-02 0.38786701E+03</pdfrwt>
<totfact> 0.51790497E+03</totfact>
</mgrwt>
</event>
<event>
 4    1  0.1390278E-004  0.5185812E+03  0.7818608E-02  0.1009040E+00
         -2   -1    0    0    0  501 -0.00000000000E+00  0.00000000000E+00  0.26481443916E+02  0.26481444039E+02  0.25500000000E-02 0. -1.
          2   -1    0    0  501    0  0.00000000000E+00 -0.00000000000E+00 -0.25388199238E+04  0.25388199239E+04  0.25500000000E-02 0.  1.
    5000001    1    1    2    0    0  0.10657122791E+03 -0.13487319262E+03 -0.19824252103E+04  0.19939124653E+04  0.12700000000E+03 0.  0.
   -5000001    1    1    2    0    0 -0.10657122791E+03  0.13487319262E+03 -0.52991326959E+03  0.57138890258E+03  0.12700000000E+03 0.  0.
<mgrwt>
<rscale>  0 0.51858121E+03</rscale>
<asrwt>0</asrwt>
<pdfrwt beam="1">  1        2 0.36268841E+00 0.51858121E+03</pdfrwt>
<pdfrwt beam="2">  1       -2 0.37830650E-02 0.51858121E+03</pdfrwt>
<totfact> 0.14017008E+03</totfact>
</mgrwt>
</event>
<event>
 4    1  0.1390278E-004  0.2840695E+03  0.7818608E-02  0.1093487E+00
          2   -1    0    0  501    0  0.00000000000E+00  0.00000000000E+00  0.88836188385E+03  0.88836188385E+03  0.25500000000E-02 0.  1.
         -2   -1    0    0    0  501 -0.00000000000E+00 -0.00000000000E+00 -0.22709065017E+02  0.22709065160E+02  0.25500000000E-02 0. -1.
    5000001    1    1    2    0    0 -0.32455212661E+02 -0.88580184264E+01  0.60592858271E+03  0.62000826822E+03  0.12700000000E+03 0.  0.
   -5000001    1    1    2    0    0  0.32455212661E+02  0.88580184264E+01  0.25972423612E+03  0.29106268079E+03  0.12700000000E+03 0.  0.
<mgrwt>
<rscale>  0 0.28406948E+03</rscale>
<asrwt>0</asrwt>
<pdfrwt beam="1">  1        2 0.12690889E+00 0.28406948E+03</pdfrwt>
<pdfrwt beam="2">  1       -2 0.32441509E-02 0.28406948E+03</pdfrwt>
<totfact> 0.12822910E+04</totfact>
</mgrwt>
</event>
<event>
 4    1  0.1390278E-004  0.3086901E+03  0.7818608E-02  0.1080975E+00
          2   -1    0    0  501    0  0.00000000000E+00  0.00000000000E+00  0.65370920996E+02  0.65370921046E+02  0.25500000000E-02 0.  1.
         -2   -1    0    0    0  501 -0.00000000000E+00 -0.00000000000E+00 -0.36441884072E+03  0.36441884073E+03  0.25500000000E-02 0. -1.
    5000001    1    1    2    0    0 -0.78743565043E+02  0.34652665326E+02 -0.17331721108E+03  0.23145023635E+03  0.12700000000E+03 0.  0.
   -5000001    1    1    2    0    0  0.78743565043E+02 -0.34652665326E+02 -0.12573070865E+03  0.19833952543E+03  0.12700000000E+03 0.  0.
<mgrwt>
<rscale>  0 0.30869011E+03</rscale>
<asrwt>0</asrwt>
<pdfrwt beam="1">  1        2 0.93387032E-02 0.30869011E+03</pdfrwt>
<pdfrwt beam="2">  1       -2 0.52059833E-01 0.30869011E+03</pdfrwt>
<totfact> 0.24765157E+03</totfact>
</mgrwt>
</event>
<event>
 4    1  0.1390278E-004  0.4806630E+03  0.7818608E-02  0.1018953E+00
          2   -1    0    0  501    0  0.00000000000E+00  0.00000000000E+00  0.25166518441E+04  0.25166518441E+04  0.25500000000E-02 0.  1.
         -2   -1    0    0    0  501 -0.00000000000E+00 -0.00000000000E+00 -0.22950821477E+02  0.22950821619E+02  0.25500000000E-02 0. -1.
    5000001    1    1    2    0    0  0.16084566475E+03 -0.54976121838E+02  0.65057005342E+03  0.68429825095E+03  0.12700000000E+03 0.  0.
   -5000001    1    1    2    0    0 -0.16084566475E+03  0.54976121838E+02  0.18431309692E+04  0.18553044147E+04  0.12700000000E+03 0.  0.
<mgrwt>
<rscale>  0 0.48066299E+03</rscale>
<asrwt>0</asrwt>
<pdfrwt beam="1">  1        2 0.35952171E+00 0.48066299E+03</pdfrwt>
<pdfrwt beam="2">  1       -2 0.32786886E-02 0.48066299E+03</pdfrwt>
<totfact> 0.17934109E+03</totfact>
</mgrwt>
</event>
<event>
 4    1  0.1390278E-004  0.4863977E+03  0.7818608E-02  0.1017392E+00
         -2   -1    0    0    0  501 -0.00000000000E+00  0.00000000000E+00  0.38370137747E+03  0.38370137748E+03  0.25500000000E-02 0. -1.
          2   -1    0    0  501    0  0.00000000000E+00 -0.00000000000E+00 -0.15414506888E+03  0.15414506890E+03  0.25500000000E-02 0.  1.
    5000001    1    1    2    0    0 -0.33908951594E+02  0.19854994382E+03  0.60103438750E+02  0.24558770437E+03  0.12700000000E+03 0.  0.
   -5000001    1    1    2    0    0  0.33908951594E+02 -0.19854994382E+03  0.16945286984E+03  0.29225874202E+03  0.12700000000E+03 0.  0.
<mgrwt>
<rscale>  0 0.48639768E+03</rscale>
<asrwt>0</asrwt>
<pdfrwt beam="1">  1        2 0.22020724E-01 0.48639768E+03</pdfrwt>
<pdfrwt beam="2">  1       -2 0.54814482E-01 0.48639768E+03</pdfrwt>
<totfact> 0.79822087E+02</totfact>
</mgrwt>
</event>
<event>
 4    1  0.1390278E-004  0.3585593E+03  0.7818608E-02  0.1059156E+00
         -2   -1    0    0    0  501 -0.00000000000E+00  0.00000000000E+00  0.10877841024E+04  0.10877841024E+04  0.25500000000E-02 0. -1.
          2   -1    0    0  501    0  0.00000000000E+00 -0.00000000000E+00 -0.29547396623E+02  0.29547396733E+02  0.25500000000E-02 0.  1.
    5000001    1    1    2    0    0 -0.10358410672E+03  0.16388758929E+02  0.30846516528E+03  0.34968273732E+03  0.12700000000E+03 0.  0.
   -5000001    1    1    2    0    0  0.10358410672E+03 -0.16388758929E+02  0.74977154050E+03  0.76764876182E+03  0.12700000000E+03 0.  0.
<mgrwt>
<rscale>  0 0.35855927E+03</rscale>
<asrwt>0</asrwt>
<pdfrwt beam="1">  1        2 0.42210559E-02 0.35855927E+03</pdfrwt>
<pdfrwt beam="2">  1       -2 0.15539776E+00 0.35855927E+03</pdfrwt>
<totfact> 0.57326198E+02</totfact>
</mgrwt>
</event>
<event>
 4    1  0.1390278E-004  0.6833986E+03  0.7818608E-02  0.9746052E-01
         -2   -1    0    0    0  501 -0.00000000000E+00  0.00000000000E+00  0.19988182847E+03  0.19988182849E+03  0.25500000000E-02 0. -1.
          2   -1    0    0  501    0  0.00000000000E+00 -0.00000000000E+00 -0.58413723288E+03  0.58413723289E+03  0.25500000000E-02 0.  1.
    5000001    1    1    2    0    0  0.19865824408E+03  0.12835480589E+03  0.50396235972E+02  0.27314617833E+03  0.12700000000E+03 0.  0.
   -5000001    1    1    2    0    0 -0.19865824408E+03 -0.12835480589E+03 -0.43465164039E+03  0.51087288304E+03  0.12700000000E+03 0.  0.
<mgrwt>
<rscale>  0 0.68339862E+03</rscale>
<asrwt>0</asrwt>
<pdfrwt beam="1">  1        2 0.83448175E-01 0.68339862E+03</pdfrwt>
<pdfrwt beam="2">  1       -2 0.28554547E-01 0.68339862E+03</pdfrwt>
<totfact> 0.63200301E+02</totfact>
</mgrwt>
</event>
<event>
 4    1  0.1390278E-004  0.3419811E+03  0.7818608E-02  0.1065955E+00
          2   -1    0    0  501    0  0.00000000000E+00  0.00000000000E+00  0.14570590670E+04  0.14570590670E+04  0.25500000000E-02 0.  1.
         -2   -1    0    0    0  501 -0.00000000000E+00 -0.00000000000E+00 -0.20066290626E+02  0.20066290788E+02  0.25500000000E-02 0. -1.
    5000001    1    1    2    0    0  0.59266725897E+02  0.94108069870E+02  0.83598639342E+03  0.85286055343E+03  0.12700000000E+03 0.  0.
   -5000001    1    1    2    0    0 -0.59266725897E+02 -0.94108069870E+02  0.60100638297E+03  0.62426480438E+03  0.12700000000E+03 0.  0.
<mgrwt>
<rscale>  0 0.34198112E+03</rscale>
<asrwt>0</asrwt>
<pdfrwt beam="1">  1        2 0.20815132E+00 0.34198112E+03</pdfrwt>
<pdfrwt beam="2">  1       -2 0.28666126E-02 0.34198112E+03</pdfrwt>
<totfact> 0.74663814E+03</totfact>
</mgrwt>
</event>
<event>
 4    1  0.1390278E-004  0.3714838E+03  0.7818608E-02  0.1054127E+00
          2   -1    0    0  501    0  0.00000000000E+00  0.00000000000E+00  0.26468669374E+03  0.26468669375E+03  0.25500000000E-02 0.  1.
         -2   -1    0    0    0  501 -0.00000000000E+00 -0.00000000000E+00 -0.13034298749E+03  0.13034298752E+03  0.25500000000E-02 0. -1.
    5000001    1    1    2    0    0  0.71629044651E+02  0.10844498027E+03  0.26262394910E+02  0.18360214370E+03  0.12700000000E+03 0.  0.
   -5000001    1    1    2    0    0 -0.71629044651E+02 -0.10844498027E+03  0.10808131133E+03  0.21142753757E+03  0.12700000000E+03 0.  0.
<mgrwt>
<rscale>  0 0.37148381E+03</rscale>
<asrwt>0</asrwt>
<pdfrwt beam="1">  1        2 0.37812385E-01 0.37148381E+03</pdfrwt>
<pdfrwt beam="2">  1       -2 0.18620427E-01 0.37148381E+03</pdfrwt>
<totfact> 0.32475813E+03</totfact>
</mgrwt>
</event>
<event>
 4    1  0.1390278E-004  0.2771666E+03  0.7818608E-02  0.1097247E+00
         -2   -1    0    0    0  501 -0.00000000000E+00  0.00000000000E+00  0.18658691930E+03  0.18658691932E+03  0.25500000000E-02 0. -1.
          2   -1    0    0  501    0  0.00000000000E+00 -0.00000000000E+00 -0.10292967794E+03  0.10292967797E+03  0.25500000000E-02 0.  1.
    5000001    1    1    2    0    0 -0.51412567829E+02 -0.88695185527E+01  0.22163972529E+02  0.13907610208E+03  0.12700000000E+03 0.  0.
   -5000001    1    1    2    0    0  0.51412567829E+02  0.88695185527E+01  0.61493268834E+02  0.15044049522E+03  0.12700000000E+03 0.  0.
<mgrwt>
<rscale>  0 0.27716660E+03</rscale>
<asrwt>0</asrwt>
<pdfrwt beam="1">  1        2 0.14704240E-01 0.27716660E+03</pdfrwt>
<pdfrwt beam="2">  1       -2 0.26655274E-01 0.27716660E+03</pdfrwt>
<totfact> 0.50270662E+03</totfact>
</mgrwt>
</event>
<event>
 4    1  0.1390278E-004  0.3227451E+03  0.7818608E-02  0.1074393E+00
         -2   -1    0    0    0  501 -0.00000000000E+00  0.00000000000E+00  0.55444871230E+02  0.55444871289E+02  0.25500000000E-02 0. -1.
          2   -1    0    0  501    0  0.00000000000E+00 -0.00000000000E+00 -0.46967551634E+03  0.46967551634E+03  0.25500000000E-02 0.  1.
    5000001    1    1    2    0    0 -0.28577907530E+02  0.79973080101E+02 -0.29165442775E+03  0.32924716485E+03  0.12700000000E+03 0.  0.
   -5000001    1    1    2    0    0  0.28577907530E+02 -0.79973080101E+02 -0.12257621736E+03  0.19587322278E+03  0.12700000000E+03 0.  0.
<mgrwt>
<rscale>  0 0.32274509E+03</rscale>
<asrwt>0</asrwt>
<pdfrwt beam="1">  1        2 0.67096500E-01 0.32274509E+03</pdfrwt>
<pdfrwt beam="2">  1       -2 0.79206962E-02 0.32274509E+03</pdfrwt>
<totfact> 0.69775792E+03</totfact>
</mgrwt>
</event>
<event>
 4    1  0.1390278E-004  0.4562267E+03  0.7818608E-02  0.1025881E+00
          2   -1    0    0  501    0  0.00000000000E+00  0.00000000000E+00  0.84102418859E+03  0.84102418860E+03  0.25500000000E-02 0.  1.
         -2   -1    0    0    0  501 -0.00000000000E+00 -0.00000000000E+00 -0.61871818611E+02  0.61871818664E+02  0.25500000000E-02 0. -1.
    5000001    1    1    2    0    0 -0.12921654461E+03 -0.12408221809E+03  0.26736461801E+03  0.34598576735E+03  0.12700000000E+03 0.  0.
   -5000001    1    1    2    0    0  0.12921654461E+03  0.12408221809E+03  0.51178775197E+03  0.55691023991E+03  0.12700000000E+03 0.  0.
<mgrwt>
<rscale>  0 0.45622668E+03</rscale>
<asrwt>0</asrwt>
<pdfrwt beam="1">  1        2 0.12014630E+00 0.45622668E+03</pdfrwt>
<pdfrwt beam="2">  1       -2 0.88388325E-02 0.45622668E+03</pdfrwt>
<totfact> 0.29728001E+03</totfact>
</mgrwt>
</event>
<event>
 4    1  0.1390278E-004  0.5408464E+03  0.7818608E-02  0.1003635E+00
          2   -1    0    0  501    0  0.00000000000E+00  0.00000000000E+00  0.68446346313E+02  0.68446346361E+02  0.25500000000E-02 0.  1.
         -2   -1    0    0    0  501 -0.00000000000E+00 -0.00000000000E+00 -0.10684092798E+04  0.10684092798E+04  0.25500000000E-02 0. -1.
    5000001    1    1    2    0    0 -0.22834052133E+03  0.69610398409E+02 -0.49191946522E+03  0.56133658486E+03  0.12700000000E+03 0.  0.
   -5000001    1    1    2    0    0  0.22834052133E+03 -0.69610398409E+02 -0.50804346825E+03  0.57551904129E+03  0.12700000000E+03 0.  0.
<mgrwt>
<rscale>  0 0.54084642E+03</rscale>
<asrwt>0</asrwt>
<pdfrwt beam="1">  1        2 0.97780501E-02 0.54084642E+03</pdfrwt>
<pdfrwt beam="2">  1       -2 0.15262989E+00 0.54084642E+03</pdfrwt>
<totfact> 0.19907677E+02</totfact>
</mgrwt>
</event>
<event>
 4    1  0.1390278E-004  0.5524155E+03  0.7818608E-02  0.1000936E+00
          2   -1    0    0  501    0  0.00000000000E+00  0.00000000000E+00  0.43887149988E+03  0.43887149989E+03  0.25500000000E-02 0.  1.
         -2   -1    0    0    0  501 -0.00000000000E+00 -0.00000000000E+00 -0.17383383407E+03  0.17383383409E+03  0.25500000000E-02 0. -1.
    5000001    1    1    2    0    0  0.83824866442E+02 -0.22531701475E+03  0.18648444017E+03  0.32969654502E+03  0.12700000000E+03 0.  0.
   -5000001    1    1    2    0    0 -0.83824866442E+02  0.22531701475E+03  0.78553225639E+02  0.28300878896E+03  0.12700000000E+03 0.  0.
<mgrwt>
<rscale>  0 0.55241548E+03</rscale>
<asrwt>0</asrwt>
<pdfrwt beam="1">  1        2 0.62695929E-01 0.55241548E+03</pdfrwt>
<pdfrwt beam="2">  1       -2 0.24833405E-01 0.55241548E+03</pdfrwt>
<totfact> 0.11309112E+03</totfact>
</mgrwt>
</event>
<event>
 4    1  0.1390278E-004  0.5279296E+03  0.7818608E-02  0.1006735E+00
         -2   -1    0    0    0  501 -0.00000000000E+00  0.00000000000E+00  0.10768095536E+03  0.10768095540E+03  0.25500000000E-02 0. -1.
          2   -1    0    0  501    0  0.00000000000E+00 -0.00000000000E+00 -0.64707286999E+03  0.64707287000E+03  0.25500000000E-02 0.  1.
    5000001    1    1    2    0    0 -0.16029289200E+03  0.66068884997E+02 -0.48880803454E+03  0.53396741794E+03  0.12700000000E+03 0.  0.
   -5000001    1    1    2    0    0  0.16029289200E+03 -0.66068884997E+02 -0.50583880086E+02  0.22078640745E+03  0.12700000000E+03 0.  0.
<mgrwt>
<rscale>  0 0.52792963E+03</rscale>
<asrwt>0</asrwt>
<pdfrwt beam="1">  1        2 0.92438979E-01 0.52792963E+03</pdfrwt>
<pdfrwt beam="2">  1       -2 0.15382994E-01 0.52792963E+03</pdfrwt>
<totfact> 0.16611699E+03</totfact>
</mgrwt>
</event>
<event>
 4    1  0.1390278E-004  0.3718869E+03  0.7818608E-02  0.1053974E+00
          2   -1    0    0  501    0  0.00000000000E+00  0.00000000000E+00  0.24999490661E+03  0.24999490662E+03  0.25500000000E-02 0.  1.
         -2   -1    0    0    0  501 -0.00000000000E+00 -0.00000000000E+00 -0.13830265140E+03  0.13830265142E+03  0.25500000000E-02 0. -1.
    5000001    1    1    2    0    0 -0.31791964322E+02 -0.12116167815E+03  0.10410603519E+01  0.17838431841E+03  0.12700000000E+03 0.  0.
   -5000001    1    1    2    0    0  0.31791964322E+02  0.12116167815E+03  0.11065119486E+03  0.20991323963E+03  0.12700000000E+03 0.  0.
<mgrwt>
<rscale>  0 0.37188686E+03</rscale>
<asrwt>0</asrwt>
<pdfrwt beam="1">  1        2 0.35713558E-01 0.37188686E+03</pdfrwt>
<pdfrwt beam="2">  1       -2 0.19757522E-01 0.37188686E+03</pdfrwt>
<totfact> 0.31231370E+03</totfact>
</mgrwt>
</event>
<event>
 4    1  0.1390278E-004  0.5059184E+03  0.7818608E-02  0.1012246E+00
          2   -1    0    0  501    0  0.00000000000E+00  0.00000000000E+00  0.36990828593E+03  0.36990828594E+03  0.25500000000E-02 0.  1.
         -2   -1    0    0    0  501 -0.00000000000E+00 -0.00000000000E+00 -0.17298438791E+03  0.17298438792E+03  0.25500000000E-02 0. -1.
    5000001    1    1    2    0    0 -0.21119419388E+03  0.47459470923E+02  0.64460786587E+02  0.25911306783E+03  0.12700000000E+03 0.  0.
   -5000001    1    1    2    0    0  0.21119419388E+03 -0.47459470923E+02  0.13246311144E+03  0.28377960604E+03  0.12700000000E+03 0.  0.
<mgrwt>
<rscale>  0 0.50591841E+03</rscale>
<asrwt>0</asrwt>
<pdfrwt beam="1">  1        2 0.52844041E-01 0.50591841E+03</pdfrwt>
<pdfrwt beam="2">  1       -2 0.24712056E-01 0.50591841E+03</pdfrwt>
<totfact> 0.13788885E+03</totfact>
</mgrwt>
</event>
<event>
 4    1  0.1390278E-004  0.6601770E+03  0.7818608E-02  0.9787868E-01
         -2   -1    0    0    0  501 -0.00000000000E+00  0.00000000000E+00  0.52706134647E+03  0.52706134648E+03  0.25500000000E-02 0. -1.
          2   -1    0    0  501    0  0.00000000000E+00 -0.00000000000E+00 -0.20672814454E+03  0.20672814456E+03  0.25500000000E-02 0.  1.
    5000001    1    1    2    0    0 -0.28382194309E+03  0.30058533674E+02  0.41641454737E+02  0.31515301296E+03  0.12700000000E+03 0.  0.
   -5000001    1    1    2    0    0  0.28382194309E+03 -0.30058533674E+02  0.27869174719E+03  0.41863647808E+03  0.12700000000E+03 0.  0.
<mgrwt>
<rscale>  0 0.66017699E+03</rscale>
<asrwt>0</asrwt>
<pdfrwt beam="1">  1        2 0.29532593E-01 0.66017699E+03</pdfrwt>
<pdfrwt beam="2">  1       -2 0.75294476E-01 0.66017699E+03</pdfrwt>
<totfact> 0.28958872E+02</totfact>
</mgrwt>
</event>
<event>
 4    1  0.1390278E-004  0.3134392E+03  0.7818608E-02  0.1078709E+00
          2   -1    0    0  501    0  0.00000000000E+00  0.00000000000E+00  0.65164604835E+03  0.65164604836E+03  0.25500000000E-02 0.  1.
         -2   -1    0    0    0  501 -0.00000000000E+00 -0.00000000000E+00 -0.37690747913E+02  0.37690747999E+02  0.25500000000E-02 0. -1.
    5000001    1    1    2    0    0 -0.75155245590E+02  0.25812986577E+02  0.40817758885E+03  0.43480175397E+03  0.12700000000E+03 0.  0.
   -5000001    1    1    2    0    0  0.75155245590E+02 -0.25812986577E+02  0.20577771159E+03  0.25453504239E+03  0.12700000000E+03 0.  0.
<mgrwt>
<rscale>  0 0.31343916E+03</rscale>
<asrwt>0</asrwt>
<pdfrwt beam="1">  1        2 0.93092286E-01 0.31343916E+03</pdfrwt>
<pdfrwt beam="2">  1       -2 0.53843930E-02 0.31343916E+03</pdfrwt>
<totfact> 0.87452035E+03</totfact>
</mgrwt>
</event>
<event>
 4    1  0.1390278E-004  0.4027052E+03  0.7818608E-02  0.1042847E+00
         -2   -1    0    0    0  501 -0.00000000000E+00  0.00000000000E+00  0.26250016294E+02  0.26250016418E+02  0.25500000000E-02 0. -1.
          2   -1    0    0  501    0  0.00000000000E+00 -0.00000000000E+00 -0.15444892139E+04  0.15444892139E+04  0.25500000000E-02 0.  1.
    5000001    1    1    2    0    0  0.81668328023E+02 -0.13157987415E+03 -0.84008492872E+03  0.86362877820E+03  0.12700000000E+03 0.  0.
   -5000001    1    1    2    0    0 -0.81668328023E+02  0.13157987415E+03 -0.67815426892E+03  0.70711045215E+03  0.12700000000E+03 0.  0.
<mgrwt>
<rscale>  0 0.40270519E+03</rscale>
<asrwt>0</asrwt>
<pdfrwt beam="1">  1        2 0.22064126E+00 0.40270519E+03</pdfrwt>
<pdfrwt beam="2">  1       -2 0.37500033E-02 0.40270519E+03</pdfrwt>
<totfact> 0.45006980E+03</totfact>
</mgrwt>
</event>
<event>
 4    1  0.1390278E-004  0.5770113E+03  0.7818608E-02  0.9954283E-01
          2   -1    0    0  501    0  0.00000000000E+00  0.00000000000E+00  0.20971030449E+04  0.20971030449E+04  0.25500000000E-02 0.  1.
         -2   -1    0    0    0  501 -0.00000000000E+00 -0.00000000000E+00 -0.39690712208E+02  0.39690712290E+02  0.25500000000E-02 0. -1.
    5000001    1    1    2    0    0 -0.11897756811E+03 -0.22456921541E+03  0.84282425779E+03  0.88942044262E+03  0.12700000000E+03 0.  0.
   -5000001    1    1    2    0    0  0.11897756811E+03  0.22456921541E+03  0.12145880749E+04  0.12473733146E+04  0.12700000000E+03 0.  0.
<mgrwt>
<rscale>  0 0.57701131E+03</rscale>
<asrwt>0</asrwt>
<pdfrwt beam="1">  1        2 0.29958627E+00 0.57701131E+03</pdfrwt>
<pdfrwt beam="2">  1       -2 0.56700995E-02 0.57701131E+03</pdfrwt>
<totfact> 0.12509947E+03</totfact>
</mgrwt>
</event>
<event>
 4    1  0.1390278E-004  0.3362640E+03  0.7818608E-02  0.1068398E+00
         -2   -1    0    0    0  501 -0.00000000000E+00  0.00000000000E+00  0.52947309756E+02  0.52947309817E+02  0.25500000000E-02 0. -1.
          2   -1    0    0  501    0  0.00000000000E+00 -0.00000000000E+00 -0.53389636108E+03  0.53389636109E+03  0.25500000000E-02 0.  1.
    5000001    1    1    2    0    0  0.44228683834E+02  0.91891592143E+02 -0.31325395202E+03  0.35306837813E+03  0.12700000000E+03 0.  0.
   -5000001    1    1    2    0    0 -0.44228683834E+02 -0.91891592143E+02 -0.16769509931E+03  0.23377529278E+03  0.12700000000E+03 0.  0.
<mgrwt>
<rscale>  0 0.33626404E+03</rscale>
<asrwt>0</asrwt>
<pdfrwt beam="1">  1        2 0.76270906E-01 0.33626404E+03</pdfrwt>
<pdfrwt beam="2">  1       -2 0.75639017E-02 0.33626404E+03</pdfrwt>
<totfact> 0.65101326E+03</totfact>
</mgrwt>
</event>
<event>
 4    1  0.1390278E-004  0.4007537E+03  0.7818608E-02  0.1043519E+00
          2   -1    0    0  501    0  0.00000000000E+00  0.00000000000E+00  0.10662810014E+03  0.10662810017E+03  0.25500000000E-02 0.  1.
         -2   -1    0    0    0  501 -0.00000000000E+00 -0.00000000000E+00 -0.37655064960E+03  0.37655064961E+03  0.25500000000E-02 0. -1.
    5000001    1    1    2    0    0  0.33996752122E+02  0.10262490673E+03 -0.10595069258E+01  0.16678660975E+03  0.12700000000E+03 0.  0.
   -5000001    1    1    2    0    0 -0.33996752122E+02 -0.10262490673E+03 -0.26886304254E+03  0.31639214004E+03  0.12700000000E+03 0.  0.
<mgrwt>
<rscale>  0 0.40075369E+03</rscale>
<asrwt>0</asrwt>
<pdfrwt beam="1">  1        2 0.15232586E-01 0.40075369E+03</pdfrwt>
<pdfrwt beam="2">  1       -2 0.53792949E-01 0.40075369E+03</pdfrwt>
<totfact> 0.12774019E+03</totfact>
</mgrwt>
</event>
<event>
 4    1  0.1390278E-004  0.2908946E+03  0.7818608E-02  0.1089883E+00
         -2   -1    0    0    0  501 -0.00000000000E+00  0.00000000000E+00  0.17025078487E+02  0.17025078678E+02  0.25500000000E-02 0. -1.
          2   -1    0    0  501    0  0.00000000000E+00 -0.00000000000E+00 -0.12425742095E+04  0.12425742095E+04  0.25500000000E-02 0.  1.
    5000001    1    1    2    0    0  0.11576270316E+02  0.68403127265E+02 -0.54959003921E+03  0.56832315548E+03  0.12700000000E+03 0.  0.
   -5000001    1    1    2    0    0 -0.11576270316E+02 -0.68403127265E+02 -0.67595909185E+03  0.69127613275E+03  0.12700000000E+03 0.  0.
<mgrwt>
<rscale>  0 0.29089464E+03</rscale>
<asrwt>0</asrwt>
<pdfrwt beam="1">  1        2 0.17751054E+00 0.29089464E+03</pdfrwt>
<pdfrwt beam="2">  1       -2 0.24321549E-02 0.29089464E+03</pdfrwt>
<totfact> 0.12307095E+04</totfact>
</mgrwt>
</event>
<event>
 4    1  0.1390278E-004  0.3992210E+03  0.7818608E-02  0.1044050E+00
         -2   -1    0    0    0  501 -0.00000000000E+00  0.00000000000E+00  0.14988829306E+02  0.14988829523E+02  0.25500000000E-02 0. -1.
          2   -1    0    0  501    0  0.00000000000E+00 -0.00000000000E+00 -0.26582701670E+04  0.26582701670E+04  0.25500000000E-02 0.  1.
    5000001    1    1    2    0    0  0.36225207920E+02 -0.12602776543E+03 -0.78094290078E+03  0.80199506085E+03  0.12700000000E+03 0.  0.
   -5000001    1    1    2    0    0 -0.36225207920E+02  0.12602776543E+03 -0.18623384369E+04  0.18712639357E+04  0.12700000000E+03 0.  0.
<mgrwt>
<rscale>  0 0.39922103E+03</rscale>
<asrwt>0</asrwt>
<pdfrwt beam="1">  1        2 0.37975258E+00 0.39922103E+03</pdfrwt>
<pdfrwt beam="2">  1       -2 0.21412630E-02 0.39922103E+03</pdfrwt>
<totfact> 0.28937391E+03</totfact>
</mgrwt>
</event>
<event>
 4    1  0.1390278E-004  0.3366675E+03  0.7818608E-02  0.1068224E+00
          2   -1    0    0  501    0  0.00000000000E+00  0.00000000000E+00  0.66553134867E+03  0.66553134868E+03  0.25500000000E-02 0.  1.
         -2   -1    0    0    0  501 -0.00000000000E+00 -0.00000000000E+00 -0.42576891972E+02  0.42576892048E+02  0.25500000000E-02 0. -1.
    5000001    1    1    2    0    0 -0.21244966781E+02 -0.10661049339E+03  0.35301968821E+03  0.39060087836E+03  0.12700000000E+03 0.  0.
   -5000001    1    1    2    0    0  0.21244966781E+02  0.10661049339E+03  0.26993476849E+03  0.31750736236E+03  0.12700000000E+03 0.  0.
<mgrwt>
<rscale>  0 0.33666753E+03</rscale>
<asrwt>0</asrwt>
<pdfrwt beam="1">  1        2 0.95075898E-01 0.33666753E+03</pdfrwt>
<pdfrwt beam="2">  1       -2 0.60824137E-02 0.33666753E+03</pdfrwt>
<totfact> 0.70890458E+03</totfact>
</mgrwt>
</event>
<event>
 4    1  0.1390278E-004  0.4237104E+03  0.7818608E-02  0.1035865E+00
         -2   -1    0    0    0  501 -0.00000000000E+00  0.00000000000E+00  0.27826918781E+03  0.27826918782E+03  0.25500000000E-02 0.  1.
          2   -1    0    0  501    0  0.00000000000E+00 -0.00000000000E+00 -0.16129212968E+03  0.16129212970E+03  0.25500000000E-02 0. -1.
    5000001    1    1    2    0    0  0.12090615904E+03  0.10577886017E+03  0.11479764851E+03  0.23476576977E+03  0.12700000000E+03 0.  0.
   -5000001    1    1    2    0    0 -0.12090615904E+03 -0.10577886017E+03  0.21794096209E+01  0.20479554775E+03  0.12700000000E+03 0.  0.
<mgrwt>
<rscale>  0 0.42371042E+03</rscale>
<asrwt>0</asrwt>
<pdfrwt beam="1">  1        2 0.23041733E-01 0.42371042E+03</pdfrwt>
<pdfrwt beam="2">  1       -2 0.39752741E-01 0.42371042E+03</pdfrwt>
<totfact> 0.14348369E+03</totfact>
</mgrwt>
</event>
<event>
 4    1  0.1390278E-004  0.4173518E+03  0.7818608E-02  0.1037932E+00
          2   -1    0    0  501    0  0.00000000000E+00  0.00000000000E+00  0.14303919173E+04  0.14303919173E+04  0.25500000000E-02 0. -1.
         -2   -1    0    0    0  501 -0.00000000000E+00 -0.00000000000E+00 -0.30443141767E+02  0.30443141873E+02  0.25500000000E-02 0.  1.
    5000001    1    1    2    0    0 -0.13610727041E+03  0.56454087821E+02  0.96433868741E+03  0.98376336439E+03  0.12700000000E+03 0.  0.
   -5000001    1    1    2    0    0  0.13610727041E+03 -0.56454087821E+02  0.43561008816E+03  0.47707169482E+03  0.12700000000E+03 0.  0.
<mgrwt>
<rscale>  0 0.41735177E+03</rscale>
<asrwt>0</asrwt>
<pdfrwt beam="1">  1        2 0.20434173E+00 0.41735177E+03</pdfrwt>
<pdfrwt beam="2">  1       -2 0.43490196E-02 0.41735177E+03</pdfrwt>
<totfact> 0.41123642E+03</totfact>
</mgrwt>
</event>
<event>
 4    1  0.1390278E-004  0.5105368E+03  0.7818608E-02  0.1011065E+00
         -2   -1    0    0    0  501 -0.00000000000E+00  0.00000000000E+00  0.70459340656E+02  0.70459340702E+02  0.25500000000E-02 0. -1.
          2   -1    0    0  501    0  0.00000000000E+00 -0.00000000000E+00 -0.92481646615E+03  0.92481646615E+03  0.25500000000E-02 0.  1.
    5000001    1    1    2    0    0 -0.18503330410E+03 -0.80202108759E+02 -0.24889795828E+03  0.34459961624E+03  0.12700000000E+03 0.  0.
   -5000001    1    1    2    0    0  0.18503330410E+03  0.80202108759E+02 -0.60545916721E+03  0.65067619062E+03  0.12700000000E+03 0.  0.
<mgrwt>
<rscale>  0 0.51053681E+03</rscale>
<asrwt>0</asrwt>
<pdfrwt beam="1">  1        2 0.13211663E+00 0.51053681E+03</pdfrwt>
<pdfrwt beam="2">  1       -2 0.10065621E-01 0.51053681E+03</pdfrwt>
<totfact> 0.21301307E+03</totfact>
</mgrwt>
</event>
<event>
 4    1  0.1390278E-004  0.3260763E+03  0.7818608E-02  0.1072886E+00
         -2   -1    0    0    0  501 -0.00000000000E+00  0.00000000000E+00  0.59830150012E+02  0.59830150066E+02  0.25500000000E-02 0. -1.
          2   -1    0    0  501    0  0.00000000000E+00 -0.00000000000E+00 -0.44428158965E+03  0.44428158966E+03  0.25500000000E-02 0.  1.
    5000001    1    1    2    0    0  0.51354115989E+02  0.72342222096E+02 -0.11367173445E+03  0.19214813436E+03  0.12700000000E+03 0.  0.
   -5000001    1    1    2    0    0 -0.51354115989E+02 -0.72342222096E+02 -0.27077970519E+03  0.31196360536E+03  0.12700000000E+03 0.  0.
<mgrwt>
<rscale>  0 0.32607627E+03</rscale>
<asrwt>0</asrwt>
<pdfrwt beam="1">  1        2 0.63468797E-01 0.32607627E+03</pdfrwt>
<pdfrwt beam="2">  1       -2 0.85471645E-02 0.32607627E+03</pdfrwt>
<totfact> 0.65831304E+03</totfact>
</mgrwt>
</event>
<event>
 4    1  0.1390278E-004  0.3855146E+03  0.7818608E-02  0.1048914E+00
          2   -1    0    0  501    0  0.00000000000E+00  0.00000000000E+00  0.29844378981E+04  0.29844378981E+04  0.25500000000E-02 0.  1.
         -2   -1    0    0    0  501 -0.00000000000E+00 -0.00000000000E+00 -0.12449704554E+02  0.12449704816E+02  0.25500000000E-02 0. -1.
    5000001    1    1    2    0    0 -0.93940405917E+02  0.11021974209E+03  0.14293049323E+04  0.14422256346E+04  0.12700000000E+03 0.  0.
   -5000001    1    1    2    0    0  0.93940405917E+02 -0.11021974209E+03  0.15426832613E+04  0.15546619684E+04  0.12700000000E+03 0.  0.
<mgrwt>
<rscale>  0 0.38551457E+03</rscale>
<asrwt>0</asrwt>
<pdfrwt beam="1">  1        2 0.42634868E+00 0.38551457E+03</pdfrwt>
<pdfrwt beam="2">  1       -2 0.17785276E-02 0.38551457E+03</pdfrwt>
<totfact> 0.25750680E+03</totfact>
</mgrwt>
</event>
<event>
 4    1  0.1390278E-004  0.5337225E+03  0.7818608E-02  0.1005333E+00
         -2   -1    0    0    0  501 -0.00000000000E+00  0.00000000000E+00  0.97384281431E+02  0.97384281464E+02  0.25500000000E-02 0. -1.
          2   -1    0    0  501    0  0.00000000000E+00 -0.00000000000E+00 -0.73127739660E+03  0.73127739661E+03  0.25500000000E-02 0.  1.
    5000001    1    1    2    0    0 -0.18873440079E+03 -0.11655899117E+03 -0.19789837601E+03  0.32326373087E+03  0.12700000000E+03 0.  0.
   -5000001    1    1    2    0    0  0.18873440079E+03  0.11655899117E+03 -0.43599473916E+03  0.50539794721E+03  0.12700000000E+03 0.  0.
<mgrwt>
<rscale>  0 0.53372249E+03</rscale>
<asrwt>0</asrwt>
<pdfrwt beam="1">  1        2 0.10446820E+00 0.53372249E+03</pdfrwt>
<pdfrwt beam="2">  1       -2 0.13912041E-01 0.53372249E+03</pdfrwt>
<totfact> 0.16945945E+03</totfact>
</mgrwt>
</event>
<event>
 4    1  0.1390278E-004  0.3909786E+03  0.7818608E-02  0.1046949E+00
         -2   -1    0    0    0  501 -0.00000000000E+00  0.00000000000E+00  0.31798549117E+02  0.31798549219E+02  0.25500000000E-02 0. -1.
          2   -1    0    0  501    0  0.00000000000E+00 -0.00000000000E+00 -0.12018176686E+04  0.12018176686E+04  0.25500000000E-02 0.  1.
    5000001    1    1    2    0    0  0.11863231671E+03 -0.14209078583E+02 -0.30614374021E+03  0.35231876781E+03  0.12700000000E+03 0.  0.
   -5000001    1    1    2    0    0 -0.11863231671E+03  0.14209078583E+02 -0.86387537926E+03  0.88129745000E+03  0.12700000000E+03 0.  0.
<mgrwt>
<rscale>  0 0.39097856E+03</rscale>
<asrwt>0</asrwt>
<pdfrwt beam="1">  1        2 0.17168821E+00 0.39097856E+03</pdfrwt>
<pdfrwt beam="2">  1       -2 0.45426506E-02 0.39097856E+03</pdfrwt>
<totfact> 0.50939442E+03</totfact>
</mgrwt>
</event>
<event>
 4    1  0.1390278E-004  0.4414077E+03  0.7818608E-02  0.1030316E+00
         -2   -1    0    0    0  501 -0.00000000000E+00  0.00000000000E+00  0.17773950178E+02  0.17773950361E+02  0.25500000000E-02 0. -1.
          2   -1    0    0  501    0  0.00000000000E+00 -0.00000000000E+00 -0.27405380313E+04  0.27405380313E+04  0.25500000000E-02 0.  1.
    5000001    1    1    2    0    0  0.57929516258E+02  0.16970665297E+03 -0.14902078704E+04  0.15063215706E+04  0.12700000000E+03 0.  0.
   -5000001    1    1    2    0    0 -0.57929516258E+02 -0.16970665297E+03 -0.12325562108E+04  0.12519904111E+04  0.12700000000E+03 0.  0.
<mgrwt>
<rscale>  0 0.44140769E+03</rscale>
<asrwt>0</asrwt>
<pdfrwt beam="1">  1        2 0.39150516E+00 0.44140769E+03</pdfrwt>
<pdfrwt beam="2">  1       -2 0.25391375E-02 0.44140769E+03</pdfrwt>
<totfact> 0.20278704E+03</totfact>
</mgrwt>
</event>
<event>
 4    1  0.1390278E-004  0.2727573E+03  0.7818608E-02  0.1099712E+00
          2   -1    0    0  501    0  0.00000000000E+00  0.00000000000E+00  0.85966491117E+03  0.85966491117E+03  0.25500000000E-02 0.  1.
         -2   -1    0    0    0  501 -0.00000000000E+00 -0.00000000000E+00 -0.21635331197E+02  0.21635331347E+02  0.25500000000E-02 0. -1.
    5000001    1    1    2    0    0  0.37408720371E+02  0.32547494178E+02  0.42991622225E+03  0.45101630779E+03  0.12700000000E+03 0.  0.
   -5000001    1    1    2    0    0 -0.37408720371E+02 -0.32547494178E+02  0.40811335772E+03  0.43028393473E+03  0.12700000000E+03 0.  0.
<mgrwt>
<rscale>  0 0.27275729E+03</rscale>
<asrwt>0</asrwt>
<pdfrwt beam="1">  1        2 0.12280928E+00 0.27275729E+03</pdfrwt>
<pdfrwt beam="2">  1       -2 0.30907616E-02 0.27275729E+03</pdfrwt>
<totfact> 0.14353034E+04</totfact>
</mgrwt>
</event>
<event>
 4    1  0.1390278E-004  0.2991237E+03  0.7818608E-02  0.1085679E+00
          2   -1    0    0  501    0  0.00000000000E+00  0.00000000000E+00  0.32650949542E+04  0.32650949542E+04  0.25500000000E-02 0.  1.
         -2   -1    0    0    0  501 -0.00000000000E+00 -0.00000000000E+00 -0.68508710615E+01  0.68508715361E+01  0.25500000000E-02 0. -1.
    5000001    1    1    2    0    0 -0.64527379107E+02 -0.17444524171E+02  0.11687123976E+04  0.11774913004E+04  0.12700000000E+03 0.  0.
   -5000001    1    1    2    0    0  0.64527379107E+02  0.17444524171E+02  0.20895316855E+04  0.20944545254E+04  0.12700000000E+03 0.  0.
<mgrwt>
<rscale>  0 0.29912369E+03</rscale>
<asrwt>0</asrwt>
<pdfrwt beam="1">  1        2 0.46644234E+00 0.29912369E+03</pdfrwt>
<pdfrwt beam="2">  1       -2 0.97869548E-03 0.29912369E+03</pdfrwt>
<totfact> 0.43811166E+03</totfact>
</mgrwt>
</event>
<event>
 4    1  0.1390278E-004  0.4120258E+03  0.7818608E-02  0.1039693E+00
          2   -1    0    0  501    0  0.00000000000E+00  0.00000000000E+00  0.39886282013E+03  0.39886282013E+03  0.25500000000E-02 0.  1.
         -2   -1    0    0    0  501 -0.00000000000E+00 -0.00000000000E+00 -0.10640579359E+03  0.10640579362E+03  0.25500000000E-02 0. -1.
    5000001    1    1    2    0    0 -0.50694044852E+02  0.79848703185E+02  0.30783376796E+03  0.34617384401E+03  0.12700000000E+03 0.  0.
   -5000001    1    1    2    0    0  0.50694044852E+02 -0.79848703185E+02 -0.15376741420E+02  0.15909476975E+03  0.12700000000E+03 0.  0.
<mgrwt>
<rscale>  0 0.41202580E+03</rscale>
<asrwt>0</asrwt>
<pdfrwt beam="1">  1        2 0.56980404E-01 0.41202580E+03</pdfrwt>
<pdfrwt beam="2">  1       -2 0.15200827E-01 0.41202580E+03</pdfrwt>
<totfact> 0.29300355E+03</totfact>
</mgrwt>
</event>
<event>
 4    1  0.1390278E-004  0.4143153E+03  0.7818608E-02  0.1038933E+00
         -2   -1    0    0    0  501 -0.00000000000E+00  0.00000000000E+00  0.27847542210E+03  0.27847542212E+03  0.25500000000E-02 0. -1.
          2   -1    0    0  501    0  0.00000000000E+00 -0.00000000000E+00 -0.15410442697E+03  0.15410442699E+03  0.25500000000E-02 0.  1.
    5000001    1    1    2    0    0 -0.15424351443E+03 -0.14656271161E+02  0.11722987422E+03  0.23211572854E+03  0.12700000000E+03 0.  0.
   -5000001    1    1    2    0    0  0.15424351443E+03  0.14656271161E+02  0.71411209070E+01  0.20046412057E+03  0.12700000000E+03 0.  0.
<mgrwt>
<rscale>  0 0.41431532E+03</rscale>
<asrwt>0</asrwt>
<pdfrwt beam="1">  1        2 0.22014918E-01 0.41431532E+03</pdfrwt>
<pdfrwt beam="2">  1       -2 0.39782203E-01 0.41431532E+03</pdfrwt>
<totfact> 0.15092246E+03</totfact>
</mgrwt>
</event>
<event>
 4    1  0.1390278E-004  0.2652375E+03  0.7818608E-02  0.1104037E+00
          2   -1    0    0  501    0  0.00000000000E+00  0.00000000000E+00  0.35447209852E+03  0.35447209853E+03  0.25500000000E-02 0.  1.
         -2   -1    0    0    0  501 -0.00000000000E+00 -0.00000000000E+00 -0.49616686317E+02  0.49616686383E+02  0.25500000000E-02 0. -1.
    5000001    1    1    2    0    0  0.28185814698E+02 -0.21126955695E+02  0.12993649262E+03  0.18507641806E+03  0.12700000000E+03 0.  0.
   -5000001    1    1    2    0    0 -0.28185814698E+02  0.21126955695E+02  0.17491891959E+03  0.21901236686E+03  0.12700000000E+03 0.  0.
<mgrwt>
<rscale>  0 0.26523749E+03</rscale>
<asrwt>0</asrwt>
<pdfrwt beam="1">  1        2 0.50638871E-01 0.26523749E+03</pdfrwt>
<pdfrwt beam="2">  1       -2 0.70880980E-02 0.26523749E+03</pdfrwt>
<totfact> 0.11179875E+04</totfact>
</mgrwt>
</event>
<event>
 4    1  0.1390278E-004  0.5211649E+03  0.7818608E-02  0.1008398E+00
          2   -1    0    0  501    0  0.00000000000E+00  0.00000000000E+00  0.10119686205E+03  0.10119686208E+03  0.25500000000E-02 0.  1.
         -2   -1    0    0    0  501 -0.00000000000E+00 -0.00000000000E+00 -0.67100119864E+03  0.67100119865E+03  0.25500000000E-02 0. -1.
    5000001    1    1    2    0    0 -0.11718321826E+03 -0.24067027709E+02  0.18820985743E+01  0.17448114729E+03  0.12700000000E+03 0.  0.
   -5000001    1    1    2    0    0  0.11718321826E+03  0.24067027709E+02 -0.57168643516E+03  0.59771691344E+03  0.12700000000E+03 0.  0.
<mgrwt>
<rscale>  0 0.52116491E+03</rscale>
<asrwt>0</asrwt>
<pdfrwt beam="1">  1        2 0.14456695E-01 0.52116491E+03</pdfrwt>
<pdfrwt beam="2">  1       -2 0.95857312E-01 0.52116491E+03</pdfrwt>
<totfact> 0.38687584E+02</totfact>
</mgrwt>
</event>
<event>
 4    1  0.1390278E-004  0.2961463E+03  0.7818608E-02  0.1087183E+00
          2   -1    0    0  501    0  0.00000000000E+00  0.00000000000E+00  0.20274308692E+04  0.20274308692E+04  0.25500000000E-02 0.  1.
         -2   -1    0    0    0  501 -0.00000000000E+00 -0.00000000000E+00 -0.10814506233E+02  0.10814506534E+02  0.25500000000E-02 0. -1.
    5000001    1    1    2    0    0  0.51803637743E+02 -0.55487711090E+02  0.96808132366E+03  0.97932270074E+03  0.12700000000E+03 0.  0.
   -5000001    1    1    2    0    0 -0.51803637743E+02  0.55487711090E+02  0.10485350393E+04  0.10589226750E+04  0.12700000000E+03 0.  0.
<mgrwt>
<rscale>  0 0.29614634E+03</rscale>
<asrwt>0</asrwt>
<pdfrwt beam="1">  1        2 0.28963293E+00 0.29614634E+03</pdfrwt>
<pdfrwt beam="2">  1       -2 0.15449297E-02 0.29614634E+03</pdfrwt>
<totfact> 0.96898305E+03</totfact>
</mgrwt>
</event>
<event>
 4    1  0.1390278E-004  0.2768858E+03  0.7818608E-02  0.1097402E+00
         -2   -1    0    0    0  501 -0.00000000000E+00  0.00000000000E+00  0.18783426904E+03  0.18783426906E+03  0.25500000000E-02 0. -1.
          2   -1    0    0  501    0  0.00000000000E+00 -0.00000000000E+00 -0.10203908104E+03  0.10203908108E+03  0.25500000000E-02 0.  1.
    5000001    1    1    2    0    0  0.46345570256E+02 -0.51193178313E+01  0.73658047510E+02  0.15404099214E+03  0.12700000000E+03 0.  0.
   -5000001    1    1    2    0    0 -0.46345570256E+02  0.51193178313E+01  0.12137140486E+02  0.13583235799E+03  0.12700000000E+03 0.  0.
<mgrwt>
<rscale>  0 0.27688580E+03</rscale>
<asrwt>0</asrwt>
<pdfrwt beam="1">  1        2 0.14577012E-01 0.27688580E+03</pdfrwt>
<pdfrwt beam="2">  1       -2 0.26833467E-01 0.27688580E+03</pdfrwt>
<totfact> 0.50191242E+03</totfact>
</mgrwt>
</event>
<event>
 4    1  0.1390278E-004  0.3398205E+03  0.7818608E-02  0.1066872E+00
          2   -1    0    0  501    0  0.00000000000E+00  0.00000000000E+00  0.40396024437E+03  0.40396024438E+03  0.25500000000E-02 0.  1.
         -2   -1    0    0    0  501 -0.00000000000E+00 -0.00000000000E+00 -0.71466162224E+02  0.71466162270E+02  0.25500000000E-02 0. -1.
    5000001    1    1    2    0    0 -0.29830398654E+02 -0.17374993926E+02  0.31659625505E+03  0.34286138862E+03  0.12700000000E+03 0.  0.
   -5000001    1    1    2    0    0  0.29830398654E+02  0.17374993926E+02  0.15897827099E+02  0.13256501803E+03  0.12700000000E+03 0.  0.
<mgrwt>
<rscale>  0 0.33982047E+03</rscale>
<asrwt>0</asrwt>
<pdfrwt beam="1">  1        2 0.57708605E-01 0.33982047E+03</pdfrwt>
<pdfrwt beam="2">  1       -2 0.10209452E-01 0.33982047E+03</pdfrwt>
<totfact> 0.55149727E+03</totfact>
</mgrwt>
</event>
<event>
 4    1  0.1390278E-004  0.4527692E+03  0.7818608E-02  0.1026899E+00
          2   -1    0    0  501    0  0.00000000000E+00  0.00000000000E+00  0.45960612881E+02  0.45960612952E+02  0.25500000000E-02 0.  1.
         -2   -1    0    0    0  501 -0.00000000000E+00 -0.00000000000E+00 -0.11150850108E+04  0.11150850108E+04  0.25500000000E-02 0. -1.
    5000001    1    1    2    0    0 -0.62017409263E+02  0.89115982948E+02 -0.14285703531E+03  0.21982936566E+03  0.12700000000E+03 0.  0.
   -5000001    1    1    2    0    0  0.62017409263E+02 -0.89115982948E+02 -0.92626736259E+03  0.94121625807E+03  0.12700000000E+03 0.  0.
<mgrwt>
<rscale>  0 0.45276922E+03</rscale>
<asrwt>0</asrwt>
<pdfrwt beam="1">  1        2 0.65658025E-02 0.45276922E+03</pdfrwt>
<pdfrwt beam="2">  1       -2 0.15929784E+00 0.45276922E+03</pdfrwt>
<totfact> 0.29796905E+02</totfact>
</mgrwt>
</event>
<event>
 4    1  0.1390278E-004  0.4095346E+03  0.7818608E-02  0.1040527E+00
         -2   -1    0    0    0  501 -0.00000000000E+00  0.00000000000E+00  0.64222900553E+02  0.64222900604E+02  0.25500000000E-02 0. -1.
          2   -1    0    0  501    0  0.00000000000E+00 -0.00000000000E+00 -0.65287690612E+03  0.65287690612E+03  0.25500000000E-02 0.  1.
    5000001    1    1    2    0    0  0.81701710850E+02 -0.13063029494E+03 -0.21483021056E+03  0.29329245282E+03  0.12700000000E+03 0.  0.
   -5000001    1    1    2    0    0 -0.81701710850E+02  0.13063029494E+03 -0.37382379500E+03  0.42380735390E+03  0.12700000000E+03 0.  0.
<mgrwt>
<rscale>  0 0.40953461E+03</rscale>
<asrwt>0</asrwt>
<pdfrwt beam="1">  1        2 0.93268125E-01 0.40953461E+03</pdfrwt>
<pdfrwt beam="2">  1       -2 0.91747005E-02 0.40953461E+03</pdfrwt>
<totfact> 0.38221212E+03</totfact>
</mgrwt>
</event>
<event>
 4    1  0.1390278E-004  0.4323847E+03  0.7818608E-02  0.1033109E+00
          2   -1    0    0  501    0  0.00000000000E+00  0.00000000000E+00  0.87256194545E+03  0.87256194546E+03  0.25500000000E-02 0.  1.
         -2   -1    0    0    0  501 -0.00000000000E+00 -0.00000000000E+00 -0.53565400247E+02  0.53565400308E+02  0.25500000000E-02 0. -1.
    5000001    1    1    2    0    0  0.87624316827E+02  0.15133955960E+03  0.42092221997E+03  0.47316614256E+03  0.12700000000E+03 0.  0.
   -5000001    1    1    2    0    0 -0.87624316827E+02 -0.15133955960E+03  0.39807432523E+03  0.45296120320E+03  0.12700000000E+03 0.  0.
<mgrwt>
<rscale>  0 0.43238469E+03</rscale>
<asrwt>0</asrwt>
<pdfrwt beam="1">  1        2 0.12465171E+00 0.43238469E+03</pdfrwt>
<pdfrwt beam="2">  1       -2 0.76522001E-02 0.43238469E+03</pdfrwt>
<totfact> 0.35605390E+03</totfact>
</mgrwt>
</event>
<event>
 4    1  0.1390278E-004  0.3763901E+03  0.7818608E-02  0.1052276E+00
          2   -1    0    0  501    0  0.00000000000E+00  0.00000000000E+00  0.15293230169E+04  0.15293230170E+04  0.25500000000E-02 0.  1.
         -2   -1    0    0    0  501 -0.00000000000E+00 -0.00000000000E+00 -0.23158854871E+02  0.23158855012E+02  0.25500000000E-02 0. -1.
    5000001    1    1    2    0    0  0.82625506845E+02 -0.10243875397E+03  0.93604687198E+03  0.95374704154E+03  0.12700000000E+03 0.  0.
   -5000001    1    1    2    0    0 -0.82625506845E+02  0.10243875397E+03  0.57011729010E+03  0.59873483043E+03  0.12700000000E+03 0.  0.
<mgrwt>
<rscale>  0 0.37639006E+03</rscale>
<asrwt>0</asrwt>
<pdfrwt beam="1">  1        2 0.21847469E+00 0.37639006E+03</pdfrwt>
<pdfrwt beam="2">  1       -2 0.33084083E-02 0.37639006E+03</pdfrwt>
<totfact> 0.55352650E+03</totfact>
</mgrwt>
</event>
<event>
 4    1  0.1390278E-004  0.8451110E+03  0.7818608E-02  0.9496922E-01
          2   -1    0    0  501    0  0.00000000000E+00  0.00000000000E+00  0.44591960717E+03  0.44591960718E+03  0.25500000000E-02 0.  1.
         -2   -1    0    0    0  501 -0.00000000000E+00 -0.00000000000E+00 -0.40041558291E+03  0.40041558292E+03  0.25500000000E-02 0. -1.
    5000001    1    1    2    0    0 -0.11836527633E+03 -0.30494442732E+03  0.25851332435E+03  0.43584352841E+03  0.12700000000E+03 0.  0.
   -5000001    1    1    2    0    0  0.11836527633E+03  0.30494442732E+03 -0.21300930009E+03  0.41049166169E+03  0.12700000000E+03 0.  0.
<mgrwt>
<rscale>  0 0.84511102E+03</rscale>
<asrwt>0</asrwt>
<pdfrwt beam="1">  1        2 0.63702801E-01 0.84511102E+03</pdfrwt>
<pdfrwt beam="2">  1       -2 0.57202226E-01 0.84511102E+03</pdfrwt>
<totfact> 0.22033069E+02</totfact>
</mgrwt>
</event>
<event>
 4    1  0.1390278E-004  0.5754679E+03  0.7818608E-02  0.9957652E-01
          2   -1    0    0  501    0  0.00000000000E+00  0.00000000000E+00  0.36111453281E+03  0.36111453282E+03  0.25500000000E-02 0.  1.
         -2   -1    0    0    0  501 -0.00000000000E+00 -0.00000000000E+00 -0.22926469457E+03  0.22926469459E+03  0.25500000000E-02 0. -1.
    5000001    1    1    2    0    0 -0.12053992585E+03  0.12326716310E+03  0.26309529573E+03  0.33922382265E+03  0.12700000000E+03 0.  0.
   -5000001    1    1    2    0    0  0.12053992585E+03 -0.12326716310E+03 -0.13124545749E+03  0.25115540475E+03  0.12700000000E+03 0.  0.
<mgrwt>
<rscale>  0 0.57546786E+03</rscale>
<asrwt>0</asrwt>
<pdfrwt beam="1">  1        2 0.51587790E-01 0.57546786E+03</pdfrwt>
<pdfrwt beam="2">  1       -2 0.32752099E-01 0.57546786E+03</pdfrwt>
<totfact> 0.84593933E+02</totfact>
</mgrwt>
</event>
<event>
 4    1  0.1390278E-004  0.6517422E+03  0.7818608E-02  0.9803516E-01
         -2   -1    0    0    0  501 -0.00000000000E+00  0.00000000000E+00  0.53474698080E+02  0.53474698141E+02  0.25500000000E-02 0. -1.
          2   -1    0    0  501    0  0.00000000000E+00 -0.00000000000E+00 -0.19858357099E+04  0.19858357099E+04  0.25500000000E-02 0.  1.
    5000001    1    1    2    0    0 -0.15493357173E+03  0.25172535632E+03 -0.80380612912E+03  0.86579637322E+03  0.12700000000E+03 0.  0.
   -5000001    1    1    2    0    0  0.15493357173E+03 -0.25172535632E+03 -0.11285548827E+04  0.11735140348E+04  0.12700000000E+03 0.  0.
<mgrwt>
<rscale>  0 0.65174217E+03</rscale>
<asrwt>0</asrwt>
<pdfrwt beam="1">  1        2 0.28369077E+00 0.65174217E+03</pdfrwt>
<pdfrwt beam="2">  1       -2 0.76392438E-02 0.65174217E+03</pdfrwt>
<totfact> 0.88590312E+02</totfact>
</mgrwt>
</event>
<event>
 4    1  0.1390278E-004  0.4947484E+03  0.7818608E-02  0.1015159E+00
          2   -1    0    0  501    0  0.00000000000E+00  0.00000000000E+00  0.11486814072E+04  0.11486814072E+04  0.25500000000E-02 0.  1.
         -2   -1    0    0    0  501 -0.00000000000E+00 -0.00000000000E+00 -0.53273246391E+02  0.53273246452E+02  0.25500000000E-02 0. -1.
    5000001    1    1    2    0    0  0.87966809762E+02 -0.14428591882E+03  0.23555919446E+03  0.31650232240E+03  0.12700000000E+03 0.  0.
   -5000001    1    1    2    0    0 -0.87966809762E+02  0.14428591882E+03  0.85984896634E+03  0.88545233125E+03  0.12700000000E+03 0.  0.
<mgrwt>
<rscale>  0 0.49474837E+03</rscale>
<asrwt>0</asrwt>
<pdfrwt beam="1">  1        2 0.16409734E+00 0.49474837E+03</pdfrwt>
<pdfrwt beam="2">  1       -2 0.76104639E-02 0.49474837E+03</pdfrwt>
<totfact> 0.24493967E+03</totfact>
</mgrwt>
</event>
<event>
 4    1  0.1390278E-004  0.2762649E+03  0.7818608E-02  0.1097747E+00
          2   -1    0    0  501    0  0.00000000000E+00  0.00000000000E+00  0.10068734111E+04  0.10068734111E+04  0.25500000000E-02 0.  1.
         -2   -1    0    0    0  501 -0.00000000000E+00 -0.00000000000E+00 -0.18950317531E+02  0.18950317703E+02  0.25500000000E-02 0. -1.
    5000001    1    1    2    0    0  0.40520636650E+02  0.19160525627E+02  0.37996463446E+03  0.40312674332E+03  0.12700000000E+03 0.  0.
   -5000001    1    1    2    0    0 -0.40520636650E+02 -0.19160525627E+02  0.60795845915E+03  0.62269698553E+03  0.12700000000E+03 0.  0.
<mgrwt>
<rscale>  0 0.27626488E+03</rscale>
<asrwt>0</asrwt>
<pdfrwt beam="1">  1        2 0.14383909E+00 0.27626488E+03</pdfrwt>
<pdfrwt beam="2">  1       -2 0.27071877E-02 0.27626488E+03</pdfrwt>
<totfact> 0.14203430E+04</totfact>
</mgrwt>
</event>
<event>
 4    1  0.1390278E-004  0.2954002E+03  0.7818608E-02  0.1087563E+00
          2   -1    0    0  501    0  0.00000000000E+00  0.00000000000E+00  0.43521932115E+03  0.43521932116E+03  0.25500000000E-02 0.  1.
         -2   -1    0    0    0  501 -0.00000000000E+00 -0.00000000000E+00 -0.50124884860E+02  0.50124884925E+02  0.25500000000E-02 0. -1.
    5000001    1    1    2    0    0  0.63021807669E+02 -0.14082683232E+02  0.12857016665E+03  0.19190976515E+03  0.12700000000E+03 0.  0.
   -5000001    1    1    2    0    0 -0.63021807669E+02  0.14082683232E+02  0.25652426964E+03  0.29343444093E+03  0.12700000000E+03 0.  0.
<mgrwt>
<rscale>  0 0.29540019E+03</rscale>
<asrwt>0</asrwt>
<pdfrwt beam="1">  1        2 0.62174191E-01 0.29540019E+03</pdfrwt>
<pdfrwt beam="2">  1       -2 0.71606976E-02 0.29540019E+03</pdfrwt>
<totfact> 0.88522521E+03</totfact>
</mgrwt>
</event>
<event>
 4    1  0.1390278E-004  0.3265523E+03  0.7818608E-02  0.1072673E+00
          2   -1    0    0  501    0  0.00000000000E+00  0.00000000000E+00  0.12651833282E+04  0.12651833282E+04  0.25500000000E-02 0.  1.
         -2   -1    0    0    0  501 -0.00000000000E+00 -0.00000000000E+00 -0.21071339770E+02  0.21071339924E+02  0.25500000000E-02 0. -1.
    5000001    1    1    2    0    0  0.48822105109E+02  0.56447564623E+02  0.89946655154E+03  0.91144884817E+03  0.12700000000E+03 0.  0.
   -5000001    1    1    2    0    0 -0.48822105109E+02 -0.56447564623E+02  0.34464543685E+03  0.37480581992E+03  0.12700000000E+03 0.  0.
<mgrwt>
<rscale>  0 0.32655234E+03</rscale>
<asrwt>0</asrwt>
<pdfrwt beam="1">  1        2 0.18074050E+00 0.32655234E+03</pdfrwt>
<pdfrwt beam="2">  1       -2 0.30101910E-02 0.32655234E+03</pdfrwt>
<totfact> 0.87393584E+03</totfact>
</mgrwt>
</event>
<event>
 4    1  0.1390278E-004  0.3041908E+03  0.7818608E-02  0.1083164E+00
          2   -1    0    0  501    0  0.00000000000E+00  0.00000000000E+00  0.13813614234E+04  0.13813614234E+04  0.25500000000E-02 0.  1.
         -2   -1    0    0    0  501 -0.00000000000E+00 -0.00000000000E+00 -0.16746528675E+02  0.16746528870E+02  0.25500000000E-02 0. -1.
    5000001    1    1    2    0    0  0.63120909361E+02 -0.54905114680E+02  0.67183869275E+03  0.68883601089E+03  0.12700000000E+03 0.  0.
   -5000001    1    1    2    0    0 -0.63120909361E+02  0.54905114680E+02  0.69277620200E+03  0.70927194141E+03  0.12700000000E+03 0.  0.
<mgrwt>
<rscale>  0 0.30419079E+03</rscale>
<asrwt>0</asrwt>
<pdfrwt beam="1">  1        2 0.19733736E+00 0.30419079E+03</pdfrwt>
<pdfrwt beam="2">  1       -2 0.23923611E-02 0.30419079E+03</pdfrwt>
<totfact> 0.10669136E+04</totfact>
</mgrwt>
</event>
<event>
 4    1  0.1390278E-004  0.4931474E+03  0.7818608E-02  0.1015583E+00
          2   -1    0    0  501    0  0.00000000000E+00  0.00000000000E+00  0.21396141694E+04  0.21396141694E+04  0.25500000000E-02 0.  1.
         -2   -1    0    0    0  501 -0.00000000000E+00 -0.00000000000E+00 -0.28415676822E+02  0.28415676936E+02  0.25500000000E-02 0. -1.
    5000001    1    1    2    0    0 -0.16349041313E+03  0.89787351236E+02  0.61864249731E+03  0.65851228015E+03  0.12700000000E+03 0.  0.
   -5000001    1    1    2    0    0  0.16349041313E+03 -0.89787351236E+02  0.14925559952E+04  0.15095175661E+04  0.12700000000E+03 0.  0.
<mgrwt>
<rscale>  0 0.49314738E+03</rscale>
<asrwt>0</asrwt>
<pdfrwt beam="1">  1        2 0.30565927E+00 0.49314738E+03</pdfrwt>
<pdfrwt beam="2">  1       -2 0.40593810E-02 0.49314738E+03</pdfrwt>
<totfact> 0.20045532E+03</totfact>
</mgrwt>
</event>
<event>
 4    1  0.1390278E-004  0.4867957E+03  0.7818608E-02  0.1017284E+00
         -2   -1    0    0    0  501 -0.00000000000E+00  0.00000000000E+00  0.42859068576E+02  0.42859068652E+02  0.25500000000E-02 0. -1.
          2   -1    0    0  501    0  0.00000000000E+00 -0.00000000000E+00 -0.13822629222E+04  0.13822629223E+04  0.25500000000E-02 0.  1.
    5000001    1    1    2    0    0 -0.19681230958E+03 -0.34129215139E+02 -0.50374242084E+03  0.55658361014E+03  0.12700000000E+03 0.  0.
   -5000001    1    1    2    0    0  0.19681230958E+03  0.34129215139E+02 -0.83566143284E+03  0.86853838076E+03  0.12700000000E+03 0.  0.
<mgrwt>
<rscale>  0 0.48679565E+03</rscale>
<asrwt>0</asrwt>
<pdfrwt beam="1">  1        2 0.19746610E+00 0.48679565E+03</pdfrwt>
<pdfrwt beam="2">  1       -2 0.61227250E-02 0.48679565E+03</pdfrwt>
<totfact> 0.25701353E+03</totfact>
</mgrwt>
</event>
<event>
 4    1  0.1390278E-004  0.3239844E+03  0.7818608E-02  0.1073830E+00
         -2   -1    0    0    0  501 -0.00000000000E+00  0.00000000000E+00  0.17142478125E+02  0.17142478314E+02  0.25500000000E-02 0. -1.
          2   -1    0    0  501    0  0.00000000000E+00 -0.00000000000E+00 -0.15307868919E+04  0.15307868919E+04  0.25500000000E-02 0.  1.
    5000001    1    1    2    0    0  0.89122499182E+02 -0.14494240656E+02 -0.96832117908E+03  0.98077918449E+03  0.12700000000E+03 0.  0.
   -5000001    1    1    2    0    0 -0.89122499182E+02  0.14494240656E+02 -0.54532323472E+03  0.56715018575E+03  0.12700000000E+03 0.  0.
<mgrwt>
<rscale>  0 0.32398445E+03</rscale>
<asrwt>0</asrwt>
<pdfrwt beam="1">  1        2 0.21868376E+00 0.32398445E+03</pdfrwt>
<pdfrwt beam="2">  1       -2 0.24489264E-02 0.32398445E+03</pdfrwt>
<totfact> 0.86521319E+03</totfact>
</mgrwt>
</event>
<event>
 4    1  0.1390278E-004  0.3231308E+03  0.7818608E-02  0.1074217E+00
         -2   -1    0    0    0  501 -0.00000000000E+00  0.00000000000E+00  0.26945601217E+02  0.26945601337E+02  0.25500000000E-02 0. -1.
          2   -1    0    0  501    0  0.00000000000E+00 -0.00000000000E+00 -0.96874372370E+03  0.96874372371E+03  0.25500000000E-02 0.  1.
    5000001    1    1    2    0    0  0.98209744085E+02 -0.15522401253E+02 -0.44194664178E+03  0.47045927874E+03  0.12700000000E+03 0.  0.
   -5000001    1    1    2    0    0 -0.98209744085E+02  0.15522401253E+02 -0.49985148071E+03  0.52523004631E+03  0.12700000000E+03 0.  0.
<mgrwt>
<rscale>  0 0.32313082E+03</rscale>
<asrwt>0</asrwt>
<pdfrwt beam="1">  1        2 0.13839194E+00 0.32313082E+03</pdfrwt>
<pdfrwt beam="2">  1       -2 0.38493722E-02 0.32313082E+03</pdfrwt>
<totfact> 0.88845497E+03</totfact>
</mgrwt>
</event>
<event>
 4    1  0.1390278E-004  0.3514613E+03  0.7818608E-02  0.1062017E+00
          2   -1    0    0  501    0  0.00000000000E+00  0.00000000000E+00  0.19512912575E+04  0.19512912575E+04  0.25500000000E-02 0.  1.
         -2   -1    0    0    0  501 -0.00000000000E+00 -0.00000000000E+00 -0.15826063838E+02  0.15826064043E+02  0.25500000000E-02 0. -1.
    5000001    1    1    2    0    0 -0.86281826016E+01 -0.12074338260E+03  0.91208561517E+03  0.92880707328E+03  0.12700000000E+03 0.  0.
   -5000001    1    1    2    0    0  0.86281826016E+01  0.12074338260E+03  0.10233795785E+04  0.10383102483E+04  0.12700000000E+03 0.  0.
<mgrwt>
<rscale>  0 0.35146129E+03</rscale>
<asrwt>0</asrwt>
<pdfrwt beam="1">  1        2 0.27875597E+00 0.35146129E+03</pdfrwt>
<pdfrwt beam="2">  1       -2 0.22608657E-02 0.35146129E+03</pdfrwt>
<totfact> 0.60266900E+03</totfact>
</mgrwt>
</event>
<event>
 4    1  0.1390278E-004  0.3538781E+03  0.7818608E-02  0.1061034E+00
         -2   -1    0    0    0  501 -0.00000000000E+00  0.00000000000E+00  0.88540018558E+02  0.88540018594E+02  0.25500000000E-02 0. -1.
          2   -1    0    0  501    0  0.00000000000E+00 -0.00000000000E+00 -0.35359625793E+03  0.35359625794E+03  0.25500000000E-02 0.  1.
    5000001    1    1    2    0    0 -0.17163170615E+02  0.98599495264E+02 -0.22229391053E+03  0.27488182470E+03  0.12700000000E+03 0.  0.
   -5000001    1    1    2    0    0  0.17163170615E+02 -0.98599495264E+02 -0.42762328851E+02  0.16725445184E+03  0.12700000000E+03 0.  0.
<mgrwt>
<rscale>  0 0.35387805E+03</rscale>
<asrwt>0</asrwt>
<pdfrwt beam="1">  1        2 0.50513750E-01 0.35387805E+03</pdfrwt>
<pdfrwt beam="2">  1       -2 0.12648574E-01 0.35387805E+03</pdfrwt>
<totfact> 0.45139220E+03</totfact>
</mgrwt>
</event>
<event>
 4    1  0.1390278E-004  0.4670304E+03  0.7818608E-02  0.1022762E+00
         -2   -1    0    0    0  501 -0.00000000000E+00  0.00000000000E+00  0.10874565624E+03  0.10874565627E+03  0.25500000000E-02 0. -1.
          2   -1    0    0  501    0  0.00000000000E+00 -0.00000000000E+00 -0.50143932133E+03  0.50143932134E+03  0.25500000000E-02 0.  1.
    5000001    1    1    2    0    0  0.12686247149E+03 -0.14869053807E+03 -0.21470265102E+03  0.31690565021E+03  0.12700000000E+03 0.  0.
   -5000001    1    1    2    0    0 -0.12686247149E+03  0.14869053807E+03 -0.17799101407E+03  0.29327932739E+03  0.12700000000E+03 0.  0.
<mgrwt>
<rscale>  0 0.46703040E+03</rscale>
<asrwt>0</asrwt>
<pdfrwt beam="1">  1        2 0.71634187E-01 0.46703040E+03</pdfrwt>
<pdfrwt beam="2">  1       -2 0.15535094E-01 0.46703040E+03</pdfrwt>
<totfact> 0.21939553E+03</totfact>
</mgrwt>
</event>
<event>
 4    1  0.1390278E-004  0.5058184E+03  0.7818608E-02  0.1012271E+00
         -2   -1    0    0    0  501 -0.00000000000E+00  0.00000000000E+00  0.12344356184E+04  0.12344356184E+04  0.25500000000E-02 0. -1.
          2   -1    0    0  501    0  0.00000000000E+00 -0.00000000000E+00 -0.51815628981E+02  0.51815629043E+02  0.25500000000E-02 0.  1.
    5000001    1    1    2    0    0 -0.16850166415E+03  0.83110824346E+02  0.87600067100E+03  0.90487921600E+03  0.12700000000E+03 0.  0.
   -5000001    1    1    2    0    0  0.16850166415E+03 -0.83110824346E+02  0.30661931842E+03  0.38137203145E+03  0.12700000000E+03 0.  0.
<mgrwt>
<rscale>  0 0.50581838E+03</rscale>
<asrwt>0</asrwt>
<pdfrwt beam="1">  1        2 0.74022332E-02 0.50581838E+03</pdfrwt>
<pdfrwt beam="2">  1       -2 0.17634793E+00 0.50581838E+03</pdfrwt>
<totfact> 0.19272480E+02</totfact>
</mgrwt>
</event>
<event>
 4    1  0.1390278E-004  0.3574451E+03  0.7818608E-02  0.1059600E+00
          2   -1    0    0  501    0  0.00000000000E+00  0.00000000000E+00  0.14450583132E+03  0.14450583135E+03  0.25500000000E-02 0. -1.
         -2   -1    0    0    0  501 -0.00000000000E+00 -0.00000000000E+00 -0.22104130566E+03  0.22104130568E+03  0.25500000000E-02 0.  1.
    5000001    1    1    2    0    0  0.62017198689E+02  0.97959457725E+02  0.11524348517E+02  0.17234848099E+03  0.12700000000E+03 0.  0.
   -5000001    1    1    2    0    0 -0.62017198689E+02 -0.97959457725E+02 -0.88059822857E+02  0.19319865603E+03  0.12700000000E+03 0.  0.
<mgrwt>
<rscale>  0 0.35744514E+03</rscale>
<asrwt>0</asrwt>
<pdfrwt beam="1">  1        2 0.20643690E-01 0.35744514E+03</pdfrwt>
<pdfrwt beam="2">  1       -2 0.31577329E-01 0.35744514E+03</pdfrwt>
<totfact> 0.25044590E+03</totfact>
</mgrwt>
</event>
<event>
 4    1  0.1390278E-004  0.4174379E+03  0.7818608E-02  0.1037903E+00
          2   -1    0    0  501    0  0.00000000000E+00  0.00000000000E+00  0.34654505658E+03  0.34654505659E+03  0.25500000000E-02 0.  1.
         -2   -1    0    0    0  501 -0.00000000000E+00 -0.00000000000E+00 -0.12570833399E+03  0.12570833401E+03  0.25500000000E-02 0. -1.
    5000001    1    1    2    0    0 -0.90456383420E+02  0.13872192176E+03  0.10712531504E+03  0.23458678991E+03  0.12700000000E+03 0.  0.
   -5000001    1    1    2    0    0  0.90456383420E+02 -0.13872192176E+03  0.11371140756E+03  0.23766660070E+03  0.12700000000E+03 0.  0.
<mgrwt>
<rscale>  0 0.41743791E+03</rscale>
<asrwt>0</asrwt>
<pdfrwt beam="1">  1        2 0.49506437E-01 0.41743791E+03</pdfrwt>
<pdfrwt beam="2">  1       -2 0.17958333E-01 0.41743791E+03</pdfrwt>
<totfact> 0.25803644E+03</totfact>
</mgrwt>
</event>
<event>
 4    1  0.1390278E-004  0.3373903E+03  0.7818608E-02  0.1067913E+00
         -2   -1    0    0    0  501 -0.00000000000E+00  0.00000000000E+00  0.13158578651E+02  0.13158578898E+02  0.25500000000E-02 0. -1.
          2   -1    0    0  501    0  0.00000000000E+00 -0.00000000000E+00 -0.21626996660E+04  0.21626996660E+04  0.25500000000E-02 0.  1.
    5000001    1    1    2    0    0 -0.59381027649E+02  0.93823617980E+02 -0.10765506267E+04  0.10896876752E+04  0.12700000000E+03 0.  0.
   -5000001    1    1    2    0    0  0.59381027649E+02 -0.93823617980E+02 -0.10729904607E+04  0.10861705697E+04  0.12700000000E+03 0.  0.
<mgrwt>
<rscale>  0 0.33739030E+03</rscale>
<asrwt>0</asrwt>
<pdfrwt beam="1">  1        2 0.30895687E+00 0.33739030E+03</pdfrwt>
<pdfrwt beam="2">  1       -2 0.18797983E-02 0.33739030E+03</pdfrwt>
<totfact> 0.62352506E+03</totfact>
</mgrwt>
</event>
<event>
 4    1  0.1390278E-004  0.5211305E+03  0.7818608E-02  0.1008406E+00
          2   -1    0    0  501    0  0.00000000000E+00  0.00000000000E+00  0.12618364740E+04  0.12618364740E+04  0.25500000000E-02 0.  1.
         -2   -1    0    0    0  501 -0.00000000000E+00 -0.00000000000E+00 -0.53805904219E+02  0.53805904280E+02  0.25500000000E-02 0. -1.
    5000001    1    1    2    0    0  0.13647504951E+03 -0.17419280604E+03  0.73752495312E+03  0.78041055176E+03  0.12700000000E+03 0.  0.
   -5000001    1    1    2    0    0 -0.13647504951E+03  0.17419280604E+03  0.47050561665E+03  0.53523182652E+03  0.12700000000E+03 0.  0.
<mgrwt>
<rscale>  0 0.52113051E+03</rscale>
<asrwt>0</asrwt>
<pdfrwt beam="1">  1        2 0.18026231E+00 0.52113051E+03</pdfrwt>
<pdfrwt beam="2">  1       -2 0.76865596E-02 0.52113051E+03</pdfrwt>
<totfact> 0.20852348E+03</totfact>
</mgrwt>
</event>
<event>
 4    1  0.1390278E-004  0.3618343E+03  0.7818608E-02  0.1057860E+00
         -2   -1    0    0    0  501 -0.00000000000E+00  0.00000000000E+00  0.15448371610E+02  0.15448371821E+02  0.25500000000E-02 0. -1.
          2   -1    0    0  501    0  0.00000000000E+00 -0.00000000000E+00 -0.21187360353E+04  0.21187360353E+04  0.25500000000E-02 0.  1.
    5000001    1    1    2    0    0 -0.57720700897E+02 -0.88373703728E+02 -0.14874924040E+04  0.14966309641E+04  0.12700000000E+03 0.  0.
   -5000001    1    1    2    0    0  0.57720700897E+02  0.88373703728E+02 -0.61579525976E+03  0.63755344307E+03  0.12700000000E+03 0.  0.
<mgrwt>
<rscale>  0 0.36183434E+03</rscale>
<asrwt>0</asrwt>
<pdfrwt beam="1">  1        2 0.30267639E+00 0.36183434E+03</pdfrwt>
<pdfrwt beam="2">  1       -2 0.22069116E-02 0.36183434E+03</pdfrwt>
<totfact> 0.51663595E+03</totfact>
</mgrwt>
</event>
<event>
 4    1  0.1390278E-004  0.4518031E+03  0.7818608E-02  0.1027186E+00
         -2   -1    0    0    0  501 -0.00000000000E+00  0.00000000000E+00  0.18002617099E+03  0.18002617101E+03  0.25500000000E-02 0. -1.
          2   -1    0    0  501    0  0.00000000000E+00 -0.00000000000E+00 -0.28346714617E+03  0.28346714618E+03  0.25500000000E-02 0.  1.
    5000001    1    1    2    0    0 -0.14438569074E+03 -0.11699616299E+03 -0.32062869278E+02  0.22735953340E+03  0.12700000000E+03 0.  0.
   -5000001    1    1    2    0    0  0.14438569074E+03  0.11699616299E+03 -0.71378105896E+02  0.23613378379E+03  0.12700000000E+03 0.  0.
<mgrwt>
<rscale>  0 0.45180308E+03</rscale>
<asrwt>0</asrwt>
<pdfrwt beam="1">  1        2 0.40495306E-01 0.45180308E+03</pdfrwt>
<pdfrwt beam="2">  1       -2 0.25718025E-01 0.45180308E+03</pdfrwt>
<totfact> 0.17180422E+03</totfact>
</mgrwt>
</event>
<event>
 4    1  0.1390278E-004  0.9255507E+03  0.7818608E-02  0.9394194E-01
         -2   -1    0    0    0  501 -0.00000000000E+00  0.00000000000E+00  0.54094043035E+03  0.54094043036E+03  0.25500000000E-02 0. -1.
          2   -1    0    0  501    0  0.00000000000E+00 -0.00000000000E+00 -0.39590501716E+03  0.39590501717E+03  0.25500000000E-02 0.  1.
    5000001    1    1    2    0    0  0.10958406169E+03 -0.36247773428E+03 -0.16407223283E+03  0.43179563686E+03  0.12700000000E+03 0.  0.
   -5000001    1    1    2    0    0 -0.10958406169E+03  0.36247773428E+03  0.30910764602E+03  0.50504981067E+03  0.12700000000E+03 0.  0.
<mgrwt>
<rscale>  0 0.92555071E+03</rscale>
<asrwt>0</asrwt>
<pdfrwt beam="1">  1        2 0.56557860E-01 0.92555071E+03</pdfrwt>
<pdfrwt beam="2">  1       -2 0.77277204E-01 0.92555071E+03</pdfrwt>
<totfact> 0.13106674E+02</totfact>
</mgrwt>
</event>
<event>
 4    1  0.1390278E-004  0.2762353E+03  0.7818608E-02  0.1097763E+00
         -2   -1    0    0    0  501 -0.00000000000E+00  0.00000000000E+00  0.31651866779E+02  0.31651866882E+02  0.25500000000E-02 0. -1.
          2   -1    0    0  501    0  0.00000000000E+00 -0.00000000000E+00 -0.60269690572E+03  0.60269690572E+03  0.25500000000E-02 0.  1.
    5000001    1    1    2    0    0  0.46241116907E+02 -0.27855283078E+02 -0.27226595846E+03  0.30524074077E+03  0.12700000000E+03 0.  0.
   -5000001    1    1    2    0    0 -0.46241116907E+02  0.27855283078E+02 -0.29877908047E+03  0.32910803183E+03  0.12700000000E+03 0.  0.
<mgrwt>
<rscale>  0 0.27623528E+03</rscale>
<asrwt>0</asrwt>
<pdfrwt beam="1">  1        2 0.86099551E-01 0.27623528E+03</pdfrwt>
<pdfrwt beam="2">  1       -2 0.45216956E-02 0.27623528E+03</pdfrwt>
<totfact> 0.12426239E+04</totfact>
</mgrwt>
</event>
<event>
 4    1  0.1390278E-004  0.3766766E+03  0.7818608E-02  0.1052169E+00
          2   -1    0    0  501    0  0.00000000000E+00  0.00000000000E+00  0.73935225989E+03  0.73935225990E+03  0.25500000000E-02 0.  1.
         -2   -1    0    0    0  501 -0.00000000000E+00 -0.00000000000E+00 -0.47976192886E+02  0.47976192954E+02  0.25500000000E-02 0. -1.
    5000001    1    1    2    0    0 -0.11738490963E+03  0.69752037060E+02  0.29047582821E+03  0.34518077939E+03  0.12700000000E+03 0.  0.
   -5000001    1    1    2    0    0  0.11738490963E+03 -0.69752037060E+02  0.40090023880E+03  0.44214767347E+03  0.12700000000E+03 0.  0.
<mgrwt>
<rscale>  0 0.37667655E+03</rscale>
<asrwt>0</asrwt>
<pdfrwt beam="1">  1        2 0.10562174E+00 0.37667655E+03</pdfrwt>
<pdfrwt beam="2">  1       -2 0.68537423E-02 0.37667655E+03</pdfrwt>
<totfact> 0.52048997E+03</totfact>
</mgrwt>
</event>
<event>
 4    1  0.1390278E-004  0.5463642E+03  0.7818608E-02  0.1002339E+00
          2   -1    0    0  501    0  0.00000000000E+00  0.00000000000E+00  0.10501001561E+04  0.10501001561E+04  0.25500000000E-02 0.  1.
         -2   -1    0    0    0  501 -0.00000000000E+00 -0.00000000000E+00 -0.71067936823E+02  0.71067936868E+02  0.25500000000E-02 0. -1.
    5000001    1    1    2    0    0 -0.17592469581E+03  0.16561720763E+03  0.51207875563E+03  0.58028631728E+03  0.12700000000E+03 0.  0.
   -5000001    1    1    2    0    0  0.17592469581E+03 -0.16561720763E+03  0.46695346365E+03  0.54088177569E+03  0.12700000000E+03 0.  0.
<mgrwt>
<rscale>  0 0.54636417E+03</rscale>
<asrwt>0</asrwt>
<pdfrwt beam="1">  1        2 0.15001431E+00 0.54636417E+03</pdfrwt>
<pdfrwt beam="2">  1       -2 0.10152563E-01 0.54636417E+03</pdfrwt>
<totfact> 0.17606582E+03</totfact>
</mgrwt>
</event>
<event>
 4    1  0.1390278E-004  0.5939752E+03  0.7818608E-02  0.9917985E-01
          2   -1    0    0  501    0  0.00000000000E+00  0.00000000000E+00  0.22440319018E+04  0.22440319018E+04  0.25500000000E-02 0.  1.
         -2   -1    0    0    0  501 -0.00000000000E+00 -0.00000000000E+00 -0.39304988668E+02  0.39304988751E+02  0.25500000000E-02 0. -1.
    5000001    1    1    2    0    0 -0.24471785903E+03 -0.47847497967E+02  0.14847838413E+04  0.15109229858E+04  0.12700000000E+03 0.  0.
   -5000001    1    1    2    0    0  0.24471785903E+03  0.47847497967E+02  0.71994307178E+03  0.77241390472E+03  0.12700000000E+03 0.  0.
<mgrwt>
<rscale>  0 0.59397525E+03</rscale>
<asrwt>0</asrwt>
<pdfrwt beam="1">  1        2 0.32057621E+00 0.59397525E+03</pdfrwt>
<pdfrwt beam="2">  1       -2 0.56149945E-02 0.59397525E+03</pdfrwt>
<totfact> 0.10703455E+03</totfact>
</mgrwt>
</event>
<event>
 4    1  0.1390278E-004  0.4552071E+03  0.7818608E-02  0.1026181E+00
          2   -1    0    0  501    0  0.00000000000E+00  0.00000000000E+00  0.29034947336E+03  0.29034947337E+03  0.25500000000E-02 0.  1.
         -2   -1    0    0    0  501 -0.00000000000E+00 -0.00000000000E+00 -0.17841730718E+03  0.17841730720E+03  0.25500000000E-02 0. -1.
    5000001    1    1    2    0    0 -0.16978465621E+03 -0.78151592482E+02  0.27955276487E+02  0.22769496783E+03  0.12700000000E+03 0.  0.
   -5000001    1    1    2    0    0  0.16978465621E+03  0.78151592482E+02  0.83976889697E+02  0.24107181274E+03  0.12700000000E+03 0.  0.
<mgrwt>
<rscale>  0 0.45520708E+03</rscale>
<asrwt>0</asrwt>
<pdfrwt beam="1">  1        2 0.41478497E-01 0.45520708E+03</pdfrwt>
<pdfrwt beam="2">  1       -2 0.25488186E-01 0.45520708E+03</pdfrwt>
<totfact> 0.17007236E+03</totfact>
</mgrwt>
</event>
<event>
 4    1  0.1390278E-004  0.3226595E+03  0.7818608E-02  0.1074432E+00
          2   -1    0    0  501    0  0.00000000000E+00  0.00000000000E+00  0.25207855382E+03  0.25207855383E+03  0.25500000000E-02 0.  1.
         -2   -1    0    0    0  501 -0.00000000000E+00 -0.00000000000E+00 -0.10325067905E+03  0.10325067908E+03  0.25500000000E-02 0. -1.
    5000001    1    1    2    0    0 -0.24398490655E+02  0.90925569326E+02  0.10985193798E+03  0.19250764603E+03  0.12700000000E+03 0.  0.
   -5000001    1    1    2    0    0  0.24398490655E+02 -0.90925569326E+02  0.38975936792E+02  0.16282158687E+03  0.12700000000E+03 0.  0.
<mgrwt>
<rscale>  0 0.32265946E+03</rscale>
<asrwt>0</asrwt>
<pdfrwt beam="1">  1        2 0.36011221E-01 0.32265946E+03</pdfrwt>
<pdfrwt beam="2">  1       -2 0.14750097E-01 0.32265946E+03</pdfrwt>
<totfact> 0.50489582E+03</totfact>
</mgrwt>
</event>
<event>
 4    1  0.1390278E-004  0.3759449E+03  0.7818608E-02  0.1052443E+00
         -2   -1    0    0    0  501 -0.00000000000E+00  0.00000000000E+00  0.56861078576E+02  0.56861078633E+02  0.25500000000E-02 0. -1.
          2   -1    0    0  501    0  0.00000000000E+00 -0.00000000000E+00 -0.62140307543E+03  0.62140307543E+03  0.25500000000E-02 0.  1.
    5000001    1    1    2    0    0  0.89254983526E+02 -0.10237383931E+03 -0.23260602326E+03  0.29779425299E+03  0.12700000000E+03 0.  0.
   -5000001    1    1    2    0    0 -0.89254983526E+02  0.10237383931E+03 -0.33193597359E+03  0.38046990107E+03  0.12700000000E+03 0.  0.
<mgrwt>
<rscale>  0 0.37594494E+03</rscale>
<asrwt>0</asrwt>
<pdfrwt beam="1">  1        2 0.88771864E-01 0.37594494E+03</pdfrwt>
<pdfrwt beam="2">  1       -2 0.81230116E-02 0.37594494E+03</pdfrwt>
<totfact> 0.49052761E+03</totfact>
</mgrwt>
</event>
<event>
 4    1  0.1390278E-004  0.5985699E+03  0.7818608E-02  0.9908377E-01
         -2   -1    0    0    0  501 -0.00000000000E+00  0.00000000000E+00  0.13109545530E+03  0.13109545533E+03  0.25500000000E-02 0. -1.
          2   -1    0    0  501    0  0.00000000000E+00 -0.00000000000E+00 -0.68325395606E+03  0.68325395606E+03  0.25500000000E-02 0.  1.
    5000001    1    1    2    0    0 -0.19563839447E+03 -0.18292184665E+03 -0.33230073797E+03  0.44529491781E+03  0.12700000000E+03 0.  0.
   -5000001    1    1    2    0    0  0.19563839447E+03  0.18292184665E+03 -0.21985776278E+03  0.36905449358E+03  0.12700000000E+03 0.  0.
<mgrwt>
<rscale>  0 0.59856992E+03</rscale>
<asrwt>0</asrwt>
<pdfrwt beam="1">  1        2 0.97607706E-01 0.59856992E+03</pdfrwt>
<pdfrwt beam="2">  1       -2 0.18727923E-01 0.59856992E+03</pdfrwt>
<totfact> 0.11120357E+03</totfact>
</mgrwt>
</event>
<event>
 4    1  0.1390278E-004  0.3352612E+03  0.7818608E-02  0.1068832E+00
         -2   -1    0    0    0  501 -0.00000000000E+00  0.00000000000E+00  0.37546733491E+02  0.37546733577E+02  0.25500000000E-02 0. -1.
          2   -1    0    0  501    0  0.00000000000E+00 -0.00000000000E+00 -0.74840104237E+03  0.74840104237E+03  0.25500000000E-02 0.  1.
    5000001    1    1    2    0    0  0.16656585743E+02  0.10797639747E+03 -0.36923064603E+03  0.40545852343E+03  0.12700000000E+03 0.  0.
   -5000001    1    1    2    0    0 -0.16656585743E+02 -0.10797639747E+03 -0.34162366285E+03  0.38048925251E+03  0.12700000000E+03 0.  0.
<mgrwt>
<rscale>  0 0.33526118E+03</rscale>
<asrwt>0</asrwt>
<pdfrwt beam="1">  1        2 0.10691443E+00 0.33526118E+03</pdfrwt>
<pdfrwt beam="2">  1       -2 0.53638195E-02 0.33526118E+03</pdfrwt>
<totfact> 0.74711000E+03</totfact>
</mgrwt>
</event>
<event>
 4    1  0.1390278E-004  0.4583784E+03  0.7818608E-02  0.1025253E+00
         -2   -1    0    0    0  501 -0.00000000000E+00  0.00000000000E+00  0.17241971694E+03  0.17241971696E+03  0.25500000000E-02 0. -1.
          2   -1    0    0  501    0  0.00000000000E+00 -0.00000000000E+00 -0.30465011634E+03  0.30465011635E+03  0.25500000000E-02 0.  1.
    5000001    1    1    2    0    0  0.77308573603E+02  0.11907612543E+03 -0.19876000418E+03  0.27530034228E+03  0.12700000000E+03 0.  0.
   -5000001    1    1    2    0    0 -0.77308573603E+02 -0.11907612543E+03  0.66529604781E+02  0.20176949103E+03  0.12700000000E+03 0.  0.
<mgrwt>
<rscale>  0 0.45837839E+03</rscale>
<asrwt>0</asrwt>
<pdfrwt beam="1">  1        2 0.43521445E-01 0.45837839E+03</pdfrwt>
<pdfrwt beam="2">  1       -2 0.24631388E-01 0.45837839E+03</pdfrwt>
<totfact> 0.17152087E+03</totfact>
</mgrwt>
</event>
<event>
 4    1  0.1390278E-004  0.3890823E+03  0.7818608E-02  0.1047627E+00
          2   -1    0    0  501    0  0.00000000000E+00  0.00000000000E+00  0.27033581039E+04  0.27033581039E+04  0.25500000000E-02 0.  1.
         -2   -1    0    0    0  501 -0.00000000000E+00 -0.00000000000E+00 -0.13999720578E+02  0.13999720811E+02  0.25500000000E-02 0. -1.
    5000001    1    1    2    0    0  0.80239371700E+01  0.11541256667E+03  0.70714833275E+03  0.72771712130E+03  0.12700000000E+03 0.  0.
   -5000001    1    1    2    0    0 -0.80239371700E+01 -0.11541256667E+03  0.19822100506E+04  0.19896407034E+04  0.12700000000E+03 0.  0.
<mgrwt>
<rscale>  0 0.38908230E+03</rscale>
<asrwt>0</asrwt>
<pdfrwt beam="1">  1        2 0.38619385E+00 0.38908230E+03</pdfrwt>
<pdfrwt beam="2">  1       -2 0.19999610E-02 0.38908230E+03</pdfrwt>
<totfact> 0.30383349E+03</totfact>
</mgrwt>
</event>
<event>
 4    1  0.1390278E-004  0.4646813E+03  0.7818608E-02  0.1023432E+00
         -2   -1    0    0    0  501 -0.00000000000E+00  0.00000000000E+00  0.33373873734E+02  0.33373873831E+02  0.25500000000E-02 0. -1.
          2   -1    0    0  501    0  0.00000000000E+00 -0.00000000000E+00 -0.16174981717E+04  0.16174981717E+04  0.25500000000E-02 0.  1.
    5000001    1    1    2    0    0 -0.18660744277E+03 -0.35769719261E+02 -0.94074027451E+03  0.96810282233E+03  0.12700000000E+03 0.  0.
   -5000001    1    1    2    0    0  0.18660744277E+03  0.35769719261E+02 -0.64338402342E+03  0.68276922317E+03  0.12700000000E+03 0.  0.
<mgrwt>
<rscale>  0 0.46468131E+03</rscale>
<asrwt>0</asrwt>
<pdfrwt beam="1">  1        2 0.23107112E+00 0.46468131E+03</pdfrwt>
<pdfrwt beam="2">  1       -2 0.47676973E-02 0.46468131E+03</pdfrwt>
<totfact> 0.28620460E+03</totfact>
</mgrwt>
</event>
<event>
 4    1  0.1390278E-004  0.5117461E+03  0.7818608E-02  0.1010758E+00
         -2   -1    0    0    0  501 -0.00000000000E+00  0.00000000000E+00  0.27677871274E+03  0.27677871275E+03  0.25500000000E-02 0. -1.
          2   -1    0    0  501    0  0.00000000000E+00 -0.00000000000E+00 -0.23654640649E+03  0.23654640650E+03  0.25500000000E-02 0.  1.
    5000001    1    1    2    0    0 -0.13319655705E+01  0.16629616658E+03 -0.12759930062E+03  0.24508523144E+03  0.12700000000E+03 0.  0.
   -5000001    1    1    2    0    0  0.13319655705E+01 -0.16629616658E+03  0.16783160687E+03  0.26823988781E+03  0.12700000000E+03 0.  0.
<mgrwt>
<rscale>  0 0.51174607E+03</rscale>
<asrwt>0</asrwt>
<pdfrwt beam="1">  1        2 0.33792344E-01 0.51174607E+03</pdfrwt>
<pdfrwt beam="2">  1       -2 0.39539816E-01 0.51174607E+03</pdfrwt>
<totfact> 0.94344763E+02</totfact>
</mgrwt>
</event>
<event>
 4    1  0.1390278E-004  0.5488322E+03  0.7818608E-02  0.1001765E+00
          2   -1    0    0  501    0  0.00000000000E+00  0.00000000000E+00  0.30258999369E+03  0.30258999370E+03  0.25500000000E-02 0.  1.
         -2   -1    0    0    0  501 -0.00000000000E+00 -0.00000000000E+00 -0.24886546748E+03  0.24886546750E+03  0.25500000000E-02 0. -1.
    5000001    1    1    2    0    0  0.20119201618E+03 -0.13504406085E+03  0.53103947541E+01  0.27362807977E+03  0.12700000000E+03 0.  0.
   -5000001    1    1    2    0    0 -0.20119201618E+03  0.13504406085E+03  0.48414131451E+02  0.27782738143E+03  0.12700000000E+03 0.  0.
<mgrwt>
<rscale>  0 0.54883222E+03</rscale>
<asrwt>0</asrwt>
<pdfrwt beam="1">  1        2 0.43227142E-01 0.54883222E+03</pdfrwt>
<pdfrwt beam="2">  1       -2 0.35552210E-01 0.54883222E+03</pdfrwt>
<totfact> 0.88087216E+02</totfact>
</mgrwt>
</event>
<event>
 4    1  0.1390278E-004  0.4167846E+03  0.7818608E-02  0.1038118E+00
         -2   -1    0    0    0  501 -0.00000000000E+00  0.00000000000E+00  0.47117867831E+02  0.47117867900E+02  0.25500000000E-02 0. -1.
          2   -1    0    0  501    0  0.00000000000E+00 -0.00000000000E+00 -0.92167464363E+03  0.92167464364E+03  0.25500000000E-02 0.  1.
    5000001    1    1    2    0    0 -0.89756531670E+02 -0.11346946342E+03 -0.62275083604E+03  0.65182755226E+03  0.12700000000E+03 0.  0.
   -5000001    1    1    2    0    0  0.89756531670E+02  0.11346946342E+03 -0.25180593977E+03  0.31696495927E+03  0.12700000000E+03 0.  0.
<mgrwt>
<rscale>  0 0.41678457E+03</rscale>
<asrwt>0</asrwt>
<pdfrwt beam="1">  1        2 0.13166779E+00 0.41678457E+03</pdfrwt>
<pdfrwt beam="2">  1       -2 0.67311246E-02 0.41678457E+03</pdfrwt>
<totfact> 0.40496955E+03</totfact>
</mgrwt>
</event>
<event>
 4    1  0.1390278E-004  0.3206540E+03  0.7818608E-02  0.1075349E+00
          2   -1    0    0  501    0  0.00000000000E+00  0.00000000000E+00  0.15556334075E+04  0.15556334075E+04  0.25500000000E-02 0.  1.
         -2   -1    0    0    0  501 -0.00000000000E+00 -0.00000000000E+00 -0.16523650868E+02  0.16523651065E+02  0.25500000000E-02 0. -1.
    5000001    1    1    2    0    0  0.14797324363E+02  0.96720332467E+02  0.77641893089E+03  0.79279829703E+03  0.12700000000E+03 0.  0.
   -5000001    1    1    2    0    0 -0.14797324363E+02 -0.96720332467E+02  0.76269082569E+03  0.77935876149E+03  0.12700000000E+03 0.  0.
<mgrwt>
<rscale>  0 0.32065398E+03</rscale>
<asrwt>0</asrwt>
<pdfrwt beam="1">  1        2 0.22223330E+00 0.32065398E+03</pdfrwt>
<pdfrwt beam="2">  1       -2 0.23605221E-02 0.32065398E+03</pdfrwt>
<totfact> 0.88759120E+03</totfact>
</mgrwt>
</event>
<event>
 4    1  0.1390278E-004  0.3113504E+03  0.7818608E-02  0.1079700E+00
          2   -1    0    0  501    0  0.00000000000E+00  0.00000000000E+00  0.73479236059E+03  0.73479236059E+03  0.25500000000E-02 0.  1.
         -2   -1    0    0    0  501 -0.00000000000E+00 -0.00000000000E+00 -0.32981796044E+02  0.32981796142E+02  0.25500000000E-02 0. -1.
    5000001    1    1    2    0    0  0.62818655909E+02  0.49736381956E+01  0.50947270573E+03  0.52883112473E+03  0.12700000000E+03 0.  0.
   -5000001    1    1    2    0    0 -0.62818655909E+02 -0.49736381956E+01  0.19233785882E+03  0.23894303200E+03  0.12700000000E+03 0.  0.
<mgrwt>
<rscale>  0 0.31135043E+03</rscale>
<asrwt>0</asrwt>
<pdfrwt beam="1">  1        2 0.10497033E+00 0.31135043E+03</pdfrwt>
<pdfrwt beam="2">  1       -2 0.47116855E-02 0.31135043E+03</pdfrwt>
<totfact> 0.92909166E+03</totfact>
</mgrwt>
</event>
<event>
 4    1  0.1390278E-004  0.6020551E+03  0.7818608E-02  0.9901152E-01
         -2   -1    0    0    0  501 -0.00000000000E+00  0.00000000000E+00  0.10604748583E+03  0.10604748586E+03  0.25500000000E-02 0. -1.
          2   -1    0    0  501    0  0.00000000000E+00 -0.00000000000E+00 -0.85449996716E+03  0.85449996717E+03  0.25500000000E-02 0.  1.
    5000001    1    1    2    0    0 -0.13105350601E+03 -0.23530547902E+03 -0.30386566460E+03  0.42544921203E+03  0.12700000000E+03 0.  0.
   -5000001    1    1    2    0    0  0.13105350601E+03  0.23530547902E+03 -0.44458681674E+03  0.53509824099E+03  0.12700000000E+03 0.  0.
<mgrwt>
<rscale>  0 0.60205506E+03</rscale>
<asrwt>0</asrwt>
<pdfrwt beam="1">  1        2 0.12207142E+00 0.60205506E+03</pdfrwt>
<pdfrwt beam="2">  1       -2 0.15149641E-01 0.60205506E+03</pdfrwt>
<totfact> 0.12045205E+03</totfact>
</mgrwt>
</event>
<event>
 4    1  0.1390278E-004  0.3781978E+03  0.7818608E-02  0.1051602E+00
          2   -1    0    0  501    0  0.00000000000E+00  0.00000000000E+00  0.22491365761E+04  0.22491365761E+04  0.25500000000E-02 0.  1.
         -2   -1    0    0    0  501 -0.00000000000E+00 -0.00000000000E+00 -0.15898716423E+02  0.15898716627E+02  0.25500000000E-02 0. -1.
    5000001    1    1    2    0    0  0.52264222168E+01 -0.13190401134E+03  0.83549176225E+03  0.85533704964E+03  0.12700000000E+03 0.  0.
   -5000001    1    1    2    0    0 -0.52264222168E+01  0.13190401134E+03  0.13977460975E+04  0.14096982431E+04  0.12700000000E+03 0.  0.
<mgrwt>
<rscale>  0 0.37819775E+03</rscale>
<asrwt>0</asrwt>
<pdfrwt beam="1">  1        2 0.32130499E+00 0.37819775E+03</pdfrwt>
<pdfrwt beam="2">  1       -2 0.22712469E-02 0.37819775E+03</pdfrwt>
<totfact> 0.42654022E+03</totfact>
</mgrwt>
</event>
<event>
 4    1  0.1390278E-004  0.5898878E+03  0.7818608E-02  0.9926611E-01
         -2   -1    0    0    0  501 -0.00000000000E+00  0.00000000000E+00  0.51785823455E+02  0.51785823518E+02  0.25500000000E-02 0. -1.
          2   -1    0    0  501    0  0.00000000000E+00 -0.00000000000E+00 -0.16798401870E+04  0.16798401870E+04  0.25500000000E-02 0.  1.
    5000001    1    1    2    0    0 -0.75676502519E+02 -0.24534541508E+03 -0.60767049500E+03  0.67179888079E+03  0.12700000000E+03 0.  0.
   -5000001    1    1    2    0    0  0.75676502519E+02  0.24534541508E+03 -0.10203838686E+04  0.10598271297E+04  0.12700000000E+03 0.  0.
<mgrwt>
<rscale>  0 0.58988781E+03</rscale>
<asrwt>0</asrwt>
<pdfrwt beam="1">  1        2 0.23997714E+00 0.58988781E+03</pdfrwt>
<pdfrwt beam="2">  1       -2 0.73979758E-02 0.58988781E+03</pdfrwt>
<totfact> 0.13350440E+03</totfact>
</mgrwt>
</event>
<event>
 4    1  0.1390278E-004  0.8170784E+03  0.7818608E-02  0.9535621E-01
         -2   -1    0    0    0  501 -0.00000000000E+00  0.00000000000E+00  0.18957531604E+04  0.18957531604E+04  0.25500000000E-02 0. -1.
          2   -1    0    0  501    0  0.00000000000E+00 -0.00000000000E+00 -0.88041141945E+02  0.88041141982E+02  0.25500000000E-02 0.  1.
    5000001    1    1    2    0    0  0.34877868431E+03 -0.91322424334E+02  0.55379088075E+03  0.67290392734E+03  0.12700000000E+03 0.  0.
   -5000001    1    1    2    0    0 -0.34877868431E+03  0.91322424334E+02  0.12539211377E+04  0.13108903750E+04  0.12700000000E+03 0.  0.
<mgrwt>
<rscale>  0 0.81707839E+03</rscale>
<asrwt>0</asrwt>
<pdfrwt beam="1">  1        2 0.12577308E-01 0.81707839E+03</pdfrwt>
<pdfrwt beam="2">  1       -2 0.27082185E+00 0.81707839E+03</pdfrwt>
<totfact> 0.24519155E+01</totfact>
</mgrwt>
</event>
<event>
 4    1  0.1390278E-004  0.3247137E+03  0.7818608E-02  0.1073500E+00
          2   -1    0    0  501    0  0.00000000000E+00  0.00000000000E+00  0.40517502169E+04  0.40517502169E+04  0.25500000000E-02 0.  1.
         -2   -1    0    0    0  501 -0.00000000000E+00 -0.00000000000E+00 -0.65057663675E+01  0.65057668672E+01  0.25500000000E-02 0. -1.
    5000001    1    1    2    0    0  0.63921518774E+02 -0.62896488102E+02  0.26073357683E+04  0.26119668331E+04  0.12700000000E+03 0.  0.
   -5000001    1    1    2    0    0 -0.63921518774E+02  0.62896488102E+02  0.14379086822E+04  0.14462891506E+04  0.12700000000E+03 0.  0.
<mgrwt>
<rscale>  0 0.32471367E+03</rscale>
<asrwt>0</asrwt>
<pdfrwt beam="1">  1        2 0.57881923E+00 0.32471367E+03</pdfrwt>
<pdfrwt beam="2">  1       -2 0.92939881E-03 0.32471367E+03</pdfrwt>
<totfact> 0.15750385E+03</totfact>
</mgrwt>
</event>
<event>
 4    1  0.1390278E-004  0.9598859E+03  0.7818608E-02  0.9353670E-01
          2   -1    0    0  501    0  0.00000000000E+00  0.00000000000E+00  0.95392883241E+03  0.95392883241E+03  0.25500000000E-02 0.  1.
         -2   -1    0    0    0  501 -0.00000000000E+00 -0.00000000000E+00 -0.24147001797E+03  0.24147001798E+03  0.25500000000E-02 0. -1.
    5000001    1    1    2    0    0  0.20026071321E+03  0.67508072883E+02 -0.15657048825E+03  0.29207021579E+03  0.12700000000E+03 0.  0.
   -5000001    1    1    2    0    0 -0.20026071321E+03 -0.67508072883E+02  0.86902930269E+03  0.90332863460E+03  0.12700000000E+03 0.  0.
<mgrwt>
<rscale>  0 0.95988585E+03</rscale>
<asrwt>0</asrwt>
<pdfrwt beam="1">  1        2 0.13627555E+00 0.95988585E+03</pdfrwt>
<pdfrwt beam="2">  1       -2 0.34495717E-01 0.95988585E+03</pdfrwt>
<totfact> 0.23591816E+02</totfact>
</mgrwt>
</event>
<event>
 4    1  0.1390278E-004  0.9824777E+03  0.7818608E-02  0.9327974E-01
          2   -1    0    0  501    0  0.00000000000E+00  0.00000000000E+00  0.25554519560E+04  0.25554519560E+04  0.25500000000E-02 0.  1.
         -2   -1    0    0    0  501 -0.00000000000E+00 -0.00000000000E+00 -0.94431680037E+02  0.94431680072E+02  0.25500000000E-02 0. -1.
    5000001    1    1    2    0    0  0.20278785178E+03 -0.42874289164E+03  0.12725753382E+04  0.13640089338E+04  0.12700000000E+03 0.  0.
   -5000001    1    1    2    0    0 -0.20278785178E+03  0.42874289164E+03  0.11884449377E+04  0.12858747022E+04  0.12700000000E+03 0.  0.
<mgrwt>
<rscale>  0 0.98247773E+03</rscale>
<asrwt>0</asrwt>
<pdfrwt beam="1">  1        2 0.36506456E+00 0.98247773E+03</pdfrwt>
<pdfrwt beam="2">  1       -2 0.13490240E-01 0.98247773E+03</pdfrwt>
<totfact> 0.17481922E+02</totfact>
</mgrwt>
</event>
<event>
 4    1  0.1390278E-004  0.5216734E+03  0.7818608E-02  0.1008272E+00
         -2   -1    0    0    0  501 -0.00000000000E+00  0.00000000000E+00  0.26868265595E+03  0.26868265596E+03  0.25500000000E-02 0. -1.
          2   -1    0    0  501    0  0.00000000000E+00 -0.00000000000E+00 -0.25321984265E+03  0.25321984266E+03  0.25500000000E-02 0.  1.
    5000001    1    1    2    0    0 -0.21703412696E+02  0.47513776736E+02 -0.21412753405E+03  0.25437806105E+03  0.12700000000E+03 0.  0.
   -5000001    1    1    2    0    0  0.21703412696E+02 -0.47513776736E+02  0.22959034735E+03  0.26752443757E+03  0.12700000000E+03 0.  0.
<mgrwt>
<rscale>  0 0.52167338E+03</rscale>
<asrwt>0</asrwt>
<pdfrwt beam="1">  1        2 0.36174263E-01 0.52167338E+03</pdfrwt>
<pdfrwt beam="2">  1       -2 0.38383237E-01 0.52167338E+03</pdfrwt>
<totfact> 0.92631862E+02</totfact>
</mgrwt>
</event>
<event>
 4    1  0.1390278E-004  0.4633839E+03  0.7818608E-02  0.1023804E+00
         -2   -1    0    0    0  501 -0.00000000000E+00  0.00000000000E+00  0.64923403485E+02  0.64923403535E+02  0.25500000000E-02 0. -1.
          2   -1    0    0  501    0  0.00000000000E+00 -0.00000000000E+00 -0.82683839400E+03  0.82683839400E+03  0.25500000000E-02 0.  1.
    5000001    1    1    2    0    0  0.16060576272E+03  0.35950066699E+02 -0.18408328779E+03  0.27767296440E+03  0.12700000000E+03 0.  0.
   -5000001    1    1    2    0    0 -0.16060576272E+03 -0.35950066699E+02 -0.57783170272E+03  0.61408883313E+03  0.12700000000E+03 0.  0.
<mgrwt>
<rscale>  0 0.46338391E+03</rscale>
<asrwt>0</asrwt>
<pdfrwt beam="1">  1        2 0.11811976E+00 0.46338391E+03</pdfrwt>
<pdfrwt beam="2">  1       -2 0.92747724E-02 0.46338391E+03</pdfrwt>
<totfact> 0.28137272E+03</totfact>
</mgrwt>
</event>
<event>
 4    1  0.1390278E-004  0.6117748E+03  0.7818608E-02  0.9881274E-01
          2   -1    0    0  501    0  0.00000000000E+00  0.00000000000E+00  0.48153915626E+03  0.48153915627E+03  0.25500000000E-02 0.  1.
         -2   -1    0    0    0  501 -0.00000000000E+00 -0.00000000000E+00 -0.19430838808E+03  0.19430838810E+03  0.25500000000E-02 0. -1.
    5000001    1    1    2    0    0 -0.16627675611E+03 -0.21219059160E+03  0.67354496517E+02  0.30551339576E+03  0.12700000000E+03 0.  0.
   -5000001    1    1    2    0    0  0.16627675611E+03  0.21219059160E+03  0.21987627166E+03  0.37033414861E+03  0.12700000000E+03 0.  0.
<mgrwt>
<rscale>  0 0.61177479E+03</rscale>
<asrwt>0</asrwt>
<pdfrwt beam="1">  1        2 0.68791308E-01 0.61177479E+03</pdfrwt>
<pdfrwt beam="2">  1       -2 0.27758341E-01 0.61177479E+03</pdfrwt>
<totfact> 0.83266676E+02</totfact>
</mgrwt>
</event>
<event>
 4    1  0.1390278E-004  0.4542277E+03  0.7818608E-02  0.1026469E+00
         -2   -1    0    0    0  501 -0.00000000000E+00  0.00000000000E+00  0.62170702774E+02  0.62170702826E+02  0.25500000000E-02 0.  1.
          2   -1    0    0  501    0  0.00000000000E+00 -0.00000000000E+00 -0.82966250220E+03  0.82966250220E+03  0.25500000000E-02 0. -1.
    5000001    1    1    2    0    0  0.15849315252E+03  0.81584503464E+02 -0.50278059608E+03  0.54835521188E+03  0.12700000000E+03 0.  0.
   -5000001    1    1    2    0    0 -0.15849315252E+03 -0.81584503464E+02 -0.26471120334E+03  0.34347799315E+03  0.12700000000E+03 0.  0.
<mgrwt>
<rscale>  0 0.45422770E+03</rscale>
<asrwt>0</asrwt>
<pdfrwt beam="1">  1        2 0.11852321E+00 0.45422770E+03</pdfrwt>
<pdfrwt beam="2">  1       -2 0.88815294E-02 0.45422770E+03</pdfrwt>
<totfact> 0.30019570E+03</totfact>
</mgrwt>
</event>
<event>
 4    1  0.1390278E-004  0.1348122E+04  0.7818608E-02  0.8992251E-01
          2   -1    0    0  501    0  0.00000000000E+00  0.00000000000E+00  0.22319576313E+04  0.22319576313E+04  0.25500000000E-02 0.  1.
         -2   -1    0    0    0  501 -0.00000000000E+00 -0.00000000000E+00 -0.20356930106E+03  0.20356930107E+03  0.25500000000E-02 0. -1.
    5000001    1    1    2    0    0  0.49700435559E+03 -0.20699374126E+03  0.31831173240E+03  0.63820928964E+03  0.12700000000E+03 0.  0.
   -5000001    1    1    2    0    0 -0.49700435559E+03  0.20699374126E+03  0.17100765978E+04  0.17973176427E+04  0.12700000000E+03 0.  0.
<mgrwt>
<rscale>  0 0.13481217E+04</rscale>
<asrwt>0</asrwt>
<pdfrwt beam="1">  1        2 0.31885110E+00 0.13481217E+04</pdfrwt>
<pdfrwt beam="2">  1       -2 0.29081328E-01 0.13481217E+04</pdfrwt>
<totfact> 0.64738689E+01</totfact>
</mgrwt>
</event>
<event>
 4    1  0.1390278E-004  0.8133952E+03  0.7818608E-02  0.9540828E-01
         -2   -1    0    0    0  501 -0.00000000000E+00  0.00000000000E+00  0.22227068921E+03  0.22227068923E+03  0.25500000000E-02 0. -1.
          2   -1    0    0  501    0  0.00000000000E+00 -0.00000000000E+00 -0.74415088566E+03  0.74415088567E+03  0.25500000000E-02 0.  1.
    5000001    1    1    2    0    0  0.34312227014E+03 -0.17160783401E+03 -0.20659955335E+03  0.45386618777E+03  0.12700000000E+03 0.  0.
   -5000001    1    1    2    0    0 -0.34312227014E+03  0.17160783401E+03 -0.31528064311E+03  0.51255538713E+03  0.12700000000E+03 0.  0.
<mgrwt>
<rscale>  0 0.81339518E+03</rscale>
<asrwt>0</asrwt>
<pdfrwt beam="1">  1        2 0.10630727E+00 0.81339518E+03</pdfrwt>
<pdfrwt beam="2">  1       -2 0.31752956E-01 0.81339518E+03</pdfrwt>
<totfact> 0.38534037E+02</totfact>
</mgrwt>
</event>
<event>
 4    1  0.1390278E-004  0.1007682E+04  0.7818608E-02  0.9300160E-01
          2   -1    0    0  501    0  0.00000000000E+00  0.00000000000E+00  0.15785114070E+04  0.15785114070E+04  0.25500000000E-02 0.  1.
         -2   -1    0    0    0  501 -0.00000000000E+00 -0.00000000000E+00 -0.16081957689E+03  0.16081957691E+03  0.25500000000E-02 0. -1.
    5000001    1    1    2    0    0  0.46469926329E+03  0.19194559131E+02  0.45626842915E+03  0.66379493509E+03  0.12700000000E+03 0.  0.
   -5000001    1    1    2    0    0 -0.46469926329E+03 -0.19194559131E+02  0.96142340095E+03  0.10755360488E+04  0.12700000000E+03 0.  0.
<mgrwt>
<rscale>  0 0.10076816E+04</rscale>
<asrwt>0</asrwt>
<pdfrwt beam="1">  1        2 0.22550163E+00 0.10076816E+04</pdfrwt>
<pdfrwt beam="2">  1       -2 0.22974225E-01 0.10076816E+04</pdfrwt>
<totfact> 0.22104042E+02</totfact>
</mgrwt>
</event>
<event>
 4    1  0.1390278E-004  0.5226524E+03  0.7818608E-02  0.1008030E+00
          2   -1    0    0  501    0  0.00000000000E+00  0.00000000000E+00  0.63031241844E+03  0.63031241844E+03  0.25500000000E-02 0.  1.
         -2   -1    0    0    0  501 -0.00000000000E+00 -0.00000000000E+00 -0.10834527969E+03  0.10834527972E+03  0.25500000000E-02 0. -1.
    5000001    1    1    2    0    0 -0.17709886449E+03 -0.14401203156E+03  0.27183023430E+03  0.37699356668E+03  0.12700000000E+03 0.  0.
   -5000001    1    1    2    0    0  0.17709886449E+03  0.14401203156E+03  0.25013690445E+03  0.36166413148E+03  0.12700000000E+03 0.  0.
<mgrwt>
<rscale>  0 0.52265237E+03</rscale>
<asrwt>0</asrwt>
<pdfrwt beam="1">  1        2 0.90044633E-01 0.52265237E+03</pdfrwt>
<pdfrwt beam="2">  1       -2 0.15477897E-01 0.52265237E+03</pdfrwt>
<totfact> 0.16961403E+03</totfact>
</mgrwt>
</event>
<event>
 4    1  0.1390278E-004  0.9372669E+03  0.7818608E-02  0.9380159E-01
          2   -1    0    0  501    0  0.00000000000E+00  0.00000000000E+00  0.16494373076E+04  0.16494373076E+04  0.25500000000E-02 0. -1.
         -2   -1    0    0    0  501 -0.00000000000E+00 -0.00000000000E+00 -0.13314679412E+03  0.13314679415E+03  0.25500000000E-02 0.  1.
    5000001    1    1    2    0    0 -0.21347037787E+03  0.12581308586E+03  0.14750610569E+04  0.15011104744E+04  0.12700000000E+03 0.  0.
   -5000001    1    1    2    0    0  0.21347037787E+03 -0.12581308586E+03  0.41229456577E+02  0.28147362734E+03  0.12700000000E+03 0.  0.
<mgrwt>
<rscale>  0 0.93726686E+03</rscale>
<asrwt>0</asrwt>
<pdfrwt beam="1">  1        2 0.23563388E+00 0.93726686E+03</pdfrwt>
<pdfrwt beam="2">  1       -2 0.19020972E-01 0.93726686E+03</pdfrwt>
<totfact> 0.28453294E+02</totfact>
</mgrwt>
</event>
<event>
 4    1  0.1390278E-004  0.3258544E+03  0.7818608E-02  0.1072986E+00
          2   -1    0    0  501    0  0.00000000000E+00  0.00000000000E+00  0.23662302985E+04  0.23662302985E+04  0.25500000000E-02 0.  1.
         -2   -1    0    0    0  501 -0.00000000000E+00 -0.00000000000E+00 -0.11218380332E+02  0.11218380622E+02  0.25500000000E-02 0. -1.
    5000001    1    1    2    0    0  0.54142192341E+02 -0.74201658489E+02  0.85293368682E+03  0.86721516201E+03  0.12700000000E+03 0.  0.
   -5000001    1    1    2    0    0 -0.54142192341E+02  0.74201658489E+02  0.15020782313E+04  0.15102335171E+04  0.12700000000E+03 0.  0.
<mgrwt>
<rscale>  0 0.32585440E+03</rscale>
<asrwt>0</asrwt>
<pdfrwt beam="1">  1        2 0.33803352E+00 0.32585440E+03</pdfrwt>
<pdfrwt beam="2">  1       -2 0.16026228E-02 0.32585440E+03</pdfrwt>
<totfact> 0.62574614E+03</totfact>
</mgrwt>
</event>
<event>
 4    1  0.1390278E-004  0.4749309E+03  0.7818608E-02  0.1020538E+00
         -2   -1    0    0    0  501 -0.00000000000E+00  0.00000000000E+00  0.65811775830E+03  0.65811775830E+03  0.25500000000E-02 0. -1.
          2   -1    0    0  501    0  0.00000000000E+00 -0.00000000000E+00 -0.85683503227E+02  0.85683503265E+02  0.25500000000E-02 0.  1.
    5000001    1    1    2    0    0 -0.39857107051E+02 -0.19459260132E+03  0.24175556117E+03  0.33768272213E+03  0.12700000000E+03 0.  0.
   -5000001    1    1    2    0    0  0.39857107051E+02  0.19459260132E+03  0.33067869391E+03  0.40611853944E+03  0.12700000000E+03 0.  0.
<mgrwt>
<rscale>  0 0.47493088E+03</rscale>
<asrwt>0</asrwt>
<pdfrwt beam="1">  1        2 0.12240501E-01 0.47493088E+03</pdfrwt>
<pdfrwt beam="2">  1       -2 0.94016820E-01 0.47493088E+03</pdfrwt>
<totfact> 0.49626920E+02</totfact>
</mgrwt>
</event>
<event>
 4    1  0.1390278E-004  0.4990075E+03  0.7818608E-02  0.1014038E+00
         -2   -1    0    0    0  501 -0.00000000000E+00  0.00000000000E+00  0.14464086139E+03  0.14464086141E+03  0.25500000000E-02 0. -1.
          2   -1    0    0  501    0  0.00000000000E+00 -0.00000000000E+00 -0.43039100708E+03  0.43039100709E+03  0.25500000000E-02 0.  1.
    5000001    1    1    2    0    0  0.76532073652E+01 -0.20694370410E+03 -0.20845648469E+03  0.32010525497E+03  0.12700000000E+03 0.  0.
   -5000001    1    1    2    0    0 -0.76532073652E+01  0.20694370410E+03 -0.77293660998E+02  0.25492661352E+03  0.12700000000E+03 0.  0.
<mgrwt>
<rscale>  0 0.49900752E+03</rscale>
<asrwt>0</asrwt>
<pdfrwt beam="1">  1        2 0.61484429E-01 0.49900752E+03</pdfrwt>
<pdfrwt beam="2">  1       -2 0.20662980E-01 0.49900752E+03</pdfrwt>
<totfact> 0.15990001E+03</totfact>
</mgrwt>
</event>
<event>
 4    1  0.1390278E-004  0.3803765E+03  0.7818608E-02  0.1050795E+00
         -2   -1    0    0    0  501 -0.00000000000E+00  0.00000000000E+00  0.16259123468E+03  0.16259123470E+03  0.25500000000E-02 0. -1.
          2   -1    0    0  501    0  0.00000000000E+00 -0.00000000000E+00 -0.22246934430E+03  0.22246934431E+03  0.25500000000E-02 0.  1.
    5000001    1    1    2    0    0 -0.10075890815E+03 -0.79266637750E+02 -0.90737008351E+02  0.20198455911E+03  0.12700000000E+03 0.  0.
   -5000001    1    1    2    0    0  0.10075890815E+03  0.79266637750E+02  0.30858898730E+02  0.18307601990E+03  0.12700000000E+03 0.  0.
<mgrwt>
<rscale>  0 0.38037647E+03</rscale>
<asrwt>0</asrwt>
<pdfrwt beam="1">  1        2 0.31781335E-01 0.38037647E+03</pdfrwt>
<pdfrwt beam="2">  1       -2 0.23227319E-01 0.38037647E+03</pdfrwt>
<totfact> 0.26809230E+03</totfact>
</mgrwt>
</event>
<event>
 4    1  0.1390278E-004  0.4354378E+03  0.7818608E-02  0.1032156E+00
          2   -1    0    0  501    0  0.00000000000E+00  0.00000000000E+00  0.32957941264E+03  0.32957941265E+03  0.25500000000E-02 0.  1.
         -2   -1    0    0    0  501 -0.00000000000E+00 -0.00000000000E+00 -0.14382430122E+03  0.14382430124E+03  0.25500000000E-02 0. -1.
    5000001    1    1    2    0    0  0.44118490727E+02 -0.13267040340E+03  0.21059896796E+03  0.28289362395E+03  0.12700000000E+03 0.  0.
   -5000001    1    1    2    0    0 -0.44118490727E+02  0.13267040340E+03 -0.24843856534E+02  0.19051008995E+03  0.12700000000E+03 0.  0.
<mgrwt>
<rscale>  0 0.43543784E+03</rscale>
<asrwt>0</asrwt>
<pdfrwt beam="1">  1        2 0.47082773E-01 0.43543784E+03</pdfrwt>
<pdfrwt beam="2">  1       -2 0.20546329E-01 0.43543784E+03</pdfrwt>
<totfact> 0.21636665E+03</totfact>
</mgrwt>
</event>
<event>
 4    1  0.1390278E-004  0.7089955E+03  0.7818608E-02  0.9701971E-01
          2   -1    0    0  501    0  0.00000000000E+00  0.00000000000E+00  0.16597746531E+04  0.16597746531E+04  0.25500000000E-02 0. -1.
         -2   -1    0    0    0  501 -0.00000000000E+00 -0.00000000000E+00 -0.75714288873E+02  0.75714288916E+02  0.25500000000E-02 0.  1.
    5000001    1    1    2    0    0  0.17430927671E+03  0.27826984296E+03  0.69045835430E+03  0.77503520467E+03  0.12700000000E+03 0.  0.
   -5000001    1    1    2    0    0 -0.17430927671E+03 -0.27826984296E+03  0.89360200993E+03  0.96045373736E+03  0.12700000000E+03 0.  0.
<mgrwt>
<rscale>  0 0.70899551E+03</rscale>
<asrwt>0</asrwt>
<pdfrwt beam="1">  1        2 0.23711067E+00 0.70899551E+03</pdfrwt>
<pdfrwt beam="2">  1       -2 0.10816327E-01 0.70899551E+03</pdfrwt>
<totfact> 0.73752646E+02</totfact>
</mgrwt>
</event>
<event>
 4    1  0.1390278E-004  0.3085950E+03  0.7818608E-02  0.1081021E+00
         -2   -1    0    0    0  501 -0.00000000000E+00  0.00000000000E+00  0.29548364250E+02  0.29548364360E+02  0.25500000000E-02 0. -1.
          2   -1    0    0  501    0  0.00000000000E+00 -0.00000000000E+00 -0.80572049512E+03  0.80572049513E+03  0.25500000000E-02 0.  1.
    5000001    1    1    2    0    0  0.73118107969E+01 -0.80263135465E+02 -0.29498682942E+03  0.33112212706E+03  0.12700000000E+03 0.  0.
   -5000001    1    1    2    0    0 -0.73118107969E+01  0.80263135465E+02 -0.48118530145E+03  0.50414673243E+03  0.12700000000E+03 0.  0.
<mgrwt>
<rscale>  0 0.30859503E+03</rscale>
<asrwt>0</asrwt>
<pdfrwt beam="1">  1        2 0.11510291E+00 0.30859503E+03</pdfrwt>
<pdfrwt beam="2">  1       -2 0.42211954E-02 0.30859503E+03</pdfrwt>
<totfact> 0.97990541E+03</totfact>
</mgrwt>
</event>
<event>
 4    1  0.1390278E-004  0.4960999E+03  0.7818608E-02  0.1014802E+00
         -2   -1    0    0    0  501 -0.00000000000E+00  0.00000000000E+00  0.30020258728E+02  0.30020258837E+02  0.25500000000E-02 0. -1.
          2   -1    0    0  501    0  0.00000000000E+00 -0.00000000000E+00 -0.20495751683E+04  0.20495751683E+04  0.25500000000E-02 0.  1.
    5000001    1    1    2    0    0  0.24237422488E+02 -0.20817708942E+03 -0.11707494501E+04  0.11961222463E+04  0.12700000000E+03 0.  0.
   -5000001    1    1    2    0    0 -0.24237422488E+02  0.20817708942E+03 -0.84880545940E+03  0.88347318076E+03  0.12700000000E+03 0.  0.
<mgrwt>
<rscale>  0 0.49609990E+03</rscale>
<asrwt>0</asrwt>
<pdfrwt beam="1">  1        2 0.29279636E+00 0.49609990E+03</pdfrwt>
<pdfrwt beam="2">  1       -2 0.42886097E-02 0.49609990E+03</pdfrwt>
<totfact> 0.20433867E+03</totfact>
</mgrwt>
</event>
<event>
 4    1  0.1390278E-004  0.3873013E+03  0.7818608E-02  0.1048268E+00
         -2   -1    0    0    0  501 -0.00000000000E+00  0.00000000000E+00  0.25028279590E+02  0.25028279719E+02  0.25500000000E-02 0. -1.
          2   -1    0    0  501    0  0.00000000000E+00 -0.00000000000E+00 -0.14983279424E+04  0.14983279424E+04  0.25500000000E-02 0.  1.
    5000001    1    1    2    0    0 -0.10105407108E+03  0.10422949314E+03 -0.80430397001E+03  0.82710917580E+03  0.12700000000E+03 0.  0.
   -5000001    1    1    2    0    0  0.10105407108E+03 -0.10422949314E+03 -0.66899569279E+03  0.69624704631E+03  0.12700000000E+03 0.  0.
<mgrwt>
<rscale>  0 0.38730128E+03</rscale>
<asrwt>0</asrwt>
<pdfrwt beam="1">  1        2 0.21404679E+00 0.38730128E+03</pdfrwt>
<pdfrwt beam="2">  1       -2 0.35754695E-02 0.38730128E+03</pdfrwt>
<totfact> 0.51068713E+03</totfact>
</mgrwt>
</event>
<event>
 4    1  0.1390278E-004  0.3529216E+03  0.7818608E-02  0.1061422E+00
         -2   -1    0    0    0  501 -0.00000000000E+00  0.00000000000E+00  0.14095921392E+02  0.14095921623E+02  0.25500000000E-02 0. -1.
          2   -1    0    0  501    0  0.00000000000E+00 -0.00000000000E+00 -0.22090368428E+04  0.22090368428E+04  0.25500000000E-02 0.  1.
    5000001    1    1    2    0    0  0.51563971936E+00 -0.11871478433E+03 -0.12881138099E+04  0.12997921577E+04  0.12700000000E+03 0.  0.
   -5000001    1    1    2    0    0 -0.51563971936E+00  0.11871478433E+03 -0.90682711151E+03  0.92334060675E+03  0.12700000000E+03 0.  0.
<mgrwt>
<rscale>  0 0.35292158E+03</rscale>
<asrwt>0</asrwt>
<pdfrwt beam="1">  1        2 0.31557647E+00 0.35292158E+03</pdfrwt>
<pdfrwt beam="2">  1       -2 0.20137045E-02 0.35292158E+03</pdfrwt>
<totfact> 0.53421602E+03</totfact>
</mgrwt>
</event>
<event>
 4    1  0.1390278E-004  0.3473477E+03  0.7818608E-02  0.1063709E+00
         -2   -1    0    0    0  501 -0.00000000000E+00  0.00000000000E+00  0.61757232499E+03  0.61757232500E+03  0.25500000000E-02 0.  1.
          2   -1    0    0  501    0  0.00000000000E+00 -0.00000000000E+00 -0.48840601799E+02  0.48840601866E+02  0.25500000000E-02 0. -1.
    5000001    1    1    2    0    0 -0.89970413737E+02  0.67949050377E+02  0.35412015576E+03  0.39273634096E+03  0.12700000000E+03 0.  0.
   -5000001    1    1    2    0    0  0.89970413737E+02 -0.67949050377E+02  0.21461156743E+03  0.27367658590E+03  0.12700000000E+03 0.  0.
<mgrwt>
<rscale>  0 0.34734769E+03</rscale>
<asrwt>0</asrwt>
<pdfrwt beam="1">  1        2 0.69772292E-02 0.34734769E+03</pdfrwt>
<pdfrwt beam="2">  1       -2 0.88224614E-01 0.34734769E+03</pdfrwt>
<totfact> 0.11674466E+03</totfact>
</mgrwt>
</event>
<event>
 4    1  0.1390278E-004  0.5692047E+03  0.7818608E-02  0.9971440E-01
          2   -1    0    0  501    0  0.00000000000E+00  0.00000000000E+00  0.25083354043E+04  0.25083354043E+04  0.25500000000E-02 0.  1.
         -2   -1    0    0    0  501 -0.00000000000E+00 -0.00000000000E+00 -0.32291737602E+02  0.32291737703E+02  0.25500000000E-02 0. -1.
    5000001    1    1    2    0    0  0.25312016551E+03 -0.72719209622E+01  0.13599986878E+04  0.13891897386E+04  0.12700000000E+03 0.  0.
   -5000001    1    1    2    0    0 -0.25312016551E+03  0.72719209622E+01  0.11160449788E+04  0.11514374033E+04  0.12700000000E+03 0.  0.
<mgrwt>
<rscale>  0 0.56920474E+03</rscale>
<asrwt>0</asrwt>
<pdfrwt beam="1">  1        2 0.35833365E+00 0.56920474E+03</pdfrwt>
<pdfrwt beam="2">  1       -2 0.46131051E-02 0.56920474E+03</pdfrwt>
<totfact> 0.10676402E+03</totfact>
</mgrwt>
</event>
<event>
 4    1  0.1390278E-004  0.1064733E+04  0.7818608E-02  0.9240264E-01
         -2   -1    0    0    0  501 -0.00000000000E+00  0.00000000000E+00  0.33312144314E+03  0.33312144315E+03  0.25500000000E-02 0. -1.
          2   -1    0    0  501    0  0.00000000000E+00 -0.00000000000E+00 -0.85078373133E+03  0.85078373133E+03  0.25500000000E-02 0.  1.
    5000001    1    1    2    0    0 -0.43484464846E+03  0.19552461133E+03 -0.48112067264E+03  0.68914863678E+03  0.12700000000E+03 0.  0.
   -5000001    1    1    2    0    0  0.43484464846E+03 -0.19552461133E+03 -0.36541615546E+02  0.49475653770E+03  0.12700000000E+03 0.  0.
<mgrwt>
<rscale>  0 0.10647334E+04</rscale>
<asrwt>0</asrwt>
<pdfrwt beam="1">  1        2 0.12154053E+00 0.10647334E+04</pdfrwt>
<pdfrwt beam="2">  1       -2 0.47588778E-01 0.10647334E+04</pdfrwt>
<totfact> 0.14591518E+02</totfact>
</mgrwt>
</event>
<event>
 4    1  0.1390278E-004  0.4742071E+03  0.7818608E-02  0.1020739E+00
         -2   -1    0    0    0  501 -0.00000000000E+00  0.00000000000E+00  0.51598280216E+02  0.51598280279E+02  0.25500000000E-02 0. -1.
          2   -1    0    0  501    0  0.00000000000E+00 -0.00000000000E+00 -0.10895343901E+04  0.10895343901E+04  0.25500000000E-02 0.  1.
    5000001    1    1    2    0    0  0.79314157808E+02  0.35166580452E+02 -0.84736440504E+02  0.17560378230E+03  0.12700000000E+03 0.  0.
   -5000001    1    1    2    0    0 -0.79314157808E+02 -0.35166580452E+02 -0.95319966941E+03  0.96552888811E+03  0.12700000000E+03 0.  0.
<mgrwt>
<rscale>  0 0.47420713E+03</rscale>
<asrwt>0</asrwt>
<pdfrwt beam="1">  1        2 0.15564776E+00 0.47420713E+03</pdfrwt>
<pdfrwt beam="2">  1       -2 0.73711836E-02 0.47420713E+03</pdfrwt>
<totfact> 0.27851579E+03</totfact>
</mgrwt>
</event>
<event>
 4    1  0.1390278E-004  0.3409325E+03  0.7818608E-02  0.1066399E+00
         -2   -1    0    0    0  501 -0.00000000000E+00  0.00000000000E+00  0.34851959745E+02  0.34851959839E+02  0.25500000000E-02 0. -1.
          2   -1    0    0  501    0  0.00000000000E+00 -0.00000000000E+00 -0.83377654996E+03  0.83377654996E+03  0.25500000000E-02 0.  1.
    5000001    1    1    2    0    0  0.93732712773E+02 -0.82802066785E+01 -0.56211033014E+03  0.58391044391E+03  0.12700000000E+03 0.  0.
   -5000001    1    1    2    0    0 -0.93732712773E+02  0.82802066785E+01 -0.23681426007E+03  0.28471806588E+03  0.12700000000E+03 0.  0.
<mgrwt>
<rscale>  0 0.34093253E+03</rscale>
<asrwt>0</asrwt>
<pdfrwt beam="1">  1        2 0.11911092E+00 0.34093253E+03</pdfrwt>
<pdfrwt beam="2">  1       -2 0.49788519E-02 0.34093253E+03</pdfrwt>
<totfact> 0.73237418E+03</totfact>
</mgrwt>
</event>
<event>
 4    1  0.1390278E-004  0.2654064E+03  0.7818608E-02  0.1103938E+00
         -2   -1    0    0    0  501 -0.00000000000E+00  0.00000000000E+00  0.49748405444E+01  0.49748411979E+01  0.25500000000E-02 0. -1.
          2   -1    0    0  501    0  0.00000000000E+00 -0.00000000000E+00 -0.35398403443E+04  0.35398403443E+04  0.25500000000E-02 0.  1.
    5000001    1    1    2    0    0 -0.18787907871E+02 -0.33141807177E+02 -0.16945496705E+04  0.16997290816E+04  0.12700000000E+03 0.  0.
   -5000001    1    1    2    0    0  0.18787907871E+02  0.33141807177E+02 -0.18403158333E+04  0.18450861040E+04  0.12700000000E+03 0.  0.
<mgrwt>
<rscale>  0 0.26540642E+03</rscale>
<asrwt>0</asrwt>
<pdfrwt beam="1">  1        2 0.50568987E+00 0.26540642E+03</pdfrwt>
<pdfrwt beam="2">  1       -2 0.71069382E-03 0.26540642E+03</pdfrwt>
<totfact> 0.48731646E+03</totfact>
</mgrwt>
</event>
<event>
 4    1  0.1390278E-004  0.6704103E+03  0.7818608E-02  0.9769217E-01
          2   -1    0    0  501    0  0.00000000000E+00  0.00000000000E+00  0.54675327355E+03  0.54675327356E+03  0.25500000000E-02 0.  1.
         -2   -1    0    0    0  501 -0.00000000000E+00 -0.00000000000E+00 -0.20550856754E+03  0.20550856755E+03  0.25500000000E-02 0. -1.
    5000001    1    1    2    0    0  0.18898500553E+03  0.21948875475E+03  0.29528486075E+03  0.43268093876E+03  0.12700000000E+03 0.  0.
   -5000001    1    1    2    0    0 -0.18898500553E+03 -0.21948875475E+03  0.45959845264E+02  0.31958090236E+03  0.12700000000E+03 0.  0.
<mgrwt>
<rscale>  0 0.67041027E+03</rscale>
<asrwt>0</asrwt>
<pdfrwt beam="1">  1        2 0.78107610E-01 0.67041027E+03</pdfrwt>
<pdfrwt beam="2">  1       -2 0.29358367E-01 0.67041027E+03</pdfrwt>
<totfact> 0.64888029E+02</totfact>
</mgrwt>
</event>
<event>
 4    1  0.1390278E-004  0.8407194E+03  0.7818608E-02  0.9502878E-01
         -2   -1    0    0    0  501 -0.00000000000E+00  0.00000000000E+00  0.11861187654E+03  0.11861187657E+03  0.25500000000E-02 0. -1.
          2   -1    0    0  501    0  0.00000000000E+00 -0.00000000000E+00 -0.14897521315E+04  0.14897521315E+04  0.25500000000E-02 0.  1.
    5000001    1    1    2    0    0 -0.86645382295E+02  0.39102939706E+03 -0.70991097001E+03  0.82493272270E+03  0.12700000000E+03 0.  0.
   -5000001    1    1    2    0    0  0.86645382295E+02 -0.39102939706E+03 -0.66122928499E+03  0.78343128541E+03  0.12700000000E+03 0.  0.
<mgrwt>
<rscale>  0 0.84071944E+03</rscale>
<asrwt>0</asrwt>
<pdfrwt beam="1">  1        2 0.21282172E+00 0.84071944E+03</pdfrwt>
<pdfrwt beam="2">  1       -2 0.16944555E-01 0.84071944E+03</pdfrwt>
<totfact> 0.42346170E+02</totfact>
</mgrwt>
</event>
<event>
 4    1  0.1390278E-004  0.4662752E+03  0.7818608E-02  0.1022977E+00
         -2   -1    0    0    0  501 -0.00000000000E+00  0.00000000000E+00  0.28478225468E+02  0.28478225582E+02  0.25500000000E-02 0. -1.
          2   -1    0    0  501    0  0.00000000000E+00 -0.00000000000E+00 -0.19085863123E+04  0.19085863123E+04  0.25500000000E-02 0.  1.
    5000001    1    1    2    0    0 -0.36723442638E+02  0.18063616581E+03 -0.12107598971E+04  0.12312784268E+04  0.12700000000E+03 0.  0.
   -5000001    1    1    2    0    0  0.36723442638E+02 -0.18063616581E+03 -0.66934818972E+03  0.70578611117E+03  0.12700000000E+03 0.  0.
<mgrwt>
<rscale>  0 0.46627525E+03</rscale>
<asrwt>0</asrwt>
<pdfrwt beam="1">  1        2 0.27265511E+00 0.46627525E+03</pdfrwt>
<pdfrwt beam="2">  1       -2 0.40683191E-02 0.46627525E+03</pdfrwt>
<totfact> 0.26071125E+03</totfact>
</mgrwt>
</event>
<event>
 4    1  0.1390278E-004  0.3222903E+03  0.7818608E-02  0.1074600E+00
          2   -1    0    0  501    0  0.00000000000E+00  0.00000000000E+00  0.46944235923E+04  0.46944235923E+04  0.25500000000E-02 0.  1.
         -2   -1    0    0    0  501 -0.00000000000E+00 -0.00000000000E+00 -0.55316190735E+01  0.55316196613E+01  0.25500000000E-02 0. -1.
    5000001    1    1    2    0    0 -0.61296226437E+02 -0.69069738206E+02  0.28724443879E+04  0.28767331502E+04  0.12700000000E+03 0.  0.
   -5000001    1    1    2    0    0  0.61296226437E+02  0.69069738206E+02  0.18164475853E+04  0.18232220617E+04  0.12700000000E+03 0.  0.
<mgrwt>
<rscale>  0 0.32229033E+03</rscale>
<asrwt>0</asrwt>
<pdfrwt beam="1">  1        2 0.67063288E+00 0.32229033E+03</pdfrwt>
<pdfrwt beam="2">  1       -2 0.79023023E-03 0.32229033E+03</pdfrwt>
<totfact> 0.67393003E+02</totfact>
</mgrwt>
</event>
<event>
 4    1  0.1390278E-004  0.3320240E+03  0.7818608E-02  0.1070245E+00
          2   -1    0    0  501    0  0.00000000000E+00  0.00000000000E+00  0.71080889305E+03  0.71080889305E+03  0.25500000000E-02 0.  1.
         -2   -1    0    0    0  501 -0.00000000000E+00 -0.00000000000E+00 -0.38772717111E+02  0.38772717195E+02  0.25500000000E-02 0. -1.
    5000001    1    1    2    0    0  0.99779189716E+02 -0.33332663149E+02  0.29294327928E+03  0.33617215531E+03  0.12700000000E+03 0.  0.
   -5000001    1    1    2    0    0 -0.99779189716E+02  0.33332663149E+02  0.37909289666E+03  0.41340945493E+03  0.12700000000E+03 0.  0.
<mgrwt>
<rscale>  0 0.33202405E+03</rscale>
<asrwt>0</asrwt>
<pdfrwt beam="1">  1        2 0.10154411E+00 0.33202405E+03</pdfrwt>
<pdfrwt beam="2">  1       -2 0.55389603E-02 0.33202405E+03</pdfrwt>
<totfact> 0.75676212E+03</totfact>
</mgrwt>
</event>
<event>
 4    1  0.1390278E-004  0.3091903E+03  0.7818608E-02  0.1080735E+00
          2   -1    0    0  501    0  0.00000000000E+00  0.00000000000E+00  0.14306329940E+03  0.14306329942E+03  0.25500000000E-02 0.  1.
         -2   -1    0    0    0  501 -0.00000000000E+00 -0.00000000000E+00 -0.16705655549E+03  0.16705655550E+03  0.25500000000E-02 0. -1.
    5000001    1    1    2    0    0  0.25946363489E+02  0.71971789464E+02 -0.55917655258E+02  0.15845799578E+03  0.12700000000E+03 0.  0.
   -5000001    1    1    2    0    0 -0.25946363489E+02 -0.71971789464E+02  0.31924399169E+02  0.15166185914E+03  0.12700000000E+03 0.  0.
<mgrwt>
<rscale>  0 0.30919031E+03</rscale>
<asrwt>0</asrwt>
<pdfrwt beam="1">  1        2 0.20437614E-01 0.30919031E+03</pdfrwt>
<pdfrwt beam="2">  1       -2 0.23865222E-01 0.30919031E+03</pdfrwt>
<totfact> 0.41772162E+03</totfact>
</mgrwt>
</event>
<event>
 4    1  0.1390278E-004  0.2749713E+03  0.7818608E-02  0.1098468E+00
         -2   -1    0    0    0  501 -0.00000000000E+00  0.00000000000E+00  0.67304748545E+02  0.67304748594E+02  0.25500000000E-02 0. -1.
          2   -1    0    0  501    0  0.00000000000E+00 -0.00000000000E+00 -0.28084655012E+03  0.28084655014E+03  0.25500000000E-02 0.  1.
    5000001    1    1    2    0    0  0.65532858965E+01 -0.51374519848E+02 -0.94691425014E+02  0.16666659178E+03  0.12700000000E+03 0.  0.
   -5000001    1    1    2    0    0 -0.65532858965E+01  0.51374519848E+02 -0.11885037657E+03  0.18148470695E+03  0.12700000000E+03 0.  0.
<mgrwt>
<rscale>  0 0.27497132E+03</rscale>
<asrwt>0</asrwt>
<pdfrwt beam="1">  1        2 0.40120935E-01 0.27497132E+03</pdfrwt>
<pdfrwt beam="2">  1       -2 0.96149642E-02 0.27497132E+03</pdfrwt>
<totfact> 0.89239926E+03</totfact>
</mgrwt>
</event>
<event>
 4    1  0.1390278E-004  0.4331547E+03  0.7818608E-02  0.1032868E+00
         -2   -1    0    0    0  501 -0.00000000000E+00  0.00000000000E+00  0.70922907390E+02  0.70922907436E+02  0.25500000000E-02 0. -1.
          2   -1    0    0  501    0  0.00000000000E+00 -0.00000000000E+00 -0.66136232151E+03  0.66136232151E+03  0.25500000000E-02 0.  1.
    5000001    1    1    2    0    0 -0.12784164655E+03 -0.11941709175E+03 -0.31744370068E+03  0.38406175479E+03  0.12700000000E+03 0.  0.
   -5000001    1    1    2    0    0  0.12784164655E+03  0.11941709175E+03 -0.27299571344E+03  0.34822347415E+03  0.12700000000E+03 0.  0.
<mgrwt>
<rscale>  0 0.43315465E+03</rscale>
<asrwt>0</asrwt>
<pdfrwt beam="1">  1        2 0.94480328E-01 0.43315465E+03</pdfrwt>
<pdfrwt beam="2">  1       -2 0.10131844E-01 0.43315465E+03</pdfrwt>
<totfact> 0.32129145E+03</totfact>
</mgrwt>
</event>
<event>
 4    1  0.1390278E-004  0.6092198E+03  0.7818608E-02  0.9886460E-01
          2   -1    0    0  501    0  0.00000000000E+00  0.00000000000E+00  0.12964120464E+04  0.12964120464E+04  0.25500000000E-02 0.  1.
         -2   -1    0    0    0  501 -0.00000000000E+00 -0.00000000000E+00 -0.71572303061E+02  0.71572303107E+02  0.25500000000E-02 0. -1.
    5000001    1    1    2    0    0  0.10396030665E+03 -0.21645027375E+03  0.92193424200E+03  0.96111925011E+03  0.12700000000E+03 0.  0.
   -5000001    1    1    2    0    0 -0.10396030665E+03  0.21645027375E+03  0.30290550135E+03  0.40686509940E+03  0.12700000000E+03 0.  0.
<mgrwt>
<rscale>  0 0.60921982E+03</rscale>
<asrwt>0</asrwt>
<pdfrwt beam="1">  1        2 0.18520170E+00 0.60921982E+03</pdfrwt>
<pdfrwt beam="2">  1       -2 0.10224616E-01 0.60921982E+03</pdfrwt>
<totfact> 0.12608122E+03</totfact>
</mgrwt>
</event>
<event>
 4    1  0.1390278E-004  0.4184417E+03  0.7818608E-02  0.1037575E+00
          2   -1    0    0  501    0  0.00000000000E+00  0.00000000000E+00  0.31419872965E+03  0.31419872966E+03  0.25500000000E-02 0.  1.
         -2   -1    0    0    0  501 -0.00000000000E+00 -0.00000000000E+00 -0.13931745610E+03  0.13931745612E+03  0.25500000000E-02 0. -1.
    5000001    1    1    2    0    0 -0.11327888139E+03 -0.28119041094E+02  0.21577895032E+03  0.27624688386E+03  0.12700000000E+03 0.  0.
   -5000001    1    1    2    0    0  0.11327888139E+03  0.28119041094E+02 -0.40897676769E+02  0.17726930193E+03  0.12700000000E+03 0.  0.
<mgrwt>
<rscale>  0 0.41844172E+03</rscale>
<asrwt>0</asrwt>
<pdfrwt beam="1">  1        2 0.44885533E-01 0.41844172E+03</pdfrwt>
<pdfrwt beam="2">  1       -2 0.19902494E-01 0.41844172E+03</pdfrwt>
<totfact> 0.24075800E+03</totfact>
</mgrwt>
</event>
<event>
 4    1  0.1390278E-004  0.3574072E+03  0.7818608E-02  0.1059615E+00
         -2   -1    0    0    0  501 -0.00000000000E+00  0.00000000000E+00  0.12388566274E+03  0.12388566277E+03  0.25500000000E-02 0. -1.
          2   -1    0    0  501    0  0.00000000000E+00 -0.00000000000E+00 -0.25777780954E+03  0.25777780956E+03  0.25500000000E-02 0.  1.
    5000001    1    1    2    0    0  0.49165153749E+02  0.47743092746E+02  0.45608157253E+02  0.15134635528E+03  0.12700000000E+03 0.  0.
   -5000001    1    1    2    0    0 -0.49165153749E+02 -0.47743092746E+02 -0.17950030406E+03  0.23031711705E+03  0.12700000000E+03 0.  0.
<mgrwt>
<rscale>  0 0.35740719E+03</rscale>
<asrwt>0</asrwt>
<pdfrwt beam="1">  1        2 0.36825401E-01 0.35740719E+03</pdfrwt>
<pdfrwt beam="2">  1       -2 0.17697952E-01 0.35740719E+03</pdfrwt>
<totfact> 0.36414121E+03</totfact>
</mgrwt>
</event>
<event>
 4    1  0.1390278E-004  0.3088911E+03  0.7818608E-02  0.1080879E+00
          2   -1    0    0  501    0  0.00000000000E+00  0.00000000000E+00  0.59034267141E+02  0.59034267196E+02  0.25500000000E-02 0.  1.
         -2   -1    0    0    0  501 -0.00000000000E+00 -0.00000000000E+00 -0.40406063717E+03  0.40406063718E+03  0.25500000000E-02 0. -1.
    5000001    1    1    2    0    0 -0.46894162252E+02  0.71141753816E+02 -0.20481469597E+03  0.25561351935E+03  0.12700000000E+03 0.  0.
   -5000001    1    1    2    0    0  0.46894162252E+02 -0.71141753816E+02 -0.14021167406E+03  0.20748138502E+03  0.12700000000E+03 0.  0.
<mgrwt>
<rscale>  0 0.30889107E+03</rscale>
<asrwt>0</asrwt>
<pdfrwt beam="1">  1        2 0.84334670E-02 0.30889107E+03</pdfrwt>
<pdfrwt beam="2">  1       -2 0.57722947E-01 0.30889107E+03</pdfrwt>
<totfact> 0.22822268E+03</totfact>
</mgrwt>
</event>
<event>
 4    1  0.1390278E-004  0.8624485E+03  0.7818608E-02  0.9473780E-01
          2   -1    0    0  501    0  0.00000000000E+00  0.00000000000E+00  0.18196112182E+04  0.18196112182E+04  0.25500000000E-02 0.  1.
         -2   -1    0    0    0  501 -0.00000000000E+00 -0.00000000000E+00 -0.10219454132E+03  0.10219454135E+03  0.25500000000E-02 0. -1.
    5000001    1    1    2    0    0 -0.35724865675E+03  0.20130071893E+03  0.94995368315E+03  0.10424440428E+04  0.12700000000E+03 0.  0.
   -5000001    1    1    2    0    0  0.35724865675E+03 -0.20130071893E+03  0.76746299373E+03  0.87936171678E+03  0.12700000000E+03 0.  0.
<mgrwt>
<rscale>  0 0.86244845E+03</rscale>
<asrwt>0</asrwt>
<pdfrwt beam="1">  1        2 0.25994445E+00 0.86244845E+03</pdfrwt>
<pdfrwt beam="2">  1       -2 0.14599221E-01 0.86244845E+03</pdfrwt>
<totfact> 0.36786752E+02</totfact>
</mgrwt>
</event>
<event>
 4    1  0.1390278E-004  0.3185415E+03  0.7818608E-02  0.1076323E+00
          2   -1    0    0  501    0  0.00000000000E+00  0.00000000000E+00  0.88486021219E+03  0.88486021219E+03  0.25500000000E-02 0.  1.
         -2   -1    0    0    0  501 -0.00000000000E+00 -0.00000000000E+00 -0.28668000679E+02  0.28668000793E+02  0.25500000000E-02 0. -1.
    5000001    1    1    2    0    0  0.10533580390E+02  0.85556053854E+02  0.55001766088E+03  0.57103346833E+03  0.12700000000E+03 0.  0.
   -5000001    1    1    2    0    0 -0.10533580390E+02 -0.85556053854E+02  0.30617455063E+03  0.34249474466E+03  0.12700000000E+03 0.  0.
<mgrwt>
<rscale>  0 0.31854151E+03</rscale>
<asrwt>0</asrwt>
<pdfrwt beam="1">  1        2 0.12640861E+00 0.31854151E+03</pdfrwt>
<pdfrwt beam="2">  1       -2 0.40954283E-02 0.31854151E+03</pdfrwt>
<totfact> 0.91153135E+03</totfact>
</mgrwt>
</event>
<event>
 4    1  0.1390278E-004  0.3755418E+03  0.7818608E-02  0.1052594E+00
          2   -1    0    0  501    0  0.00000000000E+00  0.00000000000E+00  0.22299432574E+04  0.22299432574E+04  0.25500000000E-02 0.  1.
         -2   -1    0    0    0  501 -0.00000000000E+00 -0.00000000000E+00 -0.15811127591E+02  0.15811127797E+02  0.25500000000E-02 0. -1.
    5000001    1    1    2    0    0 -0.75681258054E+02 -0.51291223384E+02  0.17276797725E+04  0.17347520972E+04  0.12700000000E+03 0.  0.
   -5000001    1    1    2    0    0  0.75681258054E+02  0.51291223384E+02  0.48645235738E+03  0.51100228807E+03  0.12700000000E+03 0.  0.
<mgrwt>
<rscale>  0 0.37554184E+03</rscale>
<asrwt>0</asrwt>
<pdfrwt beam="1">  1        2 0.31856322E+00 0.37554184E+03</pdfrwt>
<pdfrwt beam="2">  1       -2 0.22587333E-02 0.37554184E+03</pdfrwt>
<totfact> 0.43962904E+03</totfact>
</mgrwt>
</event>
<event>
 4    1  0.1390278E-004  0.4861630E+03  0.7818608E-02  0.1017455E+00
         -2   -1    0    0    0  501 -0.00000000000E+00  0.00000000000E+00  0.40661679745E+02  0.40661679825E+02  0.25500000000E-02 0. -1.
          2   -1    0    0  501    0  0.00000000000E+00 -0.00000000000E+00 -0.14531768379E+04  0.14531768379E+04  0.25500000000E-02 0.  1.
    5000001    1    1    2    0    0  0.46553091170E+02 -0.83014017204E+02 -0.14050229078E+03  0.21196323045E+03  0.12700000000E+03 0.  0.
   -5000001    1    1    2    0    0 -0.46553091170E+02  0.83014017204E+02 -0.12720128674E+04  0.12818752873E+04  0.12700000000E+03 0.  0.
<mgrwt>
<rscale>  0 0.48616298E+03</rscale>
<asrwt>0</asrwt>
<pdfrwt beam="1">  1        2 0.20759666E+00 0.48616298E+03</pdfrwt>
<pdfrwt beam="2">  1       -2 0.58088123E-02 0.48616298E+03</pdfrwt>
<totfact> 0.25605416E+03</totfact>
</mgrwt>
</event>
<event>
 4    1  0.1390278E-004  0.3316236E+03  0.7818608E-02  0.1070421E+00
         -2   -1    0    0    0  501 -0.00000000000E+00  0.00000000000E+00  0.23453622794E+02  0.23453622932E+02  0.25500000000E-02 0. -1.
          2   -1    0    0  501    0  0.00000000000E+00 -0.00000000000E+00 -0.11722520712E+04  0.11722520712E+04  0.25500000000E-02 0.  1.
    5000001    1    1    2    0    0  0.54034984297E+02  0.86198430080E+02 -0.68924848550E+03  0.70819659957E+03  0.12700000000E+03 0.  0.
   -5000001    1    1    2    0    0 -0.54034984297E+02 -0.86198430080E+02 -0.45954996287E+03  0.48750909453E+03  0.12700000000E+03 0.  0.
<mgrwt>
<rscale>  0 0.33162363E+03</rscale>
<asrwt>0</asrwt>
<pdfrwt beam="1">  1        2 0.16746454E+00 0.33162363E+03</pdfrwt>
<pdfrwt beam="2">  1       -2 0.33505183E-02 0.33162363E+03</pdfrwt>
<totfact> 0.83642097E+03</totfact>
</mgrwt>
</event>
<event>
 4    1  0.1390278E-004  0.7331114E+03  0.7818608E-02  0.9662225E-01
          2   -1    0    0  501    0  0.00000000000E+00  0.00000000000E+00  0.16210442587E+04  0.16210442587E+04  0.25500000000E-02 0.  1.
         -2   -1    0    0    0  501 -0.00000000000E+00 -0.00000000000E+00 -0.82886739865E+02  0.82886739905E+02  0.25500000000E-02 0. -1.
    5000001    1    1    2    0    0 -0.29172774421E+03  0.12140371831E+03  0.45388726250E+03  0.56743861925E+03  0.12700000000E+03 0.  0.
   -5000001    1    1    2    0    0  0.29172774421E+03 -0.12140371831E+03  0.10842702563E+04  0.11364923794E+04  0.12700000000E+03 0.  0.
<mgrwt>
<rscale>  0 0.73311138E+03</rscale>
<asrwt>0</asrwt>
<pdfrwt beam="1">  1        2 0.23157775E+00 0.73311138E+03</pdfrwt>
<pdfrwt beam="2">  1       -2 0.11840963E-01 0.73311138E+03</pdfrwt>
<totfact> 0.66462795E+02</totfact>
</mgrwt>
</event>
<event>
 4    1  0.1390278E-004  0.3946773E+03  0.7818608E-02  0.1045638E+00
         -2   -1    0    0    0  501 -0.00000000000E+00  0.00000000000E+00  0.64447674483E+02  0.64447674534E+02  0.25500000000E-02 0. -1.
          2   -1    0    0  501    0  0.00000000000E+00 -0.00000000000E+00 -0.60425057929E+03  0.60425057930E+03  0.25500000000E-02 0.  1.
    5000001    1    1    2    0    0  0.18877375816E+02 -0.12028925181E+03 -0.42132677292E+03  0.45658636533E+03  0.12700000000E+03 0.  0.
   -5000001    1    1    2    0    0 -0.18877375816E+02  0.12028925181E+03 -0.11847613189E+03  0.21211188851E+03  0.12700000000E+03 0.  0.
<mgrwt>
<rscale>  0 0.39467731E+03</rscale>
<asrwt>0</asrwt>
<pdfrwt beam="1">  1        2 0.86321508E-01 0.39467731E+03</pdfrwt>
<pdfrwt beam="2">  1       -2 0.92068110E-02 0.39467731E+03</pdfrwt>
<totfact> 0.41590170E+03</totfact>
</mgrwt>
</event>
<event>
 4    1  0.1390278E-004  0.4934276E+03  0.7818608E-02  0.1015509E+00
          2   -1    0    0  501    0  0.00000000000E+00  0.00000000000E+00  0.80245558314E+03  0.80245558314E+03  0.25500000000E-02 0.  1.
         -2   -1    0    0    0  501 -0.00000000000E+00 -0.00000000000E+00 -0.75851805720E+02  0.75851805763E+02  0.25500000000E-02 0. -1.
    5000001    1    1    2    0    0  0.20440526699E+03  0.79231396987E+01  0.26753761275E+03  0.35993008147E+03  0.12700000000E+03 0.  0.
   -5000001    1    1    2    0    0 -0.20440526699E+03 -0.79231396987E+01  0.45906616467E+03  0.51837730743E+03  0.12700000000E+03 0.  0.
<mgrwt>
<rscale>  0 0.49342762E+03</rscale>
<asrwt>0</asrwt>
<pdfrwt beam="1">  1        2 0.11463651E+00 0.49342762E+03</pdfrwt>
<pdfrwt beam="2">  1       -2 0.10835972E-01 0.49342762E+03</pdfrwt>
<totfact> 0.22752097E+03</totfact>
</mgrwt>
</event>
<event>
 4    1  0.1390278E-004  0.3899125E+03  0.7818608E-02  0.1047330E+00
          2   -1    0    0  501    0  0.00000000000E+00  0.00000000000E+00  0.37284457051E+03  0.37284457052E+03  0.25500000000E-02 0.  1.
         -2   -1    0    0    0  501 -0.00000000000E+00 -0.00000000000E+00 -0.10194046431E+03  0.10194046434E+03  0.25500000000E-02 0. -1.
    5000001    1    1    2    0    0  0.19107380343E+02 -0.12835030073E+03  0.22189857669E+03  0.28671740446E+03  0.12700000000E+03 0.  0.
   -5000001    1    1    2    0    0 -0.19107380343E+02  0.12835030073E+03  0.49005529509E+02  0.18806763040E+03  0.12700000000E+03 0.  0.
<mgrwt>
<rscale>  0 0.38991255E+03</rscale>
<asrwt>0</asrwt>
<pdfrwt beam="1">  1        2 0.53263510E-01 0.38991255E+03</pdfrwt>
<pdfrwt beam="2">  1       -2 0.14562923E-01 0.38991255E+03</pdfrwt>
<totfact> 0.33850459E+03</totfact>
</mgrwt>
</event>
<event>
 4    1  0.1390278E-004  0.3820229E+03  0.7818608E-02  0.1050189E+00
         -2   -1    0    0    0  501 -0.00000000000E+00  0.00000000000E+00  0.15749469797E+03  0.15749469799E+03  0.25500000000E-02 0. -1.
          2   -1    0    0  501    0  0.00000000000E+00 -0.00000000000E+00 -0.23166094254E+03  0.23166094256E+03  0.25500000000E-02 0.  1.
    5000001    1    1    2    0    0  0.41533253796E+01 -0.14145265687E+03 -0.18570589255E+02  0.19104965594E+03  0.12700000000E+03 0.  0.
   -5000001    1    1    2    0    0 -0.41533253796E+01  0.14145265687E+03 -0.55595655321E+02  0.19810598461E+03  0.12700000000E+03 0.  0.
<mgrwt>
<rscale>  0 0.38202288E+03</rscale>
<asrwt>0</asrwt>
<pdfrwt beam="1">  1        2 0.33094420E-01 0.38202288E+03</pdfrwt>
<pdfrwt beam="2">  1       -2 0.22499243E-01 0.38202288E+03</pdfrwt>
<totfact> 0.27114660E+03</totfact>
</mgrwt>
</event>
<event>
 4    1  0.1390278E-004  0.4069462E+03  0.7818608E-02  0.1041401E+00
         -2   -1    0    0    0  501 -0.00000000000E+00  0.00000000000E+00  0.49688441917E+03  0.49688441918E+03  0.25500000000E-02 0. -1.
          2   -1    0    0  501    0  0.00000000000E+00 -0.00000000000E+00 -0.83321798066E+02  0.83321798105E+02  0.25500000000E-02 0.  1.
    5000001    1    1    2    0    0  0.12971883291E+02 -0.15841107259E+03  0.21128218158E+03  0.29331126458E+03  0.12700000000E+03 0.  0.
   -5000001    1    1    2    0    0 -0.12971883291E+02  0.15841107259E+03  0.20228043952E+03  0.28689495270E+03  0.12700000000E+03 0.  0.
<mgrwt>
<rscale>  0 0.40694620E+03</rscale>
<asrwt>0</asrwt>
<pdfrwt beam="1">  1        2 0.11903114E-01 0.40694620E+03</pdfrwt>
<pdfrwt beam="2">  1       -2 0.70983487E-01 0.40694620E+03</pdfrwt>
<totfact> 0.96264741E+02</totfact>
</mgrwt>
</event>
<event>
 4    1  0.1390278E-004  0.7264600E+03  0.7818608E-02  0.9673022E-01
          2   -1    0    0  501    0  0.00000000000E+00  0.00000000000E+00  0.23845741262E+04  0.23845741262E+04  0.25500000000E-02 0.  1.
         -2   -1    0    0    0  501 -0.00000000000E+00 -0.00000000000E+00 -0.55328965287E+02  0.55328965345E+02  0.25500000000E-02 0. -1.
    5000001    1    1    2    0    0  0.32880945114E+03 -0.74855076847E+02  0.13180965089E+04  0.13664649079E+04  0.12700000000E+03 0.  0.
   -5000001    1    1    2    0    0 -0.32880945114E+03  0.74855076847E+02  0.10111486520E+04  0.10734381836E+04  0.12700000000E+03 0.  0.
<mgrwt>
<rscale>  0 0.72645996E+03</rscale>
<asrwt>0</asrwt>
<pdfrwt beam="1">  1        2 0.34065339E+00 0.72645996E+03</pdfrwt>
<pdfrwt beam="2">  1       -2 0.79041391E-02 0.72645996E+03</pdfrwt>
<totfact> 0.52439366E+02</totfact>
</mgrwt>
</event>
<event>
 4    1  0.1390278E-004  0.3434817E+03  0.7818608E-02  0.1065323E+00
         -2   -1    0    0    0  501 -0.00000000000E+00  0.00000000000E+00  0.16779485519E+03  0.16779485521E+03  0.25500000000E-02 0. -1.
          2   -1    0    0  501    0  0.00000000000E+00 -0.00000000000E+00 -0.17577967426E+03  0.17577967428E+03  0.25500000000E-02 0.  1.
    5000001    1    1    2    0    0 -0.62927247853E+02  0.96326815872E+02 -0.15275129614E+02  0.17204947999E+03  0.12700000000E+03 0.  0.
   -5000001    1    1    2    0    0  0.62927247853E+02 -0.96326815872E+02  0.72903105385E+01  0.17152504950E+03  0.12700000000E+03 0.  0.
<mgrwt>
<rscale>  0 0.34348173E+03</rscale>
<asrwt>0</asrwt>
<pdfrwt beam="1">  1        2 0.25111382E-01 0.34348173E+03</pdfrwt>
<pdfrwt beam="2">  1       -2 0.23970694E-01 0.34348173E+03</pdfrwt>
<totfact> 0.32901618E+03</totfact>
</mgrwt>
</event>
<event>
 4    1  0.1390278E-004  0.3531026E+03  0.7818608E-02  0.1061349E+00
          2   -1    0    0  501    0  0.00000000000E+00  0.00000000000E+00  0.26381997897E+03  0.26381997898E+03  0.25500000000E-02 0.  1.
         -2   -1    0    0    0  501 -0.00000000000E+00 -0.00000000000E+00 -0.11815008866E+03  0.11815008869E+03  0.25500000000E-02 0. -1.
    5000001    1    1    2    0    0 -0.91406801367E+02  0.80782739115E+02  0.59138913811E+02  0.18576185131E+03  0.12700000000E+03 0.  0.
   -5000001    1    1    2    0    0  0.91406801367E+02 -0.80782739115E+02  0.86530976497E+02  0.19620821636E+03  0.12700000000E+03 0.  0.
<mgrwt>
<rscale>  0 0.35310256E+03</rscale>
<asrwt>0</asrwt>
<pdfrwt beam="1">  1        2 0.37688569E-01 0.35310256E+03</pdfrwt>
<pdfrwt beam="2">  1       -2 0.16878584E-01 0.35310256E+03</pdfrwt>
<totfact> 0.38454070E+03</totfact>
</mgrwt>
</event>
<event>
 4    1  0.1390278E-004  0.6248432E+03  0.7818608E-02  0.9855164E-01
          2   -1    0    0  501    0  0.00000000000E+00  0.00000000000E+00  0.11622963989E+04  0.11622963989E+04  0.25500000000E-02 0.  1.
         -2   -1    0    0    0  501 -0.00000000000E+00 -0.00000000000E+00 -0.83977936685E+02  0.83977936724E+02  0.25500000000E-02 0. -1.
    5000001    1    1    2    0    0 -0.43958715153E+02 -0.16806564515E+03  0.99091171198E+03  0.10140086048E+04  0.12700000000E+03 0.  0.
   -5000001    1    1    2    0    0  0.43958715153E+02  0.16806564515E+03  0.87406750226E+02  0.23226573079E+03  0.12700000000E+03 0.  0.
<mgrwt>
<rscale>  0 0.62484319E+03</rscale>
<asrwt>0</asrwt>
<pdfrwt beam="1">  1        2 0.16604232E+00 0.62484319E+03</pdfrwt>
<pdfrwt beam="2">  1       -2 0.11996850E-01 0.62484319E+03</pdfrwt>
<totfact> 0.11520499E+03</totfact>
</mgrwt>
</event>
<event>
 4    1  0.1390278E-004  0.2836506E+03  0.7818608E-02  0.1093712E+00
          2   -1    0    0  501    0  0.00000000000E+00  0.00000000000E+00  0.32840072593E+04  0.32840072593E+04  0.25500000000E-02 0.  1.
         -2   -1    0    0    0  501 -0.00000000000E+00 -0.00000000000E+00 -0.61249609662E+01  0.61249614971E+01  0.25500000000E-02 0. -1.
    5000001    1    1    2    0    0  0.40601325438E+02 -0.48260008608E+02  0.16715865634E+04  0.16775899782E+04  0.12700000000E+03 0.  0.
   -5000001    1    1    2    0    0 -0.40601325438E+02  0.48260008608E+02  0.16062957350E+04  0.16125422427E+04  0.12700000000E+03 0.  0.
<mgrwt>
<rscale>  0 0.28365061E+03</rscale>
<asrwt>0</asrwt>
<pdfrwt beam="1">  1        2 0.46914635E+00 0.28365061E+03</pdfrwt>
<pdfrwt beam="2">  1       -2 0.87498988E-03 0.28365061E+03</pdfrwt>
<totfact> 0.50370003E+03</totfact>
</mgrwt>
</event>
<event>
 4    1  0.1390278E-004  0.3986782E+03  0.7818608E-02  0.1044238E+00
          2   -1    0    0  501    0  0.00000000000E+00  0.00000000000E+00  0.20906508239E+04  0.20906508239E+04  0.25500000000E-02 0.  1.
         -2   -1    0    0    0  501 -0.00000000000E+00 -0.00000000000E+00 -0.19006557328E+02  0.19006557499E+02  0.25500000000E-02 0. -1.
    5000001    1    1    2    0    0  0.12839315339E+03 -0.73534758977E+01  0.59094114216E+03  0.61796384113E+03  0.12700000000E+03 0.  0.
   -5000001    1    1    2    0    0 -0.12839315339E+03  0.73534758977E+01  0.14807031244E+04  0.14916935403E+04  0.12700000000E+03 0.  0.
<mgrwt>
<rscale>  0 0.39867819E+03</rscale>
<asrwt>0</asrwt>
<pdfrwt beam="1">  1        2 0.29866449E+00 0.39867819E+03</pdfrwt>
<pdfrwt beam="2">  1       -2 0.27152217E-02 0.39867819E+03</pdfrwt>
<totfact> 0.39116827E+03</totfact>
</mgrwt>
</event>
<event>
 4    1  0.1390278E-004  0.3088188E+03  0.7818608E-02  0.1080913E+00
          2   -1    0    0  501    0  0.00000000000E+00  0.00000000000E+00  0.59624946026E+03  0.59624946026E+03  0.25500000000E-02 0.  1.
         -2   -1    0    0    0  501 -0.00000000000E+00 -0.00000000000E+00 -0.39987052354E+02  0.39987052435E+02  0.25500000000E-02 0. -1.
    5000001    1    1    2    0    0  0.16735894604E+02 -0.86175453744E+02  0.27269618262E+03  0.31336641015E+03  0.12700000000E+03 0.  0.
   -5000001    1    1    2    0    0 -0.16735894604E+02  0.86175453744E+02  0.28356622529E+03  0.32287010255E+03  0.12700000000E+03 0.  0.
<mgrwt>
<rscale>  0 0.30881877E+03</rscale>
<asrwt>0</asrwt>
<pdfrwt beam="1">  1        2 0.85178488E-01 0.30881877E+03</pdfrwt>
<pdfrwt beam="2">  1       -2 0.57124365E-02 0.30881877E+03</pdfrwt>
<totfact> 0.88480973E+03</totfact>
</mgrwt>
</event>
<event>
 4    1  0.1390278E-004  0.3511281E+03  0.7818608E-02  0.1062153E+00
          2   -1    0    0  501    0  0.00000000000E+00  0.00000000000E+00  0.37235451715E+02  0.37235451803E+02  0.25500000000E-02 0.  1.
         -2   -1    0    0    0  501 -0.00000000000E+00 -0.00000000000E+00 -0.82777930585E+03  0.82777930585E+03  0.25500000000E-02 0. -1.
    5000001    1    1    2    0    0  0.18561438017E+02  0.90287499295E+02 -0.58920946579E+03  0.60974843508E+03  0.12700000000E+03 0.  0.
   -5000001    1    1    2    0    0 -0.18561438017E+02 -0.90287499295E+02 -0.20133438835E+03  0.25526632258E+03  0.12700000000E+03 0.  0.
<mgrwt>
<rscale>  0 0.35112810E+03</rscale>
<asrwt>0</asrwt>
<pdfrwt beam="1">  1        2 0.53193508E-02 0.35112810E+03</pdfrwt>
<pdfrwt beam="2">  1       -2 0.11825418E+00 0.35112810E+03</pdfrwt>
<totfact> 0.83861012E+02</totfact>
</mgrwt>
</event>
<event>
 4    1  0.1390278E-004  0.4239575E+03  0.7818608E-02  0.1035786E+00
         -2   -1    0    0    0  501 -0.00000000000E+00  0.00000000000E+00  0.74105736552E+02  0.74105736596E+02  0.25500000000E-02 0. -1.
          2   -1    0    0  501    0  0.00000000000E+00 -0.00000000000E+00 -0.60636321399E+03  0.60636321400E+03  0.25500000000E-02 0.  1.
    5000001    1    1    2    0    0 -0.10305114421E+03  0.11113411837E+03 -0.14351728376E+03  0.24432875665E+03  0.12700000000E+03 0.  0.
   -5000001    1    1    2    0    0  0.10305114421E+03 -0.11113411837E+03 -0.38874019368E+03  0.43614019394E+03  0.12700000000E+03 0.  0.
<mgrwt>
<rscale>  0 0.42395751E+03</rscale>
<asrwt>0</asrwt>
<pdfrwt beam="1">  1        2 0.86623314E-01 0.42395751E+03</pdfrwt>
<pdfrwt beam="2">  1       -2 0.10586534E-01 0.42395751E+03</pdfrwt>
<totfact> 0.33145518E+03</totfact>
</mgrwt>
</event>
<event>
 4    1  0.1390278E-004  0.4845643E+03  0.7818608E-02  0.1017888E+00
          2   -1    0    0  501    0  0.00000000000E+00  0.00000000000E+00  0.32701408359E+04  0.32701408359E+04  0.25500000000E-02 0.  1.
         -2   -1    0    0    0  501 -0.00000000000E+00 -0.00000000000E+00 -0.17950495186E+02  0.17950495367E+02  0.25500000000E-02 0. -1.
    5000001    1    1    2    0    0  0.37302639119E+02 -0.18769994549E+03  0.11027232197E+04  0.11263881461E+04  0.12700000000E+03 0.  0.
   -5000001    1    1    2    0    0 -0.37302639119E+02  0.18769994549E+03  0.21494671211E+04  0.21617031852E+04  0.12700000000E+03 0.  0.
<mgrwt>
<rscale>  0 0.48456433E+03</rscale>
<asrwt>0</asrwt>
<pdfrwt beam="1">  1        2 0.46716316E+00 0.48456433E+03</pdfrwt>
<pdfrwt beam="2">  1       -2 0.25643554E-02 0.48456433E+03</pdfrwt>
<totfact> 0.10290378E+03</totfact>
</mgrwt>
</event>
<event>
 4    1  0.1390278E-004  0.4364513E+03  0.7818608E-02  0.1031841E+00
         -2   -1    0    0    0  501 -0.00000000000E+00  0.00000000000E+00  0.42446968861E+02  0.42446968937E+02  0.25500000000E-02 0.  1.
          2   -1    0    0  501    0  0.00000000000E+00 -0.00000000000E+00 -0.11219276955E+04  0.11219276955E+04  0.25500000000E-02 0. -1.
    5000001    1    1    2    0    0  0.10829857955E+03  0.13777717885E+03 -0.61435821026E+03  0.65136483160E+03  0.12700000000E+03 0.  0.
   -5000001    1    1    2    0    0 -0.10829857955E+03 -0.13777717885E+03 -0.46512251641E+03  0.51300983286E+03  0.12700000000E+03 0.  0.
<mgrwt>
<rscale>  0 0.43645128E+03</rscale>
<asrwt>0</asrwt>
<pdfrwt beam="1">  1        2 0.16027537E+00 0.43645128E+03</pdfrwt>
<pdfrwt beam="2">  1       -2 0.60638534E-02 0.43645128E+03</pdfrwt>
<totfact> 0.36214082E+03</totfact>
</mgrwt>
</event>
<event>
 4    1  0.1390278E-004  0.4400000E+03  0.7818608E-02  0.1030747E+00
          2   -1    0    0  501    0  0.00000000000E+00  0.00000000000E+00  0.48478912610E+03  0.48478912610E+03  0.25500000000E-02 0.  1.
         -2   -1    0    0    0  501 -0.00000000000E+00 -0.00000000000E+00 -0.99837231130E+02  0.99837231163E+02  0.25500000000E-02 0. -1.
    5000001    1    1    2    0    0 -0.16467149499E+03  0.61960237722E+02  0.14428928645E+03  0.26058428676E+03  0.12700000000E+03 0.  0.
   -5000001    1    1    2    0    0  0.16467149499E+03 -0.61960237722E+02  0.24066260852E+03  0.32404207051E+03  0.12700000000E+03 0.  0.
<mgrwt>
<rscale>  0 0.44000002E+03</rscale>
<asrwt>0</asrwt>
<pdfrwt beam="1">  1        2 0.69255590E-01 0.44000002E+03</pdfrwt>
<pdfrwt beam="2">  1       -2 0.14262461E-01 0.44000002E+03</pdfrwt>
<totfact> 0.26272988E+03</totfact>
</mgrwt>
</event>
<event>
 4    1  0.1390278E-004  0.6997377E+03  0.7818608E-02  0.9717681E-01
          2   -1    0    0  501    0  0.00000000000E+00  0.00000000000E+00  0.15366116639E+04  0.15366116639E+04  0.25500000000E-02 0.  1.
         -2   -1    0    0    0  501 -0.00000000000E+00 -0.00000000000E+00 -0.79661122209E+02  0.79661122249E+02  0.25500000000E-02 0. -1.
    5000001    1    1    2    0    0  0.27133294488E+03  0.54850667277E+02  0.33074855819E+03  0.44961513700E+03  0.12700000000E+03 0.  0.
   -5000001    1    1    2    0    0 -0.27133294488E+03 -0.54850667277E+02  0.11262019835E+04  0.11666576492E+04  0.12700000000E+03 0.  0.
<mgrwt>
<rscale>  0 0.69973769E+03</rscale>
<asrwt>0</asrwt>
<pdfrwt beam="1">  1        2 0.21951594E+00 0.69973769E+03</pdfrwt>
<pdfrwt beam="2">  1       -2 0.11380161E-01 0.69973769E+03</pdfrwt>
<totfact> 0.78607046E+02</totfact>
</mgrwt>
</event>
<event>
 4    1  0.1390278E-004  0.3062805E+03  0.7818608E-02  0.1082143E+00
          2   -1    0    0  501    0  0.00000000000E+00  0.00000000000E+00  0.49525060811E+03  0.49525060812E+03  0.25500000000E-02 0.  1.
         -2   -1    0    0    0  501 -0.00000000000E+00 -0.00000000000E+00 -0.47353682445E+02  0.47353682514E+02  0.25500000000E-02 0. -1.
    5000001    1    1    2    0    0  0.52403195184E+02 -0.34602506527E+02  0.12095946810E+03  0.18628907979E+03  0.12700000000E+03 0.  0.
   -5000001    1    1    2    0    0 -0.52403195184E+02  0.34602506527E+02  0.32693745756E+03  0.35631521084E+03  0.12700000000E+03 0.  0.
<mgrwt>
<rscale>  0 0.30628053E+03</rscale>
<asrwt>0</asrwt>
<pdfrwt beam="1">  1        2 0.70750092E-01 0.30628053E+03</pdfrwt>
<pdfrwt beam="2">  1       -2 0.67648113E-02 0.30628053E+03</pdfrwt>
<totfact> 0.83994347E+03</totfact>
</mgrwt>
</event>
<event>
 4    1  0.1390278E-004  0.2799102E+04  0.7818608E-02  0.8303547E-01
          2   -1    0    0  501    0  0.00000000000E+00  0.00000000000E+00  0.16967835925E+04  0.16967835925E+04  0.25500000000E-02 0.  1.
         -2   -1    0    0    0  501 -0.00000000000E+00 -0.00000000000E+00 -0.11543859082E+04  0.11543859082E+04  0.25500000000E-02 0. -1.
    5000001    1    1    2    0    0  0.11746802125E+04  0.30264864579E+03  0.97036638462E+03  0.15585922253E+04  0.12700000000E+03 0.  0.
   -5000001    1    1    2    0    0 -0.11746802125E+04 -0.30264864579E+03 -0.42796870038E+03  0.12925772754E+04  0.12700000000E+03 0.  0.
<mgrwt>
<rscale>  0 0.27991020E+04</rscale>
<asrwt>0</asrwt>
<pdfrwt beam="1">  1        2 0.24239765E+00 0.27991020E+04</pdfrwt>
<pdfrwt beam="2">  1       -2 0.16491228E+00 0.27991020E+04</pdfrwt>
<totfact> 0.23404386E+00</totfact>
</mgrwt>
</event>
<event>
 4    1  0.1390278E-004  0.7775644E+03  0.7818608E-02  0.9593072E-01
          2   -1    0    0  501    0  0.00000000000E+00  0.00000000000E+00  0.10707139096E+04  0.10707139096E+04  0.25500000000E-02 0.  1.
         -2   -1    0    0    0  501 -0.00000000000E+00 -0.00000000000E+00 -0.14116897135E+03  0.14116897138E+03  0.25500000000E-02 0. -1.
    5000001    1    1    2    0    0 -0.19114179552E+03  0.31168193641E+03  0.40768212485E+03  0.56215169697E+03  0.12700000000E+03 0.  0.
   -5000001    1    1    2    0    0  0.19114179552E+03 -0.31168193641E+03  0.52186281342E+03  0.64973118404E+03  0.12700000000E+03 0.  0.
<mgrwt>
<rscale>  0 0.77756435E+03</rscale>
<asrwt>0</asrwt>
<pdfrwt beam="1">  1        2 0.15295913E+00 0.77756435E+03</pdfrwt>
<pdfrwt beam="2">  1       -2 0.20166996E-01 0.77756435E+03</pdfrwt>
<totfact> 0.53665991E+02</totfact>
</mgrwt>
</event>
<event>
 4    1  0.1390278E-004  0.3576290E+03  0.7818608E-02  0.1059527E+00
          2   -1    0    0  501    0  0.00000000000E+00  0.00000000000E+00  0.30489919059E+03  0.30489919060E+03  0.25500000000E-02 0.  1.
         -2   -1    0    0    0  501 -0.00000000000E+00 -0.00000000000E+00 -0.10486952600E+03  0.10486952603E+03  0.25500000000E-02 0. -1.
    5000001    1    1    2    0    0 -0.46926810686E+02  0.97549610445E+02  0.17362771861E+03  0.24081868019E+03  0.12700000000E+03 0.  0.
   -5000001    1    1    2    0    0  0.46926810686E+02 -0.97549610445E+02  0.26401945980E+02  0.16895003643E+03  0.12700000000E+03 0.  0.
<mgrwt>
<rscale>  0 0.35762905E+03</rscale>
<asrwt>0</asrwt>
<pdfrwt beam="1">  1        2 0.43557029E-01 0.35762905E+03</pdfrwt>
<pdfrwt beam="2">  1       -2 0.14981360E-01 0.35762905E+03</pdfrwt>
<totfact> 0.40121776E+03</totfact>
</mgrwt>
</event>
<event>
 4    1  0.1390278E-004  0.5266218E+03  0.7818608E-02  0.1007055E+00
         -2   -1    0    0    0  501 -0.00000000000E+00  0.00000000000E+00  0.79395983757E+03  0.79395983758E+03  0.25500000000E-02 0. -1.
          2   -1    0    0  501    0  0.00000000000E+00 -0.00000000000E+00 -0.87325126351E+02  0.87325126388E+02  0.25500000000E-02 0.  1.
    5000001    1    1    2    0    0 -0.11030246053E+03  0.20251156019E+03  0.36186324929E+03  0.44749477762E+03  0.12700000000E+03 0.  0.
   -5000001    1    1    2    0    0  0.11030246053E+03 -0.20251156019E+03  0.34477146193E+03  0.43379018635E+03  0.12700000000E+03 0.  0.
<mgrwt>
<rscale>  0 0.52662185E+03</rscale>
<asrwt>0</asrwt>
<pdfrwt beam="1">  1        2 0.12475017E-01 0.52662185E+03</pdfrwt>
<pdfrwt beam="2">  1       -2 0.11342284E+00 0.52662185E+03</pdfrwt>
<totfact> 0.31063000E+02</totfact>
</mgrwt>
</event>
<event>
 4    1  0.1390278E-004  0.3756552E+03  0.7818608E-02  0.1052551E+00
         -2   -1    0    0    0  501 -0.00000000000E+00  0.00000000000E+00  0.16378970299E+02  0.16378970497E+02  0.25500000000E-02 0. -1.
          2   -1    0    0  501    0  0.00000000000E+00 -0.00000000000E+00 -0.21539329287E+04  0.21539329287E+04  0.25500000000E-02 0.  1.
    5000001    1    1    2    0    0 -0.11409568510E+03 -0.77853101719E+02 -0.10200022452E+04  0.10371174047E+04  0.12700000000E+03 0.  0.
   -5000001    1    1    2    0    0  0.11409568510E+03  0.77853101719E+02 -0.11175517132E+04  0.11331944945E+04  0.12700000000E+03 0.  0.
<mgrwt>
<rscale>  0 0.37565518E+03</rscale>
<asrwt>0</asrwt>
<pdfrwt beam="1">  1        2 0.30770452E+00 0.37565518E+03</pdfrwt>
<pdfrwt beam="2">  1       -2 0.23398543E-02 0.37565518E+03</pdfrwt>
<totfact> 0.45487183E+03</totfact>
</mgrwt>
</event>
<event>
 4    1  0.1390278E-004  0.9363504E+03  0.7818608E-02  0.9381249E-01
         -2   -1    0    0    0  501 -0.00000000000E+00  0.00000000000E+00  0.57134870711E+02  0.57134870768E+02  0.25500000000E-02 0. -1.
          2   -1    0    0  501    0  0.00000000000E+00 -0.00000000000E+00 -0.38363263162E+04  0.38363263162E+04  0.25500000000E-02 0.  1.
    5000001    1    1    2    0    0  0.24106348096E+03 -0.38045408280E+03 -0.18304834539E+04  0.18893532190E+04  0.12700000000E+03 0.  0.
   -5000001    1    1    2    0    0 -0.24106348096E+03  0.38045408280E+03 -0.19487079916E+04  0.20041079680E+04  0.12700000000E+03 0.  0.
<mgrwt>
<rscale>  0 0.93635038E+03</rscale>
<asrwt>0</asrwt>
<pdfrwt beam="1">  1        2 0.54804645E+00 0.93635038E+03</pdfrwt>
<pdfrwt beam="2">  1       -2 0.81621268E-02 0.93635038E+03</pdfrwt>
<totfact> 0.73713881E+01</totfact>
</mgrwt>
</event>
<event>
 4    1  0.1390278E-004  0.4389391E+03  0.7818608E-02  0.1031073E+00
         -2   -1    0    0    0  501 -0.00000000000E+00  0.00000000000E+00  0.16531843043E+04  0.16531843043E+04  0.25500000000E-02 0. -1.
          2   -1    0    0  501    0  0.00000000000E+00 -0.00000000000E+00 -0.29135819794E+02  0.29135819905E+02  0.25500000000E-02 0.  1.
    5000001    1    1    2    0    0 -0.32218271671E+02  0.17272681458E+03  0.94285963085E+03  0.96746361843E+03  0.12700000000E+03 0.  0.
   -5000001    1    1    2    0    0  0.32218271671E+02 -0.17272681458E+03  0.68118885366E+03  0.71485650578E+03  0.12700000000E+03 0.  0.
<mgrwt>
<rscale>  0 0.43893908E+03</rscale>
<asrwt>0</asrwt>
<pdfrwt beam="1">  1        2 0.41622604E-02 0.43893908E+03</pdfrwt>
<pdfrwt beam="2">  1       -2 0.23616916E+00 0.43893908E+03</pdfrwt>
<totfact> 0.17290506E+02</totfact>
</mgrwt>
</event>
<event>
 4    1  0.1390278E-004  0.3539634E+03  0.7818608E-02  0.1061000E+00
          2   -1    0    0  501    0  0.00000000000E+00  0.00000000000E+00  0.21971841426E+04  0.21971841426E+04  0.25500000000E-02 0.  1.
         -2   -1    0    0    0  501 -0.00000000000E+00 -0.00000000000E+00 -0.14255758109E+02  0.14255758337E+02  0.25500000000E-02 0. -1.
    5000001    1    1    2    0    0  0.39104284437E+02 -0.97725972525E+02  0.69073618194E+03  0.71015842163E+03  0.12700000000E+03 0.  0.
   -5000001    1    1    2    0    0 -0.39104284437E+02  0.97725972525E+02  0.14921922026E+04  0.15012814794E+04  0.12700000000E+03 0.  0.
<mgrwt>
<rscale>  0 0.35396342E+03</rscale>
<asrwt>0</asrwt>
<pdfrwt beam="1">  1        2 0.31388359E+00 0.35396342E+03</pdfrwt>
<pdfrwt beam="2">  1       -2 0.20365360E-02 0.35396342E+03</pdfrwt>
<totfact> 0.53248589E+03</totfact>
</mgrwt>
</event>
<event>
 4    1  0.1390278E-004  0.7827004E+03  0.7818608E-02  0.9585401E-01
         -2   -1    0    0    0  501 -0.00000000000E+00  0.00000000000E+00  0.67300172806E+03  0.67300172807E+03  0.25500000000E-02 0. -1.
          2   -1    0    0  501    0  0.00000000000E+00 -0.00000000000E+00 -0.22756998095E+03  0.22756998096E+03  0.25500000000E-02 0.  1.
    5000001    1    1    2    0    0 -0.33006930996E+03 -0.13706867767E+03  0.33363006357E+03  0.50514511885E+03  0.12700000000E+03 0.  0.
   -5000001    1    1    2    0    0  0.33006930996E+03  0.13706867767E+03  0.11180168355E+03  0.39542659018E+03  0.12700000000E+03 0.  0.
<mgrwt>
<rscale>  0 0.78270043E+03</rscale>
<asrwt>0</asrwt>
<pdfrwt beam="1">  1        2 0.32509997E-01 0.78270043E+03</pdfrwt>
<pdfrwt beam="2">  1       -2 0.96143103E-01 0.78270043E+03</pdfrwt>
<totfact> 0.14843048E+02</totfact>
</mgrwt>
</event>
<event>
 4    1  0.1390278E-004  0.4076902E+03  0.7818608E-02  0.1041149E+00
          2   -1    0    0  501    0  0.00000000000E+00  0.00000000000E+00  0.23162591451E+03  0.23162591452E+03  0.25500000000E-02 0.  1.
         -2   -1    0    0    0  501 -0.00000000000E+00 -0.00000000000E+00 -0.17939626385E+03  0.17939626386E+03  0.25500000000E-02 0. -1.
    5000001    1    1    2    0    0 -0.50917724389E+01  0.15932496818E+03  0.22417146413E+02  0.20504121557E+03  0.12700000000E+03 0.  0.
   -5000001    1    1    2    0    0  0.50917724389E+01 -0.15932496818E+03  0.29812504248E+02  0.20598096281E+03  0.12700000000E+03 0.  0.
<mgrwt>
<rscale>  0 0.40769019E+03</rscale>
<asrwt>0</asrwt>
<pdfrwt beam="1">  1        2 0.33089416E-01 0.40769019E+03</pdfrwt>
<pdfrwt beam="2">  1       -2 0.25628038E-01 0.40769019E+03</pdfrwt>
<totfact> 0.21563545E+03</totfact>
</mgrwt>
</event>
<event>
 4    1  0.1390278E-004  0.3003687E+03  0.7818608E-02  0.1085056E+00
          2   -1    0    0  501    0  0.00000000000E+00  0.00000000000E+00  0.21693079262E+04  0.21693079262E+04  0.25500000000E-02 0.  1.
         -2   -1    0    0    0  501 -0.00000000000E+00 -0.00000000000E+00 -0.10397484236E+02  0.10397484549E+02  0.25500000000E-02 0. -1.
    5000001    1    1    2    0    0  0.50122190449E+02  0.56870032953E+02  0.89023436633E+03  0.90243706796E+03  0.12700000000E+03 0.  0.
   -5000001    1    1    2    0    0 -0.50122190449E+02 -0.56870032953E+02  0.12686760757E+04  0.12772683428E+04  0.12700000000E+03 0.  0.
<mgrwt>
<rscale>  0 0.30036874E+03</rscale>
<asrwt>0</asrwt>
<pdfrwt beam="1">  1        2 0.30990152E+00 0.30036874E+03</pdfrwt>
<pdfrwt beam="2">  1       -2 0.14853531E-02 0.30036874E+03</pdfrwt>
<totfact> 0.87491898E+03</totfact>
</mgrwt>
</event>
<event>
 4    1  0.1390278E-004  0.3411286E+03  0.7818608E-02  0.1066316E+00
         -2   -1    0    0    0  501 -0.00000000000E+00  0.00000000000E+00  0.80272669854E+02  0.80272669895E+02  0.25500000000E-02 0. -1.
          2   -1    0    0  501    0  0.00000000000E+00 -0.00000000000E+00 -0.36241692219E+03  0.36241692220E+03  0.25500000000E-02 0.  1.
    5000001    1    1    2    0    0 -0.31026882374E+02 -0.10738612892E+03 -0.11297637313E+03  0.20343821912E+03  0.12700000000E+03 0.  0.
   -5000001    1    1    2    0    0  0.31026882374E+02  0.10738612892E+03 -0.16916787920E+03  0.23925137297E+03  0.12700000000E+03 0.  0.
<mgrwt>
<rscale>  0 0.34112856E+03</rscale>
<asrwt>0</asrwt>
<pdfrwt beam="1">  1        2 0.51773845E-01 0.34112856E+03</pdfrwt>
<pdfrwt beam="2">  1       -2 0.11467524E-01 0.34112856E+03</pdfrwt>
<totfact> 0.51487991E+03</totfact>
</mgrwt>
</event>
<event>
 4    1  0.1390278E-004  0.6951816E+03  0.7818608E-02  0.9725508E-01
         -2   -1    0    0    0  501 -0.00000000000E+00  0.00000000000E+00  0.27563334256E+02  0.27563334374E+02  0.25500000000E-02 0. -1.
          2   -1    0    0  501    0  0.00000000000E+00 -0.00000000000E+00 -0.43833362383E+04  0.43833362383E+04  0.25500000000E-02 0.  1.
    5000001    1    1    2    0    0 -0.10959835279E+03 -0.25827126778E+03 -0.11552938834E+04  0.11956374048E+04  0.12700000000E+03 0.  0.
   -5000001    1    1    2    0    0  0.10959835279E+03  0.25827126778E+03 -0.32004790207E+04  0.32152621679E+04  0.12700000000E+03 0.  0.
<mgrwt>
<rscale>  0 0.69518159E+03</rscale>
<asrwt>0</asrwt>
<pdfrwt beam="1">  1        2 0.62619045E+00 0.69518159E+03</pdfrwt>
<pdfrwt beam="2">  1       -2 0.39376220E-02 0.69518159E+03</pdfrwt>
<totfact> 0.99888211E+01</totfact>
</mgrwt>
</event>
<event>
 4    1  0.1390278E-004  0.4689442E+03  0.7818608E-02  0.1022219E+00
          2   -1    0    0  501    0  0.00000000000E+00  0.00000000000E+00  0.65858318496E+02  0.65858318546E+02  0.25500000000E-02 0.  1.
         -2   -1    0    0    0  501 -0.00000000000E+00 -0.00000000000E+00 -0.83477936319E+03  0.83477936319E+03  0.25500000000E-02 0. -1.
    5000001    1    1    2    0    0  0.11313841994E+03  0.11528182870E+01 -0.74501760226E+02  0.18569098883E+03  0.12700000000E+03 0.  0.
   -5000001    1    1    2    0    0 -0.11313841994E+03 -0.11528182870E+01 -0.69441928447E+03  0.71494669290E+03  0.12700000000E+03 0.  0.
<mgrwt>
<rscale>  0 0.46894420E+03</rscale>
<asrwt>0</asrwt>
<pdfrwt beam="1">  1        2 0.94083317E-02 0.46894420E+03</pdfrwt>
<pdfrwt beam="2">  1       -2 0.11925419E+00 0.46894420E+03</pdfrwt>
<totfact> 0.39191298E+02</totfact>
</mgrwt>
</event>
<event>
 4    1  0.1390278E-004  0.4528561E+03  0.7818608E-02  0.1026874E+00
          2   -1    0    0  501    0  0.00000000000E+00  0.00000000000E+00  0.22926953565E+04  0.22926953565E+04  0.25500000000E-02 0.  1.
         -2   -1    0    0    0  501 -0.00000000000E+00 -0.00000000000E+00 -0.22362176685E+02  0.22362176830E+02  0.25500000000E-02 0. -1.
    5000001    1    1    2    0    0 -0.10725996685E+02 -0.15471901280E+03  0.59687063569E+03  0.62963209549E+03  0.12700000000E+03 0.  0.
   -5000001    1    1    2    0    0  0.10725996685E+02  0.15471901280E+03  0.16734625442E+04  0.16854254379E+04  0.12700000000E+03 0.  0.
<mgrwt>
<rscale>  0 0.45285609E+03</rscale>
<asrwt>0</asrwt>
<pdfrwt beam="1">  1        2 0.32752801E+00 0.45285609E+03</pdfrwt>
<pdfrwt beam="2">  1       -2 0.31945957E-02 0.45285609E+03</pdfrwt>
<totfact> 0.24243987E+03</totfact>
</mgrwt>
</event>
<event>
 4    1  0.1390278E-004  0.3053897E+03  0.7818608E-02  0.1082577E+00
         -2   -1    0    0    0  501 -0.00000000000E+00  0.00000000000E+00  0.95683731147E+02  0.95683731181E+02  0.25500000000E-02 0. -1.
          2   -1    0    0  501    0  0.00000000000E+00 -0.00000000000E+00 -0.24367482352E+03  0.24367482354E+03  0.25500000000E-02 0.  1.
    5000001    1    1    2    0    0 -0.36841330793E+01 -0.79262984012E+02 -0.40834596812E+02  0.15521809742E+03  0.12700000000E+03 0.  0.
   -5000001    1    1    2    0    0  0.36841330793E+01  0.79262984012E+02 -0.10715649556E+03  0.18414045729E+03  0.12700000000E+03 0.  0.
<mgrwt>
<rscale>  0 0.30538969E+03</rscale>
<asrwt>0</asrwt>
<pdfrwt beam="1">  1        2 0.34810689E-01 0.30538969E+03</pdfrwt>
<pdfrwt beam="2">  1       -2 0.13669105E-01 0.30538969E+03</pdfrwt>
<totfact> 0.59287724E+03</totfact>
</mgrwt>
</event>
<event>
 4    1  0.1390278E-004  0.5508203E+03  0.7818608E-02  0.1001304E+00
         -2   -1    0    0    0  501 -0.00000000000E+00  0.00000000000E+00  0.91781326734E+02  0.91781326770E+02  0.25500000000E-02 0. -1.
          2   -1    0    0  501    0  0.00000000000E+00 -0.00000000000E+00 -0.82642887989E+03  0.82642887989E+03  0.25500000000E-02 0.  1.
    5000001    1    1    2    0    0 -0.18857951530E+03 -0.10486232543E+03 -0.17606726895E+03  0.30608336132E+03  0.12700000000E+03 0.  0.
   -5000001    1    1    2    0    0  0.18857951530E+03  0.10486232543E+03 -0.55858028421E+03  0.61212684534E+03  0.12700000000E+03 0.  0.
<mgrwt>
<rscale>  0 0.55082026E+03</rscale>
<asrwt>0</asrwt>
<pdfrwt beam="1">  1        2 0.11806126E+00 0.55082026E+03</pdfrwt>
<pdfrwt beam="2">  1       -2 0.13111619E-01 0.55082026E+03</pdfrwt>
<totfact> 0.16025513E+03</totfact>
</mgrwt>
</event>
<event>
 4    1  0.1390278E-004  0.2869644E+03  0.7818608E-02  0.1091945E+00
         -2   -1    0    0    0  501 -0.00000000000E+00  0.00000000000E+00  0.41576382304E+02  0.41576382382E+02  0.25500000000E-02 0. -1.
          2   -1    0    0  501    0  0.00000000000E+00 -0.00000000000E+00 -0.49516447470E+03  0.49516447470E+03  0.25500000000E-02 0.  1.
    5000001    1    1    2    0    0  0.47446480161E+02  0.27228440091E+02 -0.29839898541E+03  0.32888221436E+03  0.12700000000E+03 0.  0.
   -5000001    1    1    2    0    0 -0.47446480161E+02 -0.27228440091E+02 -0.15518910699E+03  0.20785864273E+03  0.12700000000E+03 0.  0.
<mgrwt>
<rscale>  0 0.28696444E+03</rscale>
<asrwt>0</asrwt>
<pdfrwt beam="1">  1        2 0.70737779E-01 0.28696444E+03</pdfrwt>
<pdfrwt beam="2">  1       -2 0.59394835E-02 0.28696444E+03</pdfrwt>
<totfact> 0.10243509E+04</totfact>
</mgrwt>
</event>
<event>
 4    1  0.1390278E-004  0.4105666E+03  0.7818608E-02  0.1040181E+00
         -2   -1    0    0    0  501 -0.00000000000E+00  0.00000000000E+00  0.53575337224E+02  0.53575337285E+02  0.25500000000E-02 0. -1.
          2   -1    0    0  501    0  0.00000000000E+00 -0.00000000000E+00 -0.78657887592E+03  0.78657887592E+03  0.25500000000E-02 0.  1.
    5000001    1    1    2    0    0  0.11643998447E+02 -0.15947739109E+03 -0.40960153428E+03  0.45768006058E+03  0.12700000000E+03 0.  0.
   -5000001    1    1    2    0    0 -0.11643998447E+02  0.15947739109E+03 -0.32340200441E+03  0.38247415262E+03  0.12700000000E+03 0.  0.
<mgrwt>
<rscale>  0 0.41056658E+03</rscale>
<asrwt>0</asrwt>
<pdfrwt beam="1">  1        2 0.11236840E+00 0.41056658E+03</pdfrwt>
<pdfrwt beam="2">  1       -2 0.76536201E-02 0.41056658E+03</pdfrwt>
<totfact> 0.40614305E+03</totfact>
</mgrwt>
</event>
<event>
 4    1  0.1390278E-004  0.5606613E+03  0.7818608E-02  0.9990560E-01
          2   -1    0    0  501    0  0.00000000000E+00  0.00000000000E+00  0.37378200933E+03  0.37378200934E+03  0.25500000000E-02 0.  1.
         -2   -1    0    0    0  501 -0.00000000000E+00 -0.00000000000E+00 -0.21024356136E+03  0.21024356137E+03  0.25500000000E-02 0. -1.
    5000001    1    1    2    0    0  0.19436435832E+03 -0.11916298606E+03  0.18840182183E+03  0.32187197377E+03  0.12700000000E+03 0.  0.
   -5000001    1    1    2    0    0 -0.19436435832E+03  0.11916298606E+03 -0.24863373854E+02  0.26215359694E+03  0.12700000000E+03 0.  0.
<mgrwt>
<rscale>  0 0.56066126E+03</rscale>
<asrwt>0</asrwt>
<pdfrwt beam="1">  1        2 0.53397430E-01 0.56066126E+03</pdfrwt>
<pdfrwt beam="2">  1       -2 0.30034794E-01 0.56066126E+03</pdfrwt>
<totfact> 0.95663387E+02</totfact>
</mgrwt>
</event>
<event>
 4    1  0.1390278E-004  0.3652631E+03  0.7818608E-02  0.1056519E+00
          2   -1    0    0  501    0  0.00000000000E+00  0.00000000000E+00  0.12132939483E+04  0.12132939483E+04  0.25500000000E-02 0.  1.
         -2   -1    0    0    0  501 -0.00000000000E+00 -0.00000000000E+00 -0.27490685273E+02  0.27490685392E+02  0.25500000000E-02 0. -1.
    5000001    1    1    2    0    0  0.75848520618E+02 -0.10330086364E+03  0.68905518117E+03  0.71228513195E+03  0.12700000000E+03 0.  0.
   -5000001    1    1    2    0    0 -0.75848520618E+02  0.10330086364E+03  0.49674808185E+03  0.52849950173E+03  0.12700000000E+03 0.  0.
<mgrwt>
<rscale>  0 0.36526310E+03</rscale>
<asrwt>0</asrwt>
<pdfrwt beam="1">  1        2 0.17332775E+00 0.36526310E+03</pdfrwt>
<pdfrwt beam="2">  1       -2 0.39272397E-02 0.36526310E+03</pdfrwt>
<totfact> 0.62599251E+03</totfact>
</mgrwt>
</event>
<event>
 4    1  0.1390278E-004  0.3010616E+03  0.7818608E-02  0.1084711E+00
         -2   -1    0    0    0  501 -0.00000000000E+00  0.00000000000E+00  0.18873976392E+02  0.18873976565E+02  0.25500000000E-02 0. -1.
          2   -1    0    0  501    0  0.00000000000E+00 -0.00000000000E+00 -0.12005694306E+04  0.12005694306E+04  0.25500000000E-02 0.  1.
    5000001    1    1    2    0    0 -0.29572060359E+02 -0.74676504423E+02 -0.62694749534E+03  0.64470400106E+03  0.12700000000E+03 0.  0.
   -5000001    1    1    2    0    0  0.29572060359E+02  0.74676504423E+02 -0.55474795885E+03  0.57473940609E+03  0.12700000000E+03 0.  0.
<mgrwt>
<rscale>  0 0.30106158E+03</rscale>
<asrwt>0</asrwt>
<pdfrwt beam="1">  1        2 0.17150987E+00 0.30106158E+03</pdfrwt>
<pdfrwt beam="2">  1       -2 0.26962831E-02 0.30106158E+03</pdfrwt>
<totfact> 0.11138896E+04</totfact>
</mgrwt>
</event>
<event>
 4    1  0.1390278E-004  0.3058106E+03  0.7818608E-02  0.1082371E+00
          2   -1    0    0  501    0  0.00000000000E+00  0.00000000000E+00  0.11878658831E+04  0.11878658831E+04  0.25500000000E-02 0.  1.
         -2   -1    0    0    0  501 -0.00000000000E+00 -0.00000000000E+00 -0.19682386975E+02  0.19682387140E+02  0.25500000000E-02 0. -1.
    5000001    1    1    2    0    0 -0.19520539563E+02 -0.61618681847E+02  0.80298978356E+03  0.81553633023E+03  0.12700000000E+03 0.  0.
   -5000001    1    1    2    0    0  0.19520539563E+02  0.61618681847E+02  0.36519371254E+03  0.39201193999E+03  0.12700000000E+03 0.  0.
<mgrwt>
<rscale>  0 0.30581063E+03</rscale>
<asrwt>0</asrwt>
<pdfrwt beam="1">  1        2 0.16969514E+00 0.30581063E+03</pdfrwt>
<pdfrwt beam="2">  1       -2 0.28117693E-02 0.30581063E+03</pdfrwt>
<totfact> 0.10637920E+04</totfact>
</mgrwt>
</event>
<event>
 4    1  0.1390278E-004  0.4365736E+03  0.7818608E-02  0.1031803E+00
         -2   -1    0    0    0  501 -0.00000000000E+00  0.00000000000E+00  0.16510659292E+03  0.16510659294E+03  0.25500000000E-02 0. -1.
          2   -1    0    0  501    0  0.00000000000E+00 -0.00000000000E+00 -0.28859618706E+03  0.28859618707E+03  0.25500000000E-02 0.  1.
    5000001    1    1    2    0    0 -0.69789188266E+02  0.10016262358E+03 -0.19570966545E+03  0.26331417568E+03  0.12700000000E+03 0.  0.
   -5000001    1    1    2    0    0  0.69789188266E+02 -0.10016262358E+03  0.72220071308E+02  0.19038860434E+03  0.12700000000E+03 0.  0.
<mgrwt>
<rscale>  0 0.43657363E+03</rscale>
<asrwt>0</asrwt>
<pdfrwt beam="1">  1        2 0.41228026E-01 0.43657363E+03</pdfrwt>
<pdfrwt beam="2">  1       -2 0.23586656E-01 0.43657363E+03</pdfrwt>
<totfact> 0.19644869E+03</totfact>
</mgrwt>
</event>
<event>
 4    1  0.1390278E-004  0.3983647E+03  0.7818608E-02  0.1044347E+00
         -2   -1    0    0    0  501 -0.00000000000E+00  0.00000000000E+00  0.44274567375E+02  0.44274567448E+02  0.25500000000E-02 0. -1.
          2   -1    0    0  501    0  0.00000000000E+00 -0.00000000000E+00 -0.89608113573E+03  0.89608113573E+03  0.25500000000E-02 0.  1.
    5000001    1    1    2    0    0 -0.61384501376E+02 -0.12474064889E+02 -0.75655539585E+03  0.76969391728E+03  0.12700000000E+03 0.  0.
   -5000001    1    1    2    0    0  0.61384501376E+02  0.12474064889E+02 -0.95251172502E+02  0.17066178590E+03  0.12700000000E+03 0.  0.
<mgrwt>
<rscale>  0 0.39836468E+03</rscale>
<asrwt>0</asrwt>
<pdfrwt beam="1">  1        2 0.12801158E+00 0.39836468E+03</pdfrwt>
<pdfrwt beam="2">  1       -2 0.63249388E-02 0.39836468E+03</pdfrwt>
<totfact> 0.46289699E+03</totfact>
</mgrwt>
</event>
<event>
 4    1  0.1390278E-004  0.3731296E+03  0.7818608E-02  0.1053503E+00
         -2   -1    0    0    0  501 -0.00000000000E+00  0.00000000000E+00  0.38511443439E+02  0.38511443524E+02  0.25500000000E-02 0. -1.
          2   -1    0    0  501    0  0.00000000000E+00 -0.00000000000E+00 -0.90379416245E+03  0.90379416246E+03  0.25500000000E-02 0.  1.
    5000001    1    1    2    0    0  0.71974866540E+02  0.10665059353E+03 -0.31628901871E+03  0.36431095766E+03  0.12700000000E+03 0.  0.
   -5000001    1    1    2    0    0 -0.71974866540E+02 -0.10665059353E+03 -0.54899370030E+03  0.57799464832E+03  0.12700000000E+03 0.  0.
<mgrwt>
<rscale>  0 0.37312956E+03</rscale>
<asrwt>0</asrwt>
<pdfrwt beam="1">  1        2 0.12911344E+00 0.37312956E+03</pdfrwt>
<pdfrwt beam="2">  1       -2 0.55016353E-02 0.37312956E+03</pdfrwt>
<totfact> 0.56730692E+03</totfact>
</mgrwt>
</event>
<event>
 4    1  0.1390278E-004  0.4771815E+03  0.7818608E-02  0.1019913E+00
          2   -1    0    0  501    0  0.00000000000E+00  0.00000000000E+00  0.51233020483E+03  0.51233020484E+03  0.25500000000E-02 0.  1.
         -2   -1    0    0    0  501 -0.00000000000E+00 -0.00000000000E+00 -0.11111102684E+03  0.11111102687E+03  0.25500000000E-02 0. -1.
    5000001    1    1    2    0    0 -0.17661671398E+03  0.37597119187E+02  0.82375855426E+02  0.23563061895E+03  0.12700000000E+03 0.  0.
   -5000001    1    1    2    0    0  0.17661671398E+03 -0.37597119187E+02  0.31884332256E+03  0.38781061276E+03  0.12700000000E+03 0.  0.
<mgrwt>
<rscale>  0 0.47718145E+03</rscale>
<asrwt>0</asrwt>
<pdfrwt beam="1">  1        2 0.73190029E-01 0.47718145E+03</pdfrwt>
<pdfrwt beam="2">  1       -2 0.15873004E-01 0.47718145E+03</pdfrwt>
<totfact> 0.20654775E+03</totfact>
</mgrwt>
</event>
<event>
 4    1  0.1390278E-004  0.3258837E+03  0.7818608E-02  0.1072973E+00
         -2   -1    0    0    0  501 -0.00000000000E+00  0.00000000000E+00  0.99226085780E+01  0.99226089056E+01  0.25500000000E-02 0. -1.
          2   -1    0    0  501    0  0.00000000000E+00 -0.00000000000E+00 -0.26757121223E+04  0.26757121223E+04  0.25500000000E-02 0.  1.
    5000001    1    1    2    0    0  0.53789382763E+02  0.53154945480E+02 -0.76777638947E+03  0.78187488140E+03  0.12700000000E+03 0.  0.
   -5000001    1    1    2    0    0 -0.53789382763E+02 -0.53154945480E+02 -0.18980131242E+04  0.19037598498E+04  0.12700000000E+03 0.  0.
<mgrwt>
<rscale>  0 0.32588369E+03</rscale>
<asrwt>0</asrwt>
<pdfrwt beam="1">  1        2 0.38224413E+00 0.32588369E+03</pdfrwt>
<pdfrwt beam="2">  1       -2 0.14175172E-02 0.32588369E+03</pdfrwt>
<totfact> 0.52351620E+03</totfact>
</mgrwt>
</event>
<event>
 4    1  0.1390278E-004  0.6063707E+03  0.7818608E-02  0.9892276E-01
          2   -1    0    0  501    0  0.00000000000E+00  0.00000000000E+00  0.32462701175E+03  0.32462701176E+03  0.25500000000E-02 0.  1.
         -2   -1    0    0    0  501 -0.00000000000E+00 -0.00000000000E+00 -0.28315991489E+03  0.28315991491E+03  0.25500000000E-02 0. -1.
    5000001    1    1    2    0    0 -0.44904964642E+02  0.26557075772E+03  0.77858532305E+02  0.30779089372E+03  0.12700000000E+03 0.  0.
   -5000001    1    1    2    0    0  0.44904964642E+02 -0.26557075772E+03 -0.36391435448E+02  0.29999603294E+03  0.12700000000E+03 0.  0.
<mgrwt>
<rscale>  0 0.60637070E+03</rscale>
<asrwt>0</asrwt>
<pdfrwt beam="1">  1        2 0.46375288E-01 0.60637070E+03</pdfrwt>
<pdfrwt beam="2">  1       -2 0.40451416E-01 0.60637070E+03</pdfrwt>
<totfact> 0.63576923E+02</totfact>
</mgrwt>
</event>
<event>
 4    1  0.1390278E-004  0.4975439E+03  0.7818608E-02  0.1014422E+00
         -2   -1    0    0    0  501 -0.00000000000E+00  0.00000000000E+00  0.22165903579E+03  0.22165903580E+03  0.25500000000E-02 0. -1.
          2   -1    0    0  501    0  0.00000000000E+00 -0.00000000000E+00 -0.27920122573E+03  0.27920122574E+03  0.25500000000E-02 0.  1.
    5000001    1    1    2    0    0  0.19553818146E+03  0.14039861613E+01 -0.11607472811E+03  0.26046015836E+03  0.12700000000E+03 0.  0.
   -5000001    1    1    2    0    0 -0.19553818146E+03 -0.14039861613E+01  0.58532538166E+02  0.24040010318E+03  0.12700000000E+03 0.  0.
<mgrwt>
<rscale>  0 0.49754387E+03</rscale>
<asrwt>0</asrwt>
<pdfrwt beam="1">  1        2 0.39885889E-01 0.49754387E+03</pdfrwt>
<pdfrwt beam="2">  1       -2 0.31665577E-01 0.49754387E+03</pdfrwt>
<totfact> 0.11959832E+03</totfact>
</mgrwt>
</event>
<event>
 4    1  0.1390278E-004  0.4661392E+03  0.7818608E-02  0.1023016E+00
         -2   -1    0    0    0  501 -0.00000000000E+00  0.00000000000E+00  0.22600187928E+03  0.22600187929E+03  0.25500000000E-02 0. -1.
          2   -1    0    0  501    0  0.00000000000E+00 -0.00000000000E+00 -0.24035833709E+03  0.24035833711E+03  0.25500000000E-02 0.  1.
    5000001    1    1    2    0    0  0.18267469750E+03  0.44865653498E+02 -0.60207738184E+02  0.23481257145E+03  0.12700000000E+03 0.  0.
   -5000001    1    1    2    0    0 -0.18267469750E+03 -0.44865653498E+02  0.45851280371E+02  0.23154764495E+03  0.12700000000E+03 0.  0.
<mgrwt>
<rscale>  0 0.46613919E+03</rscale>
<asrwt>0</asrwt>
<pdfrwt beam="1">  1        2 0.34336905E-01 0.46613919E+03</pdfrwt>
<pdfrwt beam="2">  1       -2 0.32285983E-01 0.46613919E+03</pdfrwt>
<totfact> 0.13604556E+03</totfact>
</mgrwt>
</event>
<event>
 4    1  0.1390278E-004  0.3491256E+03  0.7818608E-02  0.1062975E+00
          2   -1    0    0  501    0  0.00000000000E+00  0.00000000000E+00  0.65723594157E+03  0.65723594157E+03  0.25500000000E-02 0.  1.
         -2   -1    0    0    0  501 -0.00000000000E+00 -0.00000000000E+00 -0.46364116163E+02  0.46364116233E+02  0.25500000000E-02 0. -1.
    5000001    1    1    2    0    0 -0.23811378336E+02  0.11498016870E+03  0.25792634446E+03  0.31055179938E+03  0.12700000000E+03 0.  0.
   -5000001    1    1    2    0    0  0.23811378336E+02 -0.11498016870E+03  0.35294548094E+03  0.39304825842E+03  0.12700000000E+03 0.  0.
<mgrwt>
<rscale>  0 0.34912556E+03</rscale>
<asrwt>0</asrwt>
<pdfrwt beam="1">  1        2 0.93890837E-01 0.34912556E+03</pdfrwt>
<pdfrwt beam="2">  1       -2 0.66234460E-02 0.34912556E+03</pdfrwt>
<totfact> 0.63111400E+03</totfact>
</mgrwt>
</event>
<event>
 4    1  0.1390278E-004  0.3944872E+03  0.7818608E-02  0.1045705E+00
         -2   -1    0    0    0  501 -0.00000000000E+00  0.00000000000E+00  0.67043745079E+02  0.67043745128E+02  0.25500000000E-02 0. -1.
          2   -1    0    0  501    0  0.00000000000E+00 -0.00000000000E+00 -0.58029327869E+03  0.58029327869E+03  0.25500000000E-02 0.  1.
    5000001    1    1    2    0    0  0.15087510428E+03  0.21083016235E+01 -0.25189930918E+03  0.31992187171E+03  0.12700000000E+03 0.  0.
   -5000001    1    1    2    0    0 -0.15087510428E+03 -0.21083016235E+01 -0.26135022442E+03  0.32741515211E+03  0.12700000000E+03 0.  0.
<mgrwt>
<rscale>  0 0.39448718E+03</rscale>
<asrwt>0</asrwt>
<pdfrwt beam="1">  1        2 0.82899037E-01 0.39448718E+03</pdfrwt>
<pdfrwt beam="2">  1       -2 0.95776782E-02 0.39448718E+03</pdfrwt>
<totfact> 0.40916890E+03</totfact>
</mgrwt>
</event>
<event>
 4    1  0.1390278E-004  0.5316015E+03  0.7818608E-02  0.1005844E+00
          2   -1    0    0  501    0  0.00000000000E+00  0.00000000000E+00  0.67456604495E+03  0.67456604496E+03  0.25500000000E-02 0.  1.
         -2   -1    0    0    0  501 -0.00000000000E+00 -0.00000000000E+00 -0.10473406963E+03  0.10473406966E+03  0.25500000000E-02 0. -1.
    5000001    1    1    2    0    0  0.25847120594E+02  0.98119382509E+02 -0.23370995762E+02  0.16422755649E+03  0.12700000000E+03 0.  0.
   -5000001    1    1    2    0    0 -0.25847120594E+02 -0.98119382509E+02  0.59320297108E+03  0.61507255813E+03  0.12700000000E+03 0.  0.
<mgrwt>
<rscale>  0 0.53160153E+03</rscale>
<asrwt>0</asrwt>
<pdfrwt beam="1">  1        2 0.96366582E-01 0.53160153E+03</pdfrwt>
<pdfrwt beam="2">  1       -2 0.14962009E-01 0.53160153E+03</pdfrwt>
<totfact> 0.16557628E+03</totfact>
</mgrwt>
</event>
<event>
 4    1  0.1390278E-004  0.4731575E+03  0.7818608E-02  0.1021033E+00
         -2   -1    0    0    0  501 -0.00000000000E+00  0.00000000000E+00  0.15729652582E+03  0.15729652584E+03  0.25500000000E-02 0. -1.
          2   -1    0    0  501    0  0.00000000000E+00 -0.00000000000E+00 -0.35582157942E+03  0.35582157943E+03  0.25500000000E-02 0.  1.
    5000001    1    1    2    0    0  0.13604043646E+03  0.96583973407E+02  0.19558508859E+02  0.21058727298E+03  0.12700000000E+03 0.  0.
   -5000001    1    1    2    0    0 -0.13604043646E+03 -0.96583973407E+02 -0.21808356246E+03  0.30253083229E+03  0.12700000000E+03 0.  0.
<mgrwt>
<rscale>  0 0.47315747E+03</rscale>
<asrwt>0</asrwt>
<pdfrwt beam="1">  1        2 0.50831654E-01 0.47315747E+03</pdfrwt>
<pdfrwt beam="2">  1       -2 0.22470932E-01 0.47315747E+03</pdfrwt>
<totfact> 0.17026580E+03</totfact>
</mgrwt>
</event>
<event>
 4    1  0.1390278E-004  0.3522679E+03  0.7818608E-02  0.1061688E+00
         -2   -1    0    0    0  501 -0.00000000000E+00  0.00000000000E+00  0.35066704619E+02  0.35066704712E+02  0.25500000000E-02 0. -1.
          2   -1    0    0  501    0  0.00000000000E+00 -0.00000000000E+00 -0.88469000852E+03  0.88469000852E+03  0.25500000000E-02 0.  1.
    5000001    1    1    2    0    0  0.10298984405E+03  0.61659132974E+02 -0.48233614085E+03  0.51301648066E+03  0.12700000000E+03 0.  0.
   -5000001    1    1    2    0    0 -0.10298984405E+03 -0.61659132974E+02 -0.36728716305E+03  0.40674023257E+03  0.12700000000E+03 0.  0.
<mgrwt>
<rscale>  0 0.35226787E+03</rscale>
<asrwt>0</asrwt>
<pdfrwt beam="1">  1        2 0.12638427E+00 0.35226787E+03</pdfrwt>
<pdfrwt beam="2">  1       -2 0.50095298E-02 0.35226787E+03</pdfrwt>
<totfact> 0.67285104E+03</totfact>
</mgrwt>
</event>
<event>
 4    1  0.1390278E-004  0.4151298E+03  0.7818608E-02  0.1038663E+00
         -2   -1    0    0    0  501 -0.00000000000E+00  0.00000000000E+00  0.43806292685E+02  0.43806292759E+02  0.25500000000E-02 0. -1.
          2   -1    0    0  501    0  0.00000000000E+00 -0.00000000000E+00 -0.98349330665E+03  0.98349330666E+03  0.25500000000E-02 0.  1.
    5000001    1    1    2    0    0  0.12966034577E+03 -0.81592111439E+02 -0.32375303314E+03  0.38001855795E+03  0.12700000000E+03 0.  0.
   -5000001    1    1    2    0    0 -0.12966034577E+03  0.81592111439E+02 -0.61593398083E+03  0.64728104147E+03  0.12700000000E+03 0.  0.
<mgrwt>
<rscale>  0 0.41512984E+03</rscale>
<asrwt>0</asrwt>
<pdfrwt beam="1">  1        2 0.14049903E+00 0.41512984E+03</pdfrwt>
<pdfrwt beam="2">  1       -2 0.62580424E-02 0.41512984E+03</pdfrwt>
<totfact> 0.41555511E+03</totfact>
</mgrwt>
</event>
<event>
 4    1  0.1390278E-004  0.5152251E+03  0.7818608E-02  0.1009880E+00
         -2   -1    0    0    0  501 -0.00000000000E+00  0.00000000000E+00  0.16930858469E+03  0.16930858471E+03  0.25500000000E-02 0. -1.
          2   -1    0    0  501    0  0.00000000000E+00 -0.00000000000E+00 -0.39197200912E+03  0.39197200913E+03  0.25500000000E-02 0.  1.
    5000001    1    1    2    0    0 -0.16202757529E+03 -0.15479977864E+03 -0.11612000640E+03  0.28253984234E+03  0.12700000000E+03 0.  0.
   -5000001    1    1    2    0    0  0.16202757529E+03  0.15479977864E+03 -0.10654341803E+03  0.27874075150E+03  0.12700000000E+03 0.  0.
<mgrwt>
<rscale>  0 0.51522510E+03</rscale>
<asrwt>0</asrwt>
<pdfrwt beam="1">  1        2 0.55996001E-01 0.51522510E+03</pdfrwt>
<pdfrwt beam="2">  1       -2 0.24186941E-01 0.51522510E+03</pdfrwt>
<totfact> 0.13440188E+03</totfact>
</mgrwt>
</event>
<event>
 4    1  0.1390278E-004  0.3106292E+03  0.7818608E-02  0.1080045E+00
          2   -1    0    0  501    0  0.00000000000E+00  0.00000000000E+00  0.64979535206E+03  0.64979535207E+03  0.25500000000E-02 0.  1.
         -2   -1    0    0    0  501 -0.00000000000E+00 -0.00000000000E+00 -0.37123413234E+02  0.37123413322E+02  0.25500000000E-02 0. -1.
    5000001    1    1    2    0    0 -0.75320746915E+02  0.36999526155E+02  0.37454693414E+03  0.40429764497E+03  0.12700000000E+03 0.  0.
   -5000001    1    1    2    0    0  0.75320746915E+02 -0.36999526155E+02  0.23812500468E+03  0.28262112042E+03  0.12700000000E+03 0.  0.
<mgrwt>
<rscale>  0 0.31062918E+03</rscale>
<asrwt>0</asrwt>
<pdfrwt beam="1">  1        2 0.92827901E-01 0.31062918E+03</pdfrwt>
<pdfrwt beam="2">  1       -2 0.53033451E-02 0.31062918E+03</pdfrwt>
<totfact> 0.89776501E+03</totfact>
</mgrwt>
</event>
<event>
 4    1  0.1390278E-004  0.3900470E+03  0.7818608E-02  0.1047282E+00
          2   -1    0    0  501    0  0.00000000000E+00  0.00000000000E+00  0.16701397947E+04  0.16701397947E+04  0.25500000000E-02 0.  1.
         -2   -1    0    0    0  501 -0.00000000000E+00 -0.00000000000E+00 -0.22773037630E+02  0.22773037773E+02  0.25500000000E-02 0. -1.
    5000001    1    1    2    0    0 -0.93915405185E+02  0.72735804962E+02  0.12068726962E+04  0.12193364202E+04  0.12700000000E+03 0.  0.
   -5000001    1    1    2    0    0  0.93915405185E+02 -0.72735804962E+02  0.44049406085E+03  0.47357641231E+03  0.12700000000E+03 0.  0.
<mgrwt>
<rscale>  0 0.39004695E+03</rscale>
<asrwt>0</asrwt>
<pdfrwt beam="1">  1        2 0.23859141E+00 0.39004695E+03</pdfrwt>
<pdfrwt beam="2">  1       -2 0.32532909E-02 0.39004695E+03</pdfrwt>
<totfact> 0.48201445E+03</totfact>
</mgrwt>
</event>
<event>
 4    1  0.1390278E-004  0.8495688E+03  0.7818608E-02  0.9490916E-01
         -2   -1    0    0    0  501 -0.00000000000E+00  0.00000000000E+00  0.26015588935E+03  0.26015588937E+03  0.25500000000E-02 0. -1.
          2   -1    0    0  501    0  0.00000000000E+00 -0.00000000000E+00 -0.69359102231E+03  0.69359102231E+03  0.25500000000E-02 0.  1.
    5000001    1    1    2    0    0  0.76842676669E+02 -0.26063652076E+03  0.12096039222E+03  0.32341399072E+03  0.12700000000E+03 0.  0.
   -5000001    1    1    2    0    0 -0.76842676669E+02  0.26063652076E+03 -0.55439552517E+03  0.63033292095E+03  0.12700000000E+03 0.  0.
<mgrwt>
<rscale>  0 0.84956881E+03</rscale>
<asrwt>0</asrwt>
<pdfrwt beam="1">  1        2 0.99084431E-01 0.84956881E+03</pdfrwt>
<pdfrwt beam="2">  1       -2 0.37165127E-01 0.84956881E+03</pdfrwt>
<totfact> 0.31152474E+02</totfact>
</mgrwt>
</event>
<event>
 4    1  0.1390278E-004  0.4160401E+03  0.7818608E-02  0.1038363E+00
          2   -1    0    0  501    0  0.00000000000E+00  0.00000000000E+00  0.16646522646E+04  0.16646522646E+04  0.25500000000E-02 0.  1.
         -2   -1    0    0    0  501 -0.00000000000E+00 -0.00000000000E+00 -0.25994822454E+02  0.25994822579E+02  0.25500000000E-02 0. -1.
    5000001    1    1    2    0    0  0.74457324384E+02  0.14038521280E+03  0.64259722713E+03  0.67402677799E+03  0.12700000000E+03 0.  0.
   -5000001    1    1    2    0    0 -0.74457324384E+02 -0.14038521280E+03  0.99606021502E+03  0.10166203092E+04  0.12700000000E+03 0.  0.
<mgrwt>
<rscale>  0 0.41604010E+03</rscale>
<asrwt>0</asrwt>
<pdfrwt beam="1">  1        2 0.23780742E+00 0.41604010E+03</pdfrwt>
<pdfrwt beam="2">  1       -2 0.37135468E-02 0.41604010E+03</pdfrwt>
<totfact> 0.39708527E+03</totfact>
</mgrwt>
</event>
<event>
 4    1  0.1390278E-004  0.5550876E+03  0.7818608E-02  0.1000323E+00
         -2   -1    0    0    0  501 -0.00000000000E+00  0.00000000000E+00  0.84958698875E+02  0.84958698913E+02  0.25500000000E-02 0. -1.
          2   -1    0    0  501    0  0.00000000000E+00 -0.00000000000E+00 -0.90668251156E+03  0.90668251156E+03  0.25500000000E-02 0.  1.
    5000001    1    1    2    0    0 -0.22813523053E+03  0.91100090661E+02 -0.36871296282E+03  0.46089386943E+03  0.12700000000E+03 0.  0.
   -5000001    1    1    2    0    0  0.22813523053E+03 -0.91100090661E+02 -0.45301084986E+03  0.53074734104E+03  0.12700000000E+03 0.  0.
<mgrwt>
<rscale>  0 0.55508762E+03</rscale>
<asrwt>0</asrwt>
<pdfrwt beam="1">  1        2 0.12952607E+00 0.55508762E+03</pdfrwt>
<pdfrwt beam="2">  1       -2 0.12136957E-01 0.55508762E+03</pdfrwt>
<totfact> 0.16118742E+03</totfact>
</mgrwt>
</event>
<event>
 4    1  0.1390278E-004  0.3215679E+03  0.7818608E-02  0.1074930E+00
         -2   -1    0    0    0  501 -0.00000000000E+00  0.00000000000E+00  0.31848812570E+03  0.31848812571E+03  0.25500000000E-02 0. -1.
          2   -1    0    0  501    0  0.00000000000E+00 -0.00000000000E+00 -0.81169356795E+02  0.81169356835E+02  0.25500000000E-02 0.  1.
    5000001    1    1    2    0    0  0.49910852042E+02  0.84429182906E+02  0.10604004288E+03  0.19233530818E+03  0.12700000000E+03 0.  0.
   -5000001    1    1    2    0    0 -0.49910852042E+02 -0.84429182906E+02  0.13127872602E+03  0.20732217437E+03  0.12700000000E+03 0.  0.
<mgrwt>
<rscale>  0 0.32156789E+03</rscale>
<asrwt>0</asrwt>
<pdfrwt beam="1">  1        2 0.11595622E-01 0.32156789E+03</pdfrwt>
<pdfrwt beam="2">  1       -2 0.45498304E-01 0.32156789E+03</pdfrwt>
<totfact> 0.24771592E+03</totfact>
</mgrwt>
</event>
<event>
 4    1  0.1390278E-004  0.4725423E+03  0.7818608E-02  0.1021205E+00
         -2   -1    0    0    0  501 -0.00000000000E+00  0.00000000000E+00  0.12156502096E+03  0.12156502099E+03  0.25500000000E-02 0. -1.
          2   -1    0    0  501    0  0.00000000000E+00 -0.00000000000E+00 -0.45921151647E+03  0.45921151648E+03  0.25500000000E-02 0.  1.
    5000001    1    1    2    0    0 -0.66439006994E+01 -0.18851571102E+03 -0.24764283365E+03  0.33621167109E+03  0.12700000000E+03 0.  0.
   -5000001    1    1    2    0    0  0.66439006994E+01  0.18851571102E+03 -0.90003661865E+02  0.24456486638E+03  0.12700000000E+03 0.  0.
<mgrwt>
<rscale>  0 0.47254231E+03</rscale>
<asrwt>0</asrwt>
<pdfrwt beam="1">  1        2 0.65601645E-01 0.47254231E+03</pdfrwt>
<pdfrwt beam="2">  1       -2 0.17366432E-01 0.47254231E+03</pdfrwt>
<totfact> 0.20059320E+03</totfact>
</mgrwt>
</event>
<event>
 4    1  0.1390278E-004  0.3378412E+03  0.7818608E-02  0.1067719E+00
          2   -1    0    0  501    0  0.00000000000E+00  0.00000000000E+00  0.27666654610E+03  0.27666654611E+03  0.25500000000E-02 0.  1.
         -2   -1    0    0    0  501 -0.00000000000E+00 -0.00000000000E+00 -0.10313562228E+03  0.10313562231E+03  0.25500000000E-02 0. -1.
    5000001    1    1    2    0    0 -0.82754533065E+02  0.66710403248E+02  0.12416250908E+03  0.20698772742E+03  0.12700000000E+03 0.  0.
   -5000001    1    1    2    0    0  0.82754533065E+02 -0.66710403248E+02  0.49368414747E+02  0.17281444100E+03  0.12700000000E+03 0.  0.
<mgrwt>
<rscale>  0 0.33784124E+03</rscale>
<asrwt>0</asrwt>
<pdfrwt beam="1">  1        2 0.39523791E-01 0.33784124E+03</pdfrwt>
<pdfrwt beam="2">  1       -2 0.14733661E-01 0.33784124E+03</pdfrwt>
<totfact> 0.45771194E+03</totfact>
</mgrwt>
</event>
<event>
 4    1  0.1390278E-004  0.4381414E+03  0.7818608E-02  0.1031319E+00
          2   -1    0    0  501    0  0.00000000000E+00  0.00000000000E+00  0.18371452719E+03  0.18371452721E+03  0.25500000000E-02 0.  1.
         -2   -1    0    0    0  501 -0.00000000000E+00 -0.00000000000E+00 -0.26123125738E+03  0.26123125739E+03  0.25500000000E-02 0. -1.
    5000001    1    1    2    0    0 -0.12453962466E+03 -0.63837628635E+02 -0.15128356779E+03  0.24207659702E+03  0.12700000000E+03 0.  0.
   -5000001    1    1    2    0    0  0.12453962466E+03  0.63837628635E+02  0.73766837608E+02  0.20286918758E+03  0.12700000000E+03 0.  0.
<mgrwt>
<rscale>  0 0.43814142E+03</rscale>
<asrwt>0</asrwt>
<pdfrwt beam="1">  1        2 0.26244933E-01 0.43814142E+03</pdfrwt>
<pdfrwt beam="2">  1       -2 0.37318751E-01 0.43814142E+03</pdfrwt>
<totfact> 0.13973481E+03</totfact>
</mgrwt>
</event>
<event>
 4    1  0.1390278E-004  0.9258677E+03  0.7818608E-02  0.9393811E-01
         -2   -1    0    0    0  501 -0.00000000000E+00  0.00000000000E+00  0.17993552517E+03  0.17993552518E+03  0.25500000000E-02 0. -1.
          2   -1    0    0  501    0  0.00000000000E+00 -0.00000000000E+00 -0.11910253218E+04  0.11910253218E+04  0.25500000000E-02 0.  1.
    5000001    1    1    2    0    0 -0.40222988461E+03  0.14949530316E+03 -0.33008585568E+03  0.55607858965E+03  0.12700000000E+03 0.  0.
   -5000001    1    1    2    0    0  0.40222988461E+03 -0.14949530316E+03 -0.68100394099E+03  0.81488225738E+03  0.12700000000E+03 0.  0.
<mgrwt>
<rscale>  0 0.92586774E+03</rscale>
<asrwt>0</asrwt>
<pdfrwt beam="1">  1        2 0.17014647E+00 0.92586774E+03</pdfrwt>
<pdfrwt beam="2">  1       -2 0.25705076E-01 0.92586774E+03</pdfrwt>
<totfact> 0.29440455E+02</totfact>
</mgrwt>
</event>
<event>
 4    1  0.1390278E-004  0.3637675E+03  0.7818608E-02  0.1057102E+00
          2   -1    0    0  501    0  0.00000000000E+00  0.00000000000E+00  0.11318991321E+03  0.11318991324E+03  0.25500000000E-02 0.  1.
         -2   -1    0    0    0  501 -0.00000000000E+00 -0.00000000000E+00 -0.29226725649E+03  0.29226725650E+03  0.25500000000E-02 0. -1.
    5000001    1    1    2    0    0  0.12739865503E+03 -0.22970777759E+02 -0.73988772519E+02  0.19586069640E+03  0.12700000000E+03 0.  0.
   -5000001    1    1    2    0    0 -0.12739865503E+03  0.22970777759E+02 -0.10508857075E+03  0.20959647334E+03  0.12700000000E+03 0.  0.
<mgrwt>
<rscale>  0 0.36376754E+03</rscale>
<asrwt>0</asrwt>
<pdfrwt beam="1">  1        2 0.16169988E-01 0.36376754E+03</pdfrwt>
<pdfrwt beam="2">  1       -2 0.41752465E-01 0.36376754E+03</pdfrwt>
<totfact> 0.19660945E+03</totfact>
</mgrwt>
</event>
<event>
 4    1  0.1390278E-004  0.4972111E+03  0.7818608E-02  0.1014509E+00
         -2   -1    0    0    0  501 -0.00000000000E+00  0.00000000000E+00  0.73462113629E+02  0.73462113673E+02  0.25500000000E-02 0. -1.
          2   -1    0    0  501    0  0.00000000000E+00 -0.00000000000E+00 -0.84131427469E+03  0.84131427469E+03  0.25500000000E-02 0.  1.
    5000001    1    1    2    0    0  0.13473377337E+03  0.13085539667E+03 -0.57154570427E+03  0.61487382168E+03  0.12700000000E+03 0.  0.
   -5000001    1    1    2    0    0 -0.13473377337E+03 -0.13085539667E+03 -0.19630645679E+03  0.29990256668E+03  0.12700000000E+03 0.  0.
<mgrwt>
<rscale>  0 0.49721112E+03</rscale>
<asrwt>0</asrwt>
<pdfrwt beam="1">  1        2 0.12018775E+00 0.49721112E+03</pdfrwt>
<pdfrwt beam="2">  1       -2 0.10494588E-01 0.49721112E+03</pdfrwt>
<totfact> 0.22556367E+03</totfact>
</mgrwt>
</event>
<event>
 4    1  0.1390278E-004  0.4543225E+03  0.7818608E-02  0.1026441E+00
         -2   -1    0    0    0  501 -0.00000000000E+00  0.00000000000E+00  0.26778562993E+03  0.26778562994E+03  0.25500000000E-02 0. -1.
          2   -1    0    0  501    0  0.00000000000E+00 -0.00000000000E+00 -0.19269976872E+03  0.19269976874E+03  0.25500000000E-02 0.  1.
    5000001    1    1    2    0    0  0.16761559092E+03 -0.72514869910E+02  0.84209169316E+02  0.23785200624E+03  0.12700000000E+03 0.  0.
   -5000001    1    1    2    0    0 -0.16761559092E+03  0.72514869910E+02 -0.91233081118E+01  0.22263339244E+03  0.12700000000E+03 0.  0.
<mgrwt>
<rscale>  0 0.45432248E+03</rscale>
<asrwt>0</asrwt>
<pdfrwt beam="1">  1        2 0.27528538E-01 0.45432248E+03</pdfrwt>
<pdfrwt beam="2">  1       -2 0.38255090E-01 0.45432248E+03</pdfrwt>
<totfact> 0.12633059E+03</totfact>
</mgrwt>
</event>
<event>
 4    1  0.1390278E-004  0.3396963E+03  0.7818608E-02  0.1066925E+00
          2   -1    0    0  501    0  0.00000000000E+00  0.00000000000E+00  0.26044333824E+04  0.26044333824E+04  0.25500000000E-02 0.  1.
         -2   -1    0    0    0  501 -0.00000000000E+00 -0.00000000000E+00 -0.11076647586E+02  0.11076647879E+02  0.25500000000E-02 0. -1.
    5000001    1    1    2    0    0 -0.10056460941E+03 -0.49070473762E+02  0.11882706469E+04  0.12002655049E+04  0.12700000000E+03 0.  0.
   -5000001    1    1    2    0    0  0.10056460941E+03  0.49070473762E+02  0.14050860879E+04  0.14152445253E+04  0.12700000000E+03 0.  0.
<mgrwt>
<rscale>  0 0.33969628E+03</rscale>
<asrwt>0</asrwt>
<pdfrwt beam="1">  1        2 0.37206175E+00 0.33969628E+03</pdfrwt>
<pdfrwt beam="2">  1       -2 0.15823790E-02 0.33969628E+03</pdfrwt>
<totfact> 0.48390930E+03</totfact>
</mgrwt>
</event>
<event>
 4    1  0.1390278E-004  0.3599975E+03  0.7818608E-02  0.1058585E+00
          2   -1    0    0  501    0  0.00000000000E+00  0.00000000000E+00  0.12773641077E+04  0.12773641077E+04  0.25500000000E-02 0.  1.
         -2   -1    0    0    0  501 -0.00000000000E+00 -0.00000000000E+00 -0.25364386223E+02  0.25364386351E+02  0.25500000000E-02 0. -1.
    5000001    1    1    2    0    0  0.60221855472E+02 -0.33665120759E+02  0.10142416821E+04  0.10244877754E+04  0.12700000000E+03 0.  0.
   -5000001    1    1    2    0    0 -0.60221855472E+02  0.33665120759E+02  0.23775803941E+03  0.27824071869E+03  0.12700000000E+03 0.  0.
<mgrwt>
<rscale>  0 0.35999754E+03</rscale>
<asrwt>0</asrwt>
<pdfrwt beam="1">  1        2 0.18248061E+00 0.35999754E+03</pdfrwt>
<pdfrwt beam="2">  1       -2 0.36234832E-02 0.35999754E+03</pdfrwt>
<totfact> 0.65263753E+03</totfact>
</mgrwt>
</event>
<event>
 4    1  0.1390278E-004  0.4478908E+03  0.7818608E-02  0.1028353E+00
         -2   -1    0    0    0  501 -0.00000000000E+00  0.00000000000E+00  0.52317166730E+02  0.52317166792E+02  0.25500000000E-02 0. -1.
          2   -1    0    0  501    0  0.00000000000E+00 -0.00000000000E+00 -0.95860595180E+03  0.95860595181E+03  0.25500000000E-02 0.  1.
    5000001    1    1    2    0    0  0.17771388638E+03 -0.87605332162E+01 -0.56287572825E+03  0.60383529030E+03  0.12700000000E+03 0.  0.
   -5000001    1    1    2    0    0 -0.17771388638E+03  0.87605332162E+01 -0.34341305683E+03  0.40708782830E+03  0.12700000000E+03 0.  0.
<mgrwt>
<rscale>  0 0.44789082E+03</rscale>
<asrwt>0</asrwt>
<pdfrwt beam="1">  1        2 0.13694370E+00 0.44789082E+03</pdfrwt>
<pdfrwt beam="2">  1       -2 0.74738815E-02 0.44789082E+03</pdfrwt>
<totfact> 0.32613278E+03</totfact>
</mgrwt>
</event>
<event>
 4    1  0.1390278E-004  0.3677936E+03  0.7818608E-02  0.1055540E+00
          2   -1    0    0  501    0  0.00000000000E+00  0.00000000000E+00  0.33446973509E+03  0.33446973510E+03  0.25500000000E-02 0.  1.
         -2   -1    0    0    0  501 -0.00000000000E+00 -0.00000000000E+00 -0.10110936956E+03  0.10110936960E+03  0.25500000000E-02 0. -1.
    5000001    1    1    2    0    0 -0.66528233825E+02  0.60744484884E+02  0.23255519929E+03  0.27986928923E+03  0.12700000000E+03 0.  0.
   -5000001    1    1    2    0    0  0.66528233825E+02 -0.60744484884E+02  0.80516624040E+00  0.15570981547E+03  0.12700000000E+03 0.  0.
<mgrwt>
<rscale>  0 0.36779355E+03</rscale>
<asrwt>0</asrwt>
<pdfrwt beam="1">  1        2 0.47781391E-01 0.36779355E+03</pdfrwt>
<pdfrwt beam="2">  1       -2 0.14444195E-01 0.36779355E+03</pdfrwt>
<totfact> 0.38576770E+03</totfact>
</mgrwt>
</event>
<event>
 4    1  0.1390278E-004  0.3057494E+03  0.7818608E-02  0.1082401E+00
          2   -1    0    0  501    0  0.00000000000E+00  0.00000000000E+00  0.39905814998E+03  0.39905814999E+03  0.25500000000E-02 0.  1.
         -2   -1    0    0    0  501 -0.00000000000E+00 -0.00000000000E+00 -0.58564599739E+02  0.58564599795E+02  0.25500000000E-02 0. -1.
    5000001    1    1    2    0    0 -0.76348080024E+02  0.29154090671E+02  0.13474282084E+03  0.20239470866E+03  0.12700000000E+03 0.  0.
   -5000001    1    1    2    0    0  0.76348080024E+02 -0.29154090671E+02  0.20575072940E+03  0.25522804112E+03  0.12700000000E+03 0.  0.
<mgrwt>
<rscale>  0 0.30574945E+03</rscale>
<asrwt>0</asrwt>
<pdfrwt beam="1">  1        2 0.57008309E-01 0.30574945E+03</pdfrwt>
<pdfrwt beam="2">  1       -2 0.83663711E-02 0.30574945E+03</pdfrwt>
<totfact> 0.76379599E+03</totfact>
</mgrwt>
</event>
<event>
 4    1  0.1390278E-004  0.3274695E+03  0.7818608E-02  0.1072262E+00
          2   -1    0    0  501    0  0.00000000000E+00  0.00000000000E+00  0.78695580136E+03  0.78695580136E+03  0.25500000000E-02 0.  1.
         -2   -1    0    0    0  501 -0.00000000000E+00 -0.00000000000E+00 -0.34066800207E+02  0.34066800303E+02  0.25500000000E-02 0. -1.
    5000001    1    1    2    0    0 -0.34120062401E+02  0.82225485723E+02  0.50803780714E+03  0.53118417017E+03  0.12700000000E+03 0.  0.
   -5000001    1    1    2    0    0  0.34120062401E+02 -0.82225485723E+02  0.24485119402E+03  0.28983843150E+03  0.12700000000E+03 0.  0.
<mgrwt>
<rscale>  0 0.32746949E+03</rscale>
<asrwt>0</asrwt>
<pdfrwt beam="1">  1        2 0.11242226E+00 0.32746949E+03</pdfrwt>
<pdfrwt beam="2">  1       -2 0.48666856E-02 0.32746949E+03</pdfrwt>
<totfact> 0.81440626E+03</totfact>
</mgrwt>
</event>
<event>
 4    1  0.1390278E-004  0.3364437E+03  0.7818608E-02  0.1068321E+00
          2   -1    0    0  501    0  0.00000000000E+00  0.00000000000E+00  0.17446281876E+04  0.17446281876E+04  0.25500000000E-02 0.  1.
         -2   -1    0    0    0  501 -0.00000000000E+00 -0.00000000000E+00 -0.16220409378E+02  0.16220409579E+02  0.25500000000E-02 0. -1.
    5000001    1    1    2    0    0 -0.87835440679E+02  0.66648267231E+02  0.84567963751E+03  0.86224132669E+03  0.12700000000E+03 0.  0.
   -5000001    1    1    2    0    0  0.87835440679E+02 -0.66648267231E+02  0.88272814075E+03  0.89860727052E+03  0.12700000000E+03 0.  0.
<mgrwt>
<rscale>  0 0.33644366E+03</rscale>
<asrwt>0</asrwt>
<pdfrwt beam="1">  1        2 0.24923240E+00 0.33644366E+03</pdfrwt>
<pdfrwt beam="2">  1       -2 0.23172032E-02 0.33644366E+03</pdfrwt>
<totfact> 0.73462457E+03</totfact>
</mgrwt>
</event>
<event>
 4    1  0.1390278E-004  0.3715673E+03  0.7818608E-02  0.1054095E+00
         -2   -1    0    0    0  501 -0.00000000000E+00  0.00000000000E+00  0.52546315755E+02  0.52546315817E+02  0.25500000000E-02 0. -1.
          2   -1    0    0  501    0  0.00000000000E+00 -0.00000000000E+00 -0.65685979362E+03  0.65685979362E+03  0.25500000000E-02 0.  1.
    5000001    1    1    2    0    0 -0.55439442695E+02  0.10998930080E+03 -0.41041819895E+03  0.44692647731E+03  0.12700000000E+03 0.  0.
   -5000001    1    1    2    0    0  0.55439442695E+02 -0.10998930080E+03 -0.19389527892E+03  0.26247963213E+03  0.12700000000E+03 0.  0.
<mgrwt>
<rscale>  0 0.37156729E+03</rscale>
<asrwt>0</asrwt>
<pdfrwt beam="1">  1        2 0.93837108E-01 0.37156729E+03</pdfrwt>
<pdfrwt beam="2">  1       -2 0.75066170E-02 0.37156729E+03</pdfrwt>
<totfact> 0.52021517E+03</totfact>
</mgrwt>
</event>
<event>
 4    1  0.1390278E-004  0.4202464E+03  0.7818608E-02  0.1036986E+00
          2   -1    0    0  501    0  0.00000000000E+00  0.00000000000E+00  0.23651781570E+03  0.23651781571E+03  0.25500000000E-02 0.  1.
         -2   -1    0    0    0  501 -0.00000000000E+00 -0.00000000000E+00 -0.18667409523E+03  0.18667409525E+03  0.25500000000E-02 0. -1.
    5000001    1    1    2    0    0  0.52178080287E+02 -0.13441902325E+03  0.11055745291E+03  0.22168215144E+03  0.12700000000E+03 0.  0.
   -5000001    1    1    2    0    0 -0.52178080287E+02  0.13441902325E+03 -0.60713732446E+02  0.20150975952E+03  0.12700000000E+03 0.  0.
<mgrwt>
<rscale>  0 0.42024635E+03</rscale>
<asrwt>0</asrwt>
<pdfrwt beam="1">  1        2 0.33788259E-01 0.42024635E+03</pdfrwt>
<pdfrwt beam="2">  1       -2 0.26667728E-01 0.42024635E+03</pdfrwt>
<totfact> 0.19629110E+03</totfact>
</mgrwt>
</event>
<event>
 4    1  0.1390278E-004  0.3483114E+03  0.7818608E-02  0.1063310E+00
         -2   -1    0    0    0  501 -0.00000000000E+00  0.00000000000E+00  0.89455244411E+03  0.89455244411E+03  0.25500000000E-02 0. -1.
          2   -1    0    0  501    0  0.00000000000E+00 -0.00000000000E+00 -0.33905453090E+02  0.33905453186E+02  0.25500000000E-02 0.  1.
    5000001    1    1    2    0    0 -0.18371532299E+02 -0.89249490129E+02  0.22560594791E+03  0.27446316405E+03  0.12700000000E+03 0.  0.
   -5000001    1    1    2    0    0  0.18371532299E+02  0.89249490129E+02  0.63504104310E+03  0.65399473325E+03  0.12700000000E+03 0.  0.
<mgrwt>
<rscale>  0 0.34831139E+03</rscale>
<asrwt>0</asrwt>
<pdfrwt beam="1">  1        2 0.48436361E-02 0.34831139E+03</pdfrwt>
<pdfrwt beam="2">  1       -2 0.12779321E+00 0.34831139E+03</pdfrwt>
<totfact> 0.78489997E+02</totfact>
</mgrwt>
</event>
<event>
 4    1  0.1390278E-004  0.3436287E+03  0.7818608E-02  0.1065261E+00
         -2   -1    0    0    0  501 -0.00000000000E+00  0.00000000000E+00  0.11572554697E+04  0.11572554697E+04  0.25500000000E-02 0. -1.
          2   -1    0    0  501    0  0.00000000000E+00 -0.00000000000E+00 -0.25508771398E+02  0.25508771525E+02  0.25500000000E-02 0.  1.
    5000001    1    1    2    0    0 -0.26288967715E+02  0.93746440887E+02  0.35060044788E+03  0.38539483527E+03  0.12700000000E+03 0.  0.
   -5000001    1    1    2    0    0  0.26288967715E+02 -0.93746440887E+02  0.78114625043E+03  0.79736940596E+03  0.12700000000E+03 0.  0.
<mgrwt>
<rscale>  0 0.34362867E+03</rscale>
<asrwt>0</asrwt>
<pdfrwt beam="1">  1        2 0.36441101E-02 0.34362867E+03</pdfrwt>
<pdfrwt beam="2">  1       -2 0.16532222E+00 0.34362867E+03</pdfrwt>
<totfact> 0.59278778E+02</totfact>
</mgrwt>
</event>
<event>
 4    1  0.1390278E-004  0.3103435E+03  0.7818608E-02  0.1080181E+00
         -2   -1    0    0    0  501 -0.00000000000E+00  0.00000000000E+00  0.10034691071E+02  0.10034691395E+02  0.25500000000E-02 0. -1.
          2   -1    0    0  501    0  0.00000000000E+00 -0.00000000000E+00 -0.23995027693E+04  0.23995027693E+04  0.25500000000E-02 0.  1.
    5000001    1    1    2    0    0  0.77301050801E+02  0.44378319286E+02 -0.11784817804E+04  0.11886518391E+04  0.12700000000E+03 0.  0.
   -5000001    1    1    2    0    0 -0.77301050801E+02 -0.44378319286E+02 -0.12109862978E+04  0.12208856216E+04  0.12700000000E+03 0.  0.
<mgrwt>
<rscale>  0 0.31034348E+03</rscale>
<asrwt>0</asrwt>
<pdfrwt beam="1">  1        2 0.34278574E+00 0.31034348E+03</pdfrwt>
<pdfrwt beam="2">  1       -2 0.14335289E-02 0.31034348E+03</pdfrwt>
<totfact> 0.70962923E+03</totfact>
</mgrwt>
</event>
<event>
 4    1  0.1390278E-004  0.3167484E+03  0.7818608E-02  0.1077156E+00
         -2   -1    0    0    0  501 -0.00000000000E+00  0.00000000000E+00  0.42683720689E+02  0.42683720765E+02  0.25500000000E-02 0. -1.
          2   -1    0    0  501    0  0.00000000000E+00 -0.00000000000E+00 -0.58763364624E+03  0.58763364625E+03  0.25500000000E-02 0.  1.
    5000001    1    1    2    0    0  0.88618714450E+02  0.31850498225E+02 -0.29089256088E+03  0.33108188226E+03  0.12700000000E+03 0.  0.
   -5000001    1    1    2    0    0 -0.88618714450E+02 -0.31850498225E+02 -0.25405736467E+03  0.29923548475E+03  0.12700000000E+03 0.  0.
<mgrwt>
<rscale>  0 0.31674842E+03</rscale>
<asrwt>0</asrwt>
<pdfrwt beam="1">  1        2 0.83947659E-01 0.31674842E+03</pdfrwt>
<pdfrwt beam="2">  1       -2 0.60976747E-02 0.31674842E+03</pdfrwt>
<totfact> 0.81443845E+03</totfact>
</mgrwt>
</event>
<event>
 4    1  0.1390278E-004  0.4339340E+03  0.7818608E-02  0.1032624E+00
         -2   -1    0    0    0  501 -0.00000000000E+00  0.00000000000E+00  0.12469673202E+03  0.12469673205E+03  0.25500000000E-02 0. -1.
          2   -1    0    0  501    0  0.00000000000E+00 -0.00000000000E+00 -0.37751329644E+03  0.37751329645E+03  0.25500000000E-02 0.  1.
    5000001    1    1    2    0    0 -0.16502476419E+03  0.58800538436E+02 -0.10792707539E+03  0.24180142621E+03  0.12700000000E+03 0.  0.
   -5000001    1    1    2    0    0  0.16502476419E+03 -0.58800538436E+02 -0.14488948903E+03  0.26040860229E+03  0.12700000000E+03 0.  0.
<mgrwt>
<rscale>  0 0.43393398E+03</rscale>
<asrwt>0</asrwt>
<pdfrwt beam="1">  1        2 0.53930470E-01 0.43393398E+03</pdfrwt>
<pdfrwt beam="2">  1       -2 0.17813819E-01 0.43393398E+03</pdfrwt>
<totfact> 0.23833060E+03</totfact>
</mgrwt>
</event>
<event>
 4    1  0.1390278E-004  0.3173366E+03  0.7818608E-02  0.1076882E+00
          2   -1    0    0  501    0  0.00000000000E+00  0.00000000000E+00  0.17711414056E+03  0.17711414057E+03  0.25500000000E-02 0.  1.
         -2   -1    0    0    0  501 -0.00000000000E+00 -0.00000000000E+00 -0.14214349098E+03  0.14214349100E+03  0.25500000000E-02 0. -1.
    5000001    1    1    2    0    0  0.49962244323E+02  0.73343344954E+02 -0.16943918098E+02  0.15585752618E+03  0.12700000000E+03 0.  0.
   -5000001    1    1    2    0    0 -0.49962244323E+02 -0.73343344954E+02  0.51914567673E+02  0.16340010540E+03  0.12700000000E+03 0.  0.
<mgrwt>
<rscale>  0 0.31733655E+03</rscale>
<asrwt>0</asrwt>
<pdfrwt beam="1">  1        2 0.25302020E-01 0.31733655E+03</pdfrwt>
<pdfrwt beam="2">  1       -2 0.20306213E-01 0.31733655E+03</pdfrwt>
<totfact> 0.43454776E+03</totfact>
</mgrwt>
</event>
<event>
 4    1  0.1390278E-004  0.3438560E+03  0.7818608E-02  0.1065165E+00
          2   -1    0    0  501    0  0.00000000000E+00  0.00000000000E+00  0.66472224716E+03  0.66472224717E+03  0.25500000000E-02 0.  1.
         -2   -1    0    0    0  501 -0.00000000000E+00 -0.00000000000E+00 -0.44468555438E+02  0.44468555511E+02  0.25500000000E-02 0. -1.
    5000001    1    1    2    0    0  0.80486892836E+02 -0.60831569460E+02  0.42773468345E+03  0.45745445587E+03  0.12700000000E+03 0.  0.
   -5000001    1    1    2    0    0 -0.80486892836E+02  0.60831569460E+02  0.19251900827E+03  0.25173634681E+03  0.12700000000E+03 0.  0.
<mgrwt>
<rscale>  0 0.34385601E+03</rscale>
<asrwt>0</asrwt>
<pdfrwt beam="1">  1        2 0.94960313E-01 0.34385601E+03</pdfrwt>
<pdfrwt beam="2">  1       -2 0.63526513E-02 0.34385601E+03</pdfrwt>
<totfact> 0.66414274E+03</totfact>
</mgrwt>
</event>
<event>
 4    1  0.1390278E-004  0.6494692E+03  0.7818608E-02  0.9807776E-01
         -2   -1    0    0    0  501 -0.00000000000E+00  0.00000000000E+00  0.43932728800E+02  0.43932728874E+02  0.25500000000E-02 0. -1.
          2   -1    0    0  501    0  0.00000000000E+00 -0.00000000000E+00 -0.24003189045E+04  0.24003189045E+04  0.25500000000E-02 0.  1.
    5000001    1    1    2    0    0 -0.16153051945E+03  0.24785056864E+03 -0.10184544084E+04  0.10681293906E+04  0.12700000000E+03 0.  0.
   -5000001    1    1    2    0    0  0.16153051945E+03 -0.24785056864E+03 -0.13379317673E+04  0.13761222428E+04  0.12700000000E+03 0.  0.
<mgrwt>
<rscale>  0 0.64946920E+03</rscale>
<asrwt>0</asrwt>
<pdfrwt beam="1">  1        2 0.34290262E+00 0.64946920E+03</pdfrwt>
<pdfrwt beam="2">  1       -2 0.62761056E-02 0.64946920E+03</pdfrwt>
<totfact> 0.74626394E+02</totfact>
</mgrwt>
</event>
<event>
 4    1  0.1390278E-004  0.8124994E+03  0.7818608E-02  0.9542099E-01
         -2   -1    0    0    0  501 -0.00000000000E+00  0.00000000000E+00  0.86185530369E+02  0.86185530407E+02  0.25500000000E-02 0. -1.
          2   -1    0    0  501    0  0.00000000000E+00 -0.00000000000E+00 -0.19149247546E+04  0.19149247546E+04  0.25500000000E-02 0.  1.
    5000001    1    1    2    0    0  0.32246138681E+03 -0.90308347826E+01 -0.39279766551E+03  0.52391020986E+03  0.12700000000E+03 0.  0.
   -5000001    1    1    2    0    0 -0.32246138681E+03  0.90308347826E+01 -0.14359415588E+04  0.14772000752E+04  0.12700000000E+03 0.  0.
<mgrwt>
<rscale>  0 0.81249937E+03</rscale>
<asrwt>0</asrwt>
<pdfrwt beam="1">  1        2 0.27356065E+00 0.81249937E+03</pdfrwt>
<pdfrwt beam="2">  1       -2 0.12312220E-01 0.81249937E+03</pdfrwt>
<totfact> 0.43894742E+02</totfact>
</mgrwt>
</event>
<event>
 4    1  0.1390278E-004  0.5648909E+03  0.7818608E-02  0.9981049E-01
          2   -1    0    0  501    0  0.00000000000E+00  0.00000000000E+00  0.91484330492E+03  0.91484330492E+03  0.25500000000E-02 0.  1.
         -2   -1    0    0    0  501 -0.00000000000E+00 -0.00000000000E+00 -0.87201184291E+02  0.87201184328E+02  0.25500000000E-02 0. -1.
    5000001    1    1    2    0    0  0.16684128810E+03  0.18878132545E+03  0.39055589629E+03  0.48180630173E+03  0.12700000000E+03 0.  0.
   -5000001    1    1    2    0    0 -0.16684128810E+03 -0.18878132545E+03  0.43708622433E+03  0.52023818752E+03  0.12700000000E+03 0.  0.
<mgrwt>
<rscale>  0 0.56489086E+03</rscale>
<asrwt>0</asrwt>
<pdfrwt beam="1">  1        2 0.13069189E+00 0.56489086E+03</pdfrwt>
<pdfrwt beam="2">  1       -2 0.12457313E-01 0.56489086E+03</pdfrwt>
<totfact> 0.15255377E+03</totfact>
</mgrwt>
</event>
<event>
 4    1  0.1390278E-004  0.4623059E+03  0.7818608E-02  0.1024115E+00
         -2   -1    0    0    0  501 -0.00000000000E+00  0.00000000000E+00  0.65543953949E+02  0.65543953999E+02  0.25500000000E-02 0. -1.
          2   -1    0    0  501    0  0.00000000000E+00 -0.00000000000E+00 -0.81520389045E+03  0.81520389045E+03  0.25500000000E-02 0.  1.
    5000001    1    1    2    0    0 -0.18337255208E+03  0.32720776754E+02 -0.47209454454E+03  0.52316192624E+03  0.12700000000E+03 0.  0.
   -5000001    1    1    2    0    0  0.18337255208E+03 -0.32720776754E+02 -0.27756539196E+03  0.35758591821E+03  0.12700000000E+03 0.  0.
<mgrwt>
<rscale>  0 0.46230590E+03</rscale>
<asrwt>0</asrwt>
<pdfrwt beam="1">  1        2 0.11645769E+00 0.46230590E+03</pdfrwt>
<pdfrwt beam="2">  1       -2 0.93634225E-02 0.46230590E+03</pdfrwt>
<totfact> 0.28217362E+03</totfact>
</mgrwt>
</event>
<event>
 4    1  0.1390278E-004  0.3569683E+03  0.7818608E-02  0.1059791E+00
         -2   -1    0    0    0  501 -0.00000000000E+00  0.00000000000E+00  0.27109632794E+02  0.27109632914E+02  0.25500000000E-02 0. -1.
          2   -1    0    0  501    0  0.00000000000E+00 -0.00000000000E+00 -0.11751024777E+04  0.11751024777E+04  0.25500000000E-02 0.  1.
    5000001    1    1    2    0    0  0.12341950812E+03  0.98819649212E+01 -0.64114818413E+03  0.66522930049E+03  0.12700000000E+03 0.  0.
   -5000001    1    1    2    0    0 -0.12341950812E+03 -0.98819649212E+01 -0.50684466079E+03  0.53698281014E+03  0.12700000000E+03 0.  0.
<mgrwt>
<rscale>  0 0.35696833E+03</rscale>
<asrwt>0</asrwt>
<pdfrwt beam="1">  1        2 0.16787175E+00 0.35696833E+03</pdfrwt>
<pdfrwt beam="2">  1       -2 0.38728054E-02 0.35696833E+03</pdfrwt>
<totfact> 0.67082167E+03</totfact>
</mgrwt>
</event>
<event>
 4    1  0.1390278E-004  0.2897869E+03  0.7818608E-02  0.1090460E+00
         -2   -1    0    0    0  501 -0.00000000000E+00  0.00000000000E+00  0.49223271138E+03  0.49223271139E+03  0.25500000000E-02 0. -1.
          2   -1    0    0  501    0  0.00000000000E+00 -0.00000000000E+00 -0.42650790451E+02  0.42650790527E+02  0.25500000000E-02 0.  1.
    5000001    1    1    2    0    0 -0.17395528083E+02 -0.55859184007E+02  0.29488844299E+03  0.32636030188E+03  0.12700000000E+03 0.  0.
   -5000001    1    1    2    0    0  0.17395528083E+02  0.55859184007E+02  0.15469347794E+03  0.20852320004E+03  0.12700000000E+03 0.  0.
<mgrwt>
<rscale>  0 0.28978692E+03</rscale>
<asrwt>0</asrwt>
<pdfrwt beam="1">  1        2 0.60929701E-02 0.28978692E+03</pdfrwt>
<pdfrwt beam="2">  1       -2 0.70318958E-01 0.28978692E+03</pdfrwt>
<totfact> 0.22867270E+03</totfact>
</mgrwt>
</event>
<event>
 4    1  0.1390278E-004  0.4530052E+03  0.7818608E-02  0.1026830E+00
         -2   -1    0    0    0  501 -0.00000000000E+00  0.00000000000E+00  0.16360654416E+03  0.16360654418E+03  0.25500000000E-02 0. -1.
          2   -1    0    0  501    0  0.00000000000E+00 -0.00000000000E+00 -0.31357806938E+03  0.31357806939E+03  0.25500000000E-02 0.  1.
    5000001    1    1    2    0    0  0.13730139858E+03  0.79200831194E+02  0.30614701489E+02  0.20540376253E+03  0.12700000000E+03 0.  0.
   -5000001    1    1    2    0    0 -0.13730139858E+03 -0.79200831194E+02 -0.18058622671E+03  0.27178085104E+03  0.12700000000E+03 0.  0.
<mgrwt>
<rscale>  0 0.45300518E+03</rscale>
<asrwt>0</asrwt>
<pdfrwt beam="1">  1        2 0.44796867E-01 0.45300518E+03</pdfrwt>
<pdfrwt beam="2">  1       -2 0.23372364E-01 0.45300518E+03</pdfrwt>
<totfact> 0.18238079E+03</totfact>
</mgrwt>
</event>
<event>
 4    1  0.1390278E-004  0.2972568E+03  0.7818608E-02  0.1086620E+00
         -2   -1    0    0    0  501 -0.00000000000E+00  0.00000000000E+00  0.43954669197E+03  0.43954669198E+03  0.25500000000E-02 0. -1.
          2   -1    0    0  501    0  0.00000000000E+00 -0.00000000000E+00 -0.50257250908E+02  0.50257250973E+02  0.25500000000E-02 0.  1.
    5000001    1    1    2    0    0  0.25625261629E+02  0.71471136325E+02  0.17153916325E+03  0.22653799215E+03  0.12700000000E+03 0.  0.
   -5000001    1    1    2    0    0 -0.25625261629E+02 -0.71471136325E+02  0.21775027782E+03  0.26326595080E+03  0.12700000000E+03 0.  0.
<mgrwt>
<rscale>  0 0.29725685E+03</rscale>
<asrwt>0</asrwt>
<pdfrwt beam="1">  1        2 0.71796074E-02 0.29725685E+03</pdfrwt>
<pdfrwt beam="2">  1       -2 0.62792383E-01 0.29725685E+03</pdfrwt>
<totfact> 0.23516455E+03</totfact>
</mgrwt>
</event>
<event>
 4    1  0.1390278E-004  0.4509901E+03  0.7818608E-02  0.1027427E+00
          2   -1    0    0  501    0  0.00000000000E+00  0.00000000000E+00  0.26976705147E+04  0.26976705147E+04  0.25500000000E-02 0.  1.
         -2   -1    0    0    0  501 -0.00000000000E+00 -0.00000000000E+00 -0.18848858686E+02  0.18848858859E+02  0.25500000000E-02 0. -1.
    5000001    1    1    2    0    0 -0.14596217932E+03 -0.79744653852E+02  0.83348191073E+03  0.85935165277E+03  0.12700000000E+03 0.  0.
   -5000001    1    1    2    0    0  0.14596217932E+03  0.79744653852E+02  0.18453397453E+04  0.18571677208E+04  0.12700000000E+03 0.  0.
<mgrwt>
<rscale>  0 0.45099007E+03</rscale>
<asrwt>0</asrwt>
<pdfrwt beam="1">  1        2 0.38538148E+00 0.45099007E+03</pdfrwt>
<pdfrwt beam="2">  1       -2 0.26926943E-02 0.45099007E+03</pdfrwt>
<totfact> 0.19529387E+03</totfact>
</mgrwt>
</event>
<event>
 4    1  0.1390278E-004  0.3569091E+03  0.7818608E-02  0.1059814E+00
         -2   -1    0    0    0  501 -0.00000000000E+00  0.00000000000E+00  0.16089566993E+02  0.16089567195E+02  0.25500000000E-02 0. -1.
          2   -1    0    0  501    0  0.00000000000E+00 -0.00000000000E+00 -0.19792966235E+04  0.19792966235E+04  0.25500000000E-02 0.  1.
    5000001    1    1    2    0    0 -0.11583023759E+03 -0.44910757445E+02 -0.10757217419E+04  0.10902934862E+04  0.12700000000E+03 0.  0.
   -5000001    1    1    2    0    0  0.11583023759E+03  0.44910757445E+02 -0.88748531458E+03  0.90509270446E+03  0.12700000000E+03 0.  0.
<mgrwt>
<rscale>  0 0.35690910E+03</rscale>
<asrwt>0</asrwt>
<pdfrwt beam="1">  1        2 0.28275651E+00 0.35690910E+03</pdfrwt>
<pdfrwt beam="2">  1       -2 0.22985108E-02 0.35690910E+03</pdfrwt>
<totfact> 0.56968074E+03</totfact>
</mgrwt>
</event>
<event>
 4    1  0.1390278E-004  0.3767855E+03  0.7818608E-02  0.1052128E+00
         -2   -1    0    0    0  501 -0.00000000000E+00  0.00000000000E+00  0.15845760723E+03  0.15845760725E+03  0.25500000000E-02 0. -1.
          2   -1    0    0  501    0  0.00000000000E+00 -0.00000000000E+00 -0.22398309802E+03  0.22398309804E+03  0.25500000000E-02 0.  1.
    5000001    1    1    2    0    0 -0.58285767655E+02 -0.12077115841E+03 -0.70467600071E+02  0.19768051516E+03  0.12700000000E+03 0.  0.
   -5000001    1    1    2    0    0  0.58285767655E+02  0.12077115841E+03  0.49421092818E+01  0.18476019013E+03  0.12700000000E+03 0.  0.
<mgrwt>
<rscale>  0 0.37678549E+03</rscale>
<asrwt>0</asrwt>
<pdfrwt beam="1">  1        2 0.31997585E-01 0.37678549E+03</pdfrwt>
<pdfrwt beam="2">  1       -2 0.22636801E-01 0.37678549E+03</pdfrwt>
<totfact> 0.27835007E+03</totfact>
</mgrwt>
</event>
<event>
 4    1  0.1390278E-004  0.3874744E+03  0.7818608E-02  0.1048205E+00
         -2   -1    0    0    0  501 -0.00000000000E+00  0.00000000000E+00  0.27677750928E+02  0.27677751046E+02  0.25500000000E-02 0. -1.
          2   -1    0    0  501    0  0.00000000000E+00 -0.00000000000E+00 -0.13561111548E+04  0.13561111548E+04  0.25500000000E-02 0.  1.
    5000001    1    1    2    0    0 -0.57191178555E+02 -0.20519815479E+01 -0.18334802335E+03  0.23026189263E+03  0.12700000000E+03 0.  0.
   -5000001    1    1    2    0    0  0.57191178555E+02  0.20519815479E+01 -0.11450853805E+04  0.11535270132E+04  0.12700000000E+03 0.  0.
<mgrwt>
<rscale>  0 0.38747442E+03</rscale>
<asrwt>0</asrwt>
<pdfrwt beam="1">  1        2 0.19373012E+00 0.38747442E+03</pdfrwt>
<pdfrwt beam="2">  1       -2 0.39539653E-02 0.38747442E+03</pdfrwt>
<totfact> 0.51974955E+03</totfact>
</mgrwt>
</event>
<event>
 4    1  0.1390278E-004  0.5241334E+03  0.7818608E-02  0.1007665E+00
          2   -1    0    0  501    0  0.00000000000E+00  0.00000000000E+00  0.88080972287E+03  0.88080972287E+03  0.25500000000E-02 0.  1.
         -2   -1    0    0    0  501 -0.00000000000E+00 -0.00000000000E+00 -0.77972520215E+02  0.77972520256E+02  0.25500000000E-02 0. -1.
    5000001    1    1    2    0    0 -0.11276146094E+03 -0.16489598726E+03  0.60711299718E+03  0.65162951517E+03  0.12700000000E+03 0.  0.
   -5000001    1    1    2    0    0  0.11276146094E+03  0.16489598726E+03  0.19572420547E+03  0.30715272796E+03  0.12700000000E+03 0.  0.
<mgrwt>
<rscale>  0 0.52413340E+03</rscale>
<asrwt>0</asrwt>
<pdfrwt beam="1">  1        2 0.12582996E+00 0.52413340E+03</pdfrwt>
<pdfrwt beam="2">  1       -2 0.11138931E-01 0.52413340E+03</pdfrwt>
<totfact> 0.19282889E+03</totfact>
</mgrwt>
</event>
<event>
 4    1  0.1390278E-004  0.5549299E+03  0.7818608E-02  0.1000359E+00
         -2   -1    0    0    0  501 -0.00000000000E+00  0.00000000000E+00  0.60059251313E+02  0.60059251367E+02  0.25500000000E-02 0.  1.
          2   -1    0    0  501    0  0.00000000000E+00 -0.00000000000E+00 -0.12818472930E+04  0.12818472930E+04  0.25500000000E-02 0. -1.
    5000001    1    1    2    0    0 -0.10177487336E+03 -0.21303571883E+03 -0.43794187990E+03  0.51348265064E+03  0.12700000000E+03 0.  0.
   -5000001    1    1    2    0    0  0.10177487336E+03  0.21303571883E+03 -0.78384616177E+03  0.82842389371E+03  0.12700000000E+03 0.  0.
<mgrwt>
<rscale>  0 0.55492986E+03</rscale>
<asrwt>0</asrwt>
<pdfrwt beam="1">  1        2 0.18312103E+00 0.55492986E+03</pdfrwt>
<pdfrwt beam="2">  1       -2 0.85798938E-02 0.55492986E+03</pdfrwt>
<totfact> 0.17058942E+03</totfact>
</mgrwt>
</event>
<event>
 4    1  0.1390278E-004  0.3848743E+03  0.7818608E-02  0.1049147E+00
          2   -1    0    0  501    0  0.00000000000E+00  0.00000000000E+00  0.17152936309E+04  0.17152936309E+04  0.25500000000E-02 0.  1.
         -2   -1    0    0    0  501 -0.00000000000E+00 -0.00000000000E+00 -0.21589340697E+02  0.21589340848E+02  0.25500000000E-02 0. -1.
    5000001    1    1    2    0    0  0.13364129990E+03 -0.41904786257E+02  0.68495117918E+03  0.71056535661E+03  0.12700000000E+03 0.  0.
   -5000001    1    1    2    0    0 -0.13364129990E+03  0.41904786257E+02  0.10087531110E+04  0.10263176151E+04  0.12700000000E+03 0.  0.
<mgrwt>
<rscale>  0 0.38487431E+03</rscale>
<asrwt>0</asrwt>
<pdfrwt beam="1">  1        2 0.24504197E+00 0.38487431E+03</pdfrwt>
<pdfrwt beam="2">  1       -2 0.30841912E-02 0.38487431E+03</pdfrwt>
<totfact> 0.49586750E+03</totfact>
</mgrwt>
</event>
<event>
 4    1  0.1390278E-004  0.4316510E+03  0.7818608E-02  0.1033340E+00
          2   -1    0    0  501    0  0.00000000000E+00  0.00000000000E+00  0.12035724575E+04  0.12035724575E+04  0.25500000000E-02 0.  1.
         -2   -1    0    0    0  501 -0.00000000000E+00 -0.00000000000E+00 -0.38701988310E+02  0.38701988394E+02  0.25500000000E-02 0. -1.
    5000001    1    1    2    0    0 -0.49276435179E+02 -0.77570371577E+02  0.15550345353E+03  0.22080682433E+03  0.12700000000E+03 0.  0.
   -5000001    1    1    2    0    0  0.49276435179E+02  0.77570371577E+02  0.10093670156E+04  0.10214676215E+04  0.12700000000E+03 0.  0.
<mgrwt>
<rscale>  0 0.43165100E+03</rscale>
<asrwt>0</asrwt>
<pdfrwt beam="1">  1        2 0.17193892E+00 0.43165100E+03</pdfrwt>
<pdfrwt beam="2">  1       -2 0.55288557E-02 0.43165100E+03</pdfrwt>
<totfact> 0.37606706E+03</totfact>
</mgrwt>
</event>
<event>
 4    1  0.1390278E-004  0.3008684E+03  0.7818608E-02  0.1084807E+00
         -2   -1    0    0    0  501 -0.00000000000E+00  0.00000000000E+00  0.77172877010E+03  0.77172877010E+03  0.25500000000E-02 0. -1.
          2   -1    0    0  501    0  0.00000000000E+00 -0.00000000000E+00 -0.29324349329E+02  0.29324349440E+02  0.25500000000E-02 0.  1.
    5000001    1    1    2    0    0 -0.54239111284E-01 -0.58677674670E+02  0.51844360124E+03  0.53698774671E+03  0.12700000000E+03 0.  0.
   -5000001    1    1    2    0    0  0.54239111284E-01  0.58677674670E+02  0.22396081953E+03  0.26406537284E+03  0.12700000000E+03 0.  0.
<mgrwt>
<rscale>  0 0.30086837E+03</rscale>
<asrwt>0</asrwt>
<pdfrwt beam="1">  1        2 0.41891922E-02 0.30086837E+03</pdfrwt>
<pdfrwt beam="2">  1       -2 0.11024698E+00 0.30086837E+03</pdfrwt>
<totfact> 0.13606134E+03</totfact>
</mgrwt>
</event>
<event>
 4    1  0.1390278E-004  0.5496513E+03  0.7818608E-02  0.1001575E+00
         -2   -1    0    0    0  501 -0.00000000000E+00  0.00000000000E+00  0.55932474276E+02  0.55932474334E+02  0.25500000000E-02 0. -1.
          2   -1    0    0  501    0  0.00000000000E+00 -0.00000000000E+00 -0.13503627551E+04  0.13503627551E+04  0.25500000000E-02 0.  1.
    5000001    1    1    2    0    0  0.23591839662E+03 -0.44036919523E+01 -0.49109812730E+03  0.55944906202E+03  0.12700000000E+03 0.  0.
   -5000001    1    1    2    0    0 -0.23591839662E+03  0.44036919523E+01 -0.80333215350E+03  0.84684616739E+03  0.12700000000E+03 0.  0.
<mgrwt>
<rscale>  0 0.54965127E+03</rscale>
<asrwt>0</asrwt>
<pdfrwt beam="1">  1        2 0.19290894E+00 0.54965127E+03</pdfrwt>
<pdfrwt beam="2">  1       -2 0.79903543E-02 0.54965127E+03</pdfrwt>
<totfact> 0.17551281E+03</totfact>
</mgrwt>
</event>
<event>
 4    1  0.1390278E-004  0.5756436E+03  0.7818608E-02  0.9957267E-01
          2   -1    0    0  501    0  0.00000000000E+00  0.00000000000E+00  0.11255539361E+04  0.11255539361E+04  0.25500000000E-02 0.  1.
         -2   -1    0    0    0  501 -0.00000000000E+00 -0.00000000000E+00 -0.73600540704E+02  0.73600540748E+02  0.25500000000E-02 0. -1.
    5000001    1    1    2    0    0 -0.16124876799E+03  0.92705263633E+02  0.15265037838E+03  0.27207824077E+03  0.12700000000E+03 0.  0.
   -5000001    1    1    2    0    0  0.16124876799E+03 -0.92705263633E+02  0.89930301704E+03  0.92707623610E+03  0.12700000000E+03 0.  0.
<mgrwt>
<rscale>  0 0.57564356E+03</rscale>
<asrwt>0</asrwt>
<pdfrwt beam="1">  1        2 0.16079341E+00 0.57564356E+03</pdfrwt>
<pdfrwt beam="2">  1       -2 0.10514363E-01 0.57564356E+03</pdfrwt>
<totfact> 0.15023088E+03</totfact>
</mgrwt>
</event>
<event>
 4    1  0.1390278E-004  0.3584937E+03  0.7818608E-02  0.1059182E+00
          2   -1    0    0  501    0  0.00000000000E+00  0.00000000000E+00  0.13862361989E+04  0.13862361989E+04  0.25500000000E-02 0.  1.
         -2   -1    0    0    0  501 -0.00000000000E+00 -0.00000000000E+00 -0.23177462433E+02  0.23177462574E+02  0.25500000000E-02 0. -1.
    5000001    1    1    2    0    0 -0.51805069001E+02 -0.95496975350E+02  0.42683085668E+03  0.45838522848E+03  0.12700000000E+03 0.  0.
   -5000001    1    1    2    0    0  0.51805069001E+02  0.95496975350E+02  0.93622787977E+03  0.95102843298E+03  0.12700000000E+03 0.  0.
<mgrwt>
<rscale>  0 0.35849372E+03</rscale>
<asrwt>0</asrwt>
<pdfrwt beam="1">  1        2 0.19803377E+00 0.35849372E+03</pdfrwt>
<pdfrwt beam="2">  1       -2 0.33110657E-02 0.35849372E+03</pdfrwt>
<totfact> 0.65482148E+03</totfact>
</mgrwt>
</event>
<event>
 4    1  0.1390278E-004  0.4726549E+03  0.7818608E-02  0.1021174E+00
          2   -1    0    0  501    0  0.00000000000E+00  0.00000000000E+00  0.81966621857E+03  0.81966621858E+03  0.25500000000E-02 0.  1.
         -2   -1    0    0    0  501 -0.00000000000E+00 -0.00000000000E+00 -0.68138310794E+02  0.68138310842E+02  0.25500000000E-02 0. -1.
    5000001    1    1    2    0    0  0.50631702956E+02  0.18550322675E+03  0.27732313351E+03  0.36057195795E+03  0.12700000000E+03 0.  0.
   -5000001    1    1    2    0    0 -0.50631702956E+02 -0.18550322675E+03  0.47420477427E+03  0.52723257147E+03  0.12700000000E+03 0.  0.
<mgrwt>
<rscale>  0 0.47265493E+03</rscale>
<asrwt>0</asrwt>
<pdfrwt beam="1">  1        2 0.11709518E+00 0.47265493E+03</pdfrwt>
<pdfrwt beam="2">  1       -2 0.97340443E-02 0.47265493E+03</pdfrwt>
<totfact> 0.26331852E+03</totfact>
</mgrwt>
</event>
<event>
 4    1  0.1390278E-004  0.3508051E+03  0.7818608E-02  0.1062285E+00
          2   -1    0    0  501    0  0.00000000000E+00  0.00000000000E+00  0.14998897002E+04  0.14998897002E+04  0.25500000000E-02 0.  1.
         -2   -1    0    0    0  501 -0.00000000000E+00 -0.00000000000E+00 -0.20512212698E+02  0.20512212856E+02  0.25500000000E-02 0. -1.
    5000001    1    1    2    0    0  0.10482480762E+03  0.48660421423E+02  0.58457023204E+03  0.60926794852E+03  0.12700000000E+03 0.  0.
   -5000001    1    1    2    0    0 -0.10482480762E+03 -0.48660421423E+02  0.89480725544E+03  0.91113396451E+03  0.12700000000E+03 0.  0.
<mgrwt>
<rscale>  0 0.35080511E+03</rscale>
<asrwt>0</asrwt>
<pdfrwt beam="1">  1        2 0.21426996E+00 0.35080511E+03</pdfrwt>
<pdfrwt beam="2">  1       -2 0.29303160E-02 0.35080511E+03</pdfrwt>
<totfact> 0.68714067E+03</totfact>
</mgrwt>
</event>
<event>
 4    1  0.1390278E-004  0.3629502E+03  0.7818608E-02  0.1057422E+00
          2   -1    0    0  501    0  0.00000000000E+00  0.00000000000E+00  0.93106237763E+03  0.93106237763E+03  0.25500000000E-02 0.  1.
         -2   -1    0    0    0  501 -0.00000000000E+00 -0.00000000000E+00 -0.35371644439E+02  0.35371644531E+02  0.25500000000E-02 0. -1.
    5000001    1    1    2    0    0 -0.11003913538E+03 -0.74550838519E+01  0.26646719292E+03  0.31511577950E+03  0.12700000000E+03 0.  0.
   -5000001    1    1    2    0    0  0.11003913538E+03  0.74550838519E+01  0.62922354027E+03  0.65131824266E+03  0.12700000000E+03 0.  0.
<mgrwt>
<rscale>  0 0.36295018E+03</rscale>
<asrwt>0</asrwt>
<pdfrwt beam="1">  1        2 0.13300890E+00 0.36295018E+03</pdfrwt>
<pdfrwt beam="2">  1       -2 0.50530923E-02 0.36295018E+03</pdfrwt>
<totfact> 0.62121849E+03</totfact>
</mgrwt>
</event>
<event>
 4    1  0.1390278E-004  0.3880997E+03  0.7818608E-02  0.1047980E+00
          2   -1    0    0  501    0  0.00000000000E+00  0.00000000000E+00  0.46134881088E+03  0.46134881088E+03  0.25500000000E-02 0.  1.
         -2   -1    0    0    0  501 -0.00000000000E+00 -0.00000000000E+00 -0.81620105922E+02  0.81620105962E+02  0.25500000000E-02 0. -1.
    5000001    1    1    2    0    0  0.10750868652E+03 -0.99776121507E+02  0.18483037063E+03  0.26796391176E+03  0.12700000000E+03 0.  0.
   -5000001    1    1    2    0    0 -0.10750868652E+03  0.99776121507E+02  0.19489833432E+03  0.27500500508E+03  0.12700000000E+03 0.  0.
<mgrwt>
<rscale>  0 0.38809967E+03</rscale>
<asrwt>0</asrwt>
<pdfrwt beam="1">  1        2 0.65906976E-01 0.38809967E+03</pdfrwt>
<pdfrwt beam="2">  1       -2 0.11660015E-01 0.38809967E+03</pdfrwt>
<totfact> 0.38587096E+03</totfact>
</mgrwt>
</event>
<event>
 4    1  0.1390278E-004  0.3240697E+03  0.7818608E-02  0.1073791E+00
          2   -1    0    0  501    0  0.00000000000E+00  0.00000000000E+00  0.13668631784E+03  0.13668631787E+03  0.25500000000E-02 0.  1.
         -2   -1    0    0    0  501 -0.00000000000E+00 -0.00000000000E+00 -0.19208431858E+03  0.19208431860E+03  0.25500000000E-02 0. -1.
    5000001    1    1    2    0    0 -0.11946237415E+02 -0.79527238411E+02 -0.89066155474E+02  0.17472571158E+03  0.12700000000E+03 0.  0.
   -5000001    1    1    2    0    0  0.11946237415E+02  0.79527238411E+02  0.33668154738E+02  0.15404492488E+03  0.12700000000E+03 0.  0.
<mgrwt>
<rscale>  0 0.32406973E+03</rscale>
<asrwt>0</asrwt>
<pdfrwt beam="1">  1        2 0.19526617E-01 0.32406973E+03</pdfrwt>
<pdfrwt beam="2">  1       -2 0.27440617E-01 0.32406973E+03</pdfrwt>
<totfact> 0.34397918E+03</totfact>
</mgrwt>
</event>
<event>
 4    1  0.1390278E-004  0.7666490E+03  0.7818608E-02  0.9609587E-01
          2   -1    0    0  501    0  0.00000000000E+00  0.00000000000E+00  0.32296195841E+04  0.32296195841E+04  0.25500000000E-02 0.  1.
         -2   -1    0    0    0  501 -0.00000000000E+00 -0.00000000000E+00 -0.45496902185E+02  0.45496902257E+02  0.25500000000E-02 0. -1.
    5000001    1    1    2    0    0  0.33138680973E+03  0.16761727799E+02  0.22068496322E+04  0.22352656380E+04  0.12700000000E+03 0.  0.
   -5000001    1    1    2    0    0 -0.33138680973E+03 -0.16761727799E+02  0.97727304971E+03  0.10398508484E+04  0.12700000000E+03 0.  0.
<mgrwt>
<rscale>  0 0.76664904E+03</rscale>
<asrwt>0</asrwt>
<pdfrwt beam="1">  1        2 0.46137448E+00 0.76664904E+03</pdfrwt>
<pdfrwt beam="2">  1       -2 0.64995538E-02 0.76664904E+03</pdfrwt>
<totfact> 0.25149979E+02</totfact>
</mgrwt>
</event>
<event>
 4    1  0.1390278E-004  0.5408904E+03  0.7818608E-02  0.1003625E+00
          2   -1    0    0  501    0  0.00000000000E+00  0.00000000000E+00  0.21440751069E+04  0.21440751069E+04  0.25500000000E-02 0.  1.
         -2   -1    0    0    0  501 -0.00000000000E+00 -0.00000000000E+00 -0.34112897637E+02  0.34112897733E+02  0.25500000000E-02 0. -1.
    5000001    1    1    2    0    0 -0.94789368948E+02  0.37318754745E+02  0.19246159550E+04  0.19314899140E+04  0.12700000000E+03 0.  0.
   -5000001    1    1    2    0    0  0.94789368948E+02 -0.37318754745E+02  0.18534625429E+03  0.24669809059E+03  0.12700000000E+03 0.  0.
<mgrwt>
<rscale>  0 0.54089043E+03</rscale>
<asrwt>0</asrwt>
<pdfrwt beam="1">  1        2 0.30629651E+00 0.54089043E+03</pdfrwt>
<pdfrwt beam="2">  1       -2 0.48732700E-02 0.54089043E+03</pdfrwt>
<totfact> 0.15020841E+03</totfact>
</mgrwt>
</event>
<event>
 4    1  0.1390278E-004  0.4303582E+03  0.7818608E-02  0.1033747E+00
          2   -1    0    0  501    0  0.00000000000E+00  0.00000000000E+00  0.16451300256E+03  0.16451300258E+03  0.25500000000E-02 0.  1.
         -2   -1    0    0    0  501 -0.00000000000E+00 -0.00000000000E+00 -0.28144912712E+03  0.28144912713E+03  0.25500000000E-02 0. -1.
    5000001    1    1    2    0    0  0.55600124805E+02  0.12850591161E+03  0.48059556561E+02  0.19504836368E+03  0.12700000000E+03 0.  0.
   -5000001    1    1    2    0    0 -0.55600124805E+02 -0.12850591161E+03 -0.16499568112E+03  0.25091376603E+03  0.12700000000E+03 0.  0.
<mgrwt>
<rscale>  0 0.43035818E+03</rscale>
<asrwt>0</asrwt>
<pdfrwt beam="1">  1        2 0.23501858E-01 0.43035818E+03</pdfrwt>
<pdfrwt beam="2">  1       -2 0.40207018E-01 0.43035818E+03</pdfrwt>
<totfact> 0.13726029E+03</totfact>
</mgrwt>
</event>
<event>
 4    1  0.1390278E-004  0.3365447E+03  0.7818608E-02  0.1068277E+00
         -2   -1    0    0    0  501 -0.00000000000E+00  0.00000000000E+00  0.35758091411E+02  0.35758091502E+02  0.25500000000E-02 0. -1.
          2   -1    0    0  501    0  0.00000000000E+00 -0.00000000000E+00 -0.79186486308E+03  0.79186486308E+03  0.25500000000E-02 0.  1.
    5000001    1    1    2    0    0 -0.29594060438E+02 -0.98455760614E+02 -0.47694873248E+03  0.50416112368E+03  0.12700000000E+03 0.  0.
   -5000001    1    1    2    0    0  0.29594060438E+02  0.98455760614E+02 -0.27915803918E+03  0.32346183090E+03  0.12700000000E+03 0.  0.
<mgrwt>
<rscale>  0 0.33654465E+03</rscale>
<asrwt>0</asrwt>
<pdfrwt beam="1">  1        2 0.11312354E+00 0.33654465E+03</pdfrwt>
<pdfrwt beam="2">  1       -2 0.51082993E-02 0.33654465E+03</pdfrwt>
<totfact> 0.75106875E+03</totfact>
</mgrwt>
</event>
<event>
 4    1  0.1390278E-004  0.3900015E+03  0.7818608E-02  0.1047298E+00
          2   -1    0    0  501    0  0.00000000000E+00  0.00000000000E+00  0.99847577994E+03  0.99847577994E+03  0.25500000000E-02 0.  1.
         -2   -1    0    0    0  501 -0.00000000000E+00 -0.00000000000E+00 -0.38083347610E+02  0.38083347696E+02  0.25500000000E-02 0. -1.
    5000001    1    1    2    0    0  0.74206676550E+02 -0.96934227736E+02  0.25793037860E+03  0.31234589089E+03  0.12700000000E+03 0.  0.
   -5000001    1    1    2    0    0 -0.74206676550E+02  0.96934227736E+02  0.70246205373E+03  0.72421323675E+03  0.12700000000E+03 0.  0.
<mgrwt>
<rscale>  0 0.39000154E+03</rscale>
<asrwt>0</asrwt>
<pdfrwt beam="1">  1        2 0.14263938E+00 0.39000154E+03</pdfrwt>
<pdfrwt beam="2">  1       -2 0.54404790E-02 0.39000154E+03</pdfrwt>
<totfact> 0.50509781E+03</totfact>
</mgrwt>
</event>
<event>
 4    1  0.1390278E-004  0.4700866E+03  0.7818608E-02  0.1021896E+00
          2   -1    0    0  501    0  0.00000000000E+00  0.00000000000E+00  0.21526595881E+04  0.21526595882E+04  0.25500000000E-02 0.  1.
         -2   -1    0    0    0  501 -0.00000000000E+00 -0.00000000000E+00 -0.25663766618E+02  0.25663766744E+02  0.25500000000E-02 0. -1.
    5000001    1    1    2    0    0 -0.14586545852E+03  0.12887955529E+03  0.90100260432E+03  0.93049522554E+03  0.12700000000E+03 0.  0.
   -5000001    1    1    2    0    0  0.14586545852E+03 -0.12887955529E+03  0.12259932172E+04  0.12478281294E+04  0.12700000000E+03 0.  0.
<mgrwt>
<rscale>  0 0.47008660E+03</rscale>
<asrwt>0</asrwt>
<pdfrwt beam="1">  1        2 0.30752288E+00 0.47008660E+03</pdfrwt>
<pdfrwt beam="2">  1       -2 0.36662514E-02 0.47008660E+03</pdfrwt>
<totfact> 0.23092720E+03</totfact>
</mgrwt>
</event>
<event>
 4    1  0.1390278E-004  0.4015545E+03  0.7818608E-02  0.1043243E+00
         -2   -1    0    0    0  501 -0.00000000000E+00  0.00000000000E+00  0.36081824423E+02  0.36081824513E+02  0.25500000000E-02 0. -1.
          2   -1    0    0  501    0  0.00000000000E+00 -0.00000000000E+00 -0.11172248267E+04  0.11172248267E+04  0.25500000000E-02 0.  1.
    5000001    1    1    2    0    0 -0.10796286812E+03  0.81124516690E+02 -0.31911487053E+03  0.36905347674E+03  0.12700000000E+03 0.  0.
   -5000001    1    1    2    0    0  0.10796286812E+03 -0.81124516690E+02 -0.76202813179E+03  0.78425317452E+03  0.12700000000E+03 0.  0.
<mgrwt>
<rscale>  0 0.40155453E+03</rscale>
<asrwt>0</asrwt>
<pdfrwt beam="1">  1        2 0.15960352E+00 0.40155453E+03</pdfrwt>
<pdfrwt beam="2">  1       -2 0.51545471E-02 0.40155453E+03</pdfrwt>
<totfact> 0.46813160E+03</totfact>
</mgrwt>
</event>
<event>
 4    1  0.1390278E-004  0.2907490E+03  0.7818608E-02  0.1089959E+00
         -2   -1    0    0    0  501 -0.00000000000E+00  0.00000000000E+00  0.69352925664E+01  0.69352930352E+01  0.25500000000E-02 0. -1.
          2   -1    0    0  501    0  0.00000000000E+00 -0.00000000000E+00 -0.30472751947E+04  0.30472751947E+04  0.25500000000E-02 0.  1.
    5000001    1    1    2    0    0  0.68036469123E+02 -0.19312325166E+02 -0.15378061237E+04  0.15446613224E+04  0.12700000000E+03 0.  0.
   -5000001    1    1    2    0    0 -0.68036469123E+02  0.19312325166E+02 -0.15025337785E+04  0.15095491653E+04  0.12700000000E+03 0.  0.
<mgrwt>
<rscale>  0 0.29074900E+03</rscale>
<asrwt>0</asrwt>
<pdfrwt beam="1">  1        2 0.43532417E+00 0.29074900E+03</pdfrwt>
<pdfrwt beam="2">  1       -2 0.99075806E-03 0.29074900E+03</pdfrwt>
<totfact> 0.56591424E+03</totfact>
</mgrwt>
</event>
<event>
 4    1  0.1390278E-004  0.3980591E+03  0.7818608E-02  0.1044454E+00
         -2   -1    0    0    0  501 -0.00000000000E+00  0.00000000000E+00  0.69805034536E+02  0.69805034583E+02  0.25500000000E-02 0. -1.
          2   -1    0    0  501    0  0.00000000000E+00 -0.00000000000E+00 -0.56747707688E+03  0.56747707689E+03  0.25500000000E-02 0.  1.
    5000001    1    1    2    0    0 -0.60167014457E+02 -0.14089102047E+03 -0.25469822850E+03  0.32321902308E+03  0.12700000000E+03 0.  0.
   -5000001    1    1    2    0    0  0.60167014457E+02  0.14089102047E+03 -0.24297381385E+03  0.31406308840E+03  0.12700000000E+03 0.  0.
<mgrwt>
<rscale>  0 0.39805908E+03</rscale>
<asrwt>0</asrwt>
<pdfrwt beam="1">  1        2 0.81068152E-01 0.39805908E+03</pdfrwt>
<pdfrwt beam="2">  1       -2 0.99721481E-02 0.39805908E+03</pdfrwt>
<totfact> 0.39358650E+03</totfact>
</mgrwt>
</event>
<event>
 4    1  0.1390278E-004  0.5910102E+03  0.7818608E-02  0.9924235E-01
         -2   -1    0    0    0  501 -0.00000000000E+00  0.00000000000E+00  0.40582318188E+03  0.40582318189E+03  0.25500000000E-02 0. -1.
          2   -1    0    0  501    0  0.00000000000E+00 -0.00000000000E+00 -0.21517565720E+03  0.21517565722E+03  0.25500000000E-02 0.  1.
    5000001    1    1    2    0    0 -0.26320599777E+03  0.43772502215E+02  0.94360361077E+02  0.31020365400E+03  0.12700000000E+03 0.  0.
   -5000001    1    1    2    0    0  0.26320599777E+03 -0.43772502215E+02  0.96287163600E+02  0.31079518511E+03  0.12700000000E+03 0.  0.
<mgrwt>
<rscale>  0 0.59101022E+03</rscale>
<asrwt>0</asrwt>
<pdfrwt beam="1">  1        2 0.30739380E-01 0.59101022E+03</pdfrwt>
<pdfrwt beam="2">  1       -2 0.57974740E-01 0.59101022E+03</pdfrwt>
<totfact> 0.48611582E+02</totfact>
</mgrwt>
</event>
<event>
 4    1  0.1390278E-004  0.3626931E+03  0.7818608E-02  0.1057523E+00
          2   -1    0    0  501    0  0.00000000000E+00  0.00000000000E+00  0.58883791439E+02  0.58883791495E+02  0.25500000000E-02 0.  1.
         -2   -1    0    0    0  501 -0.00000000000E+00 -0.00000000000E+00 -0.55849958781E+03  0.55849958782E+03  0.25500000000E-02 0. -1.
    5000001    1    1    2    0    0  0.88386007167E+02 -0.75676019336E+02 -0.15323595765E+03  0.23054111321E+03  0.12700000000E+03 0.  0.
   -5000001    1    1    2    0    0 -0.88386007167E+02  0.75676019336E+02 -0.34637983873E+03  0.38684226610E+03  0.12700000000E+03 0.  0.
<mgrwt>
<rscale>  0 0.36269311E+03</rscale>
<asrwt>0</asrwt>
<pdfrwt beam="1">  1        2 0.84119705E-02 0.36269311E+03</pdfrwt>
<pdfrwt beam="2">  1       -2 0.79785653E-01 0.36269311E+03</pdfrwt>
<totfact> 0.11503622E+03</totfact>
</mgrwt>
</event>
<event>
 4    1  0.1390278E-004  0.4190021E+03  0.7818608E-02  0.1037392E+00
         -2   -1    0    0    0  501 -0.00000000000E+00  0.00000000000E+00  0.19161508819E+02  0.19161508989E+02  0.25500000000E-02 0. -1.
          2   -1    0    0  501    0  0.00000000000E+00 -0.00000000000E+00 -0.22905656001E+04  0.22905656001E+04  0.25500000000E-02 0.  1.
    5000001    1    1    2    0    0  0.84290639968E+02 -0.94499101264E+02 -0.53875970719E+03  0.56782569000E+03  0.12700000000E+03 0.  0.
   -5000001    1    1    2    0    0 -0.84290639968E+02  0.94499101264E+02 -0.17326443841E+04  0.17419014191E+04  0.12700000000E+03 0.  0.
<mgrwt>
<rscale>  0 0.41900212E+03</rscale>
<asrwt>0</asrwt>
<pdfrwt beam="1">  1        2 0.32722348E+00 0.41900212E+03</pdfrwt>
<pdfrwt beam="2">  1       -2 0.27373599E-02 0.41900212E+03</pdfrwt>
<totfact> 0.30722095E+03</totfact>
</mgrwt>
</event>
<event>
 4    1  0.1390278E-004  0.7757482E+03  0.7818608E-02  0.9595799E-01
          2   -1    0    0  501    0  0.00000000000E+00  0.00000000000E+00  0.21272897179E+04  0.21272897179E+04  0.25500000000E-02 0.  1.
         -2   -1    0    0    0  501 -0.00000000000E+00 -0.00000000000E+00 -0.70722068604E+02  0.70722068650E+02  0.25500000000E-02 0. -1.
    5000001    1    1    2    0    0  0.83557684954E+02  0.29212697458E+03  0.44762668418E+03  0.55571458896E+03  0.12700000000E+03 0.  0.
   -5000001    1    1    2    0    0 -0.83557684954E+02 -0.29212697458E+03  0.16089409651E+04  0.16422971976E+04  0.12700000000E+03 0.  0.
<mgrwt>
<rscale>  0 0.77574823E+03</rscale>
<asrwt>0</asrwt>
<pdfrwt beam="1">  1        2 0.30389862E+00 0.77574823E+03</pdfrwt>
<pdfrwt beam="2">  1       -2 0.10103150E-01 0.77574823E+03</pdfrwt>
<totfact> 0.47535339E+02</totfact>
</mgrwt>
</event>
<event>
 4    1  0.1390278E-004  0.2786594E+03  0.7818608E-02  0.1096423E+00
          2   -1    0    0  501    0  0.00000000000E+00  0.00000000000E+00  0.18190052267E+04  0.18190052267E+04  0.25500000000E-02 0.  1.
         -2   -1    0    0    0  501 -0.00000000000E+00 -0.00000000000E+00 -0.10672186258E+02  0.10672186563E+02  0.25500000000E-02 0. -1.
    5000001    1    1    2    0    0 -0.49139968272E+02  0.45990458837E+01  0.10953572418E+04  0.11037990646E+04  0.12700000000E+03 0.  0.
   -5000001    1    1    2    0    0  0.49139968272E+02 -0.45990458837E+01  0.71297579863E+03  0.72587834872E+03  0.12700000000E+03 0.  0.
<mgrwt>
<rscale>  0 0.27865938E+03</rscale>
<asrwt>0</asrwt>
<pdfrwt beam="1">  1        2 0.25985777E+00 0.27865938E+03</pdfrwt>
<pdfrwt beam="2">  1       -2 0.15245987E-02 0.27865938E+03</pdfrwt>
<totfact> 0.12478952E+04</totfact>
</mgrwt>
</event>
<event>
 4    1  0.1390278E-004  0.4009020E+03  0.7818608E-02  0.1043468E+00
          2   -1    0    0  501    0  0.00000000000E+00  0.00000000000E+00  0.72181597220E+03  0.72181597221E+03  0.25500000000E-02 0.  1.
         -2   -1    0    0    0  501 -0.00000000000E+00 -0.00000000000E+00 -0.55665985298E+02  0.55665985356E+02  0.25500000000E-02 0. -1.
    5000001    1    1    2    0    0 -0.14378837502E+03 -0.50832705134E+01  0.44533301083E+03  0.48492414558E+03  0.12700000000E+03 0.  0.
   -5000001    1    1    2    0    0  0.14378837502E+03  0.50832705134E+01  0.22081697607E+03  0.29255781198E+03  0.12700000000E+03 0.  0.
<mgrwt>
<rscale>  0 0.40090197E+03</rscale>
<asrwt>0</asrwt>
<pdfrwt beam="1">  1        2 0.10311656E+00 0.40090197E+03</pdfrwt>
<pdfrwt beam="2">  1       -2 0.79522838E-02 0.40090197E+03</pdfrwt>
<totfact> 0.42496110E+03</totfact>
</mgrwt>
</event>
<event>
 4    1  0.1390278E-004  0.5815517E+03  0.7818608E-02  0.9944437E-01
         -2   -1    0    0    0  501 -0.00000000000E+00  0.00000000000E+00  0.13811013672E+04  0.13811013672E+04  0.25500000000E-02 0. -1.
          2   -1    0    0  501    0  0.00000000000E+00 -0.00000000000E+00 -0.61219684214E+02  0.61219684267E+02  0.25500000000E-02 0.  1.
    5000001    1    1    2    0    0  0.20132764305E+03 -0.62542050586E+02  0.10439781504E+04  0.10725967120E+04  0.12700000000E+03 0.  0.
   -5000001    1    1    2    0    0 -0.20132764305E+03  0.62542050586E+02  0.27590353258E+03  0.36972433952E+03  0.12700000000E+03 0.  0.
<mgrwt>
<rscale>  0 0.58155168E+03</rscale>
<asrwt>0</asrwt>
<pdfrwt beam="1">  1        2 0.87456713E-02 0.58155168E+03</pdfrwt>
<pdfrwt beam="2">  1       -2 0.19730015E+00 0.58155168E+03</pdfrwt>
<totfact> 0.11217194E+02</totfact>
</mgrwt>
</event>
<event>
 4    1  0.1390278E-004  0.2772620E+03  0.7818608E-02  0.1097194E+00
         -2   -1    0    0    0  501 -0.00000000000E+00  0.00000000000E+00  0.85031705042E+01  0.85031708865E+01  0.25500000000E-02 0. -1.
          2   -1    0    0  501    0  0.00000000000E+00 -0.00000000000E+00 -0.22601630348E+04  0.22601630348E+04  0.25500000000E-02 0.  1.
    5000001    1    1    2    0    0  0.39928733742E+02 -0.17203416549E+02 -0.84246733859E+03  0.85309464768E+03  0.12700000000E+03 0.  0.
   -5000001    1    1    2    0    0 -0.39928733742E+02  0.17203416549E+02 -0.14091925257E+04  0.14155715580E+04  0.12700000000E+03 0.  0.
<mgrwt>
<rscale>  0 0.27726199E+03</rscale>
<asrwt>0</asrwt>
<pdfrwt beam="1">  1        2 0.32288005E+00 0.27726199E+03</pdfrwt>
<pdfrwt beam="2">  1       -2 0.12147401E-02 0.27726199E+03</pdfrwt>
<totfact> 0.10585169E+04</totfact>
</mgrwt>
</event>
<event>
 4    1  0.1390278E-004  0.4876850E+03  0.7818608E-02  0.1017044E+00
          2   -1    0    0  501    0  0.00000000000E+00  0.00000000000E+00  0.96814285264E+03  0.96814285264E+03  0.25500000000E-02 0.  1.
         -2   -1    0    0    0  501 -0.00000000000E+00 -0.00000000000E+00 -0.61415682071E+02  0.61415682124E+02  0.25500000000E-02 0. -1.
    5000001    1    1    2    0    0  0.76515665474E+02 -0.18046649246E+03  0.30547478766E+03  0.38453432598E+03  0.12700000000E+03 0.  0.
   -5000001    1    1    2    0    0 -0.76515665474E+02  0.18046649246E+03  0.60125238291E+03  0.64502420879E+03  0.12700000000E+03 0.  0.
<mgrwt>
<rscale>  0 0.48768495E+03</rscale>
<asrwt>0</asrwt>
<pdfrwt beam="1">  1        2 0.13830612E+00 0.48768495E+03</pdfrwt>
<pdfrwt beam="2">  1       -2 0.87736690E-02 0.48768495E+03</pdfrwt>
<totfact> 0.24959432E+03</totfact>
</mgrwt>
</event>
<event>
 4    1  0.1390278E-004  0.3709730E+03  0.7818608E-02  0.1054322E+00
          2   -1    0    0  501    0  0.00000000000E+00  0.00000000000E+00  0.14933362082E+03  0.14933362085E+03  0.25500000000E-02 0.  1.
         -2   -1    0    0    0  501 -0.00000000000E+00 -0.00000000000E+00 -0.23039175075E+03  0.23039175076E+03  0.25500000000E-02 0. -1.
    5000001    1    1    2    0    0  0.10941791264E+03 -0.61269212460E+02  0.11160242809E+02  0.17882882044E+03  0.12700000000E+03 0.  0.
   -5000001    1    1    2    0    0 -0.10941791264E+03  0.61269212460E+02 -0.92218372735E+02  0.20089655117E+03  0.12700000000E+03 0.  0.
<mgrwt>
<rscale>  0 0.37097296E+03</rscale>
<asrwt>0</asrwt>
<pdfrwt beam="1">  1        2 0.21333374E-01 0.37097296E+03</pdfrwt>
<pdfrwt beam="2">  1       -2 0.32913107E-01 0.37097296E+03</pdfrwt>
<totfact> 0.22352917E+03</totfact>
</mgrwt>
</event>
<event>
 4    1  0.1390278E-004  0.4232280E+03  0.7818608E-02  0.1036021E+00
          2   -1    0    0  501    0  0.00000000000E+00  0.00000000000E+00  0.84459845924E+03  0.84459845924E+03  0.25500000000E-02 0.  1.
         -2   -1    0    0    0  501 -0.00000000000E+00 -0.00000000000E+00 -0.53019863773E+02  0.53019863834E+02  0.25500000000E-02 0. -1.
    5000001    1    1    2    0    0 -0.15884929785E+03  0.65974707033E+01  0.51899923662E+03  0.55746375098E+03  0.12700000000E+03 0.  0.
   -5000001    1    1    2    0    0  0.15884929785E+03 -0.65974707033E+01  0.27257935885E+03  0.34015457210E+03  0.12700000000E+03 0.  0.
<mgrwt>
<rscale>  0 0.42322805E+03</rscale>
<asrwt>0</asrwt>
<pdfrwt beam="1">  1        2 0.12065691E+00 0.42322805E+03</pdfrwt>
<pdfrwt beam="2">  1       -2 0.75742670E-02 0.42322805E+03</pdfrwt>
<totfact> 0.37735575E+03</totfact>
</mgrwt>
</event>
<event>
 4    1  0.1390278E-004  0.1012903E+04  0.7818608E-02  0.9294505E-01
          2   -1    0    0  501    0  0.00000000000E+00  0.00000000000E+00  0.76587759493E+03  0.76587759493E+03  0.25500000000E-02 0.  1.
         -2   -1    0    0    0  501 -0.00000000000E+00 -0.00000000000E+00 -0.33490106706E+03  0.33490106706E+03  0.25500000000E-02 0. -1.
    5000001    1    1    2    0    0 -0.25463985449E+03 -0.40335305977E+03  0.33858024815E+03  0.59858226732E+03  0.12700000000E+03 0.  0.
   -5000001    1    1    2    0    0  0.25463985449E+03  0.40335305977E+03  0.92396279723E+02  0.50219639467E+03  0.12700000000E+03 0.  0.
<mgrwt>
<rscale>  0 0.10129032E+04</rscale>
<asrwt>0</asrwt>
<pdfrwt beam="1">  1        2 0.10941108E+00 0.10129032E+04</pdfrwt>
<pdfrwt beam="2">  1       -2 0.47843010E-01 0.10129032E+04</pdfrwt>
<totfact> 0.16594544E+02</totfact>
</mgrwt>
</event>
<event>
 4    1  0.1390278E-004  0.6752753E+03  0.7818608E-02  0.9760475E-01
          2   -1    0    0  501    0  0.00000000000E+00  0.00000000000E+00  0.25863698888E+04  0.25863698888E+04  0.25500000000E-02 0.  1.
         -2   -1    0    0    0  501 -0.00000000000E+00 -0.00000000000E+00 -0.44076912150E+02  0.44076912223E+02  0.25500000000E-02 0. -1.
    5000001    1    1    2    0    0  0.14270680095E+03  0.27761765306E+03  0.13522418775E+04  0.13936010503E+04  0.12700000000E+03 0.  0.
   -5000001    1    1    2    0    0 -0.14270680095E+03 -0.27761765306E+03  0.11900510992E+04  0.12368457507E+04  0.12700000000E+03 0.  0.
<mgrwt>
<rscale>  0 0.67527535E+03</rscale>
<asrwt>0</asrwt>
<pdfrwt beam="1">  1        2 0.36948135E+00 0.67527535E+03</pdfrwt>
<pdfrwt beam="2">  1       -2 0.62967027E-02 0.67527535E+03</pdfrwt>
<totfact> 0.59436749E+02</totfact>
</mgrwt>
</event>
<event>
 4    1  0.1390278E-004  0.3172845E+03  0.7818608E-02  0.1076906E+00
         -2   -1    0    0    0  501 -0.00000000000E+00  0.00000000000E+00  0.23127531525E+02  0.23127531666E+02  0.25500000000E-02 0. -1.
          2   -1    0    0  501    0  0.00000000000E+00 -0.00000000000E+00 -0.10881994770E+04  0.10881994771E+04  0.25500000000E-02 0.  1.
    5000001    1    1    2    0    0 -0.66152520971E+02 -0.55150768930E+02 -0.39153195466E+03  0.42052828070E+03  0.12700000000E+03 0.  0.
   -5000001    1    1    2    0    0  0.66152520971E+02  0.55150768930E+02 -0.67353999086E+03  0.69079872802E+03  0.12700000000E+03 0.  0.
<mgrwt>
<rscale>  0 0.31728453E+03</rscale>
<asrwt>0</asrwt>
<pdfrwt beam="1">  1        2 0.15545704E+00 0.31728453E+03</pdfrwt>
<pdfrwt beam="2">  1       -2 0.33039338E-02 0.31728453E+03</pdfrwt>
<totfact> 0.95107078E+03</totfact>
</mgrwt>
</event>
<event>
 4    1  0.1390278E-004  0.3725572E+03  0.7818608E-02  0.1053719E+00
         -2   -1    0    0    0  501 -0.00000000000E+00  0.00000000000E+00  0.30802616526E+02  0.30802616631E+02  0.25500000000E-02 0. -1.
          2   -1    0    0  501    0  0.00000000000E+00 -0.00000000000E+00 -0.11265182707E+04  0.11265182707E+04  0.25500000000E-02 0.  1.
    5000001    1    1    2    0    0  0.66692274110E+02  0.11866672619E+03 -0.52795268681E+03  0.55981487194E+03  0.12700000000E+03 0.  0.
   -5000001    1    1    2    0    0 -0.66692274110E+02 -0.11866672619E+03 -0.56776296739E+03  0.59750601542E+03  0.12700000000E+03 0.  0.
<mgrwt>
<rscale>  0 0.37255717E+03</rscale>
<asrwt>0</asrwt>
<pdfrwt beam="1">  1        2 0.16093116E+00 0.37255717E+03</pdfrwt>
<pdfrwt beam="2">  1       -2 0.44003745E-02 0.37255717E+03</pdfrwt>
<totfact> 0.58863097E+03</totfact>
</mgrwt>
</event>
<event>
 4    1  0.1390278E-004  0.1384000E+04  0.7818608E-02  0.8965482E-01
         -2   -1    0    0    0  501 -0.00000000000E+00  0.00000000000E+00  0.44239631164E+03  0.44239631164E+03  0.25500000000E-02 0. -1.
          2   -1    0    0  501    0  0.00000000000E+00 -0.00000000000E+00 -0.10824319642E+04  0.10824319642E+04  0.25500000000E-02 0.  1.
    5000001    1    1    2    0    0 -0.38183677573E+03  0.55086244566E+03 -0.19207118173E+03  0.70870945823E+03  0.12700000000E+03 0.  0.
   -5000001    1    1    2    0    0  0.38183677573E+03 -0.55086244566E+03 -0.44796447084E+03  0.81611881762E+03  0.12700000000E+03 0.  0.
<mgrwt>
<rscale>  0 0.13839999E+04</rscale>
<asrwt>0</asrwt>
<pdfrwt beam="1">  1        2 0.15463314E+00 0.13839999E+04</pdfrwt>
<pdfrwt beam="2">  1       -2 0.63199474E-01 0.13839999E+04</pdfrwt>
<totfact> 0.56620768E+01</totfact>
</mgrwt>
</event>
<event>
 4    1  0.1390278E-004  0.5665378E+03  0.7818608E-02  0.9977369E-01
         -2   -1    0    0    0  501 -0.00000000000E+00  0.00000000000E+00  0.10592729860E+03  0.10592729863E+03  0.25500000000E-02 0. -1.
          2   -1    0    0  501    0  0.00000000000E+00 -0.00000000000E+00 -0.75751278326E+03  0.75751278326E+03  0.25500000000E-02 0.  1.
    5000001    1    1    2    0    0  0.50383034525E+02 -0.24223186283E+03 -0.40783154092E+03  0.49362971072E+03  0.12700000000E+03 0.  0.
   -5000001    1    1    2    0    0 -0.50383034525E+02  0.24223186283E+03 -0.24375394374E+03  0.36981037117E+03  0.12700000000E+03 0.  0.
<mgrwt>
<rscale>  0 0.56653785E+03</rscale>
<asrwt>0</asrwt>
<pdfrwt beam="1">  1        2 0.10821611E+00 0.56653785E+03</pdfrwt>
<pdfrwt beam="2">  1       -2 0.15132472E-01 0.56653785E+03</pdfrwt>
<totfact> 0.14086325E+03</totfact>
</mgrwt>
</event>
<event>
 4    1  0.1390278E-004  0.3473501E+03  0.7818608E-02  0.1063708E+00
         -2   -1    0    0    0  501 -0.00000000000E+00  0.00000000000E+00  0.16646728763E+02  0.16646728958E+02  0.25500000000E-02 0. -1.
          2   -1    0    0  501    0  0.00000000000E+00 -0.00000000000E+00 -0.18119486612E+04  0.18119486612E+04  0.25500000000E-02 0.  1.
    5000001    1    1    2    0    0  0.76805048436E+02  0.33697592082E+02 -0.13380871164E+04  0.13467147710E+04  0.12700000000E+03 0.  0.
   -5000001    1    1    2    0    0 -0.76805048436E+02 -0.33697592082E+02 -0.45721481597E+03  0.48188061915E+03  0.12700000000E+03 0.  0.
<mgrwt>
<rscale>  0 0.34735007E+03</rscale>
<asrwt>0</asrwt>
<pdfrwt beam="1">  1        2 0.25884968E+00 0.34735007E+03</pdfrwt>
<pdfrwt beam="2">  1       -2 0.23781053E-02 0.34735007E+03</pdfrwt>
<totfact> 0.65479791E+03</totfact>
</mgrwt>
</event>
<event>
 4    1  0.1390278E-004  0.6749600E+03  0.7818608E-02  0.9761039E-01
          2   -1    0    0  501    0  0.00000000000E+00  0.00000000000E+00  0.48160544567E+03  0.48160544568E+03  0.25500000000E-02 0.  1.
         -2   -1    0    0    0  501 -0.00000000000E+00 -0.00000000000E+00 -0.23648560924E+03  0.23648560925E+03  0.25500000000E-02 0. -1.
    5000001    1    1    2    0    0  0.24953514094E+03 -0.18484454292E+03  0.16133713446E+03  0.37228210079E+03  0.12700000000E+03 0.  0.
   -5000001    1    1    2    0    0 -0.24953514094E+03  0.18484454292E+03  0.83782701974E+02  0.34580895414E+03  0.12700000000E+03 0.  0.
<mgrwt>
<rscale>  0 0.67496002E+03</rscale>
<asrwt>0</asrwt>
<pdfrwt beam="1">  1        2 0.68800777E-01 0.67496002E+03</pdfrwt>
<pdfrwt beam="2">  1       -2 0.33783659E-01 0.67496002E+03</pdfrwt>
<totfact> 0.57748597E+02</totfact>
</mgrwt>
</event>
<event>
 4    1  0.1390278E-004  0.2909717E+03  0.7818608E-02  0.1089843E+00
          2   -1    0    0  501    0  0.00000000000E+00  0.00000000000E+00  0.87692292387E+03  0.87692292388E+03  0.25500000000E-02 0.  1.
         -2   -1    0    0    0  501 -0.00000000000E+00 -0.00000000000E+00 -0.24136828948E+02  0.24136829083E+02  0.25500000000E-02 0. -1.
    5000001    1    1    2    0    0  0.20806841354E+02 -0.61133110295E+02  0.51757345310E+03  0.53682535444E+03  0.12700000000E+03 0.  0.
   -5000001    1    1    2    0    0 -0.20806841354E+02  0.61133110295E+02  0.33521264183E+03  0.36423439852E+03  0.12700000000E+03 0.  0.
<mgrwt>
<rscale>  0 0.29097174E+03</rscale>
<asrwt>0</asrwt>
<pdfrwt beam="1">  1        2 0.12527468E+00 0.29097174E+03</pdfrwt>
<pdfrwt beam="2">  1       -2 0.34481191E-02 0.29097174E+03</pdfrwt>
<totfact> 0.11912307E+04</totfact>
</mgrwt>
</event>
<event>
 4    1  0.1390278E-004  0.6277729E+03  0.7818608E-02  0.9849404E-01
         -2   -1    0    0    0  501 -0.00000000000E+00  0.00000000000E+00  0.55278128803E+02  0.55278128861E+02  0.25500000000E-02 0. -1.
          2   -1    0    0  501    0  0.00000000000E+00 -0.00000000000E+00 -0.17823452304E+04  0.17823452304E+04  0.25500000000E-02 0.  1.
    5000001    1    1    2    0    0 -0.70008143934E+02  0.27797518475E+03 -0.90737977245E+03  0.96001999719E+03  0.12700000000E+03 0.  0.
   -5000001    1    1    2    0    0  0.70008143934E+02 -0.27797518475E+03 -0.81968732915E+03  0.87760336208E+03  0.12700000000E+03 0.  0.
<mgrwt>
<rscale>  0 0.62777292E+03</rscale>
<asrwt>0</asrwt>
<pdfrwt beam="1">  1        2 0.25462071E+00 0.62777292E+03</pdfrwt>
<pdfrwt beam="2">  1       -2 0.78968767E-02 0.62777292E+03</pdfrwt>
<totfact> 0.10657694E+03</totfact>
</mgrwt>
</event>
<event>
 4    1  0.1390278E-004  0.4231594E+03  0.7818608E-02  0.1036043E+00
          2   -1    0    0  501    0  0.00000000000E+00  0.00000000000E+00  0.40106686104E+03  0.40106686105E+03  0.25500000000E-02 0.  1.
         -2   -1    0    0    0  501 -0.00000000000E+00 -0.00000000000E+00 -0.11161724706E+03  0.11161724709E+03  0.25500000000E-02 0. -1.
    5000001    1    1    2    0    0 -0.11399297285E+03  0.12113350568E+03  0.18244421015E+03  0.27763755847E+03  0.12700000000E+03 0.  0.
   -5000001    1    1    2    0    0  0.11399297285E+03 -0.12113350568E+03  0.10700540384E+03  0.23504654966E+03  0.12700000000E+03 0.  0.
<mgrwt>
<rscale>  0 0.42315944E+03</rscale>
<asrwt>0</asrwt>
<pdfrwt beam="1">  1        2 0.57295266E-01 0.42315944E+03</pdfrwt>
<pdfrwt beam="2">  1       -2 0.15945321E-01 0.42315944E+03</pdfrwt>
<totfact> 0.26890438E+03</totfact>
</mgrwt>
</event>
<event>
 4    1  0.1390278E-004  0.5904713E+03  0.7818608E-02  0.9925375E-01
          2   -1    0    0  501    0  0.00000000000E+00  0.00000000000E+00  0.31594661275E+03  0.31594661276E+03  0.25500000000E-02 0.  1.
         -2   -1    0    0    0  501 -0.00000000000E+00 -0.00000000000E+00 -0.27588236061E+03  0.27588236062E+03  0.25500000000E-02 0. -1.
    5000001    1    1    2    0    0 -0.16302429297E+03  0.79659942080E+02  0.21570515201E+03  0.30916070105E+03  0.12700000000E+03 0.  0.
   -5000001    1    1    2    0    0  0.16302429297E+03 -0.79659942080E+02 -0.17564089988E+03  0.28266827233E+03  0.12700000000E+03 0.  0.
<mgrwt>
<rscale>  0 0.59047133E+03</rscale>
<asrwt>0</asrwt>
<pdfrwt beam="1">  1        2 0.45135231E-01 0.59047133E+03</pdfrwt>
<pdfrwt beam="2">  1       -2 0.39411766E-01 0.59047133E+03</pdfrwt>
<totfact> 0.68917385E+02</totfact>
</mgrwt>
</event>
<event>
 4    1  0.1390278E-004  0.3013740E+03  0.7818608E-02  0.1084556E+00
         -2   -1    0    0    0  501 -0.00000000000E+00  0.00000000000E+00  0.13728261752E+02  0.13728261988E+02  0.25500000000E-02 0. -1.
          2   -1    0    0  501    0  0.00000000000E+00 -0.00000000000E+00 -0.16540021531E+04  0.16540021531E+04  0.25500000000E-02 0.  1.
    5000001    1    1    2    0    0  0.31800530397E+02 -0.74398493243E+02 -0.78924432492E+03  0.80348118457E+03  0.12700000000E+03 0.  0.
   -5000001    1    1    2    0    0 -0.31800530397E+02  0.74398493243E+02 -0.85102956645E+03  0.86424923055E+03  0.12700000000E+03 0.  0.
<mgrwt>
<rscale>  0 0.30137402E+03</rscale>
<asrwt>0</asrwt>
<pdfrwt beam="1">  1        2 0.23628590E+00 0.30137402E+03</pdfrwt>
<pdfrwt beam="2">  1       -2 0.19611813E-02 0.30137402E+03</pdfrwt>
<totfact> 0.10413127E+04</totfact>
</mgrwt>
</event>
<event>
 4    1  0.1390278E-004  0.3423009E+03  0.7818608E-02  0.1065820E+00
          2   -1    0    0  501    0  0.00000000000E+00  0.00000000000E+00  0.55216963313E+03  0.55216963313E+03  0.25500000000E-02 0.  1.
         -2   -1    0    0    0  501 -0.00000000000E+00 -0.00000000000E+00 -0.53049787725E+02  0.53049787786E+02  0.25500000000E-02 0. -1.
    5000001    1    1    2    0    0  0.59167082536E+02 -0.98126299590E+02  0.23925519099E+03  0.29411147673E+03  0.12700000000E+03 0.  0.
   -5000001    1    1    2    0    0 -0.59167082536E+02  0.98126299590E+02  0.25986465441E+03  0.31110794419E+03  0.12700000000E+03 0.  0.
<mgrwt>
<rscale>  0 0.34230093E+03</rscale>
<asrwt>0</asrwt>
<pdfrwt beam="1">  1        2 0.78881380E-01 0.34230093E+03</pdfrwt>
<pdfrwt beam="2">  1       -2 0.75785408E-02 0.34230093E+03</pdfrwt>
<totfact> 0.62514273E+03</totfact>
</mgrwt>
</event>
<event>
 4    1  0.1390278E-004  0.5243099E+03  0.7818608E-02  0.1007621E+00
          2   -1    0    0  501    0  0.00000000000E+00  0.00000000000E+00  0.12604777966E+04  0.12604777966E+04  0.25500000000E-02 0.  1.
         -2   -1    0    0    0  501 -0.00000000000E+00 -0.00000000000E+00 -0.54523154110E+02  0.54523154169E+02  0.25500000000E-02 0. -1.
    5000001    1    1    2    0    0  0.10232150591E+03 -0.20270179149E+03  0.52215244037E+03  0.58337798882E+03  0.12700000000E+03 0.  0.
   -5000001    1    1    2    0    0 -0.10232150591E+03  0.20270179149E+03  0.68380220216E+03  0.73162296200E+03  0.12700000000E+03 0.  0.
<mgrwt>
<rscale>  0 0.52430993E+03</rscale>
<asrwt>0</asrwt>
<pdfrwt beam="1">  1        2 0.18006824E+00 0.52430993E+03</pdfrwt>
<pdfrwt beam="2">  1       -2 0.77890227E-02 0.52430993E+03</pdfrwt>
<totfact> 0.20453070E+03</totfact>
</mgrwt>
</event>
<event>
 4    1  0.1390278E-004  0.5728268E+03  0.7818608E-02  0.9963443E-01
          2   -1    0    0  501    0  0.00000000000E+00  0.00000000000E+00  0.36020312199E+04  0.36020312199E+04  0.25500000000E-02 0.  1.
         -2   -1    0    0    0  501 -0.00000000000E+00 -0.00000000000E+00 -0.22773996962E+02  0.22773997105E+02  0.25500000000E-02 0. -1.
    5000001    1    1    2    0    0  0.14153897629E+03 -0.19983512860E+03  0.13020790282E+04  0.13309793973E+04  0.12700000000E+03 0.  0.
   -5000001    1    1    2    0    0 -0.14153897629E+03  0.19983512860E+03  0.22771781948E+04  0.22938258197E+04  0.12700000000E+03 0.  0.
<mgrwt>
<rscale>  0 0.57282684E+03</rscale>
<asrwt>0</asrwt>
<pdfrwt beam="1">  1        2 0.51457553E+00 0.57282684E+03</pdfrwt>
<pdfrwt beam="2">  1       -2 0.32534304E-02 0.57282684E+03</pdfrwt>
<totfact> 0.45448989E+02</totfact>
</mgrwt>
</event>
<event>
 4    1  0.1390278E-004  0.4110319E+03  0.7818608E-02  0.1040025E+00
          2   -1    0    0  501    0  0.00000000000E+00  0.00000000000E+00  0.18605880734E+04  0.18605880734E+04  0.25500000000E-02 0.  1.
         -2   -1    0    0    0  501 -0.00000000000E+00 -0.00000000000E+00 -0.22700784305E+02  0.22700784449E+02  0.25500000000E-02 0. -1.
    5000001    1    1    2    0    0 -0.14828523675E+03 -0.56464013500E+02  0.10587550015E+04  0.10780852700E+04  0.12700000000E+03 0.  0.
   -5000001    1    1    2    0    0  0.14828523675E+03  0.56464013500E+02  0.77913228755E+03  0.80520358777E+03  0.12700000000E+03 0.  0.
<mgrwt>
<rscale>  0 0.41103191E+03</rscale>
<asrwt>0</asrwt>
<pdfrwt beam="1">  1        2 0.26579841E+00 0.41103191E+03</pdfrwt>
<pdfrwt beam="2">  1       -2 0.32429679E-02 0.41103191E+03</pdfrwt>
<totfact> 0.38916079E+03</totfact>
</mgrwt>
</event>
<event>
 4    1  0.1390278E-004  0.5549952E+03  0.7818608E-02  0.1000344E+00
          2   -1    0    0  501    0  0.00000000000E+00  0.00000000000E+00  0.19600433687E+03  0.19600433688E+03  0.25500000000E-02 0.  1.
         -2   -1    0    0    0  501 -0.00000000000E+00 -0.00000000000E+00 -0.39287357366E+03  0.39287357366E+03  0.25500000000E-02 0. -1.
    5000001    1    1    2    0    0  0.42316232686E+01 -0.19140696421E+03 -0.26356826276E+03  0.34964519404E+03  0.12700000000E+03 0.  0.
   -5000001    1    1    2    0    0 -0.42316232686E+01  0.19140696421E+03  0.66699025966E+02  0.23923271651E+03  0.12700000000E+03 0.  0.
<mgrwt>
<rscale>  0 0.55499522E+03</rscale>
<asrwt>0</asrwt>
<pdfrwt beam="1">  1        2 0.28000620E-01 0.55499522E+03</pdfrwt>
<pdfrwt beam="2">  1       -2 0.56124796E-01 0.55499522E+03</pdfrwt>
<totfact> 0.57784452E+02</totfact>
</mgrwt>
</event>
<event>
 4    1  0.1390278E-004  0.3261941E+03  0.7818608E-02  0.1072833E+00
          2   -1    0    0  501    0  0.00000000000E+00  0.00000000000E+00  0.28366747440E+03  0.28366747441E+03  0.25500000000E-02 0.  1.
         -2   -1    0    0    0  501 -0.00000000000E+00 -0.00000000000E+00 -0.93774049830E+02  0.93774049864E+02  0.25500000000E-02 0. -1.
    5000001    1    1    2    0    0 -0.74442433563E+02  0.67279050216E+02  0.71703503454E+02  0.17702694405E+03  0.12700000000E+03 0.  0.
   -5000001    1    1    2    0    0  0.74442433563E+02 -0.67279050216E+02  0.11818992112E+03  0.20041458022E+03  0.12700000000E+03 0.  0.
<mgrwt>
<rscale>  0 0.32619410E+03</rscale>
<asrwt>0</asrwt>
<pdfrwt beam="1">  1        2 0.40523926E-01 0.32619410E+03</pdfrwt>
<pdfrwt beam="2">  1       -2 0.13396293E-01 0.32619410E+03</pdfrwt>
<totfact> 0.52059391E+03</totfact>
</mgrwt>
</event>
<event>
 4    1  0.1390278E-004  0.4933334E+03  0.7818608E-02  0.1015534E+00
         -2   -1    0    0    0  501 -0.00000000000E+00  0.00000000000E+00  0.25312365055E+02  0.25312365184E+02  0.25500000000E-02 0. -1.
          2   -1    0    0  501    0  0.00000000000E+00 -0.00000000000E+00 -0.24037447629E+04  0.24037447629E+04  0.25500000000E-02 0.  1.
    5000001    1    1    2    0    0  0.14235291970E+03  0.14714767608E+03 -0.92873687510E+03  0.95947797031E+03  0.12700000000E+03 0.  0.
   -5000001    1    1    2    0    0 -0.14235291970E+03 -0.14714767608E+03 -0.14496955227E+04  0.14695791577E+04  0.12700000000E+03 0.  0.
<mgrwt>
<rscale>  0 0.49333342E+03</rscale>
<asrwt>0</asrwt>
<pdfrwt beam="1">  1        2 0.34339197E+00 0.49333342E+03</pdfrwt>
<pdfrwt beam="2">  1       -2 0.36160537E-02 0.49333342E+03</pdfrwt>
<totfact> 0.17621045E+03</totfact>
</mgrwt>
</event>
<event>
 4    1  0.1390278E-004  0.6281736E+03  0.7818608E-02  0.9848619E-01
         -2   -1    0    0    0  501 -0.00000000000E+00  0.00000000000E+00  0.40541329560E+03  0.40541329561E+03  0.25500000000E-02 0. -1.
          2   -1    0    0  501    0  0.00000000000E+00 -0.00000000000E+00 -0.24333319975E+03  0.24333319977E+03  0.25500000000E-02 0.  1.
    5000001    1    1    2    0    0  0.18771264881E+03 -0.49768728652E+02 -0.13757285692E+03  0.26975591900E+03  0.12700000000E+03 0.  0.
   -5000001    1    1    2    0    0 -0.18771264881E+03  0.49768728652E+02  0.29965295277E+03  0.37899057637E+03  0.12700000000E+03 0.  0.
<mgrwt>
<rscale>  0 0.62817359E+03</rscale>
<asrwt>0</asrwt>
<pdfrwt beam="1">  1        2 0.34761886E-01 0.62817359E+03</pdfrwt>
<pdfrwt beam="2">  1       -2 0.57916185E-01 0.62817359E+03</pdfrwt>
<totfact> 0.42427851E+02</totfact>
</mgrwt>
</event>
<event>
 4    1  0.1390278E-004  0.9818598E+03  0.7818608E-02  0.9328667E-01
         -2   -1    0    0    0  501 -0.00000000000E+00  0.00000000000E+00  0.71456201727E+03  0.71456201727E+03  0.25500000000E-02 0. -1.
          2   -1    0    0  501    0  0.00000000000E+00 -0.00000000000E+00 -0.33728654707E+03  0.33728654708E+03  0.25500000000E-02 0.  1.
    5000001    1    1    2    0    0 -0.20338714720E+03  0.39460247718E+03  0.36727445464E+03  0.58999743362E+03  0.12700000000E+03 0.  0.
   -5000001    1    1    2    0    0  0.20338714720E+03 -0.39460247718E+03  0.10001015550E+02  0.46185113073E+03  0.12700000000E+03 0.  0.
<mgrwt>
<rscale>  0 0.98185978E+03</rscale>
<asrwt>0</asrwt>
<pdfrwt beam="1">  1        2 0.48183793E-01 0.98185978E+03</pdfrwt>
<pdfrwt beam="2">  1       -2 0.10208029E+00 0.98185978E+03</pdfrwt>
<totfact> 0.82299605E+01</totfact>
</mgrwt>
</event>
<event>
 4    1  0.1390278E-004  0.6633451E+03  0.7818608E-02  0.9782055E-01
         -2   -1    0    0    0  501 -0.00000000000E+00  0.00000000000E+00  0.77220184716E+02  0.77220184758E+02  0.25500000000E-02 0. -1.
          2   -1    0    0  501    0  0.00000000000E+00 -0.00000000000E+00 -0.14245845801E+04  0.14245845801E+04  0.25500000000E-02 0.  1.
    5000001    1    1    2    0    0  0.24078873241E+03  0.12077078734E+03 -0.34316421525E+03  0.45437371772E+03  0.12700000000E+03 0.  0.
   -5000001    1    1    2    0    0 -0.24078873241E+03 -0.12077078734E+03 -0.10042001801E+04  0.10474310471E+04  0.12700000000E+03 0.  0.
<mgrwt>
<rscale>  0 0.66334511E+03</rscale>
<asrwt>0</asrwt>
<pdfrwt beam="1">  1        2 0.20351207E+00 0.66334511E+03</pdfrwt>
<pdfrwt beam="2">  1       -2 0.11031456E-01 0.66334511E+03</pdfrwt>
<totfact> 0.94881635E+02</totfact>
</mgrwt>
</event>
<event>
 4    1  0.1390278E-004  0.5184826E+03  0.7818608E-02  0.1009064E+00
         -2   -1    0    0    0  501 -0.00000000000E+00  0.00000000000E+00  0.53158949975E+02  0.53158950036E+02  0.25500000000E-02 0. -1.
          2   -1    0    0  501    0  0.00000000000E+00 -0.00000000000E+00 -0.12642470966E+04  0.12642470966E+04  0.25500000000E-02 0.  1.
    5000001    1    1    2    0    0  0.73619649612E+02 -0.21351947717E+03 -0.58480378785E+03  0.63963652978E+03  0.12700000000E+03 0.  0.
   -5000001    1    1    2    0    0 -0.73619649612E+02  0.21351947717E+03 -0.62628435876E+03  0.67776951685E+03  0.12700000000E+03 0.  0.
<mgrwt>
<rscale>  0 0.51848259E+03</rscale>
<asrwt>0</asrwt>
<pdfrwt beam="1">  1        2 0.18060671E+00 0.51848259E+03</pdfrwt>
<pdfrwt beam="2">  1       -2 0.75941365E-02 0.51848259E+03</pdfrwt>
<totfact> 0.21192202E+03</totfact>
</mgrwt>
</event>
<event>
 4    1  0.1390278E-004  0.4355933E+03  0.7818608E-02  0.1032108E+00
          2   -1    0    0  501    0  0.00000000000E+00  0.00000000000E+00  0.44377573838E+03  0.44377573839E+03  0.25500000000E-02 0.  1.
         -2   -1    0    0    0  501 -0.00000000000E+00 -0.00000000000E+00 -0.10689043953E+03  0.10689043956E+03  0.25500000000E-02 0. -1.
    5000001    1    1    2    0    0 -0.17040482091E+03 -0.45292914499E+02  0.18707080092E+03  0.28672937703E+03  0.12700000000E+03 0.  0.
   -5000001    1    1    2    0    0  0.17040482091E+03  0.45292914499E+02  0.14981449793E+03  0.26393680093E+03  0.12700000000E+03 0.  0.
<mgrwt>
<rscale>  0 0.43559331E+03</rscale>
<asrwt>0</asrwt>
<pdfrwt beam="1">  1        2 0.63396534E-01 0.43559331E+03</pdfrwt>
<pdfrwt beam="2">  1       -2 0.15270063E-01 0.43559331E+03</pdfrwt>
<totfact> 0.25869740E+03</totfact>
</mgrwt>
</event>
<event>
 4    1  0.1390278E-004  0.5734952E+03  0.7818608E-02  0.9961974E-01
          2   -1    0    0  501    0  0.00000000000E+00  0.00000000000E+00  0.97417580683E+03  0.97417580683E+03  0.25500000000E-02 0.  1.
         -2   -1    0    0    0  501 -0.00000000000E+00 -0.00000000000E+00 -0.84403853625E+02  0.84403853664E+02  0.25500000000E-02 0. -1.
    5000001    1    1    2    0    0  0.18784499751E+03 -0.17507892136E+03  0.42177091440E+03  0.50986083987E+03  0.12700000000E+03 0.  0.
   -5000001    1    1    2    0    0 -0.18784499751E+03  0.17507892136E+03  0.46800103880E+03  0.54871882063E+03  0.12700000000E+03 0.  0.
<mgrwt>
<rscale>  0 0.57349522E+03</rscale>
<asrwt>0</asrwt>
<pdfrwt beam="1">  1        2 0.13916797E+00 0.57349522E+03</pdfrwt>
<pdfrwt beam="2">  1       -2 0.12057694E-01 0.57349522E+03</pdfrwt>
<totfact> 0.14773629E+03</totfact>
</mgrwt>
</event>
<event>
 4    1  0.1390278E-004  0.4697841E+03  0.7818608E-02  0.1021981E+00
          2   -1    0    0  501    0  0.00000000000E+00  0.00000000000E+00  0.16793598148E+04  0.16793598148E+04  0.25500000000E-02 0. -1.
         -2   -1    0    0    0  501 -0.00000000000E+00 -0.00000000000E+00 -0.32854352849E+02  0.32854352948E+02  0.25500000000E-02 0.  1.
    5000001    1    1    2    0    0 -0.38000446596E+02  0.14924281359E+03  0.37202054303E+03  0.42219158659E+03  0.12700000000E+03 0.  0.
   -5000001    1    1    2    0    0  0.38000446596E+02 -0.14924281359E+03  0.12744849189E+04  0.12900225811E+04  0.12700000000E+03 0.  0.
<mgrwt>
<rscale>  0 0.46978412E+03</rscale>
<asrwt>0</asrwt>
<pdfrwt beam="1">  1        2 0.23990858E+00 0.46978412E+03</pdfrwt>
<pdfrwt beam="2">  1       -2 0.46934782E-02 0.46978412E+03</pdfrwt>
<totfact> 0.27276540E+03</totfact>
</mgrwt>
</event>
<event>
 4    1  0.1390278E-004  0.5039323E+03  0.7818608E-02  0.1012758E+00
          2   -1    0    0  501    0  0.00000000000E+00  0.00000000000E+00  0.14691461184E+04  0.14691461184E+04  0.25500000000E-02 0.  1.
         -2   -1    0    0    0  501 -0.00000000000E+00 -0.00000000000E+00 -0.43213491868E+02  0.43213491944E+02  0.25500000000E-02 0. -1.
    5000001    1    1    2    0    0 -0.14653904644E+03  0.14705184296E+03  0.90884516858E+03  0.94086474963E+03  0.12700000000E+03 0.  0.
   -5000001    1    1    2    0    0  0.14653904644E+03 -0.14705184296E+03  0.51708745797E+03  0.57149486073E+03  0.12700000000E+03 0.  0.
<mgrwt>
<rscale>  0 0.50393227E+03</rscale>
<asrwt>0</asrwt>
<pdfrwt beam="1">  1        2 0.20987804E+00 0.50393227E+03</pdfrwt>
<pdfrwt beam="2">  1       -2 0.61733553E-02 0.50393227E+03</pdfrwt>
<totfact> 0.22838848E+03</totfact>
</mgrwt>
</event>
<event>
 4    1  0.1390278E-004  0.5044403E+03  0.7818608E-02  0.1012626E+00
         -2   -1    0    0    0  501 -0.00000000000E+00  0.00000000000E+00  0.35753393550E+02  0.35753393641E+02  0.25500000000E-02 0. -1.
          2   -1    0    0  501    0  0.00000000000E+00 -0.00000000000E+00 -0.17792719068E+04  0.17792719068E+04  0.25500000000E-02 0.  1.
    5000001    1    1    2    0    0 -0.16388256989E+03 -0.13948529004E+03 -0.99495749250E+03  0.10258572292E+04  0.12700000000E+03 0.  0.
   -5000001    1    1    2    0    0  0.16388256989E+03  0.13948529004E+03 -0.74856102070E+03  0.78916807118E+03  0.12700000000E+03 0.  0.
<mgrwt>
<rscale>  0 0.50444032E+03</rscale>
<asrwt>0</asrwt>
<pdfrwt beam="1">  1        2 0.25418165E+00 0.50444032E+03</pdfrwt>
<pdfrwt beam="2">  1       -2 0.51076288E-02 0.50444032E+03</pdfrwt>
<totfact> 0.21302210E+03</totfact>
</mgrwt>
</event>
<event>
 4    1  0.1390278E-004  0.5103772E+03  0.7818608E-02  0.1011105E+00
         -2   -1    0    0    0  501 -0.00000000000E+00  0.00000000000E+00  0.30030338301E+03  0.30030338302E+03  0.25500000000E-02 0. -1.
          2   -1    0    0  501    0  0.00000000000E+00 -0.00000000000E+00 -0.21685142872E+03  0.21685142873E+03  0.25500000000E-02 0.  1.
    5000001    1    1    2    0    0 -0.18738221521E+03  0.11460046373E+03  0.14034381172E+02  0.25410888359E+03  0.12700000000E+03 0.  0.
   -5000001    1    1    2    0    0  0.18738221521E+03 -0.11460046373E+03  0.69417573121E+02  0.26304592816E+03  0.12700000000E+03 0.  0.
<mgrwt>
<rscale>  0 0.51037718E+03</rscale>
<asrwt>0</asrwt>
<pdfrwt beam="1">  1        2 0.30978775E-01 0.51037718E+03</pdfrwt>
<pdfrwt beam="2">  1       -2 0.42900483E-01 0.51037718E+03</pdfrwt>
<totfact> 0.88675734E+02</totfact>
</mgrwt>
</event>
<event>
 4    1  0.1390278E-004  0.5262809E+03  0.7818608E-02  0.1007138E+00
         -2   -1    0    0    0  501 -0.00000000000E+00  0.00000000000E+00  0.14271313908E+03  0.14271313911E+03  0.25500000000E-02 0. -1.
          2   -1    0    0  501    0  0.00000000000E+00 -0.00000000000E+00 -0.48518943783E+03  0.48518943783E+03  0.25500000000E-02 0.  1.
    5000001    1    1    2    0    0  0.88065691051E+02  0.75637413942E+02 -0.40877269584E+03  0.44350952773E+03  0.12700000000E+03 0.  0.
   -5000001    1    1    2    0    0 -0.88065691051E+02 -0.75637413942E+02  0.66296397093E+02  0.18439304921E+03  0.12700000000E+03 0.  0.
<mgrwt>
<rscale>  0 0.52628094E+03</rscale>
<asrwt>0</asrwt>
<pdfrwt beam="1">  1        2 0.69312776E-01 0.52628094E+03</pdfrwt>
<pdfrwt beam="2">  1       -2 0.20387592E-01 0.52628094E+03</pdfrwt>
<totfact> 0.14314884E+03</totfact>
</mgrwt>
</event>
<event>
 4    1  0.1390278E-004  0.7172603E+03  0.7818608E-02  0.9688162E-01
         -2   -1    0    0    0  501 -0.00000000000E+00  0.00000000000E+00  0.32681367339E+02  0.32681367439E+02  0.25500000000E-02 0. -1.
          2   -1    0    0  501    0  0.00000000000E+00 -0.00000000000E+00 -0.39354405145E+04  0.39354405145E+04  0.25500000000E-02 0.  1.
    5000001    1    1    2    0    0 -0.52142513624E+02 -0.32863191695E+03 -0.21840533457E+04  0.22129021206E+04  0.12700000000E+03 0.  0.
   -5000001    1    1    2    0    0  0.52142513624E+02  0.32863191695E+03 -0.17187058015E+04  0.17552197614E+04  0.12700000000E+03 0.  0.
<mgrwt>
<rscale>  0 0.71726028E+03</rscale>
<asrwt>0</asrwt>
<pdfrwt beam="1">  1        2 0.56220548E+00 0.71726028E+03</pdfrwt>
<pdfrwt beam="2">  1       -2 0.46687693E-02 0.71726028E+03</pdfrwt>
<totfact> 0.15766021E+02</totfact>
</mgrwt>
</event>
<event>
 4    1  0.1390278E-004  0.7171551E+03  0.7818608E-02  0.9688336E-01
         -2   -1    0    0    0  501 -0.00000000000E+00  0.00000000000E+00  0.60324840023E+02  0.60324840077E+02  0.25500000000E-02 0. -1.
          2   -1    0    0  501    0  0.00000000000E+00 -0.00000000000E+00 -0.21314249249E+04  0.21314249249E+04  0.25500000000E-02 0.  1.
    5000001    1    1    2    0    0  0.13416587848E+03 -0.30172803590E+03 -0.85712146081E+03  0.92726829407E+03  0.12700000000E+03 0.  0.
   -5000001    1    1    2    0    0 -0.13416587848E+03  0.30172803590E+03 -0.12139786241E+04  0.12644814709E+04  0.12700000000E+03 0.  0.
<mgrwt>
<rscale>  0 0.71715512E+03</rscale>
<asrwt>0</asrwt>
<pdfrwt beam="1">  1        2 0.30448923E+00 0.71715512E+03</pdfrwt>
<pdfrwt beam="2">  1       -2 0.86178357E-02 0.71715512E+03</pdfrwt>
<totfact> 0.61436102E+02</totfact>
</mgrwt>
</event>
<event>
 4    1  0.1390278E-004  0.2935968E+03  0.7818608E-02  0.1088486E+00
         -2   -1    0    0    0  501 -0.00000000000E+00  0.00000000000E+00  0.11445884497E+02  0.11445884782E+02  0.25500000000E-02 0. -1.
          2   -1    0    0  501    0  0.00000000000E+00 -0.00000000000E+00 -0.18827532626E+04  0.18827532626E+04  0.25500000000E-02 0.  1.
    5000001    1    1    2    0    0  0.33113742535E+02 -0.20430465873E+02 -0.13389161323E+04  0.13454885110E+04  0.12700000000E+03 0.  0.
   -5000001    1    1    2    0    0 -0.33113742535E+02  0.20430465873E+02 -0.53239124579E+03  0.54871063638E+03  0.12700000000E+03 0.  0.
<mgrwt>
<rscale>  0 0.29359684E+03</rscale>
<asrwt>0</asrwt>
<pdfrwt beam="1">  1        2 0.26896455E+00 0.29359684E+03</pdfrwt>
<pdfrwt beam="2">  1       -2 0.16351276E-02 0.29359684E+03</pdfrwt>
<totfact> 0.10491894E+04</totfact>
</mgrwt>
</event>
<event>
 4    1  0.1390278E-004  0.3052700E+03  0.7818608E-02  0.1082635E+00
          2   -1    0    0  501    0  0.00000000000E+00  0.00000000000E+00  0.56116778290E+02  0.56116778348E+02  0.25500000000E-02 0. -1.
         -2   -1    0    0    0  501 -0.00000000000E+00 -0.00000000000E+00 -0.41516012326E+03  0.41516012327E+03  0.25500000000E-02 0.  1.
    5000001    1    1    2    0    0  0.66543208641E+02  0.14402321094E+01 -0.98735227842E+02  0.17409112011E+03  0.12700000000E+03 0.  0.
   -5000001    1    1    2    0    0 -0.66543208641E+02 -0.14402321094E+01 -0.26030811713E+03  0.29718578150E+03  0.12700000000E+03 0.  0.
<mgrwt>
<rscale>  0 0.30527004E+03</rscale>
<asrwt>0</asrwt>
<pdfrwt beam="1">  1        2 0.80166829E-02 0.30527004E+03</pdfrwt>
<pdfrwt beam="2">  1       -2 0.59308587E-01 0.30527004E+03</pdfrwt>
<totfact> 0.23010777E+03</totfact>
</mgrwt>
</event>
<event>
 4    1  0.1390278E-004  0.3072429E+03  0.7818608E-02  0.1081675E+00
         -2   -1    0    0    0  501 -0.00000000000E+00  0.00000000000E+00  0.30812258922E+02  0.30812259028E+02  0.25500000000E-02 0. -1.
          2   -1    0    0  501    0  0.00000000000E+00 -0.00000000000E+00 -0.76591434665E+03  0.76591434666E+03  0.25500000000E-02 0.  1.
    5000001    1    1    2    0    0 -0.71615455272E+02 -0.41433147220E+02 -0.30271858342E+03  0.33854544727E+03  0.12700000000E+03 0.  0.
   -5000001    1    1    2    0    0  0.71615455272E+02  0.41433147220E+02 -0.43238350432E+03  0.45818115842E+03  0.12700000000E+03 0.  0.
<mgrwt>
<rscale>  0 0.30724291E+03</rscale>
<asrwt>0</asrwt>
<pdfrwt beam="1">  1        2 0.10941632E+00 0.30724291E+03</pdfrwt>
<pdfrwt beam="2">  1       -2 0.44017517E-02 0.30724291E+03</pdfrwt>
<totfact> 0.97900765E+03</totfact>
</mgrwt>
</event>
<event>
 4    1  0.1390278E-004  0.3860120E+03  0.7818608E-02  0.1048734E+00
          2   -1    0    0  501    0  0.00000000000E+00  0.00000000000E+00  0.13802506330E+04  0.13802506330E+04  0.25500000000E-02 0.  1.
         -2   -1    0    0    0  501 -0.00000000000E+00 -0.00000000000E+00 -0.26988802635E+02  0.26988802755E+02  0.25500000000E-02 0. -1.
    5000001    1    1    2    0    0 -0.10523631238E+03  0.90557467488E+02  0.51995660220E+03  0.55295497514E+03  0.12700000000E+03 0.  0.
   -5000001    1    1    2    0    0  0.10523631238E+03 -0.90557467488E+02  0.83330522815E+03  0.85428446060E+03  0.12700000000E+03 0.  0.
<mgrwt>
<rscale>  0 0.38601198E+03</rscale>
<asrwt>0</asrwt>
<pdfrwt beam="1">  1        2 0.19717871E+00 0.38601198E+03</pdfrwt>
<pdfrwt beam="2">  1       -2 0.38555422E-02 0.38601198E+03</pdfrwt>
<totfact> 0.52445130E+03</totfact>
</mgrwt>
</event>
<event>
 4    1  0.1390278E-004  0.5002727E+03  0.7818608E-02  0.1013708E+00
          2   -1    0    0  501    0  0.00000000000E+00  0.00000000000E+00  0.12404376901E+04  0.12404376901E+04  0.25500000000E-02 0.  1.
         -2   -1    0    0    0  501 -0.00000000000E+00 -0.00000000000E+00 -0.50440419220E+02  0.50440419284E+02  0.25500000000E-02 0. -1.
    5000001    1    1    2    0    0  0.15027923342E+03  0.13711245284E+03  0.41153012865E+03  0.47630842897E+03  0.12700000000E+03 0.  0.
   -5000001    1    1    2    0    0 -0.15027923342E+03 -0.13711245284E+03  0.77846714220E+03  0.81456968039E+03  0.12700000000E+03 0.  0.
<mgrwt>
<rscale>  0 0.50027271E+03</rscale>
<asrwt>0</asrwt>
<pdfrwt beam="1">  1        2 0.17720537E+00 0.50027271E+03</pdfrwt>
<pdfrwt beam="2">  1       -2 0.72057747E-02 0.50027271E+03</pdfrwt>
<totfact> 0.23732256E+03</totfact>
</mgrwt>
</event>
<event>
 4    1  0.1390278E-004  0.2888595E+03  0.7818608E-02  0.1090946E+00
         -2   -1    0    0    0  501 -0.00000000000E+00  0.00000000000E+00  0.25299163809E+02  0.25299163938E+02  0.25500000000E-02 0. -1.
          2   -1    0    0  501    0  0.00000000000E+00 -0.00000000000E+00 -0.82453157956E+03  0.82453157957E+03  0.25500000000E-02 0.  1.
    5000001    1    1    2    0    0 -0.47687476793E+02  0.32673263027E+02 -0.28995647924E+03  0.32178470661E+03  0.12700000000E+03 0.  0.
   -5000001    1    1    2    0    0  0.47687476793E+02 -0.32673263027E+02 -0.50927593652E+03  0.52804603689E+03  0.12700000000E+03 0.  0.
<mgrwt>
<rscale>  0 0.28885955E+03</rscale>
<asrwt>0</asrwt>
<pdfrwt beam="1">  1        2 0.11779021E+00 0.28885955E+03</pdfrwt>
<pdfrwt beam="2">  1       -2 0.36141668E-02 0.28885955E+03</pdfrwt>
<totfact> 0.12001417E+04</totfact>
</mgrwt>
</event>
<event>
 4    1  0.1390278E-004  0.3226003E+03  0.7818608E-02  0.1074459E+00
         -2   -1    0    0    0  501 -0.00000000000E+00  0.00000000000E+00  0.18488094848E+02  0.18488095024E+02  0.25500000000E-02 0. -1.
          2   -1    0    0  501    0  0.00000000000E+00 -0.00000000000E+00 -0.14072702249E+04  0.14072702249E+04  0.25500000000E-02 0.  1.
    5000001    1    1    2    0    0 -0.83269454466E+02  0.39506242469E+02 -0.52936837162E+03  0.55213623148E+03  0.12700000000E+03 0.  0.
   -5000001    1    1    2    0    0  0.83269454466E+02 -0.39506242469E+02 -0.85941375846E+03  0.87362208848E+03  0.12700000000E+03 0.  0.
<mgrwt>
<rscale>  0 0.32260034E+03</rscale>
<asrwt>0</asrwt>
<pdfrwt beam="1">  1        2 0.20103854E+00 0.32260034E+03</pdfrwt>
<pdfrwt beam="2">  1       -2 0.26411573E-02 0.32260034E+03</pdfrwt>
<totfact> 0.89417444E+03</totfact>
</mgrwt>
</event>
<event>
 4    1  0.1390278E-004  0.3105325E+03  0.7818608E-02  0.1080091E+00
         -2   -1    0    0    0  501 -0.00000000000E+00  0.00000000000E+00  0.10943220570E+02  0.10943220867E+02  0.25500000000E-02 0. -1.
          2   -1    0    0  501    0  0.00000000000E+00 -0.00000000000E+00 -0.22029718944E+04  0.22029718944E+04  0.25500000000E-02 0.  1.
    5000001    1    1    2    0    0 -0.52162492816E+01  0.88837113904E+02 -0.10410828432E+04  0.10525691086E+04  0.12700000000E+03 0.  0.
   -5000001    1    1    2    0    0  0.52162492816E+01 -0.88837113904E+02 -0.11509458307E+04  0.11613460067E+04  0.12700000000E+03 0.  0.
<mgrwt>
<rscale>  0 0.31053250E+03</rscale>
<asrwt>0</asrwt>
<pdfrwt beam="1">  1        2 0.31470999E+00 0.31053250E+03</pdfrwt>
<pdfrwt beam="2">  1       -2 0.15633186E-02 0.31053250E+03</pdfrwt>
<totfact> 0.78149525E+03</totfact>
</mgrwt>
</event>
<event>
 4    1  0.1390278E-004  0.4429311E+03  0.7818608E-02  0.1029851E+00
          2   -1    0    0  501    0  0.00000000000E+00  0.00000000000E+00  0.11338795801E+04  0.11338795801E+04  0.25500000000E-02 0.  1.
         -2   -1    0    0    0  501 -0.00000000000E+00 -0.00000000000E+00 -0.43255905837E+02  0.43255905912E+02  0.25500000000E-02 0. -1.
    5000001    1    1    2    0    0  0.12988265443E+03  0.84164486965E+02  0.29368256697E+03  0.35543158966E+03  0.12700000000E+03 0.  0.
   -5000001    1    1    2    0    0 -0.12988265443E+03 -0.84164486965E+02  0.79694110733E+03  0.82170389639E+03  0.12700000000E+03 0.  0.
<mgrwt>
<rscale>  0 0.44293109E+03</rscale>
<asrwt>0</asrwt>
<pdfrwt beam="1">  1        2 0.16198280E+00 0.44293109E+03</pdfrwt>
<pdfrwt beam="2">  1       -2 0.61794149E-02 0.44293109E+03</pdfrwt>
<totfact> 0.34622491E+03</totfact>
</mgrwt>
</event>
<event>
 4    1  0.1390278E-004  0.2985225E+03  0.7818608E-02  0.1085982E+00
          2   -1    0    0  501    0  0.00000000000E+00  0.00000000000E+00  0.46635236783E+03  0.46635236784E+03  0.25500000000E-02 0.  1.
         -2   -1    0    0    0  501 -0.00000000000E+00 -0.00000000000E+00 -0.47772705373E+02  0.47772705441E+02  0.25500000000E-02 0. -1.
    5000001    1    1    2    0    0  0.75864639593E+02  0.10533091039E+02  0.23828911409E+03  0.28067256981E+03  0.12700000000E+03 0.  0.
   -5000001    1    1    2    0    0 -0.75864639593E+02 -0.10533091039E+02  0.18029054837E+03  0.23345250347E+03  0.12700000000E+03 0.  0.
<mgrwt>
<rscale>  0 0.29852246E+03</rscale>
<asrwt>0</asrwt>
<pdfrwt beam="1">  1        2 0.66621764E-01 0.29852246E+03</pdfrwt>
<pdfrwt beam="2">  1       -2 0.68246725E-02 0.29852246E+03</pdfrwt>
<totfact> 0.88461077E+03</totfact>
</mgrwt>
</event>
<event>
 4    1  0.1390278E-004  0.2715450E+03  0.7818608E-02  0.1100399E+00
          2   -1    0    0  501    0  0.00000000000E+00  0.00000000000E+00  0.52147826773E+03  0.52147826774E+03  0.25500000000E-02 0.  1.
         -2   -1    0    0    0  501 -0.00000000000E+00 -0.00000000000E+00 -0.35349826888E+02  0.35349826980E+02  0.25500000000E-02 0. -1.
    5000001    1    1    2    0    0  0.19810819882E+00 -0.43165982135E+02  0.19996150213E+03  0.24078401856E+03  0.12700000000E+03 0.  0.
   -5000001    1    1    2    0    0 -0.19810819882E+00  0.43165982135E+02  0.28616693871E+03  0.31604407615E+03  0.12700000000E+03 0.  0.
<mgrwt>
<rscale>  0 0.27154496E+03</rscale>
<asrwt>0</asrwt>
<pdfrwt beam="1">  1        2 0.74496887E-01 0.27154496E+03</pdfrwt>
<pdfrwt beam="2">  1       -2 0.50499758E-02 0.27154496E+03</pdfrwt>
<totfact> 0.12362503E+04</totfact>
</mgrwt>
</event>
<event>
 4    1  0.1390278E-004  0.3137702E+03  0.7818608E-02  0.1078553E+00
          2   -1    0    0  501    0  0.00000000000E+00  0.00000000000E+00  0.78048882816E+03  0.78048882816E+03  0.25500000000E-02 0.  1.
         -2   -1    0    0    0  501 -0.00000000000E+00 -0.00000000000E+00 -0.31535287983E+02  0.31535288086E+02  0.25500000000E-02 0. -1.
    5000001    1    1    2    0    0  0.27866655976E+02 -0.82798065179E+02  0.29894253764E+03  0.33634463118E+03  0.12700000000E+03 0.  0.
   -5000001    1    1    2    0    0 -0.27866655976E+02  0.82798065179E+02  0.45001100254E+03  0.47567948507E+03  0.12700000000E+03 0.  0.
<mgrwt>
<rscale>  0 0.31377023E+03</rscale>
<asrwt>0</asrwt>
<pdfrwt beam="1">  1        2 0.11149840E+00 0.31377023E+03</pdfrwt>
<pdfrwt beam="2">  1       -2 0.45050415E-02 0.31377023E+03</pdfrwt>
<totfact> 0.92413084E+03</totfact>
</mgrwt>
</event>
<event>
 4    1  0.1390278E-004  0.5652827E+03  0.7818608E-02  0.9980172E-01
         -2   -1    0    0    0  501 -0.00000000000E+00  0.00000000000E+00  0.18937270561E+02  0.18937270733E+02  0.25500000000E-02 0. -1.
          2   -1    0    0  501    0  0.00000000000E+00 -0.00000000000E+00 -0.42184611545E+04  0.42184611545E+04  0.25500000000E-02 0.  1.
    5000001    1    1    2    0    0 -0.25040627015E+03 -0.32396078126E+02 -0.21153685228E+04  0.21341662994E+04  0.12700000000E+03 0.  0.
   -5000001    1    1    2    0    0  0.25040627015E+03  0.32396078126E+02 -0.20841553611E+04  0.21032321259E+04  0.12700000000E+03 0.  0.
<mgrwt>
<rscale>  0 0.56528273E+03</rscale>
<asrwt>0</asrwt>
<pdfrwt beam="1">  1        2 0.60263671E+00 0.56528273E+03</pdfrwt>
<pdfrwt beam="2">  1       -2 0.27053271E-02 0.56528273E+03</pdfrwt>
<totfact> 0.23836952E+02</totfact>
</mgrwt>
</event>
<event>
 4    1  0.1390278E-004  0.6096679E+03  0.7818608E-02  0.9885549E-01
          2   -1    0    0  501    0  0.00000000000E+00  0.00000000000E+00  0.12748379281E+04  0.12748379281E+04  0.25500000000E-02 0.  1.
         -2   -1    0    0    0  501 -0.00000000000E+00 -0.00000000000E+00 -0.72890639748E+02  0.72890639792E+02  0.25500000000E-02 0. -1.
    5000001    1    1    2    0    0  0.23790988037E+03 -0.13739220007E+03  0.68119795118E+03  0.74541087765E+03  0.12700000000E+03 0.  0.
   -5000001    1    1    2    0    0 -0.23790988037E+03  0.13739220007E+03  0.52074933714E+03  0.60231769022E+03  0.12700000000E+03 0.  0.
<mgrwt>
<rscale>  0 0.60966795E+03</rscale>
<asrwt>0</asrwt>
<pdfrwt beam="1">  1        2 0.18211968E+00 0.60966795E+03</pdfrwt>
<pdfrwt beam="2">  1       -2 0.10412950E-01 0.60966795E+03</pdfrwt>
<totfact> 0.12576096E+03</totfact>
</mgrwt>
</event>
<event>
 4    1  0.1390278E-004  0.6619926E+03  0.7818608E-02  0.9784532E-01
          2   -1    0    0  501    0  0.00000000000E+00  0.00000000000E+00  0.17804840770E+04  0.17804840770E+04  0.25500000000E-02 0.  1.
         -2   -1    0    0    0  501 -0.00000000000E+00 -0.00000000000E+00 -0.61533021510E+02  0.61533021563E+02  0.25500000000E-02 0. -1.
    5000001    1    1    2    0    0 -0.30127681338E+03  0.20721935355E+01  0.10029192162E+04  0.10548686963E+04  0.12700000000E+03 0.  0.
   -5000001    1    1    2    0    0  0.30127681338E+03 -0.20721935355E+01  0.71603183927E+03  0.78714840221E+03  0.12700000000E+03 0.  0.
<mgrwt>
<rscale>  0 0.66199264E+03</rscale>
<asrwt>0</asrwt>
<pdfrwt beam="1">  1        2 0.25435490E+00 0.66199264E+03</pdfrwt>
<pdfrwt beam="2">  1       -2 0.87904307E-02 0.66199264E+03</pdfrwt>
<totfact> 0.89813067E+02</totfact>
</mgrwt>
</event>
<event>
 4    1  0.1390278E-004  0.2698554E+03  0.7818608E-02  0.1101362E+00
         -2   -1    0    0    0  501 -0.00000000000E+00  0.00000000000E+00  0.11463382685E+03  0.11463382688E+03  0.25500000000E-02 0. -1.
          2   -1    0    0  501    0  0.00000000000E+00 -0.00000000000E+00 -0.15881429476E+03  0.15881429478E+03  0.25500000000E-02 0.  1.
    5000001    1    1    2    0    0  0.43872631077E+02 -0.10060972622E+02 -0.29288286302E+02  0.13788703580E+03  0.12700000000E+03 0.  0.
   -5000001    1    1    2    0    0 -0.43872631077E+02  0.10060972622E+02 -0.14892181607E+02  0.13556108586E+03  0.12700000000E+03 0.  0.
<mgrwt>
<rscale>  0 0.26985545E+03</rscale>
<asrwt>0</asrwt>
<pdfrwt beam="1">  1        2 0.22687756E-01 0.26985545E+03</pdfrwt>
<pdfrwt beam="2">  1       -2 0.16376261E-01 0.26985545E+03</pdfrwt>
<totfact> 0.70310023E+03</totfact>
</mgrwt>
</event>
<event>
 4    1  0.1390278E-004  0.3632281E+03  0.7818608E-02  0.1057313E+00
          2   -1    0    0  501    0  0.00000000000E+00  0.00000000000E+00  0.16965591976E+04  0.16965591976E+04  0.25500000000E-02 0.  1.
         -2   -1    0    0    0  501 -0.00000000000E+00 -0.00000000000E+00 -0.19441504845E+02  0.19441505012E+02  0.25500000000E-02 0. -1.
    5000001    1    1    2    0    0 -0.82482609726E+02  0.38367781536E+02  0.12761427344E+04  0.12856689878E+04  0.12700000000E+03 0.  0.
   -5000001    1    1    2    0    0  0.82482609726E+02 -0.38367781536E+02  0.40097495834E+03  0.43033171482E+03  0.12700000000E+03 0.  0.
<mgrwt>
<rscale>  0 0.36322810E+03</rscale>
<asrwt>0</asrwt>
<pdfrwt beam="1">  1        2 0.24236560E+00 0.36322810E+03</pdfrwt>
<pdfrwt beam="2">  1       -2 0.27773578E-02 0.36322810E+03</pdfrwt>
<totfact> 0.59281236E+03</totfact>
</mgrwt>
</event>
<event>
 4    1  0.1390278E-004  0.4471945E+03  0.7818608E-02  0.1028562E+00
         -2   -1    0    0    0  501 -0.00000000000E+00  0.00000000000E+00  0.24435736193E+02  0.24435736326E+02  0.25500000000E-02 0. -1.
          2   -1    0    0  501    0  0.00000000000E+00 -0.00000000000E+00 -0.20460084876E+04  0.20460084876E+04  0.25500000000E-02 0.  1.
    5000001    1    1    2    0    0  0.16636186565E+03  0.43273582937E+02 -0.70655716630E+03  0.73817403272E+03  0.12700000000E+03 0.  0.
   -5000001    1    1    2    0    0 -0.16636186565E+03 -0.43273582937E+02 -0.13150155851E+04  0.13322701912E+04  0.12700000000E+03 0.  0.
<mgrwt>
<rscale>  0 0.44719447E+03</rscale>
<asrwt>0</asrwt>
<pdfrwt beam="1">  1        2 0.29228682E+00 0.44719447E+03</pdfrwt>
<pdfrwt beam="2">  1       -2 0.34908208E-02 0.44719447E+03</pdfrwt>
<totfact> 0.28138807E+03</totfact>
</mgrwt>
</event>
<event>
 4    1  0.1390278E-004  0.6807270E+03  0.7818608E-02  0.9750771E-01
         -2   -1    0    0    0  501 -0.00000000000E+00  0.00000000000E+00  0.35595369350E+02  0.35595369441E+02  0.25500000000E-02 0. -1.
          2   -1    0    0  501    0  0.00000000000E+00 -0.00000000000E+00 -0.32545609946E+04  0.32545609946E+04  0.25500000000E-02 0.  1.
    5000001    1    1    2    0    0 -0.23087668089E+03 -0.18783034966E+03 -0.10994835386E+04  0.11461140143E+04  0.12700000000E+03 0.  0.
   -5000001    1    1    2    0    0  0.23087668089E+03  0.18783034966E+03 -0.21194820866E+04  0.21440423498E+04  0.12700000000E+03 0.  0.
<mgrwt>
<rscale>  0 0.68072697E+03</rscale>
<asrwt>0</asrwt>
<pdfrwt beam="1">  1        2 0.46493710E+00 0.68072697E+03</pdfrwt>
<pdfrwt beam="2">  1       -2 0.50850548E-02 0.68072697E+03</pdfrwt>
<totfact> 0.36094673E+02</totfact>
</mgrwt>
</event>
<event>
 4    1  0.1390278E-004  0.3551840E+03  0.7818608E-02  0.1060507E+00
          2   -1    0    0  501    0  0.00000000000E+00  0.00000000000E+00  0.87596606714E+03  0.87596606714E+03  0.25500000000E-02 0.  1.
         -2   -1    0    0    0  501 -0.00000000000E+00 -0.00000000000E+00 -0.36004733135E+02  0.36004733225E+02  0.25500000000E-02 0. -1.
    5000001    1    1    2    0    0 -0.32639028534E+02 -0.11971271210E+03  0.41055197606E+03  0.44730120128E+03  0.12700000000E+03 0.  0.
   -5000001    1    1    2    0    0  0.32639028534E+02  0.11971271210E+03  0.42940935795E+03  0.46466959909E+03  0.12700000000E+03 0.  0.
<mgrwt>
<rscale>  0 0.35518403E+03</rscale>
<asrwt>0</asrwt>
<pdfrwt beam="1">  1        2 0.12513799E+00 0.35518403E+03</pdfrwt>
<pdfrwt beam="2">  1       -2 0.51435341E-02 0.35518403E+03</pdfrwt>
<totfact> 0.65467514E+03</totfact>
</mgrwt>
</event>
<event>
 4    1  0.1390278E-004  0.3129798E+03  0.7818608E-02  0.1078926E+00
         -2   -1    0    0    0  501 -0.00000000000E+00  0.00000000000E+00  0.92841880156E+01  0.92841883658E+01  0.25500000000E-02 0. -1.
          2   -1    0    0  501    0  0.00000000000E+00 -0.00000000000E+00 -0.26377206477E+04  0.26377206477E+04  0.25500000000E-02 0.  1.
    5000001    1    1    2    0    0 -0.83090150055E+02 -0.31373865344E+02 -0.11305142954E+04  0.11410871415E+04  0.12700000000E+03 0.  0.
   -5000001    1    1    2    0    0  0.83090150055E+02  0.31373865344E+02 -0.14979221643E+04  0.15059176945E+04  0.12700000000E+03 0.  0.
<mgrwt>
<rscale>  0 0.31297984E+03</rscale>
<asrwt>0</asrwt>
<pdfrwt beam="1">  1        2 0.37681676E+00 0.31297984E+03</pdfrwt>
<pdfrwt beam="2">  1       -2 0.13263143E-02 0.31297984E+03</pdfrwt>
<totfact> 0.60367569E+03</totfact>
</mgrwt>
</event>
<event>
 4    1  0.1390278E-004  0.7858383E+03  0.7818608E-02  0.9580745E-01
          2   -1    0    0  501    0  0.00000000000E+00  0.00000000000E+00  0.16312558307E+04  0.16312558307E+04  0.25500000000E-02 0.  1.
         -2   -1    0    0    0  501 -0.00000000000E+00 -0.00000000000E+00 -0.94642086385E+02  0.94642086419E+02  0.25500000000E-02 0. -1.
    5000001    1    1    2    0    0 -0.12537265354E+03  0.19878246215E+03  0.13548290012E+03  0.29952860587E+03  0.12700000000E+03 0.  0.
   -5000001    1    1    2    0    0  0.12537265354E+03 -0.19878246215E+03  0.14011308442E+04  0.14263693113E+04  0.12700000000E+03 0.  0.
<mgrwt>
<rscale>  0 0.78583829E+03</rscale>
<asrwt>0</asrwt>
<pdfrwt beam="1">  1        2 0.23303653E+00 0.78583829E+03</pdfrwt>
<pdfrwt beam="2">  1       -2 0.13520299E-01 0.78583829E+03</pdfrwt>
<totfact> 0.52525408E+02</totfact>
</mgrwt>
</event>
<event>
 4    1  0.1390278E-004  0.4714257E+03  0.7818608E-02  0.1021519E+00
          2   -1    0    0  501    0  0.00000000000E+00  0.00000000000E+00  0.55599726331E+03  0.55599726332E+03  0.25500000000E-02 0.  1.
         -2   -1    0    0    0  501 -0.00000000000E+00 -0.00000000000E+00 -0.99929552759E+02  0.99929552791E+02  0.25500000000E-02 0. -1.
    5000001    1    1    2    0    0  0.19495103843E+03 -0.15995911970E+02  0.27562152364E+03  0.36105124412E+03  0.12700000000E+03 0.  0.
   -5000001    1    1    2    0    0 -0.19495103843E+03  0.15995911970E+02  0.18044618691E+03  0.29487557199E+03  0.12700000000E+03 0.  0.
<mgrwt>
<rscale>  0 0.47142574E+03</rscale>
<asrwt>0</asrwt>
<pdfrwt beam="1">  1        2 0.79428181E-01 0.47142574E+03</pdfrwt>
<pdfrwt beam="2">  1       -2 0.14275650E-01 0.47142574E+03</pdfrwt>
<totfact> 0.22470577E+03</totfact>
</mgrwt>
</event>
<event>
 4    1  0.1390278E-004  0.3525966E+03  0.7818608E-02  0.1061554E+00
          2   -1    0    0  501    0  0.00000000000E+00  0.00000000000E+00  0.21296520876E+04  0.21296520876E+04  0.25500000000E-02 0.  1.
         -2   -1    0    0    0  501 -0.00000000000E+00 -0.00000000000E+00 -0.14594445996E+02  0.14594446219E+02  0.25500000000E-02 0. -1.
    5000001    1    1    2    0    0 -0.11658467217E+03  0.36068259731E+02  0.11043143451E+04  0.11182719159E+04  0.12700000000E+03 0.  0.
   -5000001    1    1    2    0    0  0.11658467217E+03 -0.36068259731E+02  0.10107432965E+04  0.10259746179E+04  0.12700000000E+03 0.  0.
<mgrwt>
<rscale>  0 0.35259661E+03</rscale>
<asrwt>0</asrwt>
<pdfrwt beam="1">  1        2 0.30423634E+00 0.35259661E+03</pdfrwt>
<pdfrwt beam="2">  1       -2 0.20849186E-02 0.35259661E+03</pdfrwt>
<totfact> 0.55528274E+03</totfact>
</mgrwt>
</event>
<event>
 4    1  0.1390278E-004  0.4918309E+03  0.7818608E-02  0.1015933E+00
          2   -1    0    0  501    0  0.00000000000E+00  0.00000000000E+00  0.11230578506E+03  0.11230578509E+03  0.25500000000E-02 0.  1.
         -2   -1    0    0    0  501 -0.00000000000E+00 -0.00000000000E+00 -0.53847999870E+03  0.53847999871E+03  0.25500000000E-02 0. -1.
    5000001    1    1    2    0    0  0.18921850892E+03 -0.11559555715E+02 -0.33441830182E+03  0.40484795669E+03  0.12700000000E+03 0.  0.
   -5000001    1    1    2    0    0 -0.18921850892E+03  0.11559555715E+02 -0.91755911821E+02  0.24593782711E+03  0.12700000000E+03 0.  0.
<mgrwt>
<rscale>  0 0.49183094E+03</rscale>
<asrwt>0</asrwt>
<pdfrwt beam="1">  1        2 0.16043684E-01 0.49183094E+03</pdfrwt>
<pdfrwt beam="2">  1       -2 0.76925713E-01 0.49183094E+03</pdfrwt>
<totfact> 0.56213331E+02</totfact>
</mgrwt>
</event>
<event>
 4    1  0.1390278E-004  0.3165853E+03  0.7818608E-02  0.1077232E+00
          2   -1    0    0  501    0  0.00000000000E+00  0.00000000000E+00  0.54381649625E+03  0.54381649626E+03  0.25500000000E-02 0.  1.
         -2   -1    0    0    0  501 -0.00000000000E+00 -0.00000000000E+00 -0.46075404072E+02  0.46075404142E+02  0.25500000000E-02 0. -1.
    5000001    1    1    2    0    0 -0.28417402825E+02 -0.88323477073E+02  0.21559210148E+03  0.26686614549E+03  0.12700000000E+03 0.  0.
   -5000001    1    1    2    0    0  0.28417402825E+02  0.88323477073E+02  0.28214899070E+03  0.32302575492E+03  0.12700000000E+03 0.  0.
<mgrwt>
<rscale>  0 0.31658531E+03</rscale>
<asrwt>0</asrwt>
<pdfrwt beam="1">  1        2 0.77688064E-01 0.31658531E+03</pdfrwt>
<pdfrwt beam="2">  1       -2 0.65822012E-02 0.31658531E+03</pdfrwt>
<totfact> 0.79020701E+03</totfact>
</mgrwt>
</event>
<event>
 4    1  0.1390278E-004  0.3658691E+03  0.7818608E-02  0.1056284E+00
         -2   -1    0    0    0  501 -0.00000000000E+00  0.00000000000E+00  0.15777601675E+02  0.15777601881E+02  0.25500000000E-02 0. -1.
          2   -1    0    0  501    0  0.00000000000E+00 -0.00000000000E+00 -0.21210483408E+04  0.21210483408E+04  0.25500000000E-02 0.  1.
    5000001    1    1    2    0    0 -0.12393017765E+03 -0.33759630411E+02 -0.12216700575E+04  0.12349514691E+04  0.12700000000E+03 0.  0.
   -5000001    1    1    2    0    0  0.12393017765E+03  0.33759630411E+02 -0.88360068164E+03  0.90187447362E+03  0.12700000000E+03 0.  0.
<mgrwt>
<rscale>  0 0.36586914E+03</rscale>
<asrwt>0</asrwt>
<pdfrwt beam="1">  1        2 0.30300672E+00 0.36586914E+03</pdfrwt>
<pdfrwt beam="2">  1       -2 0.22539445E-02 0.36586914E+03</pdfrwt>
<totfact> 0.49934417E+03</totfact>
</mgrwt>
</event>
<event>
 4    1  0.1390278E-004  0.5019847E+03  0.7818608E-02  0.1013262E+00
          2   -1    0    0  501    0  0.00000000000E+00  0.00000000000E+00  0.13298781341E+04  0.13298781341E+04  0.25500000000E-02 0. -1.
         -2   -1    0    0    0  501 -0.00000000000E+00 -0.00000000000E+00 -0.47370616712E+02  0.47370616781E+02  0.25500000000E-02 0.  1.
    5000001    1    1    2    0    0 -0.93905990038E+02 -0.83539717087E+02  0.15763953853E+03  0.23827807999E+03  0.12700000000E+03 0.  0.
   -5000001    1    1    2    0    0  0.93905990038E+02  0.83539717087E+02  0.11248679789E+04  0.11389706709E+04  0.12700000000E+03 0.  0.
<mgrwt>
<rscale>  0 0.50198465E+03</rscale>
<asrwt>0</asrwt>
<pdfrwt beam="1">  1        2 0.18998259E+00 0.50198465E+03</pdfrwt>
<pdfrwt beam="2">  1       -2 0.67672309E-02 0.50198465E+03</pdfrwt>
<totfact> 0.23427003E+03</totfact>
</mgrwt>
</event>
<event>
 4    1  0.1390278E-004  0.4158157E+03  0.7818608E-02  0.1038437E+00
         -2   -1    0    0    0  501 -0.00000000000E+00  0.00000000000E+00  0.57841364902E+02  0.57841364959E+02  0.25500000000E-02 0. -1.
          2   -1    0    0  501    0  0.00000000000E+00 -0.00000000000E+00 -0.74731437011E+03  0.74731437011E+03  0.25500000000E-02 0.  1.
    5000001    1    1    2    0    0  0.45026061747E+00  0.47572345219E+02 -0.39598261847E+02  0.14128111376E+03  0.12700000000E+03 0.  0.
   -5000001    1    1    2    0    0 -0.45026061747E+00 -0.47572345219E+02 -0.64987474336E+03  0.66387462131E+03  0.12700000000E+03 0.  0.
<mgrwt>
<rscale>  0 0.41581574E+03</rscale>
<asrwt>0</asrwt>
<pdfrwt beam="1">  1        2 0.10675919E+00 0.41581574E+03</pdfrwt>
<pdfrwt beam="2">  1       -2 0.82630526E-02 0.41581574E+03</pdfrwt>
<totfact> 0.38355322E+03</totfact>
</mgrwt>
</event>
<event>
 4    1  0.1390278E-004  0.5068634E+03  0.7818608E-02  0.1012003E+00
         -2   -1    0    0    0  501 -0.00000000000E+00  0.00000000000E+00  0.16335929575E+02  0.16335929774E+02  0.25500000000E-02 0. -1.
          2   -1    0    0  501    0  0.00000000000E+00 -0.00000000000E+00 -0.39316790647E+04  0.39316790647E+04  0.25500000000E-02 0.  1.
    5000001    1    1    2    0    0 -0.90971268298E+02 -0.16399259925E+03 -0.28433481304E+04  0.28523546299E+04  0.12700000000E+03 0.  0.
   -5000001    1    1    2    0    0  0.90971268298E+02  0.16399259925E+03 -0.10719950047E+04  0.10956603645E+04  0.12700000000E+03 0.  0.
<mgrwt>
<rscale>  0 0.50686342E+03</rscale>
<asrwt>0</asrwt>
<pdfrwt beam="1">  1        2 0.56166784E+00 0.50686342E+03</pdfrwt>
<pdfrwt beam="2">  1       -2 0.23337067E-02 0.50686342E+03</pdfrwt>
<totfact> 0.47055583E+02</totfact>
</mgrwt>
</event>
<event>
 4    1  0.1390278E-004  0.5208663E+03  0.7818608E-02  0.1008472E+00
          2   -1    0    0  501    0  0.00000000000E+00  0.00000000000E+00  0.14081949720E+04  0.14081949720E+04  0.25500000000E-02 0.  1.
         -2   -1    0    0    0  501 -0.00000000000E+00 -0.00000000000E+00 -0.48164800064E+02  0.48164800131E+02  0.25500000000E-02 0. -1.
    5000001    1    1    2    0    0 -0.16614379971E+03 -0.96099645540E+02  0.10208276854E+04  0.10464497443E+04  0.12700000000E+03 0.  0.
   -5000001    1    1    2    0    0  0.16614379971E+03  0.96099645540E+02  0.33920248658E+03  0.40991002788E+03  0.12700000000E+03 0.  0.
<mgrwt>
<rscale>  0 0.52086631E+03</rscale>
<asrwt>0</asrwt>
<pdfrwt beam="1">  1        2 0.20117071E+00 0.52086631E+03</pdfrwt>
<pdfrwt beam="2">  1       -2 0.68806856E-02 0.52086631E+03</pdfrwt>
<totfact> 0.20729596E+03</totfact>
</mgrwt>
</event>
<event>
 4    1  0.1390278E-004  0.3965729E+03  0.7818608E-02  0.1044973E+00
          2   -1    0    0  501    0  0.00000000000E+00  0.00000000000E+00  0.61271690606E+03  0.61271690606E+03  0.25500000000E-02 0.  1.
         -2   -1    0    0    0  501 -0.00000000000E+00 -0.00000000000E+00 -0.64169151976E+02  0.64169152027E+02  0.25500000000E-02 0. -1.
    5000001    1    1    2    0    0  0.25689823272E+01  0.15224780518E+03  0.27698900098E+03  0.34064336265E+03  0.12700000000E+03 0.  0.
   -5000001    1    1    2    0    0 -0.25689823272E+01 -0.15224780518E+03  0.27155875310E+03  0.33624269544E+03  0.12700000000E+03 0.  0.
<mgrwt>
<rscale>  0 0.39657294E+03</rscale>
<asrwt>0</asrwt>
<pdfrwt beam="1">  1        2 0.87530985E-01 0.39657294E+03</pdfrwt>
<pdfrwt beam="2">  1       -2 0.91670219E-02 0.39657294E+03</pdfrwt>
<totfact> 0.41210145E+03</totfact>
</mgrwt>
</event>
<event>
 4    1  0.1390278E-004  0.4871625E+03  0.7818608E-02  0.1017185E+00
         -2   -1    0    0    0  501 -0.00000000000E+00  0.00000000000E+00  0.24270948691E+02  0.24270948825E+02  0.25500000000E-02 0. -1.
          2   -1    0    0  501    0  0.00000000000E+00 -0.00000000000E+00 -0.24445613013E+04  0.24445613014E+04  0.25500000000E-02 0.  1.
    5000001    1    1    2    0    0  0.12325669097E+03 -0.16606222441E+03 -0.13157142005E+04  0.13379094632E+04  0.12700000000E+03 0.  0.
   -5000001    1    1    2    0    0 -0.12325669097E+03  0.16606222441E+03 -0.11045761522E+04  0.11309227870E+04  0.12700000000E+03 0.  0.
<mgrwt>
<rscale>  0 0.48716249E+03</rscale>
<asrwt>0</asrwt>
<pdfrwt beam="1">  1        2 0.34922289E+00 0.48716249E+03</pdfrwt>
<pdfrwt beam="2">  1       -2 0.34672800E-02 0.48716249E+03</pdfrwt>
<totfact> 0.17917819E+03</totfact>
</mgrwt>
</event>
<event>
 4    1  0.1390278E-004  0.4315776E+03  0.7818608E-02  0.1033363E+00
          2   -1    0    0  501    0  0.00000000000E+00  0.00000000000E+00  0.31166975517E+02  0.31166975621E+02  0.25500000000E-02 0.  1.
         -2   -1    0    0    0  501 -0.00000000000E+00 -0.00000000000E+00 -0.14940430767E+04  0.14940430767E+04  0.25500000000E-02 0. -1.
    5000001    1    1    2    0    0 -0.11127950904E+03  0.13429019651E+03 -0.74676861858E+03  0.77730904774E+03  0.12700000000E+03 0.  0.
   -5000001    1    1    2    0    0  0.11127950904E+03 -0.13429019651E+03 -0.71610748264E+03  0.74790100461E+03  0.12700000000E+03 0.  0.
<mgrwt>
<rscale>  0 0.43157759E+03</rscale>
<asrwt>0</asrwt>
<pdfrwt beam="1">  1        2 0.44524260E-02 0.43157759E+03</pdfrwt>
<pdfrwt beam="2">  1       -2 0.21343468E+00 0.43157759E+03</pdfrwt>
<totfact> 0.21756514E+02</totfact>
</mgrwt>
</event>
<event>
 4    1  0.1390278E-004  0.3295678E+03  0.7818608E-02  0.1071328E+00
         -2   -1    0    0    0  501 -0.00000000000E+00  0.00000000000E+00  0.58033849645E+02  0.58033849701E+02  0.25500000000E-02 0. -1.
          2   -1    0    0  501    0  0.00000000000E+00 -0.00000000000E+00 -0.46789484759E+03  0.46789484760E+03  0.25500000000E-02 0.  1.
    5000001    1    1    2    0    0 -0.80544444693E+02 -0.66807401091E+02 -0.21866773869E+03  0.27366990400E+03  0.12700000000E+03 0.  0.
   -5000001    1    1    2    0    0  0.80544444693E+02  0.66807401091E+02 -0.19119325925E+03  0.25225879330E+03  0.12700000000E+03 0.  0.
<mgrwt>
<rscale>  0 0.32956783E+03</rscale>
<asrwt>0</asrwt>
<pdfrwt beam="1">  1        2 0.66842119E-01 0.32956783E+03</pdfrwt>
<pdfrwt beam="2">  1       -2 0.82905502E-02 0.32956783E+03</pdfrwt>
<totfact> 0.65264831E+03</totfact>
</mgrwt>
</event>
<event>
 4    1  0.1390278E-004  0.3798459E+03  0.7818608E-02  0.1050991E+00
         -2   -1    0    0    0  501 -0.00000000000E+00  0.00000000000E+00  0.24649925174E+03  0.24649925175E+03  0.25500000000E-02 0. -1.
          2   -1    0    0  501    0  0.00000000000E+00 -0.00000000000E+00 -0.14633200020E+03  0.14633200022E+03  0.25500000000E-02 0.  1.
    5000001    1    1    2    0    0  0.92051888213E+02  0.49517908550E+02  0.14828312362E+03  0.22145531861E+03  0.12700000000E+03 0.  0.
   -5000001    1    1    2    0    0 -0.92051888213E+02 -0.49517908550E+02 -0.48115872081E+02  0.17137593337E+03  0.12700000000E+03 0.  0.
<mgrwt>
<rscale>  0 0.37984591E+03</rscale>
<asrwt>0</asrwt>
<pdfrwt beam="1">  1        2 0.20904571E-01 0.37984591E+03</pdfrwt>
<pdfrwt beam="2">  1       -2 0.35214179E-01 0.37984591E+03</pdfrwt>
<totfact> 0.20174773E+03</totfact>
</mgrwt>
</event>
<event>
 4    1  0.1390278E-004  0.2829804E+03  0.7818608E-02  0.1094072E+00
          2   -1    0    0  501    0  0.00000000000E+00  0.00000000000E+00  0.14891373593E+04  0.14891373593E+04  0.25500000000E-02 0.  1.
         -2   -1    0    0    0  501 -0.00000000000E+00 -0.00000000000E+00 -0.13443674899E+02  0.13443675140E+02  0.25500000000E-02 0. -1.
    5000001    1    1    2    0    0  0.60308314780E+02 -0.98777316960E+01  0.67156600635E+03  0.68619571793E+03  0.12700000000E+03 0.  0.
   -5000001    1    1    2    0    0 -0.60308314780E+02  0.98777316960E+01  0.80412767803E+03  0.81638531650E+03  0.12700000000E+03 0.  0.
<mgrwt>
<rscale>  0 0.28298041E+03</rscale>
<asrwt>0</asrwt>
<pdfrwt beam="1">  1        2 0.21273387E+00 0.28298041E+03</pdfrwt>
<pdfrwt beam="2">  1       -2 0.19205254E-02 0.28298041E+03</pdfrwt>
<totfact> 0.12971896E+04</totfact>
</mgrwt>
</event>
<event>
 4    1  0.1390278E-004  0.3800499E+03  0.7818608E-02  0.1050915E+00
          2   -1    0    0  501    0  0.00000000000E+00  0.00000000000E+00  0.86492158268E+02  0.86492158306E+02  0.25500000000E-02 0.  1.
         -2   -1    0    0    0  501 -0.00000000000E+00 -0.00000000000E+00 -0.41748856413E+03  0.41748856414E+03  0.25500000000E-02 0. -1.
    5000001    1    1    2    0    0  0.10810289559E+03  0.87181656420E+02 -0.13057364993E+03  0.22905317136E+03  0.12700000000E+03 0.  0.
   -5000001    1    1    2    0    0 -0.10810289559E+03 -0.87181656420E+02 -0.20042275593E+03  0.27492755109E+03  0.12700000000E+03 0.  0.
<mgrwt>
<rscale>  0 0.38004993E+03</rscale>
<asrwt>0</asrwt>
<pdfrwt beam="1">  1        2 0.12356023E-01 0.38004993E+03</pdfrwt>
<pdfrwt beam="2">  1       -2 0.59641223E-01 0.38004993E+03</pdfrwt>
<totfact> 0.13295788E+03</totfact>
</mgrwt>
</event>
<event>
 4    1  0.1390278E-004  0.4290112E+03  0.7818608E-02  0.1034173E+00
          2   -1    0    0  501    0  0.00000000000E+00  0.00000000000E+00  0.48748523755E+03  0.48748523756E+03  0.25500000000E-02 0.  1.
         -2   -1    0    0    0  501 -0.00000000000E+00 -0.00000000000E+00 -0.94387766179E+02  0.94387766213E+02  0.25500000000E-02 0. -1.
    5000001    1    1    2    0    0  0.15575594257E+03  0.62159990172E+02  0.13965044065E+03  0.25249757147E+03  0.12700000000E+03 0.  0.
   -5000001    1    1    2    0    0 -0.15575594257E+03 -0.62159990172E+02  0.25344703072E+03  0.32937543230E+03  0.12700000000E+03 0.  0.
<mgrwt>
<rscale>  0 0.42901115E+03</rscale>
<asrwt>0</asrwt>
<pdfrwt beam="1">  1        2 0.69640748E-01 0.42901115E+03</pdfrwt>
<pdfrwt beam="2">  1       -2 0.13483967E-01 0.42901115E+03</pdfrwt>
<totfact> 0.28646993E+03</totfact>
</mgrwt>
</event>
<event>
 4    1  0.1390278E-004  0.2985804E+03  0.7818608E-02  0.1085952E+00
         -2   -1    0    0    0  501 -0.00000000000E+00  0.00000000000E+00  0.23205030816E+03  0.23205030817E+03  0.25500000000E-02 0. -1.
          2   -1    0    0  501    0  0.00000000000E+00 -0.00000000000E+00 -0.96046282853E+02  0.96046282886E+02  0.25500000000E-02 0.  1.
    5000001    1    1    2    0    0 -0.60145277237E+02 -0.62120420918E+01  0.13031518642E+02  0.14126168737E+03  0.12700000000E+03 0.  0.
   -5000001    1    1    2    0    0  0.60145277237E+02  0.62120420918E+01  0.12297250667E+03  0.18683490369E+03  0.12700000000E+03 0.  0.
<mgrwt>
<rscale>  0 0.29858044E+03</rscale>
<asrwt>0</asrwt>
<pdfrwt beam="1">  1        2 0.13720897E-01 0.29858044E+03</pdfrwt>
<pdfrwt beam="2">  1       -2 0.33150044E-01 0.29858044E+03</pdfrwt>
<totfact> 0.36841250E+03</totfact>
</mgrwt>
</event>
<event>
 4    1  0.1390278E-004  0.3295234E+03  0.7818608E-02  0.1071348E+00
          2   -1    0    0  501    0  0.00000000000E+00  0.00000000000E+00  0.15914661907E+04  0.15914661907E+04  0.25500000000E-02 0.  1.
         -2   -1    0    0    0  501 -0.00000000000E+00 -0.00000000000E+00 -0.17057485498E+02  0.17057485688E+02  0.25500000000E-02 0. -1.
    5000001    1    1    2    0    0  0.94930755117E+02 -0.19034164250E+02  0.58932753798E+03  0.61058176741E+03  0.12700000000E+03 0.  0.
   -5000001    1    1    2    0    0 -0.94930755117E+02  0.19034164250E+02  0.98508116719E+03  0.99794190894E+03  0.12700000000E+03 0.  0.
<mgrwt>
<rscale>  0 0.32952336E+03</rscale>
<asrwt>0</asrwt>
<pdfrwt beam="1">  1        2 0.22735236E+00 0.32952336E+03</pdfrwt>
<pdfrwt beam="2">  1       -2 0.24367832E-02 0.32952336E+03</pdfrwt>
<totfact> 0.81255064E+03</totfact>
</mgrwt>
</event>
<event>
 4    1  0.1390278E-004  0.5100934E+03  0.7818608E-02  0.1011177E+00
         -2   -1    0    0    0  501 -0.00000000000E+00  0.00000000000E+00  0.26932075263E+02  0.26932075384E+02  0.25500000000E-02 0. -1.
          2   -1    0    0  501    0  0.00000000000E+00 -0.00000000000E+00 -0.24152913350E+04  0.24152913350E+04  0.25500000000E-02 0.  1.
    5000001    1    1    2    0    0  0.10832460087E+03  0.17454452200E+03 -0.15866563116E+04  0.16049321669E+04  0.12700000000E+03 0.  0.
   -5000001    1    1    2    0    0 -0.10832460087E+03 -0.17454452200E+03 -0.80170294820E+03  0.83729124351E+03  0.12700000000E+03 0.  0.
<mgrwt>
<rscale>  0 0.51009336E+03</rscale>
<asrwt>0</asrwt>
<pdfrwt beam="1">  1        2 0.34504148E+00 0.51009336E+03</pdfrwt>
<pdfrwt beam="2">  1       -2 0.38474409E-02 0.51009336E+03</pdfrwt>
<totfact> 0.15799788E+03</totfact>
</mgrwt>
</event>
<event>
 4    1  0.1390278E-004  0.3054537E+03  0.7818608E-02  0.1082546E+00
         -2   -1    0    0    0  501 -0.00000000000E+00  0.00000000000E+00  0.18768595771E+02  0.18768595944E+02  0.25500000000E-02 0. -1.
          2   -1    0    0  501    0  0.00000000000E+00 -0.00000000000E+00 -0.12427934872E+04  0.12427934872E+04  0.25500000000E-02 0.  1.
    5000001    1    1    2    0    0 -0.79141069777E+02  0.13731137359E+02 -0.49930952642E+03  0.52143154511E+03  0.12700000000E+03 0.  0.
   -5000001    1    1    2    0    0  0.79141069777E+02 -0.13731137359E+02 -0.72471536500E+03  0.74013053803E+03  0.12700000000E+03 0.  0.
<mgrwt>
<rscale>  0 0.30545369E+03</rscale>
<asrwt>0</asrwt>
<pdfrwt beam="1">  1        2 0.17754188E+00 0.30545369E+03</pdfrwt>
<pdfrwt beam="2">  1       -2 0.26812288E-02 0.30545369E+03</pdfrwt>
<totfact> 0.10660489E+04</totfact>
</mgrwt>
</event>
<event>
 4    1  0.1390278E-004  0.3709488E+03  0.7818608E-02  0.1054331E+00
         -2   -1    0    0    0  501 -0.00000000000E+00  0.00000000000E+00  0.81411092582E+02  0.81411092622E+02  0.25500000000E-02 0. -1.
          2   -1    0    0  501    0  0.00000000000E+00 -0.00000000000E+00 -0.42255616200E+03  0.42255616201E+03  0.25500000000E-02 0.  1.
    5000001    1    1    2    0    0  0.11782127722E+03  0.61096220672E+02 -0.13574498044E+03  0.22840819000E+03  0.12700000000E+03 0.  0.
   -5000001    1    1    2    0    0 -0.11782127722E+03 -0.61096220672E+02 -0.20540008898E+03  0.27555906463E+03  0.12700000000E+03 0.  0.
<mgrwt>
<rscale>  0 0.37094883E+03</rscale>
<asrwt>0</asrwt>
<pdfrwt beam="1">  1        2 0.60365165E-01 0.37094883E+03</pdfrwt>
<pdfrwt beam="2">  1       -2 0.11630156E-01 0.37094883E+03</pdfrwt>
<totfact> 0.42649068E+03</totfact>
</mgrwt>
</event>
<event>
 4    1  0.1390278E-004  0.3339127E+03  0.7818608E-02  0.1069419E+00
          2   -1    0    0  501    0  0.00000000000E+00  0.00000000000E+00  0.13961493389E+04  0.13961493389E+04  0.25500000000E-02 0.  1.
         -2   -1    0    0    0  501 -0.00000000000E+00 -0.00000000000E+00 -0.19965217807E+02  0.19965217970E+02  0.25500000000E-02 0. -1.
    5000001    1    1    2    0    0  0.10524841214E+03  0.25699463745E+02  0.69988704499E+03  0.71951967759E+03  0.12700000000E+03 0.  0.
   -5000001    1    1    2    0    0 -0.10524841214E+03 -0.25699463745E+02  0.67629707608E+03  0.69659487926E+03  0.12700000000E+03 0.  0.
<mgrwt>
<rscale>  0 0.33391272E+03</rscale>
<asrwt>0</asrwt>
<pdfrwt beam="1">  1        2 0.19944989E+00 0.33391272E+03</pdfrwt>
<pdfrwt beam="2">  1       -2 0.28521743E-02 0.33391272E+03</pdfrwt>
<totfact> 0.80847496E+03</totfact>
</mgrwt>
</event>
<event>
 4    1  0.1390278E-004  0.3798753E+03  0.7818608E-02  0.1050980E+00
         -2   -1    0    0    0  501 -0.00000000000E+00  0.00000000000E+00  0.26908788972E+02  0.26908789093E+02  0.25500000000E-02 0. -1.
          2   -1    0    0  501    0  0.00000000000E+00 -0.00000000000E+00 -0.13406887499E+04  0.13406887499E+04  0.25500000000E-02 0.  1.
    5000001    1    1    2    0    0 -0.13722287313E+02 -0.11549336769E+03 -0.94535597992E+03  0.96091308031E+03  0.12700000000E+03 0.  0.
   -5000001    1    1    2    0    0  0.13722287313E+02  0.11549336769E+03 -0.36842398099E+03  0.40668445866E+03  0.12700000000E+03 0.  0.
<mgrwt>
<rscale>  0 0.37987530E+03</rscale>
<asrwt>0</asrwt>
<pdfrwt beam="1">  1        2 0.19152692E+00 0.37987530E+03</pdfrwt>
<pdfrwt beam="2">  1       -2 0.38441136E-02 0.37987530E+03</pdfrwt>
<totfact> 0.55260783E+03</totfact>
</mgrwt>
</event>
<event>
 4    1  0.1390278E-004  0.3201782E+03  0.7818608E-02  0.1075567E+00
         -2   -1    0    0    0  501 -0.00000000000E+00  0.00000000000E+00  0.13767375260E+02  0.13767375496E+02  0.25500000000E-02 0. -1.
          2   -1    0    0  501    0  0.00000000000E+00 -0.00000000000E+00 -0.18615403238E+04  0.18615403238E+04  0.25500000000E-02 0.  1.
    5000001    1    1    2    0    0  0.88206528994E+02  0.39810235951E+02 -0.85601569839E+03  0.87077960618E+03  0.12700000000E+03 0.  0.
   -5000001    1    1    2    0    0 -0.88206528994E+02 -0.39810235951E+02 -0.99175725017E+03  0.10045280931E+04  0.12700000000E+03 0.  0.
<mgrwt>
<rscale>  0 0.32017823E+03</rscale>
<asrwt>0</asrwt>
<pdfrwt beam="1">  1        2 0.26593417E+00 0.32017823E+03</pdfrwt>
<pdfrwt beam="2">  1       -2 0.19667691E-02 0.32017823E+03</pdfrwt>
<totfact> 0.81972748E+03</totfact>
</mgrwt>
</event>
<event>
 4    1  0.1390278E-004  0.3394656E+03  0.7818608E-02  0.1067024E+00
         -2   -1    0    0    0  501 -0.00000000000E+00  0.00000000000E+00  0.26500176655E+02  0.26500176778E+02  0.25500000000E-02 0. -1.
          2   -1    0    0  501    0  0.00000000000E+00 -0.00000000000E+00 -0.10871329506E+04  0.10871329506E+04  0.25500000000E-02 0.  1.
    5000001    1    1    2    0    0 -0.36022190719E+02  0.10662779788E+03 -0.51842929729E+03  0.54549520785E+03  0.12700000000E+03 0.  0.
   -5000001    1    1    2    0    0  0.36022190719E+02 -0.10662779788E+03 -0.54220347661E+03  0.56813791948E+03  0.12700000000E+03 0.  0.
<mgrwt>
<rscale>  0 0.33946555E+03</rscale>
<asrwt>0</asrwt>
<pdfrwt beam="1">  1        2 0.15530468E+00 0.33946555E+03</pdfrwt>
<pdfrwt beam="2">  1       -2 0.37857402E-02 0.33946555E+03</pdfrwt>
<totfact> 0.77729112E+03</totfact>
</mgrwt>
</event>
<event>
 4    1  0.1390278E-004  0.4092529E+03  0.7818608E-02  0.1040622E+00
         -2   -1    0    0    0  501 -0.00000000000E+00  0.00000000000E+00  0.24952711033E+02  0.24952711163E+02  0.25500000000E-02 0. -1.
          2   -1    0    0  501    0  0.00000000000E+00 -0.00000000000E+00 -0.16780537317E+04  0.16780537317E+04  0.25500000000E-02 0.  1.
    5000001    1    1    2    0    0  0.37973653635E+02  0.94182581736E+02 -0.13434622128E+04  0.13532671851E+04  0.12700000000E+03 0.  0.
   -5000001    1    1    2    0    0 -0.37973653635E+02 -0.94182581736E+02 -0.30963880781E+03  0.34973925769E+03  0.12700000000E+03 0.  0.
<mgrwt>
<rscale>  0 0.40925293E+03</rscale>
<asrwt>0</asrwt>
<pdfrwt beam="1">  1        2 0.23972189E+00 0.40925293E+03</pdfrwt>
<pdfrwt beam="2">  1       -2 0.35646741E-02 0.40925293E+03</pdfrwt>
<totfact> 0.41600706E+03</totfact>
</mgrwt>
</event>
<event>
 4    1  0.1390278E-004  0.5224747E+03  0.7818608E-02  0.1008074E+00
         -2   -1    0    0    0  501 -0.00000000000E+00  0.00000000000E+00  0.16511425679E+03  0.16511425681E+03  0.25500000000E-02 0. -1.
          2   -1    0    0  501    0  0.00000000000E+00 -0.00000000000E+00 -0.41331957727E+03  0.41331957728E+03  0.25500000000E-02 0.  1.
    5000001    1    1    2    0    0 -0.19426034526E+03  0.11843443249E+03 -0.14487844197E+03  0.29813178208E+03  0.12700000000E+03 0.  0.
   -5000001    1    1    2    0    0  0.19426034526E+03 -0.11843443249E+03 -0.10332687851E+03  0.28030205201E+03  0.12700000000E+03 0.  0.
<mgrwt>
<rscale>  0 0.52247471E+03</rscale>
<asrwt>0</asrwt>
<pdfrwt beam="1">  1        2 0.59045654E-01 0.52247471E+03</pdfrwt>
<pdfrwt beam="2">  1       -2 0.23587751E-01 0.52247471E+03</pdfrwt>
<totfact> 0.13252148E+03</totfact>
</mgrwt>
</event>
<event>
 4    1  0.1390278E-004  0.4138009E+03  0.7818608E-02  0.1039103E+00
          2   -1    0    0  501    0  0.00000000000E+00  0.00000000000E+00  0.96982795238E+03  0.96982795238E+03  0.25500000000E-02 0.  1.
         -2   -1    0    0    0  501 -0.00000000000E+00 -0.00000000000E+00 -0.44139570896E+02  0.44139570970E+02  0.25500000000E-02 0. -1.
    5000001    1    1    2    0    0  0.85453669573E+02  0.12327492277E+03  0.30442493057E+03  0.36235697120E+03  0.12700000000E+03 0.  0.
   -5000001    1    1    2    0    0 -0.85453669573E+02 -0.12327492277E+03  0.62126345091E+03  0.65161055215E+03  0.12700000000E+03 0.  0.
<mgrwt>
<rscale>  0 0.41380087E+03</rscale>
<asrwt>0</asrwt>
<pdfrwt beam="1">  1        2 0.13854684E+00 0.41380087E+03</pdfrwt>
<pdfrwt beam="2">  1       -2 0.63056535E-02 0.41380087E+03</pdfrwt>
<totfact> 0.41860415E+03</totfact>
</mgrwt>
</event>
<event>
 4    1  0.1390278E-004  0.2952605E+03  0.7818608E-02  0.1087634E+00
         -2   -1    0    0    0  501 -0.00000000000E+00  0.00000000000E+00  0.15843581059E+02  0.15843581264E+02  0.25500000000E-02 0. -1.
          2   -1    0    0  501    0  0.00000000000E+00 -0.00000000000E+00 -0.13756160652E+04  0.13756160652E+04  0.25500000000E-02 0.  1.
    5000001    1    1    2    0    0  0.65229204091E+02  0.42977675922E+01 -0.50403645022E+03  0.52388458941E+03  0.12700000000E+03 0.  0.
   -5000001    1    1    2    0    0 -0.65229204091E+02 -0.42977675922E+01 -0.85573603390E+03  0.86757505704E+03  0.12700000000E+03 0.  0.
<mgrwt>
<rscale>  0 0.29526046E+03</rscale>
<asrwt>0</asrwt>
<pdfrwt beam="1">  1        2 0.19651651E+00 0.29526046E+03</pdfrwt>
<pdfrwt beam="2">  1       -2 0.22633696E-02 0.29526046E+03</pdfrwt>
<totfact> 0.11652809E+04</totfact>
</mgrwt>
</event>
<event>
 4    1  0.1390278E-004  0.4179325E+03  0.7818608E-02  0.1037741E+00
          2   -1    0    0  501    0  0.00000000000E+00  0.00000000000E+00  0.24602656973E+04  0.24602656973E+04  0.25500000000E-02 0.  1.
         -2   -1    0    0    0  501 -0.00000000000E+00 -0.00000000000E+00 -0.17748853352E+02  0.17748853536E+02  0.25500000000E-02 0. -1.
    5000001    1    1    2    0    0 -0.35597112966E+02 -0.16105645383E+03  0.11132945496E+04  0.11325899919E+04  0.12700000000E+03 0.  0.
   -5000001    1    1    2    0    0  0.35597112966E+02  0.16105645383E+03  0.13292222944E+04  0.13454245589E+04  0.12700000000E+03 0.  0.
<mgrwt>
<rscale>  0 0.41793251E+03</rscale>
<asrwt>0</asrwt>
<pdfrwt beam="1">  1        2 0.35146671E+00 0.41793251E+03</pdfrwt>
<pdfrwt beam="2">  1       -2 0.25355492E-02 0.41793251E+03</pdfrwt>
<totfact> 0.28324612E+03</totfact>
</mgrwt>
</event>
<event>
 4    1  0.1390278E-004  0.3400577E+03  0.7818608E-02  0.1066771E+00
         -2   -1    0    0    0  501 -0.00000000000E+00  0.00000000000E+00  0.28126910716E+02  0.28126910831E+02  0.25500000000E-02 0. -1.
          2   -1    0    0  501    0  0.00000000000E+00 -0.00000000000E+00 -0.10278347949E+04  0.10278347949E+04  0.25500000000E-02 0.  1.
    5000001    1    1    2    0    0  0.83021295187E+02  0.76719695318E+02 -0.50463487045E+03  0.53250708876E+03  0.12700000000E+03 0.  0.
   -5000001    1    1    2    0    0 -0.83021295187E+02 -0.76719695318E+02 -0.49507301372E+03  0.52345461696E+03  0.12700000000E+03 0.  0.
<mgrwt>
<rscale>  0 0.34005775E+03</rscale>
<asrwt>0</asrwt>
<pdfrwt beam="1">  1        2 0.14683352E+00 0.34005775E+03</pdfrwt>
<pdfrwt beam="2">  1       -2 0.40181308E-02 0.34005775E+03</pdfrwt>
<totfact> 0.76884436E+03</totfact>
</mgrwt>
</event>
<event>
 4    1  0.1390278E-004  0.3538569E+03  0.7818608E-02  0.1061043E+00
          2   -1    0    0  501    0  0.00000000000E+00  0.00000000000E+00  0.24959985911E+03  0.24959985912E+03  0.25500000000E-02 0.  1.
         -2   -1    0    0    0  501 -0.00000000000E+00 -0.00000000000E+00 -0.12541547207E+03  0.12541547210E+03  0.25500000000E-02 0. -1.
    5000001    1    1    2    0    0  0.65304130804E+02  0.47725449548E+01 -0.48488916825E+02  0.15088930294E+03  0.12700000000E+03 0.  0.
   -5000001    1    1    2    0    0 -0.65304130804E+02 -0.47725449548E+01  0.17267330386E+03  0.22412602828E+03  0.12700000000E+03 0.  0.
<mgrwt>
<rscale>  0 0.35385694E+03</rscale>
<asrwt>0</asrwt>
<pdfrwt beam="1">  1        2 0.35657122E-01 0.35385694E+03</pdfrwt>
<pdfrwt beam="2">  1       -2 0.17916496E-01 0.35385694E+03</pdfrwt>
<totfact> 0.36935325E+03</totfact>
</mgrwt>
</event>
<event>
 4    1  0.1390278E-004  0.3544448E+03  0.7818608E-02  0.1060805E+00
          2   -1    0    0  501    0  0.00000000000E+00  0.00000000000E+00  0.43629036966E+03  0.43629036967E+03  0.25500000000E-02 0.  1.
         -2   -1    0    0    0  501 -0.00000000000E+00 -0.00000000000E+00 -0.71988236301E+02  0.71988236346E+02  0.25500000000E-02 0. -1.
    5000001    1    1    2    0    0  0.86624184529E+02 -0.76636679965E+02  0.11961353728E+03  0.20931633563E+03  0.12700000000E+03 0.  0.
   -5000001    1    1    2    0    0 -0.86624184529E+02  0.76636679965E+02  0.24468859608E+03  0.29896227038E+03  0.12700000000E+03 0.  0.
<mgrwt>
<rscale>  0 0.35444477E+03</rscale>
<asrwt>0</asrwt>
<pdfrwt beam="1">  1        2 0.62327198E-01 0.35444477E+03</pdfrwt>
<pdfrwt beam="2">  1       -2 0.10284033E-01 0.35444477E+03</pdfrwt>
<totfact> 0.50160002E+03</totfact>
</mgrwt>
</event>
<event>
 4    1  0.1390278E-004  0.3664977E+03  0.7818608E-02  0.1056040E+00
          2   -1    0    0  501    0  0.00000000000E+00  0.00000000000E+00  0.10076942271E+03  0.10076942274E+03  0.25500000000E-02 0.  1.
         -2   -1    0    0    0  501 -0.00000000000E+00 -0.00000000000E+00 -0.33323736250E+03  0.33323736251E+03  0.25500000000E-02 0. -1.
    5000001    1    1    2    0    0 -0.11577234495E+02  0.13072487557E+03 -0.13411936757E+03  0.22658338467E+03  0.12700000000E+03 0.  0.
   -5000001    1    1    2    0    0  0.11577234495E+02 -0.13072487557E+03 -0.98348572211E+02  0.20742340058E+03  0.12700000000E+03 0.  0.
<mgrwt>
<rscale>  0 0.36649768E+03</rscale>
<asrwt>0</asrwt>
<pdfrwt beam="1">  1        2 0.14395632E-01 0.36649768E+03</pdfrwt>
<pdfrwt beam="2">  1       -2 0.47605337E-01 0.36649768E+03</pdfrwt>
<totfact> 0.17462613E+03</totfact>
</mgrwt>
</event>
<event>
 4    1  0.1390278E-004  0.3778154E+03  0.7818608E-02  0.1051744E+00
          2   -1    0    0  501    0  0.00000000000E+00  0.00000000000E+00  0.20175918598E+04  0.20175918598E+04  0.25500000000E-02 0.  1.
         -2   -1    0    0    0  501 -0.00000000000E+00 -0.00000000000E+00 -0.17687479357E+02  0.17687479541E+02  0.25500000000E-02 0. -1.
    5000001    1    1    2    0    0 -0.23342905036E+02  0.92737393949E+02  0.15496341157E+04  0.15577676361E+04  0.12700000000E+03 0.  0.
   -5000001    1    1    2    0    0  0.23342905036E+02 -0.92737393949E+02  0.45027026480E+03  0.47751170332E+03  0.12700000000E+03 0.  0.
<mgrwt>
<rscale>  0 0.37781538E+03</rscale>
<asrwt>0</asrwt>
<pdfrwt beam="1">  1        2 0.28822726E+00 0.37781538E+03</pdfrwt>
<pdfrwt beam="2">  1       -2 0.25267841E-02 0.37781538E+03</pdfrwt>
<totfact> 0.47357726E+03</totfact>
</mgrwt>
</event>
<event>
 4    1  0.1390278E-004  0.9189971E+03  0.7818608E-02  0.9402141E-01
          2   -1    0    0  501    0  0.00000000000E+00  0.00000000000E+00  0.19278034169E+04  0.19278034169E+04  0.25500000000E-02 0.  1.
         -2   -1    0    0    0  501 -0.00000000000E+00 -0.00000000000E+00 -0.10952306355E+03  0.10952306358E+03  0.25500000000E-02 0. -1.
    5000001    1    1    2    0    0  0.13565024562E+03  0.39416186694E+03  0.58600918297E+03  0.73027414648E+03  0.12700000000E+03 0.  0.
   -5000001    1    1    2    0    0 -0.13565024562E+03 -0.39416186694E+03  0.12322711704E+04  0.13070523340E+04  0.12700000000E+03 0.  0.
<mgrwt>
<rscale>  0 0.91899714E+03</rscale>
<asrwt>0</asrwt>
<pdfrwt beam="1">  1        2 0.27540045E+00 0.91899714E+03</pdfrwt>
<pdfrwt beam="2">  1       -2 0.15646154E-01 0.91899714E+03</pdfrwt>
<totfact> 0.28703648E+02</totfact>
</mgrwt>
</event>
<event>
 4    1  0.1390278E-004  0.3896399E+03  0.7818608E-02  0.1047427E+00
         -2   -1    0    0    0  501 -0.00000000000E+00  0.00000000000E+00  0.40207122496E+02  0.40207122577E+02  0.25500000000E-02 0. -1.
          2   -1    0    0  501    0  0.00000000000E+00 -0.00000000000E+00 -0.94398243234E+03  0.94398243234E+03  0.25500000000E-02 0.  1.
    5000001    1    1    2    0    0 -0.14270364004E+03 -0.17271853457E+02 -0.36574124472E+03  0.41298705051E+03  0.12700000000E+03 0.  0.
   -5000001    1    1    2    0    0  0.14270364004E+03  0.17271853457E+02 -0.53803406513E+03  0.57120250441E+03  0.12700000000E+03 0.  0.
<mgrwt>
<rscale>  0 0.38963992E+03</rscale>
<asrwt>0</asrwt>
<pdfrwt beam="1">  1        2 0.13485462E+00 0.38963992E+03</pdfrwt>
<pdfrwt beam="2">  1       -2 0.57438752E-02 0.38963992E+03</pdfrwt>
<totfact> 0.50137355E+03</totfact>
</mgrwt>
</event>
<event>
 4    1  0.1390278E-004  0.5925734E+03  0.7818608E-02  0.9920935E-01
          2   -1    0    0  501    0  0.00000000000E+00  0.00000000000E+00  0.11622912278E+04  0.11622912278E+04  0.25500000000E-02 0.  1.
         -2   -1    0    0    0  501 -0.00000000000E+00 -0.00000000000E+00 -0.75528246381E+02  0.75528246424E+02  0.25500000000E-02 0. -1.
    5000001    1    1    2    0    0  0.23363126048E+03  0.81461572138E+02  0.32997457840E+03  0.43154579826E+03  0.12700000000E+03 0.  0.
   -5000001    1    1    2    0    0 -0.23363126048E+03 -0.81461572138E+02  0.75678840298E+03  0.80627367592E+03  0.12700000000E+03 0.  0.
<mgrwt>
<rscale>  0 0.59257343E+03</rscale>
<asrwt>0</asrwt>
<pdfrwt beam="1">  1        2 0.16604160E+00 0.59257343E+03</pdfrwt>
<pdfrwt beam="2">  1       -2 0.10789750E-01 0.59257343E+03</pdfrwt>
<totfact> 0.13719247E+03</totfact>
</mgrwt>
</event>
<event>
 4    1  0.1390278E-004  0.3496017E+03  0.7818608E-02  0.1062779E+00
         -2   -1    0    0    0  501 -0.00000000000E+00  0.00000000000E+00  0.21628508232E+03  0.21628508234E+03  0.25500000000E-02 0. -1.
          2   -1    0    0  501    0  0.00000000000E+00 -0.00000000000E+00 -0.14127347621E+03  0.14127347623E+03  0.25500000000E-02 0.  1.
    5000001    1    1    2    0    0 -0.93929718761E+02 -0.57796682268E+01 -0.38826256760E+02  0.16276570537E+03  0.12700000000E+03 0.  0.
   -5000001    1    1    2    0    0  0.93929718761E+02  0.57796682268E+01  0.11383786288E+03  0.19479285320E+03  0.12700000000E+03 0.  0.
<mgrwt>
<rscale>  0 0.34960175E+03</rscale>
<asrwt>0</asrwt>
<pdfrwt beam="1">  1        2 0.20181925E-01 0.34960175E+03</pdfrwt>
<pdfrwt beam="2">  1       -2 0.30897869E-01 0.34960175E+03</pdfrwt>
<totfact> 0.26742637E+03</totfact>
</mgrwt>
</event>
<event>
 4    1  0.1390278E-004  0.3002728E+03  0.7818608E-02  0.1085104E+00
         -2   -1    0    0    0  501 -0.00000000000E+00  0.00000000000E+00  0.60652864217E+02  0.60652864271E+02  0.25500000000E-02 0. -1.
          2   -1    0    0  501    0  0.00000000000E+00 -0.00000000000E+00 -0.37163854955E+03  0.37163854956E+03  0.25500000000E-02 0.  1.
    5000001    1    1    2    0    0  0.70167073987E+02 -0.31107579969E+02 -0.12263690494E+03  0.19250950693E+03  0.12700000000E+03 0.  0.
   -5000001    1    1    2    0    0 -0.70167073987E+02  0.31107579969E+02 -0.18834878039E+03  0.23978190690E+03  0.12700000000E+03 0.  0.
<mgrwt>
<rscale>  0 0.30027283E+03</rscale>
<asrwt>0</asrwt>
<pdfrwt beam="1">  1        2 0.53091220E-01 0.30027283E+03</pdfrwt>
<pdfrwt beam="2">  1       -2 0.86646951E-02 0.30027283E+03</pdfrwt>
<totfact> 0.78034823E+03</totfact>
</mgrwt>
</event>
<event>
 4    1  0.1390278E-004  0.3146254E+03  0.7818608E-02  0.1078150E+00
          2   -1    0    0  501    0  0.00000000000E+00  0.00000000000E+00  0.36923855502E+03  0.36923855503E+03  0.25500000000E-02 0.  1.
         -2   -1    0    0    0  501 -0.00000000000E+00 -0.00000000000E+00 -0.67022495994E+02  0.67022496043E+02  0.25500000000E-02 0. -1.
    5000001    1    1    2    0    0  0.38806946398E+02 -0.81017999153E+02  0.11863677286E+03  0.19563634415E+03  0.12700000000E+03 0.  0.
   -5000001    1    1    2    0    0 -0.38806946398E+02  0.81017999153E+02  0.18357928617E+03  0.24062470693E+03  0.12700000000E+03 0.  0.
<mgrwt>
<rscale>  0 0.31462543E+03</rscale>
<asrwt>0</asrwt>
<pdfrwt beam="1">  1        2 0.52748367E-01 0.31462543E+03</pdfrwt>
<pdfrwt beam="2">  1       -2 0.95746418E-02 0.31462543E+03</pdfrwt>
<totfact> 0.67207706E+03</totfact>
</mgrwt>
</event>
<event>
 4    1  0.1390278E-004  0.3034787E+03  0.7818608E-02  0.1083514E+00
         -2   -1    0    0    0  501 -0.00000000000E+00  0.00000000000E+00  0.32366674348E+02  0.32366674448E+02  0.25500000000E-02 0. -1.
          2   -1    0    0  501    0  0.00000000000E+00 -0.00000000000E+00 -0.71137441575E+03  0.71137441575E+03  0.25500000000E-02 0.  1.
    5000001    1    1    2    0    0 -0.20867496818E+02 -0.61313587369E+02 -0.46687094475E+03  0.48815191024E+03  0.12700000000E+03 0.  0.
   -5000001    1    1    2    0    0  0.20867496818E+02  0.61313587369E+02 -0.21213679665E+03  0.25558917996E+03  0.12700000000E+03 0.  0.
<mgrwt>
<rscale>  0 0.30347866E+03</rscale>
<asrwt>0</asrwt>
<pdfrwt beam="1">  1        2 0.10162491E+00 0.30347866E+03</pdfrwt>
<pdfrwt beam="2">  1       -2 0.46238111E-02 0.30347866E+03</pdfrwt>
<totfact> 0.99321225E+03</totfact>
</mgrwt>
</event>
<event>
 4    1  0.1390278E-004  0.2854322E+03  0.7818608E-02  0.1092758E+00
          2   -1    0    0  501    0  0.00000000000E+00  0.00000000000E+00  0.25088651139E+03  0.25088651140E+03  0.25500000000E-02 0.  1.
         -2   -1    0    0    0  501 -0.00000000000E+00 -0.00000000000E+00 -0.81183650871E+02  0.81183650911E+02  0.25500000000E-02 0. -1.
    5000001    1    1    2    0    0  0.14748400873E+02 -0.56587709984E+02  0.51553170045E+02  0.14901816531E+03  0.12700000000E+03 0.  0.
   -5000001    1    1    2    0    0 -0.14748400873E+02  0.56587709984E+02  0.11814969047E+03  0.18305199701E+03  0.12700000000E+03 0.  0.
<mgrwt>
<rscale>  0 0.28543218E+03</rscale>
<asrwt>0</asrwt>
<pdfrwt beam="1">  1        2 0.35840930E-01 0.28543218E+03</pdfrwt>
<pdfrwt beam="2">  1       -2 0.11597664E-01 0.28543218E+03</pdfrwt>
<totfact> 0.74843618E+03</totfact>
</mgrwt>
</event>
<event>
 4    1  0.1390278E-004  0.7374788E+03  0.7818608E-02  0.9655202E-01
         -2   -1    0    0    0  501 -0.00000000000E+00  0.00000000000E+00  0.54601620893E+02  0.54601620952E+02  0.25500000000E-02 0. -1.
          2   -1    0    0  501    0  0.00000000000E+00 -0.00000000000E+00 -0.24901958847E+04  0.24901958847E+04  0.25500000000E-02 0.  1.
    5000001    1    1    2    0    0  0.84697915097E+02  0.31901844755E+03 -0.15779459128E+04  0.16170927031E+04  0.12700000000E+03 0.  0.
   -5000001    1    1    2    0    0 -0.84697915097E+02 -0.31901844755E+03 -0.85764835100E+03  0.92770480255E+03  0.12700000000E+03 0.  0.
<mgrwt>
<rscale>  0 0.73747876E+03</rscale>
<asrwt>0</asrwt>
<pdfrwt beam="1">  1        2 0.35574220E+00 0.73747876E+03</pdfrwt>
<pdfrwt beam="2">  1       -2 0.78002332E-02 0.73747876E+03</pdfrwt>
<totfact> 0.47228815E+02</totfact>
</mgrwt>
</event>
<event>
 4    1  0.1390278E-004  0.3346713E+03  0.7818608E-02  0.1069088E+00
         -2   -1    0    0    0  501 -0.00000000000E+00  0.00000000000E+00  0.11287783107E+03  0.11287783110E+03  0.25500000000E-02 0. -1.
          2   -1    0    0  501    0  0.00000000000E+00 -0.00000000000E+00 -0.24806665359E+03  0.24806665360E+03  0.25500000000E-02 0.  1.
    5000001    1    1    2    0    0 -0.10065364631E+03  0.41447762489E+02 -0.72783832384E+02  0.18241589785E+03  0.12700000000E+03 0.  0.
   -5000001    1    1    2    0    0  0.10065364631E+03 -0.41447762489E+02 -0.62404990139E+02  0.17852858686E+03  0.12700000000E+03 0.  0.
<mgrwt>
<rscale>  0 0.33467134E+03</rscale>
<asrwt>0</asrwt>
<pdfrwt beam="1">  1        2 0.35438093E-01 0.33467134E+03</pdfrwt>
<pdfrwt beam="2">  1       -2 0.16125405E-01 0.33467134E+03</pdfrwt>
<totfact> 0.44343508E+03</totfact>
</mgrwt>
</event>
<event>
 4    1  0.1390278E-004  0.5463661E+03  0.7818608E-02  0.1002339E+00
         -2   -1    0    0    0  501 -0.00000000000E+00  0.00000000000E+00  0.39855805978E+02  0.39855806060E+02  0.25500000000E-02 0. -1.
          2   -1    0    0  501    0  0.00000000000E+00 -0.00000000000E+00 -0.18724747029E+04  0.18724747029E+04  0.25500000000E-02 0.  1.
    5000001    1    1    2    0    0  0.18501513977E+03 -0.14163507876E+03 -0.68923774254E+03  0.73855857129E+03  0.12700000000E+03 0.  0.
   -5000001    1    1    2    0    0 -0.18501513977E+03  0.14163507876E+03 -0.11433811544E+04  0.11737719377E+04  0.12700000000E+03 0.  0.
<mgrwt>
<rscale>  0 0.54636614E+03</rscale>
<asrwt>0</asrwt>
<pdfrwt beam="1">  1        2 0.26749633E+00 0.54636614E+03</pdfrwt>
<pdfrwt beam="2">  1       -2 0.56936877E-02 0.54636614E+03</pdfrwt>
<totfact> 0.16132733E+03</totfact>
</mgrwt>
</event>
<event>
 4    1  0.1390278E-004  0.4352612E+03  0.7818608E-02  0.1032211E+00
          2   -1    0    0  501    0  0.00000000000E+00  0.00000000000E+00  0.48808578380E+03  0.48808578381E+03  0.25500000000E-02 0.  1.
         -2   -1    0    0    0  501 -0.00000000000E+00 -0.00000000000E+00 -0.97038445743E+02  0.97038445776E+02  0.25500000000E-02 0. -1.
    5000001    1    1    2    0    0 -0.73295110193E+02  0.15719428228E+03  0.24114835437E+03  0.32305377938E+03  0.12700000000E+03 0.  0.
   -5000001    1    1    2    0    0  0.73295110193E+02 -0.15719428228E+03  0.14989898369E+03  0.26207045020E+03  0.12700000000E+03 0.  0.
<mgrwt>
<rscale>  0 0.43526124E+03</rscale>
<asrwt>0</asrwt>
<pdfrwt beam="1">  1        2 0.69726541E-01 0.43526124E+03</pdfrwt>
<pdfrwt beam="2">  1       -2 0.13862635E-01 0.43526124E+03</pdfrwt>
<totfact> 0.27330838E+03</totfact>
</mgrwt>
</event>
<event>
 4    1  0.1390278E-004  0.4267425E+03  0.7818608E-02  0.1034894E+00
          2   -1    0    0  501    0  0.00000000000E+00  0.00000000000E+00  0.19317426179E+04  0.19317426179E+04  0.25500000000E-02 0.  1.
         -2   -1    0    0    0  501 -0.00000000000E+00 -0.00000000000E+00 -0.23567985723E+02  0.23567985861E+02  0.25500000000E-02 0. -1.
    5000001    1    1    2    0    0  0.13669566977E+03 -0.10250406913E+03  0.88840512630E+03  0.91355648909E+03  0.12700000000E+03 0.  0.
   -5000001    1    1    2    0    0 -0.13669566977E+03  0.10250406913E+03  0.10197695059E+04  0.10417541147E+04  0.12700000000E+03 0.  0.
<mgrwt>
<rscale>  0 0.42674246E+03</rscale>
<asrwt>0</asrwt>
<pdfrwt beam="1">  1        2 0.27596330E+00 0.42674246E+03</pdfrwt>
<pdfrwt beam="2">  1       -2 0.33668543E-02 0.42674246E+03</pdfrwt>
<totfact> 0.33890428E+03</totfact>
</mgrwt>
</event>
<event>
 4    1  0.1390278E-004  0.5431304E+03  0.7818608E-02  0.1003097E+00
          2   -1    0    0  501    0  0.00000000000E+00  0.00000000000E+00  0.26898726175E+02  0.26898726296E+02  0.25500000000E-02 0.  1.
         -2   -1    0    0    0  501 -0.00000000000E+00 -0.00000000000E+00 -0.27416781100E+04  0.27416781100E+04  0.25500000000E-02 0. -1.
    5000001    1    1    2    0    0  0.19454954908E+02  0.22016634802E+03 -0.88010628585E+03  0.91627931902E+03  0.12700000000E+03 0.  0.
   -5000001    1    1    2    0    0 -0.19454954908E+02 -0.22016634802E+03 -0.18346730980E+04  0.18522975173E+04  0.12700000000E+03 0.  0.
<mgrwt>
<rscale>  0 0.54313037E+03</rscale>
<asrwt>0</asrwt>
<pdfrwt beam="1">  1        2 0.38426769E-02 0.54313037E+03</pdfrwt>
<pdfrwt beam="2">  1       -2 0.39166812E+00 0.54313037E+03</pdfrwt>
<totfact> 0.21769950E+01</totfact>
</mgrwt>
</event>
<event>
 4    1  0.1390278E-004  0.3285792E+03  0.7818608E-02  0.1071767E+00
          2   -1    0    0  501    0  0.00000000000E+00  0.00000000000E+00  0.94206210359E+03  0.94206210359E+03  0.25500000000E-02 0.  1.
         -2   -1    0    0    0  501 -0.00000000000E+00 -0.00000000000E+00 -0.28651058737E+02  0.28651058850E+02  0.25500000000E-02 0. -1.
    5000001    1    1    2    0    0  0.66699193868E+02 -0.36566795414E+02  0.24622174514E+03  0.28729786071E+03  0.12700000000E+03 0.  0.
   -5000001    1    1    2    0    0 -0.66699193868E+02  0.36566795414E+02  0.66718929971E+03  0.68341530173E+03  0.12700000000E+03 0.  0.
<mgrwt>
<rscale>  0 0.32857922E+03</rscale>
<asrwt>0</asrwt>
<pdfrwt beam="1">  1        2 0.13458029E+00 0.32857922E+03</pdfrwt>
<pdfrwt beam="2">  1       -2 0.40930086E-02 0.32857922E+03</pdfrwt>
<totfact> 0.84103211E+03</totfact>
</mgrwt>
</event>
<event>
 4    1  0.1390278E-004  0.3733527E+03  0.7818608E-02  0.1053418E+00
         -2   -1    0    0    0  501 -0.00000000000E+00  0.00000000000E+00  0.13043932244E+02  0.13043932493E+02  0.25500000000E-02 0.  1.
          2   -1    0    0  501    0  0.00000000000E+00 -0.00000000000E+00 -0.26715915069E+04  0.26715915069E+04  0.25500000000E-02 0. -1.
    5000001    1    1    2    0    0  0.77693658656E+02  0.11137137459E+03 -0.14494175924E+04  0.14612940309E+04  0.12700000000E+03 0.  0.
   -5000001    1    1    2    0    0 -0.77693658656E+02 -0.11137137459E+03 -0.12091299823E+04  0.12233414085E+04  0.12700000000E+03 0.  0.
<mgrwt>
<rscale>  0 0.37335270E+03</rscale>
<asrwt>0</asrwt>
<pdfrwt beam="1">  1        2 0.38165558E+00 0.37335270E+03</pdfrwt>
<pdfrwt beam="2">  1       -2 0.18634206E-02 0.37335270E+03</pdfrwt>
<totfact> 0.35071145E+03</totfact>
</mgrwt>
</event>
<event>
 4    1  0.1390278E-004  0.4820153E+03  0.7818608E-02  0.1018583E+00
          2   -1    0    0  501    0  0.00000000000E+00  0.00000000000E+00  0.17615029056E+04  0.17615029056E+04  0.25500000000E-02 0.  1.
         -2   -1    0    0    0  501 -0.00000000000E+00 -0.00000000000E+00 -0.32974504977E+02  0.32974505075E+02  0.25500000000E-02 0. -1.
    5000001    1    1    2    0    0 -0.17288826049E+03  0.54885935910E+02  0.12184819451E+04  0.12384385601E+04  0.12700000000E+03 0.  0.
   -5000001    1    1    2    0    0  0.17288826049E+03 -0.54885935910E+02  0.51004645554E+03  0.55603885061E+03  0.12700000000E+03 0.  0.
<mgrwt>
<rscale>  0 0.48201530E+03</rscale>
<asrwt>0</asrwt>
<pdfrwt beam="1">  1        2 0.25164331E+00 0.48201530E+03</pdfrwt>
<pdfrwt beam="2">  1       -2 0.47106428E-02 0.48201530E+03</pdfrwt>
<totfact> 0.24652592E+03</totfact>
</mgrwt>
</event>
<event>
 4    1  0.1390278E-004  0.3853993E+03  0.7818608E-02  0.1048956E+00
          2   -1    0    0  501    0  0.00000000000E+00  0.00000000000E+00  0.11748605956E+04  0.11748605956E+04  0.25500000000E-02 0.  1.
         -2   -1    0    0    0  501 -0.00000000000E+00 -0.00000000000E+00 -0.31606442966E+02  0.31606443069E+02  0.25500000000E-02 0. -1.
    5000001    1    1    2    0    0 -0.11684718944E+03  0.84983917216E+02  0.53612285276E+03  0.56958954091E+03  0.12700000000E+03 0.  0.
   -5000001    1    1    2    0    0  0.11684718944E+03 -0.84983917216E+02  0.60713129987E+03  0.63687749776E+03  0.12700000000E+03 0.  0.
<mgrwt>
<rscale>  0 0.38539935E+03</rscale>
<asrwt>0</asrwt>
<pdfrwt beam="1">  1        2 0.16783725E+00 0.38539935E+03</pdfrwt>
<pdfrwt beam="2">  1       -2 0.45152057E-02 0.38539935E+03</pdfrwt>
<totfact> 0.53199693E+03</totfact>
</mgrwt>
</event>
<event>
 4    1  0.1390278E-004  0.4987439E+03  0.7818608E-02  0.1014107E+00
         -2   -1    0    0    0  501 -0.00000000000E+00  0.00000000000E+00  0.37746109048E+02  0.37746109134E+02  0.25500000000E-02 0. -1.
          2   -1    0    0  501    0  0.00000000000E+00 -0.00000000000E+00 -0.16474906833E+04  0.16474906833E+04  0.25500000000E-02 0.  1.
    5000001    1    1    2    0    0 -0.43978325140E+02  0.20713335065E+03 -0.92284816869E+03  0.95530940563E+03  0.12700000000E+03 0.  0.
   -5000001    1    1    2    0    0  0.43978325140E+02 -0.20713335065E+03 -0.68689640560E+03  0.72992738685E+03  0.12700000000E+03 0.  0.
<mgrwt>
<rscale>  0 0.49874387E+03</rscale>
<asrwt>0</asrwt>
<pdfrwt beam="1">  1        2 0.23535577E+00 0.49874387E+03</pdfrwt>
<pdfrwt beam="2">  1       -2 0.53923023E-02 0.49874387E+03</pdfrwt>
<totfact> 0.22832389E+03</totfact>
</mgrwt>
</event>
<event>
 4    1  0.1390278E-004  0.3026973E+03  0.7818608E-02  0.1083900E+00
         -2   -1    0    0    0  501 -0.00000000000E+00  0.00000000000E+00  0.62682365991E+02  0.62682366043E+02  0.25500000000E-02 0. -1.
          2   -1    0    0  501    0  0.00000000000E+00 -0.00000000000E+00 -0.36543635582E+03  0.36543635583E+03  0.25500000000E-02 0.  1.
    5000001    1    1    2    0    0  0.51181795896E+02  0.25600350661E+00 -0.24257515558E+03  0.27855223545E+03  0.12700000000E+03 0.  0.
   -5000001    1    1    2    0    0 -0.51181795896E+02 -0.25600350661E+00 -0.60178834247E+02  0.14956648642E+03  0.12700000000E+03 0.  0.
<mgrwt>
<rscale>  0 0.30269731E+03</rscale>
<asrwt>0</asrwt>
<pdfrwt beam="1">  1        2 0.52205193E-01 0.30269731E+03</pdfrwt>
<pdfrwt beam="2">  1       -2 0.89546239E-02 0.30269731E+03</pdfrwt>
<totfact> 0.75470831E+03</totfact>
</mgrwt>
</event>
<event>
 4    1  0.1390278E-004  0.3058467E+03  0.7818608E-02  0.1082354E+00
         -2   -1    0    0    0  501 -0.00000000000E+00  0.00000000000E+00  0.18823590763E+02  0.18823590936E+02  0.25500000000E-02 0. -1.
          2   -1    0    0  501    0  0.00000000000E+00 -0.00000000000E+00 -0.12423531102E+04  0.12423531102E+04  0.25500000000E-02 0.  1.
    5000001    1    1    2    0    0  0.59344006475E+02  0.22826665433E+02 -0.84553013045E+03  0.85737562903E+03  0.12700000000E+03 0.  0.
   -5000001    1    1    2    0    0 -0.59344006475E+02 -0.22826665433E+02 -0.37799938898E+03  0.40380107210E+03  0.12700000000E+03 0.  0.
<mgrwt>
<rscale>  0 0.30584667E+03</rscale>
<asrwt>0</asrwt>
<pdfrwt beam="1">  1        2 0.17747896E+00 0.30584667E+03</pdfrwt>
<pdfrwt beam="2">  1       -2 0.26890852E-02 0.30584667E+03</pdfrwt>
<totfact> 0.10620338E+04</totfact>
</mgrwt>
</event>
<event>
 4    1  0.1390278E-004  0.6997274E+03  0.7818608E-02  0.9717699E-01
          2   -1    0    0  501    0  0.00000000000E+00  0.00000000000E+00  0.53001760869E+03  0.53001760870E+03  0.25500000000E-02 0.  1.
         -2   -1    0    0    0  501 -0.00000000000E+00 -0.00000000000E+00 -0.23094439062E+03  0.23094439063E+03  0.25500000000E-02 0. -1.
    5000001    1    1    2    0    0  0.34668662431E+02 -0.28041773544E+03  0.32636879641E+03  0.44997957040E+03  0.12700000000E+03 0.  0.
   -5000001    1    1    2    0    0 -0.34668662431E+02  0.28041773544E+03 -0.27295578340E+02  0.31098242893E+03  0.12700000000E+03 0.  0.
<mgrwt>
<rscale>  0 0.69972736E+03</rscale>
<asrwt>0</asrwt>
<pdfrwt beam="1">  1        2 0.75716802E-01 0.69972736E+03</pdfrwt>
<pdfrwt beam="2">  1       -2 0.32992056E-01 0.69972736E+03</pdfrwt>
<totfact> 0.54085097E+02</totfact>
</mgrwt>
</event>
<event>
 4    1  0.1390278E-004  0.3062230E+03  0.7818608E-02  0.1082171E+00
          2   -1    0    0  501    0  0.00000000000E+00  0.00000000000E+00  0.51652359841E+02  0.51652359904E+02  0.25500000000E-02 0.  1.
         -2   -1    0    0    0  501 -0.00000000000E+00 -0.00000000000E+00 -0.45386363418E+03  0.45386363419E+03  0.25500000000E-02 0. -1.
    5000001    1    1    2    0    0  0.72410632019E+02  0.39428693772E+02 -0.16359894569E+03  0.22291598542E+03  0.12700000000E+03 0.  0.
   -5000001    1    1    2    0    0 -0.72410632019E+02 -0.39428693772E+02 -0.23861232865E+03  0.28260000868E+03  0.12700000000E+03 0.  0.
<mgrwt>
<rscale>  0 0.30622298E+03</rscale>
<asrwt>0</asrwt>
<pdfrwt beam="1">  1        2 0.73789088E-02 0.30622298E+03</pdfrwt>
<pdfrwt beam="2">  1       -2 0.64837660E-01 0.30622298E+03</pdfrwt>
<totfact> 0.21239502E+03</totfact>
</mgrwt>
</event>
<event>
 4    1  0.1390278E-004  0.6700309E+03  0.7818608E-02  0.9769902E-01
         -2   -1    0    0    0  501 -0.00000000000E+00  0.00000000000E+00  0.20581185832E+03  0.20581185833E+03  0.25500000000E-02 0. -1.
          2   -1    0    0  501    0  0.00000000000E+00 -0.00000000000E+00 -0.54532978828E+03  0.54532978829E+03  0.25500000000E-02 0.  1.
    5000001    1    1    2    0    0  0.29323487484E+03  0.92591790444E+02 -0.12567417747E+03  0.35564438751E+03  0.12700000000E+03 0.  0.
   -5000001    1    1    2    0    0 -0.29323487484E+03 -0.92591790444E+02 -0.21384375250E+03  0.39549725911E+03  0.12700000000E+03 0.  0.
<mgrwt>
<rscale>  0 0.67003086E+03</rscale>
<asrwt>0</asrwt>
<pdfrwt beam="1">  1        2 0.77904255E-01 0.67003086E+03</pdfrwt>
<pdfrwt beam="2">  1       -2 0.29401694E-01 0.67003086E+03</pdfrwt>
<totfact> 0.64908045E+02</totfact>
</mgrwt>
</event>
<event>
 4    1  0.1390278E-004  0.5396893E+03  0.7818608E-02  0.1003909E+00
         -2   -1    0    0    0  501 -0.00000000000E+00  0.00000000000E+00  0.16862706049E+03  0.16862706051E+03  0.25500000000E-02 0. -1.
          2   -1    0    0  501    0  0.00000000000E+00 -0.00000000000E+00 -0.43181760920E+03  0.43181760920E+03  0.25500000000E-02 0.  1.
    5000001    1    1    2    0    0 -0.12817275212E+03 -0.20046728623E+03 -0.12217137388E+03  0.29609159366E+03  0.12700000000E+03 0.  0.
   -5000001    1    1    2    0    0  0.12817275212E+03  0.20046728623E+03 -0.14101917482E+03  0.30435307606E+03  0.12700000000E+03 0.  0.
<mgrwt>
<rscale>  0 0.53968930E+03</rscale>
<asrwt>0</asrwt>
<pdfrwt beam="1">  1        2 0.61688230E-01 0.53968930E+03</pdfrwt>
<pdfrwt beam="2">  1       -2 0.24089580E-01 0.53968930E+03</pdfrwt>
<totfact> 0.12158701E+03</totfact>
</mgrwt>
</event>
<event>
 4    1  0.1390278E-004  0.5889837E+03  0.7818608E-02  0.9928529E-01
          2   -1    0    0  501    0  0.00000000000E+00  0.00000000000E+00  0.10723322793E+04  0.10723322793E+04  0.25500000000E-02 0.  1.
         -2   -1    0    0    0  501 -0.00000000000E+00 -0.00000000000E+00 -0.80875532020E+02  0.80875532060E+02  0.25500000000E-02 0. -1.
    5000001    1    1    2    0    0 -0.13882947384E+03 -0.18895110856E+03  0.25101990939E+03  0.36621870398E+03  0.12700000000E+03 0.  0.
   -5000001    1    1    2    0    0  0.13882947384E+03  0.18895110856E+03  0.74043683786E+03  0.78698910736E+03  0.12700000000E+03 0.  0.
<mgrwt>
<rscale>  0 0.58898368E+03</rscale>
<asrwt>0</asrwt>
<pdfrwt beam="1">  1        2 0.15319034E+00 0.58898368E+03</pdfrwt>
<pdfrwt beam="2">  1       -2 0.11553646E-01 0.58898368E+03</pdfrwt>
<totfact> 0.13827490E+03</totfact>
</mgrwt>
</event>
<event>
 4    1  0.1390278E-004  0.5269555E+03  0.7818608E-02  0.1006973E+00
         -2   -1    0    0    0  501 -0.00000000000E+00  0.00000000000E+00  0.60669829127E+02  0.60669829181E+02  0.25500000000E-02 0. -1.
          2   -1    0    0  501    0  0.00000000000E+00 -0.00000000000E+00 -0.11442346589E+04  0.11442346589E+04  0.25500000000E-02 0.  1.
    5000001    1    1    2    0    0 -0.20860072409E+03  0.91835019074E+02 -0.45796933070E+03  0.52707953923E+03  0.12700000000E+03 0.  0.
   -5000001    1    1    2    0    0  0.20860072409E+03 -0.91835019074E+02 -0.62559549909E+03  0.67782494886E+03  0.12700000000E+03 0.  0.
<mgrwt>
<rscale>  0 0.52695549E+03</rscale>
<asrwt>0</asrwt>
<pdfrwt beam="1">  1        2 0.16346208E+00 0.52695549E+03</pdfrwt>
<pdfrwt beam="2">  1       -2 0.86671191E-02 0.52695549E+03</pdfrwt>
<totfact> 0.20030289E+03</totfact>
</mgrwt>
</event>
<event>
 4    1  0.1390278E-004  0.2916542E+03  0.7818608E-02  0.1089489E+00
         -2   -1    0    0    0  501 -0.00000000000E+00  0.00000000000E+00  0.21971060284E+02  0.21971060432E+02  0.25500000000E-02 0. -1.
          2   -1    0    0  501    0  0.00000000000E+00 -0.00000000000E+00 -0.96788904398E+03  0.96788904398E+03  0.25500000000E-02 0.  1.
    5000001    1    1    2    0    0  0.25111243859E+01 -0.71462980748E+02 -0.45658155474E+03  0.47927964644E+03  0.12700000000E+03 0.  0.
   -5000001    1    1    2    0    0 -0.25111243859E+01  0.71462980748E+02 -0.48933642895E+03  0.51058045797E+03  0.12700000000E+03 0.  0.
<mgrwt>
<rscale>  0 0.29165424E+03</rscale>
<asrwt>0</asrwt>
<pdfrwt beam="1">  1        2 0.13826984E+00 0.29165424E+03</pdfrwt>
<pdfrwt beam="2">  1       -2 0.31387235E-02 0.29165424E+03</pdfrwt>
<totfact> 0.12045582E+04</totfact>
</mgrwt>
</event>
<event>
 4    1  0.1390278E-004  0.4726381E+03  0.7818608E-02  0.1021178E+00
          2   -1    0    0  501    0  0.00000000000E+00  0.00000000000E+00  0.10984416265E+04  0.10984416265E+04  0.25500000000E-02 0. -1.
         -2   -1    0    0    0  501 -0.00000000000E+00 -0.00000000000E+00 -0.50841752334E+02  0.50841752398E+02  0.25500000000E-02 0.  1.
    5000001    1    1    2    0    0 -0.11505984793E+03  0.34235573555E+02  0.13697232770E+03  0.22203887420E+03  0.12700000000E+03 0.  0.
   -5000001    1    1    2    0    0  0.11505984793E+03 -0.34235573555E+02  0.91062754648E+03  0.92724450470E+03  0.12700000000E+03 0.  0.
<mgrwt>
<rscale>  0 0.47263812E+03</rscale>
<asrwt>0</asrwt>
<pdfrwt beam="1">  1        2 0.15692023E+00 0.47263812E+03</pdfrwt>
<pdfrwt beam="2">  1       -2 0.72631076E-02 0.47263812E+03</pdfrwt>
<totfact> 0.28171396E+03</totfact>
</mgrwt>
</event>
<event>
 4    1  0.1390278E-004  0.1004834E+04  0.7818608E-02  0.9303259E-01
          2   -1    0    0  501    0  0.00000000000E+00  0.00000000000E+00  0.30953599832E+04  0.30953599832E+04  0.25500000000E-02 0.  1.
         -2   -1    0    0    0  501 -0.00000000000E+00 -0.00000000000E+00 -0.81548749657E+02  0.81548749697E+02  0.25500000000E-02 0. -1.
    5000001    1    1    2    0    0 -0.17569484501E+03  0.44570563404E+03  0.17670739370E+04  0.18352660541E+04  0.12700000000E+03 0.  0.
   -5000001    1    1    2    0    0  0.17569484501E+03 -0.44570563404E+03  0.12467372965E+04  0.13416426787E+04  0.12700000000E+03 0.  0.
<mgrwt>
<rscale>  0 0.10048338E+04</rscale>
<asrwt>0</asrwt>
<pdfrwt beam="1">  1        2 0.44219411E+00 0.10048338E+04</pdfrwt>
<pdfrwt beam="2">  1       -2 0.11649826E-01 0.10048338E+04</pdfrwt>
<totfact> 0.11388932E+02</totfact>
</mgrwt>
</event>
<event>
 4    1  0.1390278E-004  0.3626507E+03  0.7818608E-02  0.1057539E+00
          2   -1    0    0  501    0  0.00000000000E+00  0.00000000000E+00  0.62327874565E+03  0.62327874566E+03  0.25500000000E-02 0.  1.
         -2   -1    0    0    0  501 -0.00000000000E+00 -0.00000000000E+00 -0.52751496837E+02  0.52751496899E+02  0.25500000000E-02 0. -1.
    5000001    1    1    2    0    0 -0.50670969949E+02  0.11907633786E+03  0.28858019904E+03  0.34081410287E+03  0.12700000000E+03 0.  0.
   -5000001    1    1    2    0    0  0.50670969949E+02 -0.11907633786E+03  0.28194704977E+03  0.33521613969E+03  0.12700000000E+03 0.  0.
<mgrwt>
<rscale>  0 0.36265072E+03</rscale>
<asrwt>0</asrwt>
<pdfrwt beam="1">  1        2 0.89039817E-01 0.36265072E+03</pdfrwt>
<pdfrwt beam="2">  1       -2 0.75359285E-02 0.36265072E+03</pdfrwt>
<totfact> 0.54956637E+03</totfact>
</mgrwt>
</event>
<event>
 4    1  0.1390278E-004  0.6698325E+03  0.7818608E-02  0.9770260E-01
          2   -1    0    0  501    0  0.00000000000E+00  0.00000000000E+00  0.92985149162E+03  0.92985149162E+03  0.25500000000E-02 0.  1.
         -2   -1    0    0    0  501 -0.00000000000E+00 -0.00000000000E+00 -0.12063098862E+03  0.12063098864E+03  0.25500000000E-02 0. -1.
    5000001    1    1    2    0    0  0.24571008964E+03 -0.16482985036E+03  0.26004293062E+03  0.41387637464E+03  0.12700000000E+03 0.  0.
   -5000001    1    1    2    0    0 -0.24571008964E+03  0.16482985036E+03  0.54917757238E+03  0.63660610563E+03  0.12700000000E+03 0.  0.
<mgrwt>
<rscale>  0 0.66983253E+03</rscale>
<asrwt>0</asrwt>
<pdfrwt beam="1">  1        2 0.13283593E+00 0.66983253E+03</pdfrwt>
<pdfrwt beam="2">  1       -2 0.17232998E-01 0.66983253E+03</pdfrwt>
<totfact> 0.86306835E+02</totfact>
</mgrwt>
</event>
<event>
 4    1  0.1390278E-004  0.4214030E+03  0.7818608E-02  0.1036611E+00
         -2   -1    0    0    0  501 -0.00000000000E+00  0.00000000000E+00  0.55063207031E+02  0.55063207091E+02  0.25500000000E-02 0. -1.
          2   -1    0    0  501    0  0.00000000000E+00 -0.00000000000E+00 -0.80625763907E+03  0.80625763907E+03  0.25500000000E-02 0.  1.
    5000001    1    1    2    0    0 -0.10015170224E+03 -0.75082727156E+02 -0.14618097554E+03  0.23057679196E+03  0.12700000000E+03 0.  0.
   -5000001    1    1    2    0    0  0.10015170224E+03  0.75082727156E+02 -0.60501345649E+03  0.63074405421E+03  0.12700000000E+03 0.  0.
<mgrwt>
<rscale>  0 0.42140304E+03</rscale>
<asrwt>0</asrwt>
<pdfrwt beam="1">  1        2 0.11517966E+00 0.42140304E+03</pdfrwt>
<pdfrwt beam="2">  1       -2 0.78661729E-02 0.42140304E+03</pdfrwt>
<totfact> 0.37719481E+03</totfact>
</mgrwt>
</event>
<event>
 4    1  0.1390278E-004  0.2953847E+03  0.7818608E-02  0.1087571E+00
          2   -1    0    0  501    0  0.00000000000E+00  0.00000000000E+00  0.49300698776E+03  0.49300698776E+03  0.25500000000E-02 0.  1.
         -2   -1    0    0    0  501 -0.00000000000E+00 -0.00000000000E+00 -0.44244879861E+02  0.44244879934E+02  0.25500000000E-02 0. -1.
    5000001    1    1    2    0    0  0.42844090730E+02  0.56437167260E+02  0.17753926933E+03  0.22949937279E+03  0.12700000000E+03 0.  0.
   -5000001    1    1    2    0    0 -0.42844090730E+02 -0.56437167260E+02  0.27122283857E+03  0.30775249490E+03  0.12700000000E+03 0.  0.
<mgrwt>
<rscale>  0 0.29538473E+03</rscale>
<asrwt>0</asrwt>
<pdfrwt beam="1">  1        2 0.70429566E-01 0.29538473E+03</pdfrwt>
<pdfrwt beam="2">  1       -2 0.63206974E-02 0.29538473E+03</pdfrwt>
<totfact> 0.93639397E+03</totfact>
</mgrwt>
</event>
<event>
 4    1  0.1390278E-004  0.3727553E+03  0.7818608E-02  0.1053644E+00
          2   -1    0    0  501    0  0.00000000000E+00  0.00000000000E+00  0.28163414047E+04  0.28163414047E+04  0.25500000000E-02 0.  1.
         -2   -1    0    0    0  501 -0.00000000000E+00 -0.00000000000E+00 -0.12333957880E+02  0.12333958144E+02  0.25500000000E-02 0. -1.
    5000001    1    1    2    0    0 -0.99325154688E+00 -0.13472127888E+03  0.12398095825E+04  0.12535579804E+04  0.12700000000E+03 0.  0.
   -5000001    1    1    2    0    0  0.99325154688E+00  0.13472127888E+03  0.15641978644E+04  0.15751173825E+04  0.12700000000E+03 0.  0.
<mgrwt>
<rscale>  0 0.37275534E+03</rscale>
<asrwt>0</asrwt>
<pdfrwt beam="1">  1        2 0.40233444E+00 0.37275534E+03</pdfrwt>
<pdfrwt beam="2">  1       -2 0.17619942E-02 0.37275534E+03</pdfrwt>
<totfact> 0.32064941E+03</totfact>
</mgrwt>
</event>
<event>
 4    1  0.1390278E-004  0.7793462E+03  0.7818608E-02  0.9590403E-01
         -2   -1    0    0    0  501 -0.00000000000E+00  0.00000000000E+00  0.10305511393E+03  0.10305511396E+03  0.25500000000E-02 0. -1.
          2   -1    0    0  501    0  0.00000000000E+00 -0.00000000000E+00 -0.14734361152E+04  0.14734361152E+04  0.25500000000E-02 0.  1.
    5000001    1    1    2    0    0 -0.11418689962E+03 -0.31384266959E+03 -0.99974188017E+03  0.10616725937E+04  0.12700000000E+03 0.  0.
   -5000001    1    1    2    0    0  0.11418689962E+03  0.31384266959E+03 -0.37063912106E+03  0.51481863541E+03  0.12700000000E+03 0.  0.
<mgrwt>
<rscale>  0 0.77934620E+03</rscale>
<asrwt>0</asrwt>
<pdfrwt beam="1">  1        2 0.21049086E+00 0.77934620E+03</pdfrwt>
<pdfrwt beam="2">  1       -2 0.14722160E-01 0.77934620E+03</pdfrwt>
<totfact> 0.55046675E+02</totfact>
</mgrwt>
</event>
<event>
 4    1  0.1390278E-004  0.3439328E+03  0.7818608E-02  0.1065133E+00
          2   -1    0    0  501    0  0.00000000000E+00  0.00000000000E+00  0.12814597185E+04  0.12814597185E+04  0.25500000000E-02 0.  1.
         -2   -1    0    0    0  501 -0.00000000000E+00 -0.00000000000E+00 -0.23077156510E+02  0.23077156651E+02  0.25500000000E-02 0. -1.
    5000001    1    1    2    0    0  0.90236051025E+02  0.59311153895E+02  0.78935686802E+03  0.80676739087E+03  0.12700000000E+03 0.  0.
   -5000001    1    1    2    0    0 -0.90236051025E+02 -0.59311153895E+02  0.46902569400E+03  0.49776948431E+03  0.12700000000E+03 0.  0.
<mgrwt>
<rscale>  0 0.34393282E+03</rscale>
<asrwt>0</asrwt>
<pdfrwt beam="1">  1        2 0.18306570E+00 0.34393282E+03</pdfrwt>
<pdfrwt beam="2">  1       -2 0.32967362E-02 0.34393282E+03</pdfrwt>
<totfact> 0.74816029E+03</totfact>
</mgrwt>
</event>
<event>
 4    1  0.1390278E-004  0.4466203E+03  0.7818608E-02  0.1028735E+00
          2   -1    0    0  501    0  0.00000000000E+00  0.00000000000E+00  0.42556023710E+04  0.42556023710E+04  0.25500000000E-02 0.  1.
         -2   -1    0    0    0  501 -0.00000000000E+00 -0.00000000000E+00 -0.11718063472E+02  0.11718063750E+02  0.25500000000E-02 0. -1.
    5000001    1    1    2    0    0  0.11268130249E+03 -0.13481003669E+03  0.26335955953E+04  0.26425036578E+04  0.12700000000E+03 0.  0.
   -5000001    1    1    2    0    0 -0.11268130249E+03  0.13481003669E+03  0.16102887123E+04  0.16248167770E+04  0.12700000000E+03 0.  0.
<mgrwt>
<rscale>  0 0.44662028E+03</rscale>
<asrwt>0</asrwt>
<pdfrwt beam="1">  1        2 0.60794481E+00 0.44662028E+03</pdfrwt>
<pdfrwt beam="2">  1       -2 0.16740047E-02 0.44662028E+03</pdfrwt>
<totfact> 0.47000051E+02</totfact>
</mgrwt>
</event>
<event>
 4    1  0.1390278E-004  0.3215164E+03  0.7818608E-02  0.1074954E+00
          2   -1    0    0  501    0  0.00000000000E+00  0.00000000000E+00  0.10662588683E+04  0.10662588683E+04  0.25500000000E-02 0.  1.
         -2   -1    0    0    0  501 -0.00000000000E+00 -0.00000000000E+00 -0.24237265955E+02  0.24237266089E+02  0.25500000000E-02 0. -1.
    5000001    1    1    2    0    0  0.54556768780E+02 -0.68161243104E+02  0.36588592008E+03  0.39701876857E+03  0.12700000000E+03 0.  0.
   -5000001    1    1    2    0    0 -0.54556768780E+02  0.68161243104E+02  0.67613568226E+03  0.69347736582E+03  0.12700000000E+03 0.  0.
<mgrwt>
<rscale>  0 0.32151641E+03</rscale>
<asrwt>0</asrwt>
<pdfrwt beam="1">  1        2 0.15232267E+00 0.32151641E+03</pdfrwt>
<pdfrwt beam="2">  1       -2 0.34624671E-02 0.32151641E+03</pdfrwt>
<totfact> 0.91279782E+03</totfact>
</mgrwt>
</event>
<event>
 4    1  0.1390278E-004  0.3815933E+03  0.7818608E-02  0.1050346E+00
         -2   -1    0    0    0  501 -0.00000000000E+00  0.00000000000E+00  0.25550725011E+02  0.25550725139E+02  0.25500000000E-02 0. -1.
          2   -1    0    0  501    0  0.00000000000E+00 -0.00000000000E+00 -0.14247490341E+04  0.14247490341E+04  0.25500000000E-02 0.  1.
    5000001    1    1    2    0    0 -0.13697205813E+03  0.37401660547E+02 -0.74020416550E+03  0.76432416915E+03  0.12700000000E+03 0.  0.
   -5000001    1    1    2    0    0  0.13697205813E+03 -0.37401660547E+02 -0.65899414357E+03  0.68597559008E+03  0.12700000000E+03 0.  0.
<mgrwt>
<rscale>  0 0.38159335E+03</rscale>
<asrwt>0</asrwt>
<pdfrwt beam="1">  1        2 0.20353553E+00 0.38159335E+03</pdfrwt>
<pdfrwt beam="2">  1       -2 0.36501045E-02 0.38159335E+03</pdfrwt>
<totfact> 0.54010672E+03</totfact>
</mgrwt>
</event>
<event>
 4    1  0.1390278E-004  0.5686810E+03  0.7818608E-02  0.9972602E-01
          2   -1    0    0  501    0  0.00000000000E+00  0.00000000000E+00  0.63191587817E+03  0.63191587818E+03  0.25500000000E-02 0.  1.
         -2   -1    0    0    0  501 -0.00000000000E+00 -0.00000000000E+00 -0.12794348997E+03  0.12794348999E+03  0.25500000000E-02 0. -1.
    5000001    1    1    2    0    0 -0.23997021287E+03  0.51927381923E+01  0.36463686512E+03  0.45464459856E+03  0.12700000000E+03 0.  0.
   -5000001    1    1    2    0    0  0.23997021287E+03 -0.51927381923E+01  0.13933552309E+03  0.30521476961E+03  0.12700000000E+03 0.  0.
<mgrwt>
<rscale>  0 0.56868101E+03</rscale>
<asrwt>0</asrwt>
<pdfrwt beam="1">  1        2 0.90273700E-01 0.56868101E+03</pdfrwt>
<pdfrwt beam="2">  1       -2 0.18277641E-01 0.56868101E+03</pdfrwt>
<totfact> 0.12741689E+03</totfact>
</mgrwt>
</event>
<event>
 4    1  0.1390278E-004  0.7006036E+03  0.7818608E-02  0.9716201E-01
         -2   -1    0    0    0  501 -0.00000000000E+00  0.00000000000E+00  0.76624858981E+02  0.76624859024E+02  0.25500000000E-02 0. -1.
          2   -1    0    0  501    0  0.00000000000E+00 -0.00000000000E+00 -0.16014560319E+04  0.16014560319E+04  0.25500000000E-02 0.  1.
    5000001    1    1    2    0    0  0.23099200148E+03 -0.39946622763E+02 -0.21817781115E+03  0.34450485438E+03  0.12700000000E+03 0.  0.
   -5000001    1    1    2    0    0 -0.23099200148E+03  0.39946622763E+02 -0.13066533618E+04  0.13335760366E+04  0.12700000000E+03 0.  0.
<mgrwt>
<rscale>  0 0.70060358E+03</rscale>
<asrwt>0</asrwt>
<pdfrwt beam="1">  1        2 0.22877941E+00 0.70060358E+03</pdfrwt>
<pdfrwt beam="2">  1       -2 0.10946409E-01 0.70060358E+03</pdfrwt>
<totfact> 0.77533960E+02</totfact>
</mgrwt>
</event>
<event>
 4    1  0.1390278E-004  0.8185845E+03  0.7818608E-02  0.9533500E-01
         -2   -1    0    0    0  501 -0.00000000000E+00  0.00000000000E+00  0.22580127434E+03  0.22580127436E+03  0.25500000000E-02 0. -1.
          2   -1    0    0  501    0  0.00000000000E+00 -0.00000000000E+00 -0.74189198534E+03  0.74189198534E+03  0.25500000000E-02 0.  1.
    5000001    1    1    2    0    0  0.27227062173E+03 -0.23121665417E+03 -0.44041435451E+03  0.58110776649E+03  0.12700000000E+03 0.  0.
   -5000001    1    1    2    0    0 -0.27227062173E+03  0.23121665417E+03 -0.75676356494E+02  0.38658549321E+03  0.12700000000E+03 0.  0.
<mgrwt>
<rscale>  0 0.81858452E+03</rscale>
<asrwt>0</asrwt>
<pdfrwt beam="1">  1        2 0.10598457E+00 0.81858452E+03</pdfrwt>
<pdfrwt beam="2">  1       -2 0.32257325E-01 0.81858452E+03</pdfrwt>
<totfact> 0.37547450E+02</totfact>
</mgrwt>
</event>
<event>
 4    1  0.1390278E-004  0.3016235E+03  0.7818608E-02  0.1084432E+00
         -2   -1    0    0    0  501 -0.00000000000E+00  0.00000000000E+00  0.40402544471E+02  0.40402544551E+02  0.25500000000E-02 0. -1.
          2   -1    0    0  501    0  0.00000000000E+00 -0.00000000000E+00 -0.56293957959E+03  0.56293957960E+03  0.25500000000E-02 0.  1.
    5000001    1    1    2    0    0 -0.15025759084E+02  0.75892355106E+02 -0.31146679825E+03  0.34514633043E+03  0.12700000000E+03 0.  0.
   -5000001    1    1    2    0    0  0.15025759084E+02 -0.75892355106E+02 -0.21107023687E+03  0.25819579372E+03  0.12700000000E+03 0.  0.
<mgrwt>
<rscale>  0 0.30162355E+03</rscale>
<asrwt>0</asrwt>
<pdfrwt beam="1">  1        2 0.80419935E-01 0.30162355E+03</pdfrwt>
<pdfrwt beam="2">  1       -2 0.57717924E-02 0.30162355E+03</pdfrwt>
<totfact> 0.92903087E+03</totfact>
</mgrwt>
</event>
<event>
 4    1  0.1390278E-004  0.3597236E+03  0.7818608E-02  0.1058693E+00
          2   -1    0    0  501    0  0.00000000000E+00  0.00000000000E+00  0.15336537284E+04  0.15336537284E+04  0.25500000000E-02 0.  1.
         -2   -1    0    0    0  501 -0.00000000000E+00 -0.00000000000E+00 -0.21093596768E+02  0.21093596922E+02  0.25500000000E-02 0. -1.
    5000001    1    1    2    0    0 -0.11101897820E+03 -0.48520813427E+02  0.92598854461E+03  0.94247719739E+03  0.12700000000E+03 0.  0.
   -5000001    1    1    2    0    0  0.11101897820E+03  0.48520813427E+02  0.58657158700E+03  0.61227012791E+03  0.12700000000E+03 0.  0.
<mgrwt>
<rscale>  0 0.35972364E+03</rscale>
<asrwt>0</asrwt>
<pdfrwt beam="1">  1        2 0.21909338E+00 0.35972364E+03</pdfrwt>
<pdfrwt beam="2">  1       -2 0.30133712E-02 0.35972364E+03</pdfrwt>
<totfact> 0.63353810E+03</totfact>
</mgrwt>
</event>
<event>
 4    1  0.1390278E-004  0.2929139E+03  0.7818608E-02  0.1088838E+00
          2   -1    0    0  501    0  0.00000000000E+00  0.00000000000E+00  0.18979588372E+04  0.18979588372E+04  0.25500000000E-02 0.  1.
         -2   -1    0    0    0  501 -0.00000000000E+00 -0.00000000000E+00 -0.11301423932E+02  0.11301424220E+02  0.25500000000E-02 0. -1.
    5000001    1    1    2    0    0 -0.32988247994E+02  0.60783892362E+02  0.79217877802E+03  0.80526959611E+03  0.12700000000E+03 0.  0.
   -5000001    1    1    2    0    0  0.32988247994E+02 -0.60783892362E+02  0.10944786353E+04  0.11039906653E+04  0.12700000000E+03 0.  0.
<mgrwt>
<rscale>  0 0.29291390E+03</rscale>
<asrwt>0</asrwt>
<pdfrwt beam="1">  1        2 0.27113706E+00 0.29291390E+03</pdfrwt>
<pdfrwt beam="2">  1       -2 0.16144887E-02 0.29291390E+03</pdfrwt>
<totfact> 0.10507292E+04</totfact>
</mgrwt>
</event>
<event>
 4    1  0.1390278E-004  0.5507791E+03  0.7818608E-02  0.1001314E+00
          2   -1    0    0  501    0  0.00000000000E+00  0.00000000000E+00  0.21654882412E+03  0.21654882413E+03  0.25500000000E-02 0.  1.
         -2   -1    0    0    0  501 -0.00000000000E+00 -0.00000000000E+00 -0.35021851277E+03  0.35021851278E+03  0.25500000000E-02 0. -1.
    5000001    1    1    2    0    0 -0.21624585718E+03  0.45882601201E+02  0.40317220920E+02  0.25811230529E+03  0.12700000000E+03 0.  0.
   -5000001    1    1    2    0    0  0.21624585718E+03 -0.45882601201E+02 -0.17398690957E+03  0.30865503162E+03  0.12700000000E+03 0.  0.
<mgrwt>
<rscale>  0 0.55077911E+03</rscale>
<asrwt>0</asrwt>
<pdfrwt beam="1">  1        2 0.30935547E-01 0.55077911E+03</pdfrwt>
<pdfrwt beam="2">  1       -2 0.50031216E-01 0.55077911E+03</pdfrwt>
<totfact> 0.65371202E+02</totfact>
</mgrwt>
</event>
<event>
 4    1  0.1390278E-004  0.4305642E+03  0.7818608E-02  0.1033682E+00
          2   -1    0    0  501    0  0.00000000000E+00  0.00000000000E+00  0.58033125536E+03  0.58033125536E+03  0.25500000000E-02 0.  1.
         -2   -1    0    0    0  501 -0.00000000000E+00 -0.00000000000E+00 -0.79861962732E+02  0.79861962772E+02  0.25500000000E-02 0. -1.
    5000001    1    1    2    0    0  0.92699535561E+02 -0.11206614291E+03  0.10424373096E+03  0.21942602335E+03  0.12700000000E+03 0.  0.
   -5000001    1    1    2    0    0 -0.92699535561E+02  0.11206614291E+03  0.39622556167E+03  0.44076719479E+03  0.12700000000E+03 0.  0.
<mgrwt>
<rscale>  0 0.43056425E+03</rscale>
<asrwt>0</asrwt>
<pdfrwt beam="1">  1        2 0.82904463E-01 0.43056425E+03</pdfrwt>
<pdfrwt beam="2">  1       -2 0.11408852E-01 0.43056425E+03</pdfrwt>
<totfact> 0.30900018E+03</totfact>
</mgrwt>
</event>
<event>
 4    1  0.1390278E-004  0.3859542E+03  0.7818608E-02  0.1048755E+00
         -2   -1    0    0    0  501 -0.00000000000E+00  0.00000000000E+00  0.13481782923E+02  0.13481783164E+02  0.25500000000E-02 0. -1.
          2   -1    0    0  501    0  0.00000000000E+00 -0.00000000000E+00 -0.27622575298E+04  0.27622575298E+04  0.25500000000E-02 0.  1.
    5000001    1    1    2    0    0 -0.14301488280E+03  0.16224957661E+02 -0.12315151210E+04  0.12463847718E+04  0.12700000000E+03 0.  0.
   -5000001    1    1    2    0    0  0.14301488280E+03 -0.16224957661E+02 -0.15172606258E+04  0.15293545411E+04  0.12700000000E+03 0.  0.
<mgrwt>
<rscale>  0 0.38595418E+03</rscale>
<asrwt>0</asrwt>
<pdfrwt beam="1">  1        2 0.39460786E+00 0.38595418E+03</pdfrwt>
<pdfrwt beam="2">  1       -2 0.19259708E-02 0.38595418E+03</pdfrwt>
<totfact> 0.29960554E+03</totfact>
</mgrwt>
</event>
<event>
 4    1  0.1390278E-004  0.3772817E+03  0.7818608E-02  0.1051943E+00
          2   -1    0    0  501    0  0.00000000000E+00  0.00000000000E+00  0.12632892436E+04  0.12632892436E+04  0.25500000000E-02 0.  1.
         -2   -1    0    0    0  501 -0.00000000000E+00 -0.00000000000E+00 -0.28168820977E+02  0.28168821092E+02  0.25500000000E-02 0. -1.
    5000001    1    1    2    0    0  0.30319081059E+01 -0.11778577589E+03  0.36200433437E+03  0.40132134204E+03  0.12700000000E+03 0.  0.
   -5000001    1    1    2    0    0 -0.30319081059E+01  0.11778577589E+03  0.87311608826E+03  0.89013672267E+03  0.12700000000E+03 0.  0.
<mgrwt>
<rscale>  0 0.37728169E+03</rscale>
<asrwt>0</asrwt>
<pdfrwt beam="1">  1        2 0.18046988E+00 0.37728169E+03</pdfrwt>
<pdfrwt beam="2">  1       -2 0.40241175E-02 0.37728169E+03</pdfrwt>
<totfact> 0.56695984E+03</totfact>
</mgrwt>
</event>
<event>
 4    1  0.1390278E-004  0.4811336E+03  0.7818608E-02  0.1018824E+00
         -2   -1    0    0    0  501 -0.00000000000E+00  0.00000000000E+00  0.82593305128E+02  0.82593305167E+02  0.25500000000E-02 0. -1.
          2   -1    0    0  501    0  0.00000000000E+00 -0.00000000000E+00 -0.70069089917E+03  0.70069089917E+03  0.25500000000E-02 0.  1.
    5000001    1    1    2    0    0 -0.67436866725E+02  0.84086038651E+02 -0.26483665808E+02  0.16866706093E+03  0.12700000000E+03 0.  0.
   -5000001    1    1    2    0    0  0.67436866725E+02 -0.84086038651E+02 -0.59161392823E+03  0.61461714340E+03  0.12700000000E+03 0.  0.
<mgrwt>
<rscale>  0 0.48113357E+03</rscale>
<asrwt>0</asrwt>
<pdfrwt beam="1">  1        2 0.10009870E+00 0.48113357E+03</pdfrwt>
<pdfrwt beam="2">  1       -2 0.11799044E-01 0.48113357E+03</pdfrwt>
<totfact> 0.23431091E+03</totfact>
</mgrwt>
</event>
<event>
 4    1  0.1390278E-004  0.1906773E+04  0.7818608E-02  0.8651492E-01
          2   -1    0    0  501    0  0.00000000000E+00  0.00000000000E+00  0.33044804115E+04  0.33044804115E+04  0.25500000000E-02 0.  1.
         -2   -1    0    0    0  501 -0.00000000000E+00 -0.00000000000E+00 -0.27506476129E+03  0.27506476131E+03  0.25500000000E-02 0. -1.
    5000001    1    1    2    0    0  0.67389350387E+03 -0.63525138567E+03  0.18666179404E+04  0.20875986954E+04  0.12700000000E+03 0.  0.
   -5000001    1    1    2    0    0 -0.67389350387E+03  0.63525138567E+03  0.11627977098E+04  0.14919464774E+04  0.12700000000E+03 0.  0.
<mgrwt>
<rscale>  0 0.19067733E+04</rscale>
<asrwt>0</asrwt>
<pdfrwt beam="1">  1        2 0.47206860E+00 0.19067733E+04</pdfrwt>
<pdfrwt beam="2">  1       -2 0.39294969E-01 0.19067733E+04</pdfrwt>
<totfact> 0.90891744E+00</totfact>
</mgrwt>
</event>
<event>
 4    1  0.1390278E-004  0.3556202E+03  0.7818608E-02  0.1060332E+00
         -2   -1    0    0    0  501 -0.00000000000E+00  0.00000000000E+00  0.17634625982E+02  0.17634626166E+02  0.25500000000E-02 0. -1.
          2   -1    0    0  501    0  0.00000000000E+00 -0.00000000000E+00 -0.17928604254E+04  0.17928604254E+04  0.25500000000E-02 0.  1.
    5000001    1    1    2    0    0  0.90887966382E+02 -0.14973944911E+02 -0.13136427918E+04  0.13229781653E+04  0.12700000000E+03 0.  0.
   -5000001    1    1    2    0    0 -0.90887966382E+02  0.14973944911E+02 -0.46158300765E+03  0.48751688628E+03  0.12700000000E+03 0.  0.
<mgrwt>
<rscale>  0 0.35562015E+03</rscale>
<asrwt>0</asrwt>
<pdfrwt beam="1">  1        2 0.25612280E+00 0.35562015E+03</pdfrwt>
<pdfrwt beam="2">  1       -2 0.25192334E-02 0.35562015E+03</pdfrwt>
<totfact> 0.61419399E+03</totfact>
</mgrwt>
</event>
<event>
 4    1  0.1390278E-004  0.3513800E+03  0.7818608E-02  0.1062050E+00
         -2   -1    0    0    0  501 -0.00000000000E+00  0.00000000000E+00  0.55643267507E+03  0.55643267508E+03  0.25500000000E-02 0. -1.
          2   -1    0    0  501    0  0.00000000000E+00 -0.00000000000E+00 -0.55472989113E+02  0.55472989171E+02  0.25500000000E-02 0.  1.
    5000001    1    1    2    0    0  0.10446717993E+03 -0.22769880765E+02  0.15034920362E+03  0.22397710191E+03  0.12700000000E+03 0.  0.
   -5000001    1    1    2    0    0 -0.10446717993E+03  0.22769880765E+02  0.35061048234E+03  0.38792856234E+03  0.12700000000E+03 0.  0.
<mgrwt>
<rscale>  0 0.35138004E+03</rscale>
<asrwt>0</asrwt>
<pdfrwt beam="1">  1        2 0.79247127E-02 0.35138004E+03</pdfrwt>
<pdfrwt beam="2">  1       -2 0.79490383E-01 0.35138004E+03</pdfrwt>
<totfact> 0.12512435E+03</totfact>
</mgrwt>
</event>
<event>
 4    1  0.1390278E-004  0.4207131E+03  0.7818608E-02  0.1036834E+00
         -2   -1    0    0    0  501 -0.00000000000E+00  0.00000000000E+00  0.38332002366E+02  0.38332002451E+02  0.25500000000E-02 0. -1.
          2   -1    0    0  501    0  0.00000000000E+00 -0.00000000000E+00 -0.11543847449E+04  0.11543847449E+04  0.25500000000E-02 0.  1.
    5000001    1    1    2    0    0 -0.47709664689E+02 -0.78166861688E+02 -0.95628531349E+03  0.96901850919E+03  0.12700000000E+03 0.  0.
   -5000001    1    1    2    0    0  0.47709664689E+02  0.78166861688E+02 -0.15976742904E+03  0.22369823816E+03  0.12700000000E+03 0.  0.
<mgrwt>
<rscale>  0 0.42071310E+03</rscale>
<asrwt>0</asrwt>
<pdfrwt beam="1">  1        2 0.16491209E+00 0.42071310E+03</pdfrwt>
<pdfrwt beam="2">  1       -2 0.54760010E-02 0.42071310E+03</pdfrwt>
<totfact> 0.40649098E+03</totfact>
</mgrwt>
</event>
<event>
 4    1  0.1390278E-004  0.4365960E+03  0.7818608E-02  0.1031796E+00
          2   -1    0    0  501    0  0.00000000000E+00  0.00000000000E+00  0.13294896031E+03  0.13294896033E+03  0.25500000000E-02 0.  1.
         -2   -1    0    0    0  501 -0.00000000000E+00 -0.00000000000E+00 -0.35843835709E+03  0.35843835710E+03  0.25500000000E-02 0. -1.
    5000001    1    1    2    0    0 -0.54010844516E+02  0.16493548017E+03 -0.15491889402E+03  0.26504668961E+03  0.12700000000E+03 0.  0.
   -5000001    1    1    2    0    0  0.54010844516E+02 -0.16493548017E+03 -0.70570502760E+02  0.22634062783E+03  0.12700000000E+03 0.  0.
<mgrwt>
<rscale>  0 0.43659595E+03</rscale>
<asrwt>0</asrwt>
<pdfrwt beam="1">  1        2 0.18992709E-01 0.43659595E+03</pdfrwt>
<pdfrwt beam="2">  1       -2 0.51205479E-01 0.43659595E+03</pdfrwt>
<totfact> 0.10884933E+03</totfact>
</mgrwt>
</event>
<event>
 4    1  0.1390278E-004  0.2974864E+03  0.7818608E-02  0.1086504E+00
         -2   -1    0    0    0  501 -0.00000000000E+00  0.00000000000E+00  0.72228213393E+02  0.72228213438E+02  0.25500000000E-02 0. -1.
          2   -1    0    0  501    0  0.00000000000E+00 -0.00000000000E+00 -0.30631429054E+03  0.30631429055E+03  0.25500000000E-02 0.  1.
    5000001    1    1    2    0    0  0.59453777618E+02  0.45538144293E+02 -0.14207740266E+03  0.20475219805E+03  0.12700000000E+03 0.  0.
   -5000001    1    1    2    0    0 -0.59453777618E+02 -0.45538144293E+02 -0.92008674489E+02  0.17379030594E+03  0.12700000000E+03 0.  0.
<mgrwt>
<rscale>  0 0.29748636E+03</rscale>
<asrwt>0</asrwt>
<pdfrwt beam="1">  1        2 0.43759184E-01 0.29748636E+03</pdfrwt>
<pdfrwt beam="2">  1       -2 0.10318316E-01 0.29748636E+03</pdfrwt>
<totfact> 0.72858817E+03</totfact>
</mgrwt>
</event>
<event>
 4    1  0.1390278E-004  0.3437834E+03  0.7818608E-02  0.1065196E+00
          2   -1    0    0  501    0  0.00000000000E+00  0.00000000000E+00  0.18298824521E+04  0.18298824521E+04  0.25500000000E-02 0.  1.
         -2   -1    0    0    0  501 -0.00000000000E+00 -0.00000000000E+00 -0.16146804713E+02  0.16146804914E+02  0.25500000000E-02 0. -1.
    5000001    1    1    2    0    0  0.91870736784E+02  0.17971980432E+02  0.12732139698E+04  0.12829520791E+04  0.12700000000E+03 0.  0.
   -5000001    1    1    2    0    0 -0.91870736784E+02 -0.17971980432E+02  0.54052167768E+03  0.56307717801E+03  0.12700000000E+03 0.  0.
<mgrwt>
<rscale>  0 0.34378339E+03</rscale>
<asrwt>0</asrwt>
<pdfrwt beam="1">  1        2 0.26141170E+00 0.34378339E+03</pdfrwt>
<pdfrwt beam="2">  1       -2 0.23066871E-02 0.34378339E+03</pdfrwt>
<totfact> 0.67130003E+03</totfact>
</mgrwt>
</event>
<event>
 4    1  0.1390278E-004  0.3819700E+03  0.7818608E-02  0.1050208E+00
         -2   -1    0    0    0  501 -0.00000000000E+00  0.00000000000E+00  0.11028125694E+03  0.11028125697E+03  0.25500000000E-02 0.  1.
          2   -1    0    0  501    0  0.00000000000E+00 -0.00000000000E+00 -0.33074763200E+03  0.33074763201E+03  0.25500000000E-02 0. -1.
    5000001    1    1    2    0    0 -0.79106753975E+02 -0.11468661078E+03 -0.74920649953E+02  0.20286202455E+03  0.12700000000E+03 0.  0.
   -5000001    1    1    2    0    0  0.79106753975E+02  0.11468661078E+03 -0.14554572510E+03  0.23816686443E+03  0.12700000000E+03 0.  0.
<mgrwt>
<rscale>  0 0.38196997E+03</rscale>
<asrwt>0</asrwt>
<pdfrwt beam="1">  1        2 0.47249661E-01 0.38196997E+03</pdfrwt>
<pdfrwt beam="2">  1       -2 0.15754465E-01 0.38196997E+03</pdfrwt>
<totfact> 0.33816977E+03</totfact>
</mgrwt>
</event>
<event>
 4    1  0.1390278E-004  0.2737378E+03  0.7818608E-02  0.1099159E+00
          2   -1    0    0  501    0  0.00000000000E+00  0.00000000000E+00  0.75940620373E+03  0.75940620374E+03  0.25500000000E-02 0.  1.
         -2   -1    0    0    0  501 -0.00000000000E+00 -0.00000000000E+00 -0.24668078439E+02  0.24668078571E+02  0.25500000000E-02 0. -1.
    5000001    1    1    2    0    0  0.34547837345E+02  0.16627575803E+02  0.27091045706E+03  0.30164798207E+03  0.12700000000E+03 0.  0.
   -5000001    1    1    2    0    0 -0.34547837345E+02 -0.16627575803E+02  0.46382766824E+03  0.48242630024E+03  0.12700000000E+03 0.  0.
<mgrwt>
<rscale>  0 0.27373777E+03</rscale>
<asrwt>0</asrwt>
<pdfrwt beam="1">  1        2 0.10848658E+00 0.27373777E+03</pdfrwt>
<pdfrwt beam="2">  1       -2 0.35240119E-02 0.27373777E+03</pdfrwt>
<totfact> 0.13768511E+04</totfact>
</mgrwt>
</event>
<event>
 4    1  0.1390278E-004  0.3642969E+03  0.7818608E-02  0.1056895E+00
          2   -1    0    0  501    0  0.00000000000E+00  0.00000000000E+00  0.59783783549E+02  0.59783783603E+02  0.25500000000E-02 0.  1.
         -2   -1    0    0    0  501 -0.00000000000E+00 -0.00000000000E+00 -0.55496743608E+03  0.55496743609E+03  0.25500000000E-02 0. -1.
    5000001    1    1    2    0    0  0.12989565395E+03  0.12874420673E+01 -0.26988438533E+03  0.32533232220E+03  0.12700000000E+03 0.  0.
   -5000001    1    1    2    0    0 -0.12989565395E+03 -0.12874420673E+01 -0.22529926721E+03  0.28941889749E+03  0.12700000000E+03 0.  0.
<mgrwt>
<rscale>  0 0.36429687E+03</rscale>
<asrwt>0</asrwt>
<pdfrwt beam="1">  1        2 0.85405408E-02 0.36429687E+03</pdfrwt>
<pdfrwt beam="2">  1       -2 0.79281059E-01 0.36429687E+03</pdfrwt>
<totfact> 0.11443728E+03</totfact>
</mgrwt>
</event>
<event>
 4    1  0.1390278E-004  0.3278210E+03  0.7818608E-02  0.1072105E+00
          2   -1    0    0  501    0  0.00000000000E+00  0.00000000000E+00  0.21894270394E+03  0.21894270395E+03  0.25500000000E-02 0.  1.
         -2   -1    0    0    0  501 -0.00000000000E+00 -0.00000000000E+00 -0.12271090578E+03  0.12271090580E+03  0.25500000000E-02 0. -1.
    5000001    1    1    2    0    0  0.10586209602E+02  0.10246963916E+03  0.36437600231E+02  0.16753743908E+03  0.12700000000E+03 0.  0.
   -5000001    1    1    2    0    0 -0.10586209602E+02 -0.10246963916E+03  0.59794197930E+02  0.17411617067E+03  0.12700000000E+03 0.  0.
<mgrwt>
<rscale>  0 0.32782103E+03</rscale>
<asrwt>0</asrwt>
<pdfrwt beam="1">  1        2 0.31277529E-01 0.32782103E+03</pdfrwt>
<pdfrwt beam="2">  1       -2 0.17530130E-01 0.32782103E+03</pdfrwt>
<totfact> 0.44161163E+03</totfact>
</mgrwt>
</event>
<event>
 4    1  0.1390278E-004  0.3910880E+03  0.7818608E-02  0.1046910E+00
          2   -1    0    0  501    0  0.00000000000E+00  0.00000000000E+00  0.13003060611E+04  0.13003060611E+04  0.25500000000E-02 0.  1.
         -2   -1    0    0    0  501 -0.00000000000E+00 -0.00000000000E+00 -0.29406501236E+02  0.29406501347E+02  0.25500000000E-02 0. -1.
    5000001    1    1    2    0    0  0.76571763889E+02 -0.15046769133E+02  0.10657766364E+04  0.10761498404E+04  0.12700000000E+03 0.  0.
   -5000001    1    1    2    0    0 -0.76571763889E+02  0.15046769133E+02  0.20512292348E+03  0.25356272207E+03  0.12700000000E+03 0.  0.
<mgrwt>
<rscale>  0 0.39108798E+03</rscale>
<asrwt>0</asrwt>
<pdfrwt beam="1">  1        2 0.18575807E+00 0.39108798E+03</pdfrwt>
<pdfrwt beam="2">  1       -2 0.42009273E-02 0.39108798E+03</pdfrwt>
<totfact> 0.50751301E+03</totfact>
</mgrwt>
</event>
<event>
 4    1  0.1390278E-004  0.4161088E+03  0.7818608E-02  0.1038340E+00
         -2   -1    0    0    0  501 -0.00000000000E+00  0.00000000000E+00  0.42950781354E+03  0.42950781355E+03  0.25500000000E-02 0. -1.
          2   -1    0    0  501    0  0.00000000000E+00 -0.00000000000E+00 -0.10078192895E+03  0.10078192898E+03  0.25500000000E-02 0.  1.
    5000001    1    1    2    0    0  0.91164269374E+02 -0.96645739554E+02  0.28861746029E+03  0.34217007667E+03  0.12700000000E+03 0.  0.
   -5000001    1    1    2    0    0 -0.91164269374E+02  0.96645739554E+02  0.40108424305E+02  0.18811966586E+03  0.12700000000E+03 0.  0.
<mgrwt>
<rscale>  0 0.41610876E+03</rscale>
<asrwt>0</asrwt>
<pdfrwt beam="1">  1        2 0.14397418E-01 0.41610876E+03</pdfrwt>
<pdfrwt beam="2">  1       -2 0.61358259E-01 0.41610876E+03</pdfrwt>
<totfact> 0.10414732E+03</totfact>
</mgrwt>
</event>
<event>
 4    1  0.1390278E-004  0.3457218E+03  0.7818608E-02  0.1064385E+00
          2   -1    0    0  501    0  0.00000000000E+00  0.00000000000E+00  0.31727177454E+03  0.31727177455E+03  0.25500000000E-02 0.  1.
         -2   -1    0    0    0  501 -0.00000000000E+00 -0.00000000000E+00 -0.94180723366E+02  0.94180723400E+02  0.25500000000E-02 0. -1.
    5000001    1    1    2    0    0 -0.60316989865E+02  0.64124530345E+02  0.19345000022E+02  0.15573478637E+03  0.12700000000E+03 0.  0.
   -5000001    1    1    2    0    0  0.60316989865E+02 -0.64124530345E+02  0.20374605115E+03  0.25571771159E+03  0.12700000000E+03 0.  0.
<mgrwt>
<rscale>  0 0.34572177E+03</rscale>
<asrwt>0</asrwt>
<pdfrwt beam="1">  1        2 0.45324540E-01 0.34572177E+03</pdfrwt>
<pdfrwt beam="2">  1       -2 0.13454389E-01 0.34572177E+03</pdfrwt>
<totfact> 0.45861277E+03</totfact>
</mgrwt>
</event>
<event>
 4    1  0.1390278E-004  0.4553489E+03  0.7818608E-02  0.1026139E+00
          2   -1    0    0  501    0  0.00000000000E+00  0.00000000000E+00  0.20436308359E+03  0.20436308361E+03  0.25500000000E-02 0.  1.
         -2   -1    0    0    0  501 -0.00000000000E+00 -0.00000000000E+00 -0.25364487327E+03  0.25364487328E+03  0.25500000000E-02 0. -1.
    5000001    1    1    2    0    0 -0.17189140351E+03 -0.50059462584E+02 -0.85442584547E+02  0.23554625798E+03  0.12700000000E+03 0.  0.
   -5000001    1    1    2    0    0  0.17189140351E+03  0.50059462584E+02  0.36160794874E+02  0.22246169891E+03  0.12700000000E+03 0.  0.
<mgrwt>
<rscale>  0 0.45534887E+03</rscale>
<asrwt>0</asrwt>
<pdfrwt beam="1">  1        2 0.29194726E-01 0.45534887E+03</pdfrwt>
<pdfrwt beam="2">  1       -2 0.36234982E-01 0.45534887E+03</pdfrwt>
<totfact> 0.13116378E+03</totfact>
</mgrwt>
</event>
<event>
 4    1  0.1390278E-004  0.7146185E+03  0.7818608E-02  0.9692554E-01
          2   -1    0    0  501    0  0.00000000000E+00  0.00000000000E+00  0.24905113434E+04  0.24905113434E+04  0.25500000000E-02 0.  1.
         -2   -1    0    0    0  501 -0.00000000000E+00 -0.00000000000E+00 -0.51262519078E+02  0.51262519141E+02  0.25500000000E-02 0. -1.
    5000001    1    1    2    0    0  0.22758894062E+03 -0.19908085139E+03  0.71521958688E+03  0.78682778849E+03  0.12700000000E+03 0.  0.
   -5000001    1    1    2    0    0 -0.22758894062E+03  0.19908085139E+03  0.17240292374E+04  0.17549460740E+04  0.12700000000E+03 0.  0.
<mgrwt>
<rscale>  0 0.71461846E+03</rscale>
<asrwt>0</asrwt>
<pdfrwt beam="1">  1        2 0.35578731E+00 0.71461846E+03</pdfrwt>
<pdfrwt beam="2">  1       -2 0.73232175E-02 0.71461846E+03</pdfrwt>
<totfact> 0.52299597E+02</totfact>
</mgrwt>
</event>
<event>
 4    1  0.1390278E-004  0.3683282E+03  0.7818608E-02  0.1055334E+00
         -2   -1    0    0    0  501 -0.00000000000E+00  0.00000000000E+00  0.52797478890E+03  0.52797478891E+03  0.25500000000E-02 0. -1.
          2   -1    0    0  501    0  0.00000000000E+00 -0.00000000000E+00 -0.64238715732E+02  0.64238715783E+02  0.25500000000E-02 0.  1.
    5000001    1    1    2    0    0  0.11612106999E+03  0.68387472894E+01  0.12696882700E+03  0.21396484382E+03  0.12700000000E+03 0.  0.
   -5000001    1    1    2    0    0 -0.11612106999E+03 -0.68387472894E+01  0.33676724617E+03  0.37824866087E+03  0.12700000000E+03 0.  0.
<mgrwt>
<rscale>  0 0.36832824E+03</rscale>
<asrwt>0</asrwt>
<pdfrwt beam="1">  1        2 0.91769592E-02 0.36832824E+03</pdfrwt>
<pdfrwt beam="2">  1       -2 0.75424971E-01 0.36832824E+03</pdfrwt>
<totfact> 0.11659817E+03</totfact>
</mgrwt>
</event>
<event>
 4    1  0.1390278E-004  0.6471990E+03  0.7818608E-02  0.9812049E-01
         -2   -1    0    0    0  501 -0.00000000000E+00  0.00000000000E+00  0.57520849816E+02  0.57520849873E+02  0.25500000000E-02 0. -1.
          2   -1    0    0  501    0  0.00000000000E+00 -0.00000000000E+00 -0.18204986555E+04  0.18204986555E+04  0.25500000000E-02 0.  1.
    5000001    1    1    2    0    0  0.86281853689E+02 -0.28462208806E+03 -0.91499625350E+03  0.97046454609E+03  0.12700000000E+03 0.  0.
   -5000001    1    1    2    0    0 -0.86281853689E+02  0.28462208806E+03 -0.84798155222E+03  0.90755495932E+03  0.12700000000E+03 0.  0.
<mgrwt>
<rscale>  0 0.64719898E+03</rscale>
<asrwt>0</asrwt>
<pdfrwt beam="1">  1        2 0.26007120E+00 0.64719898E+03</pdfrwt>
<pdfrwt beam="2">  1       -2 0.82172654E-02 0.64719898E+03</pdfrwt>
<totfact> 0.95577116E+02</totfact>
</mgrwt>
</event>
<event>
 4    1  0.1390278E-004  0.4068304E+03  0.7818608E-02  0.1041440E+00
          2   -1    0    0  501    0  0.00000000000E+00  0.00000000000E+00  0.26421133652E+02  0.26421133775E+02  0.25500000000E-02 0.  1.
         -2   -1    0    0    0  501 -0.00000000000E+00 -0.00000000000E+00 -0.15660848711E+04  0.15660848712E+04  0.25500000000E-02 0. -1.
    5000001    1    1    2    0    0  0.13896275552E+03  0.18395576033E+02 -0.47691132872E+03  0.51305210272E+03  0.12700000000E+03 0.  0.
   -5000001    1    1    2    0    0 -0.13896275552E+03 -0.18395576033E+02 -0.10627524088E+04  0.10794539022E+04  0.12700000000E+03 0.  0.
<mgrwt>
<rscale>  0 0.40683037E+03</rscale>
<asrwt>0</asrwt>
<pdfrwt beam="1">  1        2 0.37744487E-02 0.40683037E+03</pdfrwt>
<pdfrwt beam="2">  1       -2 0.22372635E+00 0.40683037E+03</pdfrwt>
<totfact> 0.23534871E+02</totfact>
</mgrwt>
</event>
<event>
 4    1  0.1390278E-004  0.3711773E+03  0.7818608E-02  0.1054244E+00
         -2   -1    0    0    0  501 -0.00000000000E+00  0.00000000000E+00  0.26841023224E+02  0.26841023345E+02  0.25500000000E-02 0. -1.
          2   -1    0    0  501    0  0.00000000000E+00 -0.00000000000E+00 -0.12832280257E+04  0.12832280257E+04  0.25500000000E-02 0.  1.
    5000001    1    1    2    0    0 -0.12658658509E+03 -0.47667938418E+02 -0.64306665123E+03  0.66929822486E+03  0.12700000000E+03 0.  0.
   -5000001    1    1    2    0    0  0.12658658509E+03  0.47667938418E+02 -0.61332035126E+03  0.64077082420E+03  0.12700000000E+03 0.  0.
<mgrwt>
<rscale>  0 0.37117733E+03</rscale>
<asrwt>0</asrwt>
<pdfrwt beam="1">  1        2 0.18331825E+00 0.37117733E+03</pdfrwt>
<pdfrwt beam="2">  1       -2 0.38344327E-02 0.37117733E+03</pdfrwt>
<totfact> 0.59503590E+03</totfact>
</mgrwt>
</event>
<event>
 4    1  0.1390278E-004  0.6754084E+03  0.7818608E-02  0.9760237E-01
          2   -1    0    0  501    0  0.00000000000E+00  0.00000000000E+00  0.65912587126E+03  0.65912587126E+03  0.25500000000E-02 0.  1.
         -2   -1    0    0    0  501 -0.00000000000E+00 -0.00000000000E+00 -0.17302330310E+03  0.17302330312E+03  0.25500000000E-02 0. -1.
    5000001    1    1    2    0    0 -0.22317180134E+03  0.10880845561E+03  0.47769541861E+03  0.55314269939E+03  0.12700000000E+03 0.  0.
   -5000001    1    1    2    0    0  0.22317180134E+03 -0.10880845561E+03  0.84071495565E+01  0.27900647500E+03  0.12700000000E+03 0.  0.
<mgrwt>
<rscale>  0 0.67540843E+03</rscale>
<asrwt>0</asrwt>
<pdfrwt beam="1">  1        2 0.94160840E-01 0.67540843E+03</pdfrwt>
<pdfrwt beam="2">  1       -2 0.24717614E-01 0.67540843E+03</pdfrwt>
<totfact> 0.71149797E+02</totfact>
</mgrwt>
</event>
<event>
 4    1  0.1390278E-004  0.3546439E+03  0.7818608E-02  0.1060725E+00
         -2   -1    0    0    0  501 -0.00000000000E+00  0.00000000000E+00  0.14467981195E+03  0.14467981197E+03  0.25500000000E-02 0. -1.
          2   -1    0    0  501    0  0.00000000000E+00 -0.00000000000E+00 -0.21732868945E+03  0.21732868946E+03  0.25500000000E-02 0.  1.
    5000001    1    1    2    0    0  0.10887182919E+03  0.58828252955E+02 -0.36819685233E+02  0.18110363817E+03  0.12700000000E+03 0.  0.
   -5000001    1    1    2    0    0 -0.10887182919E+03 -0.58828252955E+02 -0.35829192267E+02  0.18090486327E+03  0.12700000000E+03 0.  0.
<mgrwt>
<rscale>  0 0.35464390E+03</rscale>
<asrwt>0</asrwt>
<pdfrwt beam="1">  1        2 0.31046956E-01 0.35464390E+03</pdfrwt>
<pdfrwt beam="2">  1       -2 0.20668545E-01 0.35464390E+03</pdfrwt>
<totfact> 0.33670965E+03</totfact>
</mgrwt>
</event>
<event>
 4    1  0.1390278E-004  0.4995231E+03  0.7818608E-02  0.1013903E+00
         -2   -1    0    0    0  501 -0.00000000000E+00  0.00000000000E+00  0.63663979034E+02  0.63663979085E+02  0.25500000000E-02 0. -1.
          2   -1    0    0  501    0  0.00000000000E+00 -0.00000000000E+00 -0.97984510490E+03  0.97984510491E+03  0.25500000000E-02 0.  1.
    5000001    1    1    2    0    0 -0.27442687253E+02  0.20300240313E+03 -0.59489701567E+03  0.64186800513E+03  0.12700000000E+03 0.  0.
   -5000001    1    1    2    0    0  0.27442687253E+02 -0.20300240313E+03 -0.32128411020E+03  0.40164107886E+03  0.12700000000E+03 0.  0.
<mgrwt>
<rscale>  0 0.49952313E+03</rscale>
<asrwt>0</asrwt>
<pdfrwt beam="1">  1        2 0.13997786E+00 0.49952313E+03</pdfrwt>
<pdfrwt beam="2">  1       -2 0.90948547E-02 0.49952313E+03</pdfrwt>
<totfact> 0.23178478E+03</totfact>
</mgrwt>
</event>
<event>
 4    1  0.1390278E-004  0.4643003E+03  0.7818608E-02  0.1023541E+00
          2   -1    0    0  501    0  0.00000000000E+00  0.00000000000E+00  0.10208565059E+04  0.10208565059E+04  0.25500000000E-02 0.  1.
         -2   -1    0    0    0  501 -0.00000000000E+00 -0.00000000000E+00 -0.52792614108E+02  0.52792614169E+02  0.25500000000E-02 0. -1.
    5000001    1    1    2    0    0  0.16992791887E+03 -0.76723959897E+02  0.61074274433E+03  0.65107431479E+03  0.12700000000E+03 0.  0.
   -5000001    1    1    2    0    0 -0.16992791887E+03  0.76723959897E+02  0.35732114749E+03  0.42257480530E+03  0.12700000000E+03 0.  0.
<mgrwt>
<rscale>  0 0.46430026E+03</rscale>
<asrwt>0</asrwt>
<pdfrwt beam="1">  1        2 0.14583664E+00 0.46430026E+03</pdfrwt>
<pdfrwt beam="2">  1       -2 0.75418021E-02 0.46430026E+03</pdfrwt>
<totfact> 0.29479895E+03</totfact>
</mgrwt>
</event>
<event>
 4    1  0.1390278E-004  0.4263794E+03  0.7818608E-02  0.1035010E+00
         -2   -1    0    0    0  501 -0.00000000000E+00  0.00000000000E+00  0.13663573738E+03  0.13663573741E+03  0.25500000000E-02 0. -1.
          2   -1    0    0  501    0  0.00000000000E+00 -0.00000000000E+00 -0.33263519949E+03  0.33263519950E+03  0.25500000000E-02 0.  1.
    5000001    1    1    2    0    0 -0.12448448331E+03 -0.93219111050E+02 -0.19134872419E+02  0.20169613926E+03  0.12700000000E+03 0.  0.
   -5000001    1    1    2    0    0  0.12448448331E+03  0.93219111050E+02 -0.17686458969E+03  0.26757479765E+03  0.12700000000E+03 0.  0.
<mgrwt>
<rscale>  0 0.42637944E+03</rscale>
<asrwt>0</asrwt>
<pdfrwt beam="1">  1        2 0.47519314E-01 0.42637944E+03</pdfrwt>
<pdfrwt beam="2">  1       -2 0.19519391E-01 0.42637944E+03</pdfrwt>
<totfact> 0.23399749E+03</totfact>
</mgrwt>
</event>
<event>
 4    1  0.1390278E-004  0.3367884E+03  0.7818608E-02  0.1068172E+00
         -2   -1    0    0    0  501 -0.00000000000E+00  0.00000000000E+00  0.41436667647E+02  0.41436667726E+02  0.25500000000E-02 0. -1.
          2   -1    0    0  501    0  0.00000000000E+00 -0.00000000000E+00 -0.68433592410E+03  0.68433592411E+03  0.25500000000E-02 0.  1.
    5000001    1    1    2    0    0  0.10582508178E+03  0.30490466854E+02 -0.34288966325E+03  0.38187817124E+03  0.12700000000E+03 0.  0.
   -5000001    1    1    2    0    0 -0.10582508178E+03 -0.30490466854E+02 -0.30000959321E+03  0.34389442060E+03  0.12700000000E+03 0.  0.
<mgrwt>
<rscale>  0 0.33678836E+03</rscale>
<asrwt>0</asrwt>
<pdfrwt beam="1">  1        2 0.97762268E-01 0.33678836E+03</pdfrwt>
<pdfrwt beam="2">  1       -2 0.59195244E-02 0.33678836E+03</pdfrwt>
<totfact> 0.71522531E+03</totfact>
</mgrwt>
</event>
<event>
 4    1  0.1390278E-004  0.6075257E+03  0.7818608E-02  0.9889915E-01
         -2   -1    0    0    0  501 -0.00000000000E+00  0.00000000000E+00  0.11085952159E+03  0.11085952162E+03  0.25500000000E-02 0. -1.
          2   -1    0    0  501    0  0.00000000000E+00 -0.00000000000E+00 -0.83233138413E+03  0.83233138414E+03  0.25500000000E-02 0.  1.
    5000001    1    1    2    0    0  0.24266263485E+03 -0.45796700362E+02 -0.16957909674E+03  0.32537449526E+03  0.12700000000E+03 0.  0.
   -5000001    1    1    2    0    0 -0.24266263485E+03  0.45796700362E+02 -0.55189276581E+03  0.61781641049E+03  0.12700000000E+03 0.  0.
<mgrwt>
<rscale>  0 0.60752567E+03</rscale>
<asrwt>0</asrwt>
<pdfrwt beam="1">  1        2 0.11890448E+00 0.60752567E+03</pdfrwt>
<pdfrwt beam="2">  1       -2 0.15837075E-01 0.60752567E+03</pdfrwt>
<totfact> 0.11563532E+03</totfact>
</mgrwt>
</event>
<event>
 4    1  0.1390278E-004  0.6190229E+03  0.7818608E-02  0.9866707E-01
         -2   -1    0    0    0  501 -0.00000000000E+00  0.00000000000E+00  0.63021617872E+02  0.63021617923E+02  0.25500000000E-02 0.  1.
          2   -1    0    0  501    0  0.00000000000E+00 -0.00000000000E+00 -0.15200709502E+04  0.15200709502E+04  0.25500000000E-02 0. -1.
    5000001    1    1    2    0    0  0.21734647131E+03  0.11864805049E+03 -0.38207895995E+03  0.47268401719E+03  0.12700000000E+03 0.  0.
   -5000001    1    1    2    0    0 -0.21734647131E+03 -0.11864805049E+03 -0.10749703723E+04  0.11104085509E+04  0.12700000000E+03 0.  0.
<mgrwt>
<rscale>  0 0.61902288E+03</rscale>
<asrwt>0</asrwt>
<pdfrwt beam="1">  1        2 0.21715297E+00 0.61902288E+03</pdfrwt>
<pdfrwt beam="2">  1       -2 0.90030892E-02 0.61902288E+03</pdfrwt>
<totfact> 0.11776349E+03</totfact>
</mgrwt>
</event>
<event>
 4    1  0.1390278E-004  0.3387983E+03  0.7818608E-02  0.1067309E+00
          2   -1    0    0  501    0  0.00000000000E+00  0.00000000000E+00  0.13135113948E+04  0.13135113948E+04  0.25500000000E-02 0.  1.
         -2   -1    0    0    0  501 -0.00000000000E+00 -0.00000000000E+00 -0.21846832864E+02  0.21846833012E+02  0.25500000000E-02 0. -1.
    5000001    1    1    2    0    0 -0.13531527456E+02  0.46203451124E+02  0.10448587175E+04  0.10536491829E+04  0.12700000000E+03 0.  0.
   -5000001    1    1    2    0    0  0.13531527456E+02 -0.46203451124E+02  0.24680584448E+03  0.28170904494E+03  0.12700000000E+03 0.  0.
<mgrwt>
<rscale>  0 0.33879825E+03</rscale>
<asrwt>0</asrwt>
<pdfrwt beam="1">  1        2 0.18764456E+00 0.33879825E+03</pdfrwt>
<pdfrwt beam="2">  1       -2 0.31209749E-02 0.33879825E+03</pdfrwt>
<totfact> 0.78081352E+03</totfact>
</mgrwt>
</event>
<event>
 4    1  0.1390278E-004  0.3007094E+03  0.7818608E-02  0.1084887E+00
          2   -1    0    0  501    0  0.00000000000E+00  0.00000000000E+00  0.10702931461E+03  0.10702931464E+03  0.25500000000E-02 0.  1.
         -2   -1    0    0    0  501 -0.00000000000E+00 -0.00000000000E+00 -0.21121822944E+03  0.21121822945E+03  0.25500000000E-02 0. -1.
    5000001    1    1    2    0    0 -0.80279620936E+02 -0.56598879086E+01 -0.51215050658E+02  0.15883586901E+03  0.12700000000E+03 0.  0.
   -5000001    1    1    2    0    0  0.80279620936E+02  0.56598879086E+01 -0.52973864169E+02  0.15941167509E+03  0.12700000000E+03 0.  0.
<mgrwt>
<rscale>  0 0.30070944E+03</rscale>
<asrwt>0</asrwt>
<pdfrwt beam="1">  1        2 0.15289902E-01 0.30070944E+03</pdfrwt>
<pdfrwt beam="2">  1       -2 0.30174033E-01 0.30070944E+03</pdfrwt>
<totfact> 0.38485208E+03</totfact>
</mgrwt>
</event>
<event>
 4    1  0.1390278E-004  0.4979884E+03  0.7818608E-02  0.1014305E+00
         -2   -1    0    0    0  501 -0.00000000000E+00  0.00000000000E+00  0.13442553761E+03  0.13442553763E+03  0.25500000000E-02 0. -1.
          2   -1    0    0  501    0  0.00000000000E+00 -0.00000000000E+00 -0.46120779114E+03  0.46120779114E+03  0.25500000000E-02 0.  1.
    5000001    1    1    2    0    0 -0.17839302699E+03  0.55113905017E+02 -0.37902620536E+02  0.22896991778E+03  0.12700000000E+03 0.  0.
   -5000001    1    1    2    0    0  0.17839302699E+03 -0.55113905017E+02 -0.28887963299E+03  0.36666341099E+03  0.12700000000E+03 0.  0.
<mgrwt>
<rscale>  0 0.49798837E+03</rscale>
<asrwt>0</asrwt>
<pdfrwt beam="1">  1        2 0.65886827E-01 0.49798837E+03</pdfrwt>
<pdfrwt beam="2">  1       -2 0.19203648E-01 0.49798837E+03</pdfrwt>
<totfact> 0.16808071E+03</totfact>
</mgrwt>
</event>
<event>
 4    1  0.1390278E-004  0.6503352E+03  0.7818608E-02  0.9806150E-01
         -2   -1    0    0    0  501 -0.00000000000E+00  0.00000000000E+00  0.21302403094E+03  0.21302403095E+03  0.25500000000E-02 0. -1.
          2   -1    0    0  501    0  0.00000000000E+00 -0.00000000000E+00 -0.49634767391E+03  0.49634767392E+03  0.25500000000E-02 0.  1.
    5000001    1    1    2    0    0 -0.19563170416E+03  0.33134276369E+02  0.10281699634E+03  0.25704081131E+03  0.12700000000E+03 0.  0.
   -5000001    1    1    2    0    0  0.19563170416E+03 -0.33134276369E+02 -0.38614063931E+03  0.45233089356E+03  0.12700000000E+03 0.  0.
<mgrwt>
<rscale>  0 0.65033524E+03</rscale>
<asrwt>0</asrwt>
<pdfrwt beam="1">  1        2 0.70906810E-01 0.65033524E+03</pdfrwt>
<pdfrwt beam="2">  1       -2 0.30432005E-01 0.65033524E+03</pdfrwt>
<totfact> 0.67882823E+02</totfact>
</mgrwt>
</event>
<event>
 4    1  0.1390278E-004  0.2711401E+03  0.7818608E-02  0.1100629E+00
         -2   -1    0    0    0  501 -0.00000000000E+00  0.00000000000E+00  0.15570713769E+02  0.15570713978E+02  0.25500000000E-02 0. -1.
          2   -1    0    0  501    0  0.00000000000E+00 -0.00000000000E+00 -0.11803724914E+04  0.11803724914E+04  0.25500000000E-02 0.  1.
    5000001    1    1    2    0    0  0.29570296246E+02  0.13140105353E+01 -0.74590475540E+03  0.75721795619E+03  0.12700000000E+03 0.  0.
   -5000001    1    1    2    0    0 -0.29570296246E+02 -0.13140105353E+01 -0.41889702219E+03  0.43872524915E+03  0.12700000000E+03 0.  0.
<mgrwt>
<rscale>  0 0.27114013E+03</rscale>
<asrwt>0</asrwt>
<pdfrwt beam="1">  1        2 0.16862458E+00 0.27114013E+03</pdfrwt>
<pdfrwt beam="2">  1       -2 0.22243884E-02 0.27114013E+03</pdfrwt>
<totfact> 0.15140177E+04</totfact>
</mgrwt>
</event>
<event>
 4    1  0.1390278E-004  0.4998485E+03  0.7818608E-02  0.1013818E+00
         -2   -1    0    0    0  501 -0.00000000000E+00  0.00000000000E+00  0.30695528306E+02  0.30695528411E+02  0.25500000000E-02 0. -1.
          2   -1    0    0  501    0  0.00000000000E+00 -0.00000000000E+00 -0.20348933758E+04  0.20348933758E+04  0.25500000000E-02 0.  1.
    5000001    1    1    2    0    0 -0.12057811066E+02 -0.18908697104E+03 -0.14242111062E+04  0.14423611019E+04  0.12700000000E+03 0.  0.
   -5000001    1    1    2    0    0  0.12057811066E+02  0.18908697104E+03 -0.57998674134E+03  0.62322780229E+03  0.12700000000E+03 0.  0.
<mgrwt>
<rscale>  0 0.49984849E+03</rscale>
<asrwt>0</asrwt>
<pdfrwt beam="1">  1        2 0.29069897E+00 0.49984849E+03</pdfrwt>
<pdfrwt beam="2">  1       -2 0.43850768E-02 0.49984849E+03</pdfrwt>
<totfact> 0.20080624E+03</totfact>
</mgrwt>
</event>
<event>
 4    1  0.1390278E-004  0.4608988E+03  0.7818608E-02  0.1024521E+00
         -2   -1    0    0    0  501 -0.00000000000E+00  0.00000000000E+00  0.98592109355E+02  0.98592109388E+02  0.25500000000E-02 0. -1.
          2   -1    0    0  501    0  0.00000000000E+00 -0.00000000000E+00 -0.53865287690E+03  0.53865287691E+03  0.25500000000E-02 0.  1.
    5000001    1    1    2    0    0 -0.61111114790E+02 -0.18041459022E+03 -0.25645197304E+03  0.34377406417E+03  0.12700000000E+03 0.  0.
   -5000001    1    1    2    0    0  0.61111114790E+02  0.18041459022E+03 -0.18360879451E+03  0.29347092213E+03  0.12700000000E+03 0.  0.
<mgrwt>
<rscale>  0 0.46089879E+03</rscale>
<asrwt>0</asrwt>
<pdfrwt beam="1">  1        2 0.76950409E-01 0.46089879E+03</pdfrwt>
<pdfrwt beam="2">  1       -2 0.14084587E-01 0.46089879E+03</pdfrwt>
<totfact> 0.23824955E+03</totfact>
</mgrwt>
</event>
<event>
 4    1  0.1390278E-004  0.3385058E+03  0.7818608E-02  0.1067434E+00
          2   -1    0    0  501    0  0.00000000000E+00  0.00000000000E+00  0.30038908829E+03  0.30038908830E+03  0.25500000000E-02 0.  1.
         -2   -1    0    0    0  501 -0.00000000000E+00 -0.00000000000E+00 -0.95364791660E+02  0.95364791694E+02  0.25500000000E-02 0. -1.
    5000001    1    1    2    0    0  0.94817315798E+02 -0.48785537710E+02  0.62913815782E+02  0.17736262369E+03  0.12700000000E+03 0.  0.
   -5000001    1    1    2    0    0 -0.94817315798E+02  0.48785537710E+02  0.14211048085E+03  0.21839125631E+03  0.12700000000E+03 0.  0.
<mgrwt>
<rscale>  0 0.33850579E+03</rscale>
<asrwt>0</asrwt>
<pdfrwt beam="1">  1        2 0.42912728E-01 0.33850579E+03</pdfrwt>
<pdfrwt beam="2">  1       -2 0.13623541E-01 0.33850579E+03</pdfrwt>
<totfact> 0.47646136E+03</totfact>
</mgrwt>
</event>
<event>
 4    1  0.1390278E-004  0.5747012E+03  0.7818608E-02  0.9959329E-01
          2   -1    0    0  501    0  0.00000000000E+00  0.00000000000E+00  0.57340924219E+03  0.57340924220E+03  0.25500000000E-02 0.  1.
         -2   -1    0    0    0  501 -0.00000000000E+00 -0.00000000000E+00 -0.14399901975E+03  0.14399901977E+03  0.25500000000E-02 0. -1.
    5000001    1    1    2    0    0  0.24959694010E+03  0.49863752569E+02  0.16390094418E+03  0.32829490680E+03  0.12700000000E+03 0.  0.
   -5000001    1    1    2    0    0 -0.24959694010E+03 -0.49863752569E+02  0.26550927826E+03  0.38911335517E+03  0.12700000000E+03 0.  0.
<mgrwt>
<rscale>  0 0.57470121E+03</rscale>
<asrwt>0</asrwt>
<pdfrwt beam="1">  1        2 0.81915606E-01 0.57470121E+03</pdfrwt>
<pdfrwt beam="2">  1       -2 0.20571289E-01 0.57470121E+03</pdfrwt>
<totfact> 0.11636948E+03</totfact>
</mgrwt>
</event>
<event>
 4    1  0.1390278E-004  0.3201271E+03  0.7818608E-02  0.1075591E+00
          2   -1    0    0  501    0  0.00000000000E+00  0.00000000000E+00  0.15834389348E+04  0.15834389348E+04  0.25500000000E-02 0.  1.
         -2   -1    0    0    0  501 -0.00000000000E+00 -0.00000000000E+00 -0.16180185129E+02  0.16180185330E+02  0.25500000000E-02 0. -1.
    5000001    1    1    2    0    0 -0.34655345007E+02 -0.85450729001E+02  0.94073287901E+03  0.95373485292E+03  0.12700000000E+03 0.  0.
   -5000001    1    1    2    0    0  0.34655345007E+02  0.85450729001E+02  0.62652587067E+03  0.64588426722E+03  0.12700000000E+03 0.  0.
<mgrwt>
<rscale>  0 0.32012707E+03</rscale>
<asrwt>0</asrwt>
<pdfrwt beam="1">  1        2 0.22620551E+00 0.32012707E+03</pdfrwt>
<pdfrwt beam="2">  1       -2 0.23114556E-02 0.32012707E+03</pdfrwt>
<totfact> 0.88663660E+03</totfact>
</mgrwt>
</event>
<event>
 4    1  0.1390278E-004  0.5083517E+03  0.7818608E-02  0.1011622E+00
          2   -1    0    0  501    0  0.00000000000E+00  0.00000000000E+00  0.16848631055E+04  0.16848631055E+04  0.25500000000E-02 0.  1.
         -2   -1    0    0    0  501 -0.00000000000E+00 -0.00000000000E+00 -0.38344576409E+02  0.38344576494E+02  0.25500000000E-02 0. -1.
    5000001    1    1    2    0    0 -0.14468022814E+03  0.94472635576E+02  0.12858005754E+04  0.13035603426E+04  0.12700000000E+03 0.  0.
   -5000001    1    1    2    0    0  0.14468022814E+03 -0.94472635576E+02  0.36071795370E+03  0.41964733933E+03  0.12700000000E+03 0.  0.
<mgrwt>
<rscale>  0 0.50835170E+03</rscale>
<asrwt>0</asrwt>
<pdfrwt beam="1">  1        2 0.24069474E+00 0.50835170E+03</pdfrwt>
<pdfrwt beam="2">  1       -2 0.54777964E-02 0.50835170E+03</pdfrwt>
<totfact> 0.21325095E+03</totfact>
</mgrwt>
</event>
<event>
 4    1  0.1390278E-004  0.3558350E+03  0.7818608E-02  0.1060245E+00
         -2   -1    0    0    0  501 -0.00000000000E+00  0.00000000000E+00  0.14514269691E+04  0.14514269691E+04  0.25500000000E-02 0. -1.
          2   -1    0    0  501    0  0.00000000000E+00 -0.00000000000E+00 -0.21809315302E+02  0.21809315451E+02  0.25500000000E-02 0.  1.
    5000001    1    1    2    0    0  0.11401132048E+03 -0.26742440901E+02  0.53857486052E+03  0.56560199763E+03  0.12700000000E+03 0.  0.
   -5000001    1    1    2    0    0 -0.11401132048E+03  0.26742440901E+02  0.89104279331E+03  0.90763428696E+03  0.12700000000E+03 0.  0.
<mgrwt>
<rscale>  0 0.35583495E+03</rscale>
<asrwt>0</asrwt>
<pdfrwt beam="1">  1        2 0.31156166E-02 0.35583495E+03</pdfrwt>
<pdfrwt beam="2">  1       -2 0.20734670E+00 0.35583495E+03</pdfrwt>
<totfact> 0.38667983E+02</totfact>
</mgrwt>
</event>
<event>
 4    1  0.1390278E-004  0.6612302E+03  0.7818608E-02  0.9785932E-01
          2   -1    0    0  501    0  0.00000000000E+00  0.00000000000E+00  0.13907756446E+04  0.13907756446E+04  0.25500000000E-02 0.  1.
         -2   -1    0    0    0  501 -0.00000000000E+00 -0.00000000000E+00 -0.78593792589E+02  0.78593792631E+02  0.25500000000E-02 0. -1.
    5000001    1    1    2    0    0 -0.15864421781E+02 -0.20750051803E+03  0.15984781336E+03  0.29152781737E+03  0.12700000000E+03 0.  0.
   -5000001    1    1    2    0    0  0.15864421781E+02  0.20750051803E+03  0.11523340386E+04  0.11778416199E+04  0.12700000000E+03 0.  0.
<mgrwt>
<rscale>  0 0.66123016E+03</rscale>
<asrwt>0</asrwt>
<pdfrwt beam="1">  1        2 0.19868224E+00 0.66123016E+03</pdfrwt>
<pdfrwt beam="2">  1       -2 0.11227684E-01 0.66123016E+03</pdfrwt>
<totfact> 0.96086106E+02</totfact>
</mgrwt>
</event>
<event>
 4    1  0.1390278E-004  0.2672709E+03  0.7818608E-02  0.1102852E+00
          2   -1    0    0  501    0  0.00000000000E+00  0.00000000000E+00  0.19640630040E+03  0.19640630042E+03  0.25500000000E-02 0.  1.
         -2   -1    0    0    0  501 -0.00000000000E+00 -0.00000000000E+00 -0.90925958691E+02  0.90925958727E+02  0.25500000000E-02 0. -1.
    5000001    1    1    2    0    0 -0.41013386395E+02 -0.68415798455E+01  0.53519931435E+02  0.14395238150E+03  0.12700000000E+03 0.  0.
   -5000001    1    1    2    0    0  0.41013386395E+02  0.68415798455E+01  0.51960410279E+02  0.14337987765E+03  0.12700000000E+03 0.  0.
<mgrwt>
<rscale>  0 0.26727088E+03</rscale>
<asrwt>0</asrwt>
<pdfrwt beam="1">  1        2 0.28058043E-01 0.26727088E+03</pdfrwt>
<pdfrwt beam="2">  1       -2 0.12989423E-01 0.26727088E+03</pdfrwt>
<totfact> 0.81205820E+03</totfact>
</mgrwt>
</event>
<event>
 4    1  0.1390278E-004  0.4308193E+03  0.7818608E-02  0.1033601E+00
         -2   -1    0    0    0  501 -0.00000000000E+00  0.00000000000E+00  0.22676864932E+02  0.22676865075E+02  0.25500000000E-02 0. -1.
          2   -1    0    0  501    0  0.00000000000E+00 -0.00000000000E+00 -0.20461967710E+04  0.20461967710E+04  0.25500000000E-02 0.  1.
    5000001    1    1    2    0    0 -0.77354323503E+02  0.14479645859E+03 -0.73495156656E+03  0.76369660925E+03  0.12700000000E+03 0.  0.
   -5000001    1    1    2    0    0  0.77354323503E+02 -0.14479645859E+03 -0.12885683395E+04  0.13051770268E+04  0.12700000000E+03 0.  0.
<mgrwt>
<rscale>  0 0.43081935E+03</rscale>
<asrwt>0</asrwt>
<pdfrwt beam="1">  1        2 0.29231371E+00 0.43081935E+03</pdfrwt>
<pdfrwt beam="2">  1       -2 0.32395534E-02 0.43081935E+03</pdfrwt>
<totfact> 0.31518890E+03</totfact>
</mgrwt>
</event>
<event>
 4    1  0.1390278E-004  0.5076611E+03  0.7818608E-02  0.1011798E+00
         -2   -1    0    0    0  501 -0.00000000000E+00  0.00000000000E+00  0.26612293665E+03  0.26612293666E+03  0.25500000000E-02 0. -1.
          2   -1    0    0  501    0  0.00000000000E+00 -0.00000000000E+00 -0.24210593508E+03  0.24210593509E+03  0.25500000000E-02 0.  1.
    5000001    1    1    2    0    0 -0.12528997333E+02 -0.21902686549E+03 -0.10904311380E+01  0.25349542919E+03  0.12700000000E+03 0.  0.
   -5000001    1    1    2    0    0  0.12528997333E+02  0.21902686549E+03  0.25107432714E+02  0.25473344256E+03  0.12700000000E+03 0.  0.
<mgrwt>
<rscale>  0 0.50766108E+03</rscale>
<asrwt>0</asrwt>
<pdfrwt beam="1">  1        2 0.34586562E-01 0.50766108E+03</pdfrwt>
<pdfrwt beam="2">  1       -2 0.38017563E-01 0.50766108E+03</pdfrwt>
<totfact> 0.99159092E+02</totfact>
</mgrwt>
</event>
<event>
 4    1  0.1390278E-004  0.4719465E+03  0.7818608E-02  0.1021372E+00
          2   -1    0    0  501    0  0.00000000000E+00  0.00000000000E+00  0.35194355986E+03  0.35194355987E+03  0.25500000000E-02 0.  1.
         -2   -1    0    0    0  501 -0.00000000000E+00 -0.00000000000E+00 -0.15821675133E+03  0.15821675135E+03  0.25500000000E-02 0. -1.
    5000001    1    1    2    0    0 -0.14333564436E+03  0.81551709139E+02  0.21703399350E+03  0.30071338936E+03  0.12700000000E+03 0.  0.
   -5000001    1    1    2    0    0  0.14333564436E+03 -0.81551709139E+02 -0.23307184968E+02  0.20944692186E+03  0.12700000000E+03 0.  0.
<mgrwt>
<rscale>  0 0.47194647E+03</rscale>
<asrwt>0</asrwt>
<pdfrwt beam="1">  1        2 0.50277652E-01 0.47194647E+03</pdfrwt>
<pdfrwt beam="2">  1       -2 0.22602393E-01 0.47194647E+03</pdfrwt>
<totfact> 0.17056251E+03</totfact>
</mgrwt>
</event>
<event>
 4    1  0.1390278E-004  0.4985033E+03  0.7818608E-02  0.1014170E+00
          2   -1    0    0  501    0  0.00000000000E+00  0.00000000000E+00  0.18092244153E+04  0.18092244153E+04  0.25500000000E-02 0.  1.
         -2   -1    0    0    0  501 -0.00000000000E+00 -0.00000000000E+00 -0.34338679502E+02  0.34338679597E+02  0.25500000000E-02 0. -1.
    5000001    1    1    2    0    0 -0.88986613812E+01  0.15348400509E+03  0.14404543681E+04  0.14541919792E+04  0.12700000000E+03 0.  0.
   -5000001    1    1    2    0    0  0.88986613812E+01 -0.15348400509E+03  0.33443136778E+03  0.38937111571E+03  0.12700000000E+03 0.  0.
<mgrwt>
<rscale>  0 0.49850327E+03</rscale>
<asrwt>0</asrwt>
<pdfrwt beam="1">  1        2 0.25846059E+00 0.49850327E+03</pdfrwt>
<pdfrwt beam="2">  1       -2 0.49055264E-02 0.49850327E+03</pdfrwt>
<totfact> 0.21906076E+03</totfact>
</mgrwt>
</event>
<event>
 4    1  0.1390278E-004  0.3121814E+03  0.7818608E-02  0.1079305E+00
          2   -1    0    0  501    0  0.00000000000E+00  0.00000000000E+00  0.28708009940E+03  0.28708009941E+03  0.25500000000E-02 0.  1.
         -2   -1    0    0    0  501 -0.00000000000E+00 -0.00000000000E+00 -0.84869351163E+02  0.84869351202E+02  0.25500000000E-02 0. -1.
    5000001    1    1    2    0    0 -0.20232143987E+02 -0.74870719427E+02  0.15724718770E+03  0.21649628708E+03  0.12700000000E+03 0.  0.
   -5000001    1    1    2    0    0  0.20232143987E+02  0.74870719427E+02  0.44963560538E+02  0.15545316354E+03  0.12700000000E+03 0.  0.
<mgrwt>
<rscale>  0 0.31218137E+03</rscale>
<asrwt>0</asrwt>
<pdfrwt beam="1">  1        2 0.41011443E-01 0.31218137E+03</pdfrwt>
<pdfrwt beam="2">  1       -2 0.12124193E-01 0.31218137E+03</pdfrwt>
<totfact> 0.60384245E+03</totfact>
</mgrwt>
</event>
<event>
 4    1  0.1390278E-004  0.2865060E+03  0.7818608E-02  0.1092188E+00
         -2   -1    0    0    0  501 -0.00000000000E+00  0.00000000000E+00  0.33958580923E+02  0.33958581019E+02  0.25500000000E-02 0. -1.
          2   -1    0    0  501    0  0.00000000000E+00 -0.00000000000E+00 -0.60430728166E+03  0.60430728167E+03  0.25500000000E-02 0.  1.
    5000001    1    1    2    0    0  0.31927199674E+02  0.51771002574E+02 -0.22653585185E+03  0.26673409036E+03  0.12700000000E+03 0.  0.
   -5000001    1    1    2    0    0 -0.31927199674E+02 -0.51771002574E+02 -0.34381284890E+03  0.37153177233E+03  0.12700000000E+03 0.  0.
<mgrwt>
<rscale>  0 0.28650597E+03</rscale>
<asrwt>0</asrwt>
<pdfrwt beam="1">  1        2 0.86329605E-01 0.28650597E+03</pdfrwt>
<pdfrwt beam="2">  1       -2 0.48512262E-02 0.28650597E+03</pdfrwt>
<totfact> 0.11151916E+04</totfact>
</mgrwt>
</event>
<event>
 4    1  0.1390278E-004  0.3481156E+03  0.7818608E-02  0.1063391E+00
         -2   -1    0    0    0  501 -0.00000000000E+00  0.00000000000E+00  0.38834520500E+02  0.38834520584E+02  0.25500000000E-02 0. -1.
          2   -1    0    0  501    0  0.00000000000E+00 -0.00000000000E+00 -0.78013360881E+03  0.78013360882E+03  0.25500000000E-02 0.  1.
    5000001    1    1    2    0    0  0.11235560127E+03  0.23480935341E+02 -0.29655353448E+03  0.34241514901E+03  0.12700000000E+03 0.  0.
   -5000001    1    1    2    0    0 -0.11235560127E+03 -0.23480935341E+02 -0.44474555383E+03  0.47655298039E+03  0.12700000000E+03 0.  0.
<mgrwt>
<rscale>  0 0.34811558E+03</rscale>
<asrwt>0</asrwt>
<pdfrwt beam="1">  1        2 0.11144765E+00 0.34811558E+03</pdfrwt>
<pdfrwt beam="2">  1       -2 0.55477891E-02 0.34811558E+03</pdfrwt>
<totfact> 0.67472580E+03</totfact>
</mgrwt>
</event>
<event>
 4    1  0.1390278E-004  0.8074887E+03  0.7818608E-02  0.9549240E-01
         -2   -1    0    0    0  501 -0.00000000000E+00  0.00000000000E+00  0.72430178436E+02  0.72430178481E+02  0.25500000000E-02 0. -1.
          2   -1    0    0  501    0  0.00000000000E+00 -0.00000000000E+00 -0.22505741086E+04  0.22505741086E+04  0.25500000000E-02 0.  1.
    5000001    1    1    2    0    0  0.20714802252E+03  0.20470400261E+03 -0.18057796152E+04  0.18335165804E+04  0.12700000000E+03 0.  0.
   -5000001    1    1    2    0    0 -0.20714802252E+03 -0.20470400261E+03 -0.37236431489E+03  0.48948770661E+03  0.12700000000E+03 0.  0.
<mgrwt>
<rscale>  0 0.80748866E+03</rscale>
<asrwt>0</asrwt>
<pdfrwt beam="1">  1        2 0.32151054E+00 0.80748866E+03</pdfrwt>
<pdfrwt beam="2">  1       -2 0.10347170E-01 0.80748866E+03</pdfrwt>
<totfact> 0.39489761E+02</totfact>
</mgrwt>
</event>
<event>
 4    1  0.1390278E-004  0.3822084E+03  0.7818608E-02  0.1050121E+00
         -2   -1    0    0    0  501 -0.00000000000E+00  0.00000000000E+00  0.15528089218E+02  0.15528089427E+02  0.25500000000E-02 0. -1.
          2   -1    0    0  501    0  0.00000000000E+00 -0.00000000000E+00 -0.23519189097E+04  0.23519189097E+04  0.25500000000E-02 0.  1.
    5000001    1    1    2    0    0 -0.10621673058E+03  0.91514304790E+02 -0.13361173839E+04  0.13494426721E+04  0.12700000000E+03 0.  0.
   -5000001    1    1    2    0    0  0.10621673058E+03 -0.91514304790E+02 -0.10002734366E+04  0.10180043270E+04  0.12700000000E+03 0.  0.
<mgrwt>
<rscale>  0 0.38220836E+03</rscale>
<asrwt>0</asrwt>
<pdfrwt beam="1">  1        2 0.33598819E+00 0.38220836E+03</pdfrwt>
<pdfrwt beam="2">  1       -2 0.22183000E-02 0.38220836E+03</pdfrwt>
<totfact> 0.39263580E+03</totfact>
</mgrwt>
</event>
<event>
 4    1  0.1390278E-004  0.3073640E+03  0.7818608E-02  0.1081616E+00
         -2   -1    0    0    0  501 -0.00000000000E+00  0.00000000000E+00  0.29446104926E+02  0.29446105037E+02  0.25500000000E-02 0. -1.
          2   -1    0    0  501    0  0.00000000000E+00 -0.00000000000E+00 -0.80208101656E+03  0.80208101657E+03  0.25500000000E-02 0.  1.
    5000001    1    1    2    0    0 -0.25421808647E+02 -0.82707936285E+02 -0.39041205492E+03  0.41956816336E+03  0.12700000000E+03 0.  0.
   -5000001    1    1    2    0    0  0.25421808647E+02  0.82707936285E+02 -0.38222285672E+03  0.41195895825E+03  0.12700000000E+03 0.  0.
<mgrwt>
<rscale>  0 0.30736403E+03</rscale>
<asrwt>0</asrwt>
<pdfrwt beam="1">  1        2 0.11458299E+00 0.30736403E+03</pdfrwt>
<pdfrwt beam="2">  1       -2 0.42065869E-02 0.30736403E+03</pdfrwt>
<totfact> 0.99050169E+03</totfact>
</mgrwt>
</event>
<event>
 4    1  0.1390278E-004  0.3551895E+03  0.7818608E-02  0.1060505E+00
         -2   -1    0    0    0  501 -0.00000000000E+00  0.00000000000E+00  0.49105634543E+02  0.49105634610E+02  0.25500000000E-02 0. -1.
          2   -1    0    0  501    0  0.00000000000E+00 -0.00000000000E+00 -0.64228679038E+03  0.64228679039E+03  0.25500000000E-02 0.  1.
    5000001    1    1    2    0    0 -0.63986548266E+02  0.78104082192E+02 -0.43717876814E+03  0.46631405869E+03  0.12700000000E+03 0.  0.
   -5000001    1    1    2    0    0  0.63986548266E+02 -0.78104082192E+02 -0.15600238770E+03  0.22507836631E+03  0.12700000000E+03 0.  0.
<mgrwt>
<rscale>  0 0.35518953E+03</rscale>
<asrwt>0</asrwt>
<pdfrwt beam="1">  1        2 0.91755251E-01 0.35518953E+03</pdfrwt>
<pdfrwt beam="2">  1       -2 0.70150910E-02 0.35518953E+03</pdfrwt>
<totfact> 0.59319612E+03</totfact>
</mgrwt>
</event>
<event>
 4    1  0.1390278E-004  0.5051065E+03  0.7818608E-02  0.1012455E+00
         -2   -1    0    0    0  501 -0.00000000000E+00  0.00000000000E+00  0.88890279929E+02  0.88890279966E+02  0.25500000000E-02 0. -1.
          2   -1    0    0  501    0  0.00000000000E+00 -0.00000000000E+00 -0.71754911684E+03  0.71754911684E+03  0.25500000000E-02 0.  1.
    5000001    1    1    2    0    0 -0.12910206752E+03 -0.12859201704E+03 -0.50625643034E+03  0.55283616374E+03  0.12700000000E+03 0.  0.
   -5000001    1    1    2    0    0  0.12910206752E+03  0.12859201704E+03 -0.12240240657E+03  0.25360323307E+03  0.12700000000E+03 0.  0.
<mgrwt>
<rscale>  0 0.50510649E+03</rscale>
<asrwt>0</asrwt>
<pdfrwt beam="1">  1        2 0.10250701E+00 0.50510649E+03</pdfrwt>
<pdfrwt beam="2">  1       -2 0.12698612E-01 0.50510649E+03</pdfrwt>
<totfact> 0.20178267E+03</totfact>
</mgrwt>
</event>
<event>
 4    1  0.1390278E-004  0.4948132E+03  0.7818608E-02  0.1015142E+00
         -2   -1    0    0    0  501 -0.00000000000E+00  0.00000000000E+00  0.11485264744E+03  0.11485264747E+03  0.25500000000E-02 0. -1.
          2   -1    0    0  501    0  0.00000000000E+00 -0.00000000000E+00 -0.53294405750E+03  0.53294405751E+03  0.25500000000E-02 0.  1.
    5000001    1    1    2    0    0 -0.93782436412E+02 -0.19043973797E+03 -0.20340002513E+03  0.32025460091E+03  0.12700000000E+03 0.  0.
   -5000001    1    1    2    0    0  0.93782436412E+02  0.19043973797E+03 -0.21469138493E+03  0.32754210407E+03  0.12700000000E+03 0.  0.
<mgrwt>
<rscale>  0 0.49481324E+03</rscale>
<asrwt>0</asrwt>
<pdfrwt beam="1">  1        2 0.76134864E-01 0.49481324E+03</pdfrwt>
<pdfrwt beam="2">  1       -2 0.16407521E-01 0.49481324E+03</pdfrwt>
<totfact> 0.18678103E+03</totfact>
</mgrwt>
</event>
<event>
 4    1  0.1390278E-004  0.5234946E+03  0.7818608E-02  0.1007822E+00
         -2   -1    0    0    0  501 -0.00000000000E+00  0.00000000000E+00  0.18498086703E+03  0.18498086704E+03  0.25500000000E-02 0. -1.
          2   -1    0    0  501    0  0.00000000000E+00 -0.00000000000E+00 -0.37037148185E+03  0.37037148186E+03  0.25500000000E-02 0.  1.
    5000001    1    1    2    0    0 -0.20800169535E+03  0.42214406089E+02 -0.18355734002E+03  0.30800821162E+03  0.12700000000E+03 0.  0.
   -5000001    1    1    2    0    0  0.20800169535E+03 -0.42214406089E+02 -0.18332748034E+01  0.24734413728E+03  0.12700000000E+03 0.  0.
<mgrwt>
<rscale>  0 0.52349456E+03</rscale>
<asrwt>0</asrwt>
<pdfrwt beam="1">  1        2 0.52910211E-01 0.52349456E+03</pdfrwt>
<pdfrwt beam="2">  1       -2 0.26425839E-01 0.52349456E+03</pdfrwt>
<totfact> 0.12208437E+03</totfact>
</mgrwt>
</event>
<event>
 4    1  0.1390278E-004  0.3829728E+03  0.7818608E-02  0.1049840E+00
         -2   -1    0    0    0  501 -0.00000000000E+00  0.00000000000E+00  0.13153610252E+02  0.13153610499E+02  0.25500000000E-02 0. -1.
          2   -1    0    0  501    0  0.00000000000E+00 -0.00000000000E+00 -0.27876023853E+04  0.27876023853E+04  0.25500000000E-02 0.  1.
    5000001    1    1    2    0    0  0.13906940903E+03 -0.47880482506E+00 -0.11341511591E+04  0.11496818610E+04  0.12700000000E+03 0.  0.
   -5000001    1    1    2    0    0 -0.13906940903E+03  0.47880482506E+00 -0.16402976159E+04  0.16510741347E+04  0.12700000000E+03 0.  0.
<mgrwt>
<rscale>  0 0.38297277E+03</rscale>
<asrwt>0</asrwt>
<pdfrwt beam="1">  1        2 0.39822853E+00 0.38297277E+03</pdfrwt>
<pdfrwt beam="2">  1       -2 0.18790890E-02 0.38297277E+03</pdfrwt>
<totfact> 0.30153187E+03</totfact>
</mgrwt>
</event>
<event>
 4    1  0.1390278E-004  0.2965863E+03  0.7818608E-02  0.1086960E+00
         -2   -1    0    0    0  501 -0.00000000000E+00  0.00000000000E+00  0.13114191811E+04  0.13114191811E+04  0.25500000000E-02 0. -1.
          2   -1    0    0  501    0  0.00000000000E+00 -0.00000000000E+00 -0.16768743521E+02  0.16768743715E+02  0.25500000000E-02 0.  1.
    5000001    1    1    2    0    0  0.51130831202E+02 -0.54909912312E+02  0.71559346863E+03  0.73063840080E+03  0.12700000000E+03 0.  0.
   -5000001    1    1    2    0    0 -0.51130831202E+02  0.54909912312E+02  0.57905696891E+03  0.59754952398E+03  0.12700000000E+03 0.  0.
<mgrwt>
<rscale>  0 0.29658626E+03</rscale>
<asrwt>0</asrwt>
<pdfrwt beam="1">  1        2 0.23955352E-02 0.29658626E+03</pdfrwt>
<pdfrwt beam="2">  1       -2 0.18734557E+00 0.29658626E+03</pdfrwt>
<totfact> 0.74420471E+02</totfact>
</mgrwt>
</event>
<event>
 4    1  0.1390278E-004  0.4926798E+03  0.7818608E-02  0.1015707E+00
         -2   -1    0    0    0  501 -0.00000000000E+00  0.00000000000E+00  0.32821657841E+03  0.32821657842E+03  0.25500000000E-02 0. -1.
          2   -1    0    0  501    0  0.00000000000E+00 -0.00000000000E+00 -0.18488810963E+03  0.18488810965E+03  0.25500000000E-02 0.  1.
    5000001    1    1    2    0    0  0.83924427921E+02 -0.17120986553E+03  0.16596188945E+03  0.28289304764E+03  0.12700000000E+03 0.  0.
   -5000001    1    1    2    0    0 -0.83924427921E+02  0.17120986553E+03 -0.22633420673E+02  0.23021164043E+03  0.12700000000E+03 0.  0.
<mgrwt>
<rscale>  0 0.49267979E+03</rscale>
<asrwt>0</asrwt>
<pdfrwt beam="1">  1        2 0.26412587E-01 0.49267979E+03</pdfrwt>
<pdfrwt beam="2">  1       -2 0.46888083E-01 0.49267979E+03</pdfrwt>
<totfact> 0.88979701E+02</totfact>
</mgrwt>
</event>
<event>
 4    1  0.1390278E-004  0.4600778E+03  0.7818608E-02  0.1024759E+00
          2   -1    0    0  501    0  0.00000000000E+00  0.00000000000E+00  0.84116869453E+02  0.84116869492E+02  0.25500000000E-02 0.  1.
         -2   -1    0    0    0  501 -0.00000000000E+00 -0.00000000000E+00 -0.62909968017E+03  0.62909968018E+03  0.25500000000E-02 0. -1.
    5000001    1    1    2    0    0  0.10201328632E+03 -0.16194880052E+03 -0.29177709092E+03  0.37134484695E+03  0.12700000000E+03 0.  0.
   -5000001    1    1    2    0    0 -0.10201328632E+03  0.16194880052E+03 -0.25320571981E+03  0.34187170272E+03  0.12700000000E+03 0.  0.
<mgrwt>
<rscale>  0 0.46007780E+03</rscale>
<asrwt>0</asrwt>
<pdfrwt beam="1">  1        2 0.12016696E-01 0.46007780E+03</pdfrwt>
<pdfrwt beam="2">  1       -2 0.89871380E-01 0.46007780E+03</pdfrwt>
<totfact> 0.56316679E+02</totfact>
</mgrwt>
</event>
<event>
 4    1  0.1390278E-004  0.7717536E+03  0.7818608E-02  0.9601827E-01
         -2   -1    0    0    0  501 -0.00000000000E+00  0.00000000000E+00  0.43978121567E+02  0.43978121641E+02  0.25500000000E-02 0. -1.
          2   -1    0    0  501    0  0.00000000000E+00 -0.00000000000E+00 -0.33857946901E+04  0.33857946901E+04  0.25500000000E-02 0.  1.
    5000001    1    1    2    0    0  0.28937463136E+03  0.19886390250E+03 -0.21037802269E+04  0.21366573830E+04  0.12700000000E+03 0.  0.
   -5000001    1    1    2    0    0 -0.28937463136E+03 -0.19886390250E+03 -0.12380363416E+04  0.12931154288E+04  0.12700000000E+03 0.  0.
<mgrwt>
<rscale>  0 0.77175356E+03</rscale>
<asrwt>0</asrwt>
<pdfrwt beam="1">  1        2 0.48368479E+00 0.77175356E+03</pdfrwt>
<pdfrwt beam="2">  1       -2 0.62825909E-02 0.77175356E+03</pdfrwt>
<totfact> 0.21556648E+02</totfact>
</mgrwt>
</event>
<event>
 4    1  0.1390278E-004  0.3584185E+03  0.7818608E-02  0.1059212E+00
         -2   -1    0    0    0  501 -0.00000000000E+00  0.00000000000E+00  0.46756494910E+02  0.46756494980E+02  0.25500000000E-02 0. -1.
          2   -1    0    0  501    0  0.00000000000E+00 -0.00000000000E+00 -0.68687669272E+03  0.68687669273E+03  0.25500000000E-02 0.  1.
    5000001    1    1    2    0    0 -0.11976733854E+02  0.11091195207E+03 -0.19824095418E+03  0.26052519874E+03  0.12700000000E+03 0.  0.
   -5000001    1    1    2    0    0  0.11976733854E+02 -0.11091195207E+03 -0.44187924364E+03  0.47310798897E+03  0.12700000000E+03 0.  0.
<mgrwt>
<rscale>  0 0.35841845E+03</rscale>
<asrwt>0</asrwt>
<pdfrwt beam="1">  1        2 0.98125236E-01 0.35841845E+03</pdfrwt>
<pdfrwt beam="2">  1       -2 0.66794997E-02 0.35841845E+03</pdfrwt>
<totfact> 0.59152977E+03</totfact>
</mgrwt>
</event>
<event>
 4    1  0.1390278E-004  0.4312824E+03  0.7818608E-02  0.1033456E+00
          2   -1    0    0  501    0  0.00000000000E+00  0.00000000000E+00  0.10280816713E+04  0.10280816713E+04  0.25500000000E-02 0.  1.
         -2   -1    0    0    0  501 -0.00000000000E+00 -0.00000000000E+00 -0.45230956818E+02  0.45230956890E+02  0.25500000000E-02 0. -1.
    5000001    1    1    2    0    0 -0.90437046854E+02 -0.13954250983E+03  0.62124502333E+03  0.65553440071E+03  0.12700000000E+03 0.  0.
   -5000001    1    1    2    0    0  0.90437046854E+02  0.13954250983E+03  0.36160569118E+03  0.41777822751E+03  0.12700000000E+03 0.  0.
<mgrwt>
<rscale>  0 0.43128236E+03</rscale>
<asrwt>0</asrwt>
<pdfrwt beam="1">  1        2 0.14686883E+00 0.43128236E+03</pdfrwt>
<pdfrwt beam="2">  1       -2 0.64615645E-02 0.43128236E+03</pdfrwt>
<totfact> 0.37186882E+03</totfact>
</mgrwt>
</event>
<event>
 4    1  0.1390278E-004  0.3028745E+03  0.7818608E-02  0.1083812E+00
          2   -1    0    0  501    0  0.00000000000E+00  0.00000000000E+00  0.14511436570E+04  0.14511436570E+04  0.25500000000E-02 0.  1.
         -2   -1    0    0    0  501 -0.00000000000E+00 -0.00000000000E+00 -0.15803567509E+02  0.15803567715E+02  0.25500000000E-02 0. -1.
    5000001    1    1    2    0    0 -0.37038055261E+02  0.50487028498E+02  0.45758768662E+03  0.47899504019E+03  0.12700000000E+03 0.  0.
   -5000001    1    1    2    0    0  0.37038055261E+02 -0.50487028498E+02  0.97775240287E+03  0.98795218452E+03  0.12700000000E+03 0.  0.
<mgrwt>
<rscale>  0 0.30287454E+03</rscale>
<asrwt>0</asrwt>
<pdfrwt beam="1">  1        2 0.20730621E+00 0.30287454E+03</pdfrwt>
<pdfrwt beam="2">  1       -2 0.22576528E-02 0.30287454E+03</pdfrwt>
<totfact> 0.10701285E+04</totfact>
</mgrwt>
</event>
<event>
 4    1  0.1390278E-004  0.5164903E+03  0.7818608E-02  0.1009562E+00
          2   -1    0    0  501    0  0.00000000000E+00  0.00000000000E+00  0.30826247051E+03  0.30826247052E+03  0.25500000000E-02 0.  1.
         -2   -1    0    0    0  501 -0.00000000000E+00 -0.00000000000E+00 -0.21634344488E+03  0.21634344490E+03  0.25500000000E-02 0. -1.
    5000001    1    1    2    0    0 -0.16809167658E+03 -0.77625023081E+02  0.17556189373E+03  0.28501128833E+03  0.12700000000E+03 0.  0.
   -5000001    1    1    2    0    0  0.16809167658E+03  0.77625023081E+02 -0.83642868105E+02  0.23959462709E+03  0.12700000000E+03 0.  0.
<mgrwt>
<rscale>  0 0.51649033E+03</rscale>
<asrwt>0</asrwt>
<pdfrwt beam="1">  1        2 0.44037496E-01 0.51649033E+03</pdfrwt>
<pdfrwt beam="2">  1       -2 0.30906206E-01 0.51649033E+03</pdfrwt>
<totfact> 0.11221036E+03</totfact>
</mgrwt>
</event>
<event>
 4    1  0.1390278E-004  0.3355245E+03  0.7818608E-02  0.1068718E+00
          2   -1    0    0  501    0  0.00000000000E+00  0.00000000000E+00  0.54144994876E+03  0.54144994876E+03  0.25500000000E-02 0.  1.
         -2   -1    0    0    0  501 -0.00000000000E+00 -0.00000000000E+00 -0.51979264058E+02  0.51979264120E+02  0.25500000000E-02 0. -1.
    5000001    1    1    2    0    0 -0.89493374044E+02  0.63191804982E+02  0.23838250691E+03  0.29147467783E+03  0.12700000000E+03 0.  0.
   -5000001    1    1    2    0    0  0.89493374044E+02 -0.63191804982E+02  0.25108817779E+03  0.30195453506E+03  0.12700000000E+03 0.  0.
<mgrwt>
<rscale>  0 0.33552448E+03</rscale>
<asrwt>0</asrwt>
<pdfrwt beam="1">  1        2 0.77349997E-01 0.33552448E+03</pdfrwt>
<pdfrwt beam="2">  1       -2 0.74256087E-02 0.33552448E+03</pdfrwt>
<totfact> 0.65949923E+03</totfact>
</mgrwt>
</event>
<event>
 4    1  0.1390278E-004  0.4171515E+03  0.7818608E-02  0.1037997E+00
         -2   -1    0    0    0  501 -0.00000000000E+00  0.00000000000E+00  0.29281630995E+02  0.29281631106E+02  0.25500000000E-02 0. -1.
          2   -1    0    0  501    0  0.00000000000E+00 -0.00000000000E+00 -0.14857039404E+04  0.14857039404E+04  0.25500000000E-02 0.  1.
    5000001    1    1    2    0    0  0.73080566834E+02 -0.50879440134E+02 -0.22177746261E+03  0.27063578773E+03  0.12700000000E+03 0.  0.
   -5000001    1    1    2    0    0 -0.73080566834E+02  0.50879440134E+02 -0.12346448468E+04  0.12443497838E+04  0.12700000000E+03 0.  0.
<mgrwt>
<rscale>  0 0.41715146E+03</rscale>
<asrwt>0</asrwt>
<pdfrwt beam="1">  1        2 0.21224337E+00 0.41715146E+03</pdfrwt>
<pdfrwt beam="2">  1       -2 0.41830911E-02 0.41715146E+03</pdfrwt>
<totfact> 0.40854722E+03</totfact>
</mgrwt>
</event>
<event>
 4    1  0.1390278E-004  0.7539043E+03  0.7818608E-02  0.9629245E-01
          2   -1    0    0  501    0  0.00000000000E+00  0.00000000000E+00  0.13564272503E+03  0.13564272505E+03  0.25500000000E-02 0. -1.
         -2   -1    0    0    0  501 -0.00000000000E+00 -0.00000000000E+00 -0.10475527637E+04  0.10475527637E+04  0.25500000000E-02 0.  1.
    5000001    1    1    2    0    0 -0.33938769873E+03  0.32687349310E+01 -0.61882174419E+03  0.71712205779E+03  0.12700000000E+03 0.  0.
   -5000001    1    1    2    0    0  0.33938769873E+03 -0.32687349310E+01 -0.29308829445E+03  0.46607343093E+03  0.12700000000E+03 0.  0.
<mgrwt>
<rscale>  0 0.75390427E+03</rscale>
<asrwt>0</asrwt>
<pdfrwt beam="1">  1        2 0.19377533E-01 0.75390427E+03</pdfrwt>
<pdfrwt beam="2">  1       -2 0.14965039E+00 0.75390427E+03</pdfrwt>
<totfact> 0.89893873E+01</totfact>
</mgrwt>
</event>
<event>
 4    1  0.1390278E-004  0.5306882E+03  0.7818608E-02  0.1006065E+00
          2   -1    0    0  501    0  0.00000000000E+00  0.00000000000E+00  0.24239696454E+03  0.24239696455E+03  0.25500000000E-02 0.  1.
         -2   -1    0    0    0  501 -0.00000000000E+00 -0.00000000000E+00 -0.29046358151E+03  0.29046358152E+03  0.25500000000E-02 0. -1.
    5000001    1    1    2    0    0 -0.23870651972E+01  0.22936522911E+03  0.16930555187E+02  0.26273513299E+03  0.12700000000E+03 0.  0.
   -5000001    1    1    2    0    0  0.23870651972E+01 -0.22936522911E+03 -0.64997172156E+02  0.27012541309E+03  0.12700000000E+03 0.  0.
<mgrwt>
<rscale>  0 0.53068820E+03</rscale>
<asrwt>0</asrwt>
<pdfrwt beam="1">  1        2 0.34628138E-01 0.53068820E+03</pdfrwt>
<pdfrwt beam="2">  1       -2 0.41494797E-01 0.53068820E+03</pdfrwt>
<totfact> 0.83607746E+02</totfact>
</mgrwt>
</event>
<event>
 4    1  0.1390278E-004  0.3145932E+03  0.7818608E-02  0.1078165E+00
         -2   -1    0    0    0  501 -0.00000000000E+00  0.00000000000E+00  0.28446232237E+02  0.28446232351E+02  0.25500000000E-02 0. -1.
          2   -1    0    0  501    0  0.00000000000E+00 -0.00000000000E+00 -0.86978899859E+03  0.86978899859E+03  0.25500000000E-02 0.  1.
    5000001    1    1    2    0    0  0.32625614724E+02  0.71783427388E+02 -0.56042971395E+03  0.58002392663E+03  0.12700000000E+03 0.  0.
   -5000001    1    1    2    0    0 -0.32625614724E+02 -0.71783427388E+02 -0.28091305240E+03  0.31821130431E+03  0.12700000000E+03 0.  0.
<mgrwt>
<rscale>  0 0.31459320E+03</rscale>
<asrwt>0</asrwt>
<pdfrwt beam="1">  1        2 0.12425555E+00 0.31459320E+03</pdfrwt>
<pdfrwt beam="2">  1       -2 0.40637480E-02 0.31459320E+03</pdfrwt>
<totfact> 0.94261293E+03</totfact>
</mgrwt>
</event>
<event>
 4    1  0.1390278E-004  0.5470031E+03  0.7818608E-02  0.1002190E+00
         -2   -1    0    0    0  501 -0.00000000000E+00  0.00000000000E+00  0.97232813982E+03  0.97232813982E+03  0.25500000000E-02 0. -1.
          2   -1    0    0  501    0  0.00000000000E+00 -0.00000000000E+00 -0.76931959005E+02  0.76931959048E+02  0.25500000000E-02 0.  1.
    5000001    1    1    2    0    0 -0.94531205945E+02 -0.19382906026E+03  0.23610207154E+03  0.34406255490E+03  0.12700000000E+03 0.  0.
   -5000001    1    1    2    0    0  0.94531205945E+02  0.19382906026E+03  0.65929410927E+03  0.70519754397E+03  0.12700000000E+03 0.  0.
<mgrwt>
<rscale>  0 0.54700314E+03</rscale>
<asrwt>0</asrwt>
<pdfrwt beam="1">  1        2 0.10990281E-01 0.54700314E+03</pdfrwt>
<pdfrwt beam="2">  1       -2 0.13890401E+00 0.54700314E+03</pdfrwt>
<totfact> 0.21948274E+02</totfact>
</mgrwt>
</event>
<event>
 4    1  0.1390278E-004  0.3129732E+03  0.7818608E-02  0.1078929E+00
         -2   -1    0    0    0  501 -0.00000000000E+00  0.00000000000E+00  0.12631954303E+02  0.12631954561E+02  0.25500000000E-02 0. -1.
          2   -1    0    0  501    0  0.00000000000E+00 -0.00000000000E+00 -0.19385796172E+04  0.19385796172E+04  0.25500000000E-02 0.  1.
    5000001    1    1    2    0    0  0.10679591088E+02 -0.90724366399E+02 -0.93957594072E+03  0.95251084651E+03  0.12700000000E+03 0.  0.
   -5000001    1    1    2    0    0 -0.10679591088E+02  0.90724366399E+02 -0.98637172213E+03  0.99870072522E+03  0.12700000000E+03 0.  0.
<mgrwt>
<rscale>  0 0.31297316E+03</rscale>
<asrwt>0</asrwt>
<pdfrwt beam="1">  1        2 0.27693976E+00 0.31297316E+03</pdfrwt>
<pdfrwt beam="2">  1       -2 0.18045661E-02 0.31297316E+03</pdfrwt>
<totfact> 0.85292034E+03</totfact>
</mgrwt>
</event>
<event>
 4    1  0.1390278E-004  0.3225815E+03  0.7818608E-02  0.1074467E+00
         -2   -1    0    0    0  501 -0.00000000000E+00  0.00000000000E+00  0.92565081491E+01  0.92565085004E+01  0.25500000000E-02 0. -1.
          2   -1    0    0  501    0  0.00000000000E+00 -0.00000000000E+00 -0.28104230497E+04  0.28104230497E+04  0.25500000000E-02 0.  1.
    5000001    1    1    2    0    0  0.38853187491E+00 -0.71488105228E+02 -0.20045975314E+04  0.20098882962E+04  0.12700000000E+03 0.  0.
   -5000001    1    1    2    0    0 -0.38853187491E+00  0.71488105228E+02 -0.79656901014E+03  0.80979126204E+03  0.12700000000E+03 0.  0.
<mgrwt>
<rscale>  0 0.32258149E+03</rscale>
<asrwt>0</asrwt>
<pdfrwt beam="1">  1        2 0.40148846E+00 0.32258149E+03</pdfrwt>
<pdfrwt beam="2">  1       -2 0.13223601E-02 0.32258149E+03</pdfrwt>
<totfact> 0.49416303E+03</totfact>
</mgrwt>
</event>
<event>
 4    1  0.1390278E-004  0.7328258E+03  0.7818608E-02  0.9662686E-01
          2   -1    0    0  501    0  0.00000000000E+00  0.00000000000E+00  0.15630846738E+03  0.15630846740E+03  0.25500000000E-02 0.  1.
         -2   -1    0    0    0  501 -0.00000000000E+00 -0.00000000000E+00 -0.85893253774E+03  0.85893253774E+03  0.25500000000E-02 0. -1.
    5000001    1    1    2    0    0 -0.74016322992E+02  0.21570460377E+03  0.49283298431E+01  0.26107504782E+03  0.12700000000E+03 0.  0.
   -5000001    1    1    2    0    0  0.74016322992E+02 -0.21570460377E+03 -0.70755240020E+03  0.75416595732E+03  0.12700000000E+03 0.  0.
<mgrwt>
<rscale>  0 0.73282584E+03</rscale>
<asrwt>0</asrwt>
<pdfrwt beam="1">  1        2 0.22329782E-01 0.73282584E+03</pdfrwt>
<pdfrwt beam="2">  1       -2 0.12270465E+00 0.73282584E+03</pdfrwt>
<totfact> 0.12670909E+02</totfact>
</mgrwt>
</event>
<event>
 4    1  0.1390278E-004  0.8403825E+03  0.7818608E-02  0.9503337E-01
          2   -1    0    0  501    0  0.00000000000E+00  0.00000000000E+00  0.29186701051E+03  0.29186701053E+03  0.25500000000E-02 0.  1.
         -2   -1    0    0    0  501 -0.00000000000E+00 -0.00000000000E+00 -0.60493538441E+03  0.60493538442E+03  0.25500000000E-02 0. -1.
    5000001    1    1    2    0    0 -0.38878255880E+03 -0.36969532066E+02 -0.61606710487E+02  0.41526258091E+03  0.12700000000E+03 0.  0.
   -5000001    1    1    2    0    0  0.38878255880E+03  0.36969532066E+02 -0.25146166341E+03  0.48153981403E+03  0.12700000000E+03 0.  0.
<mgrwt>
<rscale>  0 0.84038249E+03</rscale>
<asrwt>0</asrwt>
<pdfrwt beam="1">  1        2 0.41695287E-01 0.84038249E+03</pdfrwt>
<pdfrwt beam="2">  1       -2 0.86419341E-01 0.84038249E+03</pdfrwt>
<totfact> 0.14352733E+02</totfact>
</mgrwt>
</event>
<event>
 4    1  0.1390278E-004  0.6582286E+03  0.7818608E-02  0.9791460E-01
         -2   -1    0    0    0  501 -0.00000000000E+00  0.00000000000E+00  0.52355571850E+03  0.52355571851E+03  0.25500000000E-02 0. -1.
          2   -1    0    0  501    0  0.00000000000E+00 -0.00000000000E+00 -0.20688574651E+03  0.20688574653E+03  0.25500000000E-02 0.  1.
    5000001    1    1    2    0    0  0.75278839973E+02  0.18068389901E+03 -0.99235944108E+02  0.25355541350E+03  0.12700000000E+03 0.  0.
   -5000001    1    1    2    0    0 -0.75278839973E+02 -0.18068389901E+03  0.41590591610E+03  0.47688605154E+03  0.12700000000E+03 0.  0.
<mgrwt>
<rscale>  0 0.65822858E+03</rscale>
<asrwt>0</asrwt>
<pdfrwt beam="1">  1        2 0.29555107E-01 0.65822858E+03</pdfrwt>
<pdfrwt beam="2">  1       -2 0.74793673E-01 0.65822858E+03</pdfrwt>
<totfact> 0.29365435E+02</totfact>
</mgrwt>
</event>
<event>
 4    1  0.1390278E-004  0.5781998E+03  0.7818608E-02  0.9951696E-01
          2   -1    0    0  501    0  0.00000000000E+00  0.00000000000E+00  0.21530732006E+04  0.21530732006E+04  0.25500000000E-02 0.  1.
         -2   -1    0    0    0  501 -0.00000000000E+00 -0.00000000000E+00 -0.38818350791E+02  0.38818350875E+02  0.25500000000E-02 0. -1.
    5000001    1    1    2    0    0 -0.19620031314E+03 -0.14924385646E+03  0.74725937943E+03  0.79705324271E+03  0.12700000000E+03 0.  0.
   -5000001    1    1    2    0    0  0.19620031314E+03  0.14924385646E+03  0.13669954704E+04  0.13948383088E+04  0.12700000000E+03 0.  0.
<mgrwt>
<rscale>  0 0.57819980E+03</rscale>
<asrwt>0</asrwt>
<pdfrwt beam="1">  1        2 0.30758181E+00 0.57819980E+03</pdfrwt>
<pdfrwt beam="2">  1       -2 0.55454801E-02 0.57819980E+03</pdfrwt>
<totfact> 0.12138698E+03</totfact>
</mgrwt>
</event>
<event>
 4    1  0.1390278E-004  0.3398021E+03  0.7818608E-02  0.1066880E+00
         -2   -1    0    0    0  501 -0.00000000000E+00  0.00000000000E+00  0.55572001633E+02  0.55572001692E+02  0.25500000000E-02 0. -1.
          2   -1    0    0  501    0  0.00000000000E+00 -0.00000000000E+00 -0.51944085255E+03  0.51944085256E+03  0.25500000000E-02 0.  1.
    5000001    1    1    2    0    0  0.69420954588E+02  0.70046808664E+02 -0.32479814243E+03  0.36242055359E+03  0.12700000000E+03 0.  0.
   -5000001    1    1    2    0    0 -0.69420954588E+02 -0.70046808664E+02 -0.13907070849E+03  0.21259230066E+03  0.12700000000E+03 0.  0.
<mgrwt>
<rscale>  0 0.33980211E+03</rscale>
<asrwt>0</asrwt>
<pdfrwt beam="1">  1        2 0.74205833E-01 0.33980211E+03</pdfrwt>
<pdfrwt beam="2">  1       -2 0.79388577E-02 0.33980211E+03</pdfrwt>
<totfact> 0.62256139E+03</totfact>
</mgrwt>
</event>
<event>
 4    1  0.1390278E-004  0.3551043E+03  0.7818608E-02  0.1060539E+00
          2   -1    0    0  501    0  0.00000000000E+00  0.00000000000E+00  0.61092840350E+03  0.61092840351E+03  0.25500000000E-02 0.  1.
         -2   -1    0    0    0  501 -0.00000000000E+00 -0.00000000000E+00 -0.51601396070E+02  0.51601396133E+02  0.25500000000E-02 0. -1.
    5000001    1    1    2    0    0  0.11073381167E+03 -0.47086246642E+02  0.22317561993E+03  0.28357617848E+03  0.12700000000E+03 0.  0.
   -5000001    1    1    2    0    0 -0.11073381167E+03  0.47086246642E+02  0.33615138750E+03  0.37895362116E+03  0.12700000000E+03 0.  0.
<mgrwt>
<rscale>  0 0.35510426E+03</rscale>
<asrwt>0</asrwt>
<pdfrwt beam="1">  1        2 0.87275486E-01 0.35510426E+03</pdfrwt>
<pdfrwt beam="2">  1       -2 0.73716281E-02 0.35510426E+03</pdfrwt>
<totfact> 0.58195904E+03</totfact>
</mgrwt>
</event>
<event>
 4    1  0.1390278E-004  0.3320160E+03  0.7818608E-02  0.1070248E+00
         -2   -1    0    0    0  501 -0.00000000000E+00  0.00000000000E+00  0.35159413832E+02  0.35159413925E+02  0.25500000000E-02 0. -1.
          2   -1    0    0  501    0  0.00000000000E+00 -0.00000000000E+00 -0.78382021142E+03  0.78382021142E+03  0.25500000000E-02 0.  1.
    5000001    1    1    2    0    0 -0.58453132804E+01  0.35196479514E+02 -0.12573656138E+03  0.18224061766E+03  0.12700000000E+03 0.  0.
   -5000001    1    1    2    0    0  0.58453132804E+01 -0.35196479514E+02 -0.62292423620E+03  0.63673900768E+03  0.12700000000E+03 0.  0.
<mgrwt>
<rscale>  0 0.33201602E+03</rscale>
<asrwt>0</asrwt>
<pdfrwt beam="1">  1        2 0.11197431E+00 0.33201602E+03</pdfrwt>
<pdfrwt beam="2">  1       -2 0.50227739E-02 0.33201602E+03</pdfrwt>
<totfact> 0.78024949E+03</totfact>
</mgrwt>
</event>
<event>
 4    1  0.1390278E-004  0.3701385E+03  0.7818608E-02  0.1054640E+00
          2   -1    0    0  501    0  0.00000000000E+00  0.00000000000E+00  0.32887588249E+02  0.32887588347E+02  0.25500000000E-02 0.  1.
         -2   -1    0    0    0  501 -0.00000000000E+00 -0.00000000000E+00 -0.10414452547E+04  0.10414452547E+04  0.25500000000E-02 0. -1.
    5000001    1    1    2    0    0 -0.36190156264E+02 -0.41249449899E+02 -0.14748914956E+03  0.20222090338E+03  0.12700000000E+03 0.  0.
   -5000001    1    1    2    0    0  0.36190156264E+02  0.41249449899E+02 -0.86106851685E+03  0.87211193962E+03  0.12700000000E+03 0.  0.
<mgrwt>
<rscale>  0 0.37013848E+03</rscale>
<asrwt>0</asrwt>
<pdfrwt beam="1">  1        2 0.46982275E-02 0.37013848E+03</pdfrwt>
<pdfrwt beam="2">  1       -2 0.14877787E+00 0.37013848E+03</pdfrwt>
<totfact> 0.55630104E+02</totfact>
</mgrwt>
</event>
<event>
 4    1  0.1390278E-004  0.3907213E+03  0.7818608E-02  0.1047041E+00
         -2   -1    0    0    0  501 -0.00000000000E+00  0.00000000000E+00  0.44892392024E+02  0.44892392097E+02  0.25500000000E-02 0. -1.
          2   -1    0    0  501    0  0.00000000000E+00 -0.00000000000E+00 -0.85016158076E+03  0.85016158076E+03  0.25500000000E-02 0.  1.
    5000001    1    1    2    0    0 -0.66029020425E+01  0.14784309603E+03 -0.42931080884E+03  0.47152725260E+03  0.12700000000E+03 0.  0.
   -5000001    1    1    2    0    0  0.66029020425E+01 -0.14784309603E+03 -0.37595837989E+03  0.42352672026E+03  0.12700000000E+03 0.  0.
<mgrwt>
<rscale>  0 0.39072132E+03</rscale>
<asrwt>0</asrwt>
<pdfrwt beam="1">  1        2 0.12145164E+00 0.39072132E+03</pdfrwt>
<pdfrwt beam="2">  1       -2 0.64131994E-02 0.39072132E+03</pdfrwt>
<totfact> 0.48493613E+03</totfact>
</mgrwt>
</event>
<event>
 4    1  0.1390278E-004  0.4320416E+03  0.7818608E-02  0.1033217E+00
          2   -1    0    0  501    0  0.00000000000E+00  0.00000000000E+00  0.10515111361E+03  0.10515111364E+03  0.25500000000E-02 0.  1.
         -2   -1    0    0    0  501 -0.00000000000E+00 -0.00000000000E+00 -0.44378980799E+03  0.44378980800E+03  0.25500000000E-02 0. -1.
    5000001    1    1    2    0    0 -0.47614630859E+02 -0.15925993564E+03 -0.10083655200E+03  0.23222379377E+03  0.12700000000E+03 0.  0.
   -5000001    1    1    2    0    0  0.47614630859E+02  0.15925993564E+03 -0.23780214238E+03  0.31671712788E+03  0.12700000000E+03 0.  0.
<mgrwt>
<rscale>  0 0.43204163E+03</rscale>
<asrwt>0</asrwt>
<pdfrwt beam="1">  1        2 0.15021588E-01 0.43204163E+03</pdfrwt>
<pdfrwt beam="2">  1       -2 0.63398543E-01 0.43204163E+03</pdfrwt>
<totfact> 0.92392411E+02</totfact>
</mgrwt>
</event>
<event>
 4    1  0.1390278E-004  0.5299768E+03  0.7818608E-02  0.1006238E+00
          2   -1    0    0  501    0  0.00000000000E+00  0.00000000000E+00  0.15640919470E+04  0.15640919470E+04  0.25500000000E-02 0.  1.
         -2   -1    0    0    0  501 -0.00000000000E+00 -0.00000000000E+00 -0.44894321120E+02  0.44894321192E+02  0.25500000000E-02 0. -1.
    5000001    1    1    2    0    0 -0.46921217359E+02 -0.19629677294E+03  0.11104563550E+04  0.11357712534E+04  0.12700000000E+03 0.  0.
   -5000001    1    1    2    0    0  0.46921217359E+02  0.19629677294E+03  0.40874127094E+03  0.47321501485E+03  0.12700000000E+03 0.  0.
<mgrwt>
<rscale>  0 0.52997678E+03</rscale>
<asrwt>0</asrwt>
<pdfrwt beam="1">  1        2 0.22344176E+00 0.52997678E+03</pdfrwt>
<pdfrwt beam="2">  1       -2 0.64134729E-02 0.52997678E+03</pdfrwt>
<totfact> 0.19202945E+03</totfact>
</mgrwt>
</event>
<event>
 4    1  0.1390278E-004  0.5568993E+03  0.7818608E-02  0.9999095E-01
         -2   -1    0    0    0  501 -0.00000000000E+00  0.00000000000E+00  0.47776436208E+03  0.47776436208E+03  0.25500000000E-02 0. -1.
          2   -1    0    0  501    0  0.00000000000E+00 -0.00000000000E+00 -0.16228547727E+03  0.16228547729E+03  0.25500000000E-02 0.  1.
    5000001    1    1    2    0    0 -0.30519692004E+02  0.16912490381E+03 -0.47439012634E+02  0.21889299808E+03  0.12700000000E+03 0.  0.
   -5000001    1    1    2    0    0  0.30519692004E+02 -0.16912490381E+03  0.36291789744E+03  0.42115684130E+03  0.12700000000E+03 0.  0.
<mgrwt>
<rscale>  0 0.55689934E+03</rscale>
<asrwt>0</asrwt>
<pdfrwt beam="1">  1        2 0.23183640E-01 0.55689934E+03</pdfrwt>
<pdfrwt beam="2">  1       -2 0.68252052E-01 0.55689934E+03</pdfrwt>
<totfact> 0.47380763E+02</totfact>
</mgrwt>
</event>
<event>
 4    1  0.1390278E-004  0.5116562E+03  0.7818608E-02  0.1010780E+00
         -2   -1    0    0    0  501 -0.00000000000E+00  0.00000000000E+00  0.59127810156E+02  0.59127810211E+02  0.25500000000E-02 0. -1.
          2   -1    0    0  501    0  0.00000000000E+00 -0.00000000000E+00 -0.11068906754E+04  0.11068906754E+04  0.25500000000E-02 0.  1.
    5000001    1    1    2    0    0  0.28144626744E+02  0.10290534021E+03 -0.96775667037E+03  0.98186740556E+03  0.12700000000E+03 0.  0.
   -5000001    1    1    2    0    0 -0.28144626744E+02 -0.10290534021E+03 -0.80006194833E+02  0.18415108001E+03  0.12700000000E+03 0.  0.
<mgrwt>
<rscale>  0 0.51165622E+03</rscale>
<asrwt>0</asrwt>
<pdfrwt beam="1">  1        2 0.15812723E+00 0.51165622E+03</pdfrwt>
<pdfrwt beam="2">  1       -2 0.84468307E-02 0.51165622E+03</pdfrwt>
<totfact> 0.21927619E+03</totfact>
</mgrwt>
</event>
<event>
 4    1  0.1390278E-004  0.3077249E+03  0.7818608E-02  0.1081442E+00
         -2   -1    0    0    0  501 -0.00000000000E+00  0.00000000000E+00  0.29653733623E+02  0.29653733733E+02  0.25500000000E-02 0. -1.
          2   -1    0    0  501    0  0.00000000000E+00 -0.00000000000E+00 -0.79833637805E+03  0.79833637805E+03  0.25500000000E-02 0.  1.
    5000001    1    1    2    0    0 -0.79953689339E+02 -0.29256958571E+02 -0.33804184945E+03  0.37101193248E+03  0.12700000000E+03 0.  0.
   -5000001    1    1    2    0    0  0.79953689339E+02  0.29256958571E+02 -0.43064079498E+03  0.45697817931E+03  0.12700000000E+03 0.  0.
<mgrwt>
<rscale>  0 0.30772491E+03</rscale>
<asrwt>0</asrwt>
<pdfrwt beam="1">  1        2 0.11404804E+00 0.30772491E+03</pdfrwt>
<pdfrwt beam="2">  1       -2 0.42362482E-02 0.30772491E+03</pdfrwt>
<totfact> 0.98579175E+03</totfact>
</mgrwt>
</event>
<event>
 4    1  0.1390278E-004  0.3478733E+03  0.7818608E-02  0.1063491E+00
         -2   -1    0    0    0  501 -0.00000000000E+00  0.00000000000E+00  0.40601356726E+02  0.40601356806E+02  0.25500000000E-02 0. -1.
          2   -1    0    0  501    0  0.00000000000E+00 -0.00000000000E+00 -0.74514639364E+03  0.74514639365E+03  0.25500000000E-02 0.  1.
    5000001    1    1    2    0    0 -0.11345239288E+03 -0.25642534358E+02 -0.40741345181E+03  0.44231629603E+03  0.12700000000E+03 0.  0.
   -5000001    1    1    2    0    0  0.11345239288E+03  0.25642534358E+02 -0.29713158510E+03  0.34343145442E+03  0.12700000000E+03 0.  0.
<mgrwt>
<rscale>  0 0.34787328E+03</rscale>
<asrwt>0</asrwt>
<pdfrwt beam="1">  1        2 0.10644948E+00 0.34787328E+03</pdfrwt>
<pdfrwt beam="2">  1       -2 0.58001943E-02 0.34787328E+03</pdfrwt>
<totfact> 0.66664202E+03</totfact>
</mgrwt>
</event>
<event>
 4    1  0.1390278E-004  0.3895878E+03  0.7818608E-02  0.1047446E+00
          2   -1    0    0  501    0  0.00000000000E+00  0.00000000000E+00  0.41571104621E+03  0.41571104622E+03  0.25500000000E-02 0.  1.
         -2   -1    0    0    0  501 -0.00000000000E+00 -0.00000000000E+00 -0.91276535222E+02  0.91276535257E+02  0.25500000000E-02 0. -1.
    5000001    1    1    2    0    0 -0.13358211013E+03 -0.61492067806E+02  0.14426958973E+03  0.24200861363E+03  0.12700000000E+03 0.  0.
   -5000001    1    1    2    0    0  0.13358211013E+03  0.61492067806E+02  0.18016492126E+03  0.26497896785E+03  0.12700000000E+03 0.  0.
<mgrwt>
<rscale>  0 0.38958780E+03</rscale>
<asrwt>0</asrwt>
<pdfrwt beam="1">  1        2 0.59387292E-01 0.38958780E+03</pdfrwt>
<pdfrwt beam="2">  1       -2 0.13039505E-01 0.38958780E+03</pdfrwt>
<totfact> 0.36062966E+03</totfact>
</mgrwt>
</event>
<event>
 4    1  0.1390278E-004  0.3104578E+03  0.7818608E-02  0.1080127E+00
         -2   -1    0    0    0  501 -0.00000000000E+00  0.00000000000E+00  0.85623811259E+01  0.85623815056E+01  0.25500000000E-02 0. -1.
          2   -1    0    0  501    0  0.00000000000E+00 -0.00000000000E+00 -0.28141725380E+04  0.28141725380E+04  0.25500000000E-02 0.  1.
    5000001    1    1    2    0    0 -0.29309734960E+02  0.36786043288E+02 -0.20925372646E+04  0.20969152290E+04  0.12700000000E+03 0.  0.
   -5000001    1    1    2    0    0  0.29309734960E+02 -0.36786043288E+02 -0.71307289225E+03  0.72581969056E+03  0.12700000000E+03 0.  0.
<mgrwt>
<rscale>  0 0.31045784E+03</rscale>
<asrwt>0</asrwt>
<pdfrwt beam="1">  1        2 0.40202406E+00 0.31045784E+03</pdfrwt>
<pdfrwt beam="2">  1       -2 0.12231991E-02 0.31045784E+03</pdfrwt>
<totfact> 0.55168592E+03</totfact>
</mgrwt>
</event>
<event>
 4    1  0.1390278E-004  0.2925511E+03  0.7818608E-02  0.1089025E+00
          2   -1    0    0  501    0  0.00000000000E+00  0.00000000000E+00  0.19070454650E+04  0.19070454650E+04  0.25500000000E-02 0.  1.
         -2   -1    0    0    0  501 -0.00000000000E+00 -0.00000000000E+00 -0.11219732081E+02  0.11219732371E+02  0.25500000000E-02 0. -1.
    5000001    1    1    2    0    0  0.45716150401E+02 -0.45025388420E+02  0.72552551956E+03  0.73934669238E+03  0.12700000000E+03 0.  0.
   -5000001    1    1    2    0    0 -0.45716150401E+02  0.45025388420E+02  0.11703002133E+04  0.11789185050E+04  0.12700000000E+03 0.  0.
<mgrwt>
<rscale>  0 0.29255112E+03</rscale>
<asrwt>0</asrwt>
<pdfrwt beam="1">  1        2 0.27243548E+00 0.29255112E+03</pdfrwt>
<pdfrwt beam="2">  1       -2 0.16028164E-02 0.29255112E+03</pdfrwt>
<totfact> 0.10511363E+04</totfact>
</mgrwt>
</event>
<event>
 4    1  0.1390278E-004  0.5668046E+03  0.7818608E-02  0.9976775E-01
         -2   -1    0    0    0  501 -0.00000000000E+00  0.00000000000E+00  0.21863868646E+03  0.21863868648E+03  0.25500000000E-02 0. -1.
          2   -1    0    0  501    0  0.00000000000E+00 -0.00000000000E+00 -0.36734969775E+03  0.36734969776E+03  0.25500000000E-02 0.  1.
    5000001    1    1    2    0    0 -0.19083920175E+03  0.92370526349E+02  0.69032351355E+02  0.25660549604E+03  0.12700000000E+03 0.  0.
   -5000001    1    1    2    0    0  0.19083920175E+03 -0.92370526349E+02 -0.21774336264E+03  0.32938288820E+03  0.12700000000E+03 0.  0.
<mgrwt>
<rscale>  0 0.56680457E+03</rscale>
<asrwt>0</asrwt>
<pdfrwt beam="1">  1        2 0.52478528E-01 0.56680457E+03</pdfrwt>
<pdfrwt beam="2">  1       -2 0.31234098E-01 0.56680457E+03</pdfrwt>
<totfact> 0.90695566E+02</totfact>
</mgrwt>
</event>
<event>
 4    1  0.1390278E-004  0.2910029E+03  0.7818608E-02  0.1089827E+00
         -2   -1    0    0    0  501 -0.00000000000E+00  0.00000000000E+00  0.77455180663E+01  0.77455184861E+01  0.25500000000E-02 0. -1.
          2   -1    0    0  501    0  0.00000000000E+00 -0.00000000000E+00 -0.27332808203E+04  0.27332808203E+04  0.25500000000E-02 0.  1.
    5000001    1    1    2    0    0  0.38923660462E+02  0.54830495119E+02 -0.15776093387E+04  0.15841406692E+04  0.12700000000E+03 0.  0.
   -5000001    1    1    2    0    0 -0.38923660462E+02 -0.54830495119E+02 -0.11479259636E+04  0.11568856696E+04  0.12700000000E+03 0.  0.
<mgrwt>
<rscale>  0 0.29100293E+03</rscale>
<asrwt>0</asrwt>
<pdfrwt beam="1">  1        2 0.39046807E+00 0.29100293E+03</pdfrwt>
<pdfrwt beam="2">  1       -2 0.11065044E-02 0.29100293E+03</pdfrwt>
<totfact> 0.70332369E+03</totfact>
</mgrwt>
</event>
<event>
 4    1  0.1390278E-004  0.3109788E+03  0.7818608E-02  0.1079878E+00
         -2   -1    0    0    0  501 -0.00000000000E+00  0.00000000000E+00  0.28685910049E+02  0.28685910163E+02  0.25500000000E-02 0. -1.
          2   -1    0    0  501    0  0.00000000000E+00 -0.00000000000E+00 -0.84281651677E+03  0.84281651678E+03  0.25500000000E-02 0.  1.
    5000001    1    1    2    0    0  0.52992734308E+02 -0.29783363993E+02 -0.59195646392E+03  0.60847081593E+03  0.12700000000E+03 0.  0.
   -5000001    1    1    2    0    0 -0.52992734308E+02  0.29783363993E+02 -0.22217414280E+03  0.26303161101E+03  0.12700000000E+03 0.  0.
<mgrwt>
<rscale>  0 0.31097883E+03</rscale>
<asrwt>0</asrwt>
<pdfrwt beam="1">  1        2 0.12040234E+00 0.31097883E+03</pdfrwt>
<pdfrwt beam="2">  1       -2 0.40979877E-02 0.31097883E+03</pdfrwt>
<totfact> 0.96860236E+03</totfact>
</mgrwt>
</event>
<event>
 4    1  0.1390278E-004  0.3540202E+03  0.7818608E-02  0.1060977E+00
         -2   -1    0    0    0  501 -0.00000000000E+00  0.00000000000E+00  0.15184053780E+03  0.15184053782E+03  0.25500000000E-02 0. -1.
          2   -1    0    0  501    0  0.00000000000E+00 -0.00000000000E+00 -0.20635184414E+03  0.20635184415E+03  0.25500000000E-02 0.  1.
    5000001    1    1    2    0    0  0.10556338201E+03  0.77403836177E+01 -0.91246836021E+02  0.18883465318E+03  0.12700000000E+03 0.  0.
   -5000001    1    1    2    0    0 -0.10556338201E+03 -0.77403836177E+01  0.36735529685E+02  0.16935772879E+03  0.12700000000E+03 0.  0.
<mgrwt>
<rscale>  0 0.35402020E+03</rscale>
<asrwt>0</asrwt>
<pdfrwt beam="1">  1        2 0.29478835E-01 0.35402020E+03</pdfrwt>
<pdfrwt beam="2">  1       -2 0.21691505E-01 0.35402020E+03</pdfrwt>
<totfact> 0.32790873E+03</totfact>
</mgrwt>
</event>
<event>
 4    1  0.1390278E-004  0.5792983E+03  0.7818608E-02  0.9949311E-01
         -2   -1    0    0    0  501 -0.00000000000E+00  0.00000000000E+00  0.11028942207E+03  0.11028942210E+03  0.25500000000E-02 0.  1.
          2   -1    0    0  501    0  0.00000000000E+00 -0.00000000000E+00 -0.76069511745E+03  0.76069511746E+03  0.25500000000E-02 0. -1.
    5000001    1    1    2    0    0  0.20065287574E+03  0.16422518399E+03 -0.29038946585E+03  0.40949545721E+03  0.12700000000E+03 0.  0.
   -5000001    1    1    2    0    0 -0.20065287574E+03 -0.16422518399E+03 -0.36001622953E+03  0.46148908234E+03  0.12700000000E+03 0.  0.
<mgrwt>
<rscale>  0 0.57929828E+03</rscale>
<asrwt>0</asrwt>
<pdfrwt beam="1">  1        2 0.10867073E+00 0.57929828E+03</pdfrwt>
<pdfrwt beam="2">  1       -2 0.15755632E-01 0.57929828E+03</pdfrwt>
<totfact> 0.13088607E+03</totfact>
</mgrwt>
</event>
<event>
 4    1  0.1390278E-004  0.6296131E+03  0.7818608E-02  0.9845804E-01
         -2   -1    0    0    0  501 -0.00000000000E+00  0.00000000000E+00  0.26628344627E+03  0.26628344628E+03  0.25500000000E-02 0. -1.
          2   -1    0    0  501    0  0.00000000000E+00 -0.00000000000E+00 -0.37217165436E+03  0.37217165437E+03  0.25500000000E-02 0.  1.
    5000001    1    1    2    0    0  0.18094708803E+03 -0.10628897976E+03  0.14714639710E+03  0.28604240606E+03  0.12700000000E+03 0.  0.
   -5000001    1    1    2    0    0 -0.18094708803E+03  0.10628897976E+03 -0.25303460519E+03  0.35241269459E+03  0.12700000000E+03 0.  0.
<mgrwt>
<rscale>  0 0.62961306E+03</rscale>
<asrwt>0</asrwt>
<pdfrwt beam="1">  1        2 0.53167379E-01 0.62961306E+03</pdfrwt>
<pdfrwt beam="2">  1       -2 0.38040492E-01 0.62961306E+03</pdfrwt>
<totfact> 0.61532278E+02</totfact>
</mgrwt>
</event>
<event>
 4    1  0.1390278E-004  0.3086035E+03  0.7818608E-02  0.1081017E+00
         -2   -1    0    0    0  501 -0.00000000000E+00  0.00000000000E+00  0.18612136527E+02  0.18612136702E+02  0.25500000000E-02 0. -1.
          2   -1    0    0  501    0  0.00000000000E+00 -0.00000000000E+00 -0.12792207738E+04  0.12792207738E+04  0.25500000000E-02 0.  1.
    5000001    1    1    2    0    0 -0.24001838122E+02 -0.83775219805E+02 -0.66922649466E+03  0.68672227053E+03  0.12700000000E+03 0.  0.
   -5000001    1    1    2    0    0  0.24001838122E+02  0.83775219805E+02 -0.59138214257E+03  0.61111063993E+03  0.12700000000E+03 0.  0.
<mgrwt>
<rscale>  0 0.30860351E+03</rscale>
<asrwt>0</asrwt>
<pdfrwt beam="1">  1        2 0.18274577E+00 0.30860351E+03</pdfrwt>
<pdfrwt beam="2">  1       -2 0.26588775E-02 0.30860351E+03</pdfrwt>
<totfact> 0.10323081E+04</totfact>
</mgrwt>
</event>
<event>
 4    1  0.1390278E-004  0.6483275E+03  0.7818608E-02  0.9809923E-01
          2   -1    0    0  501    0  0.00000000000E+00  0.00000000000E+00  0.10775293369E+04  0.10775293369E+04  0.25500000000E-02 0.  1.
         -2   -1    0    0    0  501 -0.00000000000E+00 -0.00000000000E+00 -0.97521369742E+02  0.97521369775E+02  0.25500000000E-02 0. -1.
    5000001    1    1    2    0    0 -0.62088854986E+02  0.15093667612E+03  0.94244581633E+03  0.96486787843E+03  0.12700000000E+03 0.  0.
   -5000001    1    1    2    0    0  0.62088854986E+02 -0.15093667612E+03  0.37562150823E+02  0.21018282824E+03  0.12700000000E+03 0.  0.
<mgrwt>
<rscale>  0 0.64832750E+03</rscale>
<asrwt>0</asrwt>
<pdfrwt beam="1">  1        2 0.15393276E+00 0.64832750E+03</pdfrwt>
<pdfrwt beam="2">  1       -2 0.13931624E-01 0.64832750E+03</pdfrwt>
<totfact> 0.10055681E+03</totfact>
</mgrwt>
</event>
<event>
 4    1  0.1390278E-004  0.4151723E+03  0.7818608E-02  0.1038649E+00
         -2   -1    0    0    0  501 -0.00000000000E+00  0.00000000000E+00  0.30668387235E+02  0.30668387341E+02  0.25500000000E-02 0.  1.
          2   -1    0    0  501    0  0.00000000000E+00 -0.00000000000E+00 -0.14050956889E+04  0.14050956889E+04  0.25500000000E-02 0. -1.
    5000001    1    1    2    0    0 -0.14745667340E+03 -0.19859053799E+02 -0.92743456005E+03  0.94784055395E+03  0.12700000000E+03 0.  0.
   -5000001    1    1    2    0    0  0.14745667340E+03  0.19859053799E+02 -0.44699274165E+03  0.48792352232E+03  0.12700000000E+03 0.  0.
<mgrwt>
<rscale>  0 0.41517234E+03</rscale>
<asrwt>0</asrwt>
<pdfrwt beam="1">  1        2 0.20072792E+00 0.41517234E+03</pdfrwt>
<pdfrwt beam="2">  1       -2 0.43811991E-02 0.41517234E+03</pdfrwt>
<totfact> 0.41916979E+03</totfact>
</mgrwt>
</event>
<event>
 4    1  0.1390278E-004  0.2745202E+03  0.7818608E-02  0.1098720E+00
         -2   -1    0    0    0  501 -0.00000000000E+00  0.00000000000E+00  0.41587303079E+02  0.41587303158E+02  0.25500000000E-02 0. -1.
          2   -1    0    0  501    0  0.00000000000E+00 -0.00000000000E+00 -0.45303083305E+03  0.45303083306E+03  0.25500000000E-02 0.  1.
    5000001    1    1    2    0    0 -0.24965148181E+02  0.39631023477E+02 -0.16473613376E+03  0.21321554918E+03  0.12700000000E+03 0.  0.
   -5000001    1    1    2    0    0  0.24965148181E+02 -0.39631023477E+02 -0.24670739622E+03  0.28140258704E+03  0.12700000000E+03 0.  0.
<mgrwt>
<rscale>  0 0.27452017E+03</rscale>
<asrwt>0</asrwt>
<pdfrwt beam="1">  1        2 0.64718688E-01 0.27452017E+03</pdfrwt>
<pdfrwt beam="2">  1       -2 0.59410436E-02 0.27452017E+03</pdfrwt>
<totfact> 0.11269957E+04</totfact>
</mgrwt>
</event>
<event>
 4    1  0.1390278E-004  0.2887622E+03  0.7818608E-02  0.1090997E+00
          2   -1    0    0  501    0  0.00000000000E+00  0.00000000000E+00  0.81770310772E+02  0.81770310811E+02  0.25500000000E-02 0.  1.
         -2   -1    0    0    0  501 -0.00000000000E+00 -0.00000000000E+00 -0.25493240725E+03  0.25493240726E+03  0.25500000000E-02 0. -1.
    5000001    1    1    2    0    0 -0.24301089384E+02 -0.10364388858E+02 -0.12661046483E+02  0.13033520476E+03  0.12700000000E+03 0.  0.
   -5000001    1    1    2    0    0  0.24301089384E+02  0.10364388858E+02 -0.16050104999E+03  0.20636751331E+03  0.12700000000E+03 0.  0.
<mgrwt>
<rscale>  0 0.28876220E+03</rscale>
<asrwt>0</asrwt>
<pdfrwt beam="1">  1        2 0.11681473E-01 0.28876220E+03</pdfrwt>
<pdfrwt beam="2">  1       -2 0.36418915E-01 0.28876220E+03</pdfrwt>
<totfact> 0.37536320E+03</totfact>
</mgrwt>
</event>
<event>
 4    1  0.1390278E-004  0.2783203E+03  0.7818608E-02  0.1096610E+00
         -2   -1    0    0    0  501 -0.00000000000E+00  0.00000000000E+00  0.71855731134E+03  0.71855731135E+03  0.25500000000E-02 0. -1.
          2   -1    0    0  501    0  0.00000000000E+00 -0.00000000000E+00 -0.26950593284E+02  0.26950593405E+02  0.25500000000E-02 0.  1.
    5000001    1    1    2    0    0  0.21586610973E+01 -0.56692756959E+02  0.33449682774E+03  0.36226489794E+03  0.12700000000E+03 0.  0.
   -5000001    1    1    2    0    0 -0.21586610973E+01  0.56692756959E+02  0.35710989032E+03  0.38324300681E+03  0.12700000000E+03 0.  0.
<mgrwt>
<rscale>  0 0.27832029E+03</rscale>
<asrwt>0</asrwt>
<pdfrwt beam="1">  1        2 0.38500852E-02 0.27832029E+03</pdfrwt>
<pdfrwt beam="2">  1       -2 0.10265103E+00 0.27832029E+03</pdfrwt>
<totfact> 0.18000594E+03</totfact>
</mgrwt>
</event>
<event>
 4    1  0.1390278E-004  0.6899006E+03  0.7818608E-02  0.9734661E-01
          2   -1    0    0  501    0  0.00000000000E+00  0.00000000000E+00  0.68002090325E+03  0.68002090325E+03  0.25500000000E-02 0.  1.
         -2   -1    0    0    0  501 -0.00000000000E+00 -0.00000000000E+00 -0.17498093686E+03  0.17498093688E+03  0.25500000000E-02 0. -1.
    5000001    1    1    2    0    0 -0.29969777855E+03 -0.11317767839E+03  0.23357231368E+03  0.41630874489E+03  0.12700000000E+03 0.  0.
   -5000001    1    1    2    0    0  0.29969777855E+03  0.11317767839E+03  0.27146765271E+03  0.43869309525E+03  0.12700000000E+03 0.  0.
<mgrwt>
<rscale>  0 0.68990056E+03</rscale>
<asrwt>0</asrwt>
<pdfrwt beam="1">  1        2 0.97145845E-01 0.68990056E+03</pdfrwt>
<pdfrwt beam="2">  1       -2 0.24997276E-01 0.68990056E+03</pdfrwt>
<totfact> 0.67109437E+02</totfact>
</mgrwt>
</event>
<event>
 4    1  0.1390278E-004  0.4059321E+03  0.7818608E-02  0.1041745E+00
          2   -1    0    0  501    0  0.00000000000E+00  0.00000000000E+00  0.29970797285E+03  0.29970797286E+03  0.25500000000E-02 0.  1.
         -2   -1    0    0    0  501 -0.00000000000E+00 -0.00000000000E+00 -0.13745115604E+03  0.13745115606E+03  0.25500000000E-02 0. -1.
    5000001    1    1    2    0    0 -0.13581520567E+02 -0.15645503318E+03  0.59493908914E+02  0.21054966233E+03  0.12700000000E+03 0.  0.
   -5000001    1    1    2    0    0  0.13581520567E+02  0.15645503318E+03  0.10276290790E+03  0.22660946659E+03  0.12700000000E+03 0.  0.
<mgrwt>
<rscale>  0 0.40593205E+03</rscale>
<asrwt>0</asrwt>
<pdfrwt beam="1">  1        2 0.42815425E-01 0.40593205E+03</pdfrwt>
<pdfrwt beam="2">  1       -2 0.19635879E-01 0.40593205E+03</pdfrwt>
<totfact> 0.25933413E+03</totfact>
</mgrwt>
</event>
<event>
 4    1  0.1390278E-004  0.5901648E+03  0.7818608E-02  0.9926024E-01
         -2   -1    0    0    0  501 -0.00000000000E+00  0.00000000000E+00  0.22852564466E+03  0.22852564467E+03  0.25500000000E-02 0. -1.
          2   -1    0    0  501    0  0.00000000000E+00 -0.00000000000E+00 -0.38102347239E+03  0.38102347240E+03  0.25500000000E-02 0.  1.
    5000001    1    1    2    0    0 -0.22643122949E+03  0.11534018061E+03 -0.15868380716E+03  0.32539823234E+03  0.12700000000E+03 0.  0.
   -5000001    1    1    2    0    0  0.22643122949E+03 -0.11534018061E+03  0.61859794329E+01  0.28415088473E+03  0.12700000000E+03 0.  0.
<mgrwt>
<rscale>  0 0.59016484E+03</rscale>
<asrwt>0</asrwt>
<pdfrwt beam="1">  1        2 0.54431925E-01 0.59016484E+03</pdfrwt>
<pdfrwt beam="2">  1       -2 0.32646521E-01 0.59016484E+03</pdfrwt>
<totfact> 0.80187044E+02</totfact>
</mgrwt>
</event>
<event>
 4    1  0.1390278E-004  0.4185696E+03  0.7818608E-02  0.1037533E+00
         -2   -1    0    0    0  501 -0.00000000000E+00  0.00000000000E+00  0.92395586097E+02  0.92395586132E+02  0.25500000000E-02 0. -1.
          2   -1    0    0  501    0  0.00000000000E+00 -0.00000000000E+00 -0.47405010946E+03  0.47405010946E+03  0.25500000000E-02 0.  1.
    5000001    1    1    2    0    0  0.27470830183E+02  0.13802836868E+03 -0.70813640173E+02  0.20236118380E+03  0.12700000000E+03 0.  0.
   -5000001    1    1    2    0    0 -0.27470830183E+02 -0.13802836868E+03 -0.31084088319E+03  0.36408451180E+03  0.12700000000E+03 0.  0.
<mgrwt>
<rscale>  0 0.41856965E+03</rscale>
<asrwt>0</asrwt>
<pdfrwt beam="1">  1        2 0.67721443E-01 0.41856965E+03</pdfrwt>
<pdfrwt beam="2">  1       -2 0.13199370E-01 0.41856965E+03</pdfrwt>
<totfact> 0.30605242E+03</totfact>
</mgrwt>
</event>
<event>
 4    1  0.1390278E-004  0.4031304E+03  0.7818608E-02  0.1042701E+00
          2   -1    0    0  501    0  0.00000000000E+00  0.00000000000E+00  0.15466480341E+04  0.15466480341E+04  0.25500000000E-02 0.  1.
         -2   -1    0    0    0  501 -0.00000000000E+00 -0.00000000000E+00 -0.26268759432E+02  0.26268759556E+02  0.25500000000E-02 0. -1.
    5000001    1    1    2    0    0  0.96539561600E+02  0.12290461051E+03  0.79377535717E+03  0.81892230882E+03  0.12700000000E+03 0.  0.
   -5000001    1    1    2    0    0 -0.96539561600E+02 -0.12290461051E+03  0.72660391750E+03  0.75399448483E+03  0.12700000000E+03 0.  0.
<mgrwt>
<rscale>  0 0.40313038E+03</rscale>
<asrwt>0</asrwt>
<pdfrwt beam="1">  1        2 0.22094968E+00 0.40313038E+03</pdfrwt>
<pdfrwt beam="2">  1       -2 0.37526805E-02 0.40313038E+03</pdfrwt>
<totfact> 0.44844621E+03</totfact>
</mgrwt>
</event>
<event>
 4    1  0.1390278E-004  0.5140654E+03  0.7818608E-02  0.1010171E+00
         -2   -1    0    0    0  501 -0.00000000000E+00  0.00000000000E+00  0.23034236375E+03  0.23034236377E+03  0.25500000000E-02 0. -1.
          2   -1    0    0  501    0  0.00000000000E+00 -0.00000000000E+00 -0.28681566339E+03  0.28681566340E+03  0.25500000000E-02 0.  1.
    5000001    1    1    2    0    0 -0.59741449642E+02  0.19790690953E+03  0.57130276386E+02  0.24925700416E+03  0.12700000000E+03 0.  0.
   -5000001    1    1    2    0    0  0.59741449642E+02 -0.19790690953E+03 -0.11360357602E+03  0.26790102301E+03  0.12700000000E+03 0.  0.
<mgrwt>
<rscale>  0 0.51406536E+03</rscale>
<asrwt>0</asrwt>
<pdfrwt beam="1">  1        2 0.40973666E-01 0.51406536E+03</pdfrwt>
<pdfrwt beam="2">  1       -2 0.32906052E-01 0.51406536E+03</pdfrwt>
<totfact> 0.10809313E+03</totfact>
</mgrwt>
</event>
<event>
 4    1  0.1390278E-004  0.4718770E+03  0.7818608E-02  0.1021392E+00
         -2   -1    0    0    0  501 -0.00000000000E+00  0.00000000000E+00  0.65606978215E+03  0.65606978216E+03  0.25500000000E-02 0. -1.
          2   -1    0    0  501    0  0.00000000000E+00 -0.00000000000E+00 -0.84849165234E+02  0.84849165272E+02  0.25500000000E-02 0.  1.
    5000001    1    1    2    0    0  0.17475728138E+03  0.13257598718E+02  0.13813207076E+03  0.25675930420E+03  0.12700000000E+03 0.  0.
   -5000001    1    1    2    0    0 -0.17475728138E+03 -0.13257598718E+02  0.43308854616E+03  0.48415964323E+03  0.12700000000E+03 0.  0.
<mgrwt>
<rscale>  0 0.47187699E+03</rscale>
<asrwt>0</asrwt>
<pdfrwt beam="1">  1        2 0.12121309E-01 0.47187699E+03</pdfrwt>
<pdfrwt beam="2">  1       -2 0.93724257E-01 0.47187699E+03</pdfrwt>
<totfact> 0.50593689E+02</totfact>
</mgrwt>
</event>
<event>
 4    1  0.1390278E-004  0.1357562E+04  0.7818608E-02  0.8985124E-01
         -2   -1    0    0    0  501 -0.00000000000E+00  0.00000000000E+00  0.23572303059E+03  0.23572303060E+03  0.25500000000E-02 0. -1.
          2   -1    0    0  501    0  0.00000000000E+00 -0.00000000000E+00 -0.19545969146E+04  0.19545969146E+04  0.25500000000E-02 0.  1.
    5000001    1    1    2    0    0  0.58152060492E+03 -0.15330722604E+03 -0.13241057815E+04  0.14598131525E+04  0.12700000000E+03 0.  0.
   -5000001    1    1    2    0    0 -0.58152060492E+03  0.15330722604E+03 -0.39476810251E+03  0.73050679275E+03  0.12700000000E+03 0.  0.
<mgrwt>
<rscale>  0 0.13575618E+04</rscale>
<asrwt>0</asrwt>
<pdfrwt beam="1">  1        2 0.27922812E+00 0.13575618E+04</pdfrwt>
<pdfrwt beam="2">  1       -2 0.33674720E-01 0.13575618E+04</pdfrwt>
<totfact> 0.68221695E+01</totfact>
</mgrwt>
</event>
<event>
 4    1  0.1390278E-004  0.4076048E+03  0.7818608E-02  0.1041178E+00
         -2   -1    0    0    0  501 -0.00000000000E+00  0.00000000000E+00  0.33993422922E+02  0.33993423018E+02  0.25500000000E-02 0. -1.
          2   -1    0    0  501    0  0.00000000000E+00 -0.00000000000E+00 -0.12218662821E+04  0.12218662821E+04  0.25500000000E-02 0.  1.
    5000001    1    1    2    0    0 -0.20838457266E+01  0.14158488833E+03 -0.81941942039E+03  0.84120616351E+03  0.12700000000E+03 0.  0.
   -5000001    1    1    2    0    0  0.20838457266E+01 -0.14158488833E+03 -0.36845343880E+03  0.41465354162E+03  0.12700000000E+03 0.  0.
<mgrwt>
<rscale>  0 0.40760480E+03</rscale>
<asrwt>0</asrwt>
<pdfrwt beam="1">  1        2 0.17455230E+00 0.40760480E+03</pdfrwt>
<pdfrwt beam="2">  1       -2 0.48562040E-02 0.40760480E+03</pdfrwt>
<totfact> 0.44857108E+03</totfact>
</mgrwt>
</event>
<event>
 4    1  0.1390278E-004  0.5093964E+03  0.7818608E-02  0.1011355E+00
         -2   -1    0    0    0  501 -0.00000000000E+00  0.00000000000E+00  0.79004905700E+02  0.79004905741E+02  0.25500000000E-02 0. -1.
          2   -1    0    0  501    0  0.00000000000E+00 -0.00000000000E+00 -0.82110320669E+03  0.82110320670E+03  0.25500000000E-02 0.  1.
    5000001    1    1    2    0    0  0.10930636729E+03  0.13868791911E+03 -0.60520259191E+03  0.64310294518E+03  0.12700000000E+03 0.  0.
   -5000001    1    1    2    0    0 -0.10930636729E+03 -0.13868791911E+03 -0.13689570908E+03  0.25700516726E+03  0.12700000000E+03 0.  0.
<mgrwt>
<rscale>  0 0.50939643E+03</rscale>
<asrwt>0</asrwt>
<pdfrwt beam="1">  1        2 0.11730045E+00 0.50939643E+03</pdfrwt>
<pdfrwt beam="2">  1       -2 0.11286416E-01 0.50939643E+03</pdfrwt>
<totfact> 0.20678237E+03</totfact>
</mgrwt>
</event>
<event>
 4    1  0.1390278E-004  0.4063708E+03  0.7818608E-02  0.1041596E+00
          2   -1    0    0  501    0  0.00000000000E+00  0.00000000000E+00  0.93819743849E+03  0.93819743849E+03  0.25500000000E-02 0.  1.
         -2   -1    0    0    0  501 -0.00000000000E+00 -0.00000000000E+00 -0.44003861891E+02  0.44003861964E+02  0.25500000000E-02 0. -1.
    5000001    1    1    2    0    0 -0.24883129356E+02 -0.15452814491E+03  0.38513493397E+03  0.43469073496E+03  0.12700000000E+03 0.  0.
   -5000001    1    1    2    0    0  0.24883129356E+02  0.15452814491E+03  0.50905864263E+03  0.54751056550E+03  0.12700000000E+03 0.  0.
<mgrwt>
<rscale>  0 0.40637082E+03</rscale>
<asrwt>0</asrwt>
<pdfrwt beam="1">  1        2 0.13402822E+00 0.40637082E+03</pdfrwt>
<pdfrwt beam="2">  1       -2 0.62862654E-02 0.40637082E+03</pdfrwt>
<totfact> 0.43980935E+03</totfact>
</mgrwt>
</event>
<event>
 4    1  0.1390278E-004  0.5009242E+03  0.7818608E-02  0.1013538E+00
         -2   -1    0    0    0  501 -0.00000000000E+00  0.00000000000E+00  0.54206605942E+02  0.54206606002E+02  0.25500000000E-02 0. -1.
          2   -1    0    0  501    0  0.00000000000E+00 -0.00000000000E+00 -0.11572625437E+04  0.11572625437E+04  0.25500000000E-02 0.  1.
    5000001    1    1    2    0    0  0.15899224049E+03 -0.13269095561E+03 -0.69897226268E+03  0.73998422026E+03  0.12700000000E+03 0.  0.
   -5000001    1    1    2    0    0 -0.15899224049E+03  0.13269095561E+03 -0.40408367512E+03  0.47148492949E+03  0.12700000000E+03 0.  0.
<mgrwt>
<rscale>  0 0.50092424E+03</rscale>
<asrwt>0</asrwt>
<pdfrwt beam="1">  1        2 0.16532321E+00 0.50092424E+03</pdfrwt>
<pdfrwt beam="2">  1       -2 0.77438016E-02 0.50092424E+03</pdfrwt>
<totfact> 0.23563840E+03</totfact>
</mgrwt>
</event>
<event>
 4    1  0.1390278E-004  0.7641176E+03  0.7818608E-02  0.9613459E-01
         -2   -1    0    0    0  501 -0.00000000000E+00  0.00000000000E+00  0.31098238950E+03  0.31098238951E+03  0.25500000000E-02 0. -1.
          2   -1    0    0  501    0  0.00000000000E+00 -0.00000000000E+00 -0.46938000681E+03  0.46938000681E+03  0.25500000000E-02 0.  1.
    5000001    1    1    2    0    0  0.29602568119E+02  0.34040493746E+03  0.37636513484E+02  0.36646601566E+03  0.12700000000E+03 0.  0.
   -5000001    1    1    2    0    0 -0.29602568119E+02 -0.34040493746E+03 -0.19603413079E+03  0.41389638066E+03  0.12700000000E+03 0.  0.
<mgrwt>
<rscale>  0 0.76411757E+03</rscale>
<asrwt>0</asrwt>
<pdfrwt beam="1">  1        2 0.67054287E-01 0.76411757E+03</pdfrwt>
<pdfrwt beam="2">  1       -2 0.44426056E-01 0.76411757E+03</pdfrwt>
<totfact> 0.34905009E+02</totfact>
</mgrwt>
</event>
<event>
 4    1  0.1390278E-004  0.3946420E+03  0.7818608E-02  0.1045651E+00
         -2   -1    0    0    0  501 -0.00000000000E+00  0.00000000000E+00  0.10604626392E+03  0.10604626395E+03  0.25500000000E-02 0. -1.
          2   -1    0    0  501    0  0.00000000000E+00 -0.00000000000E+00 -0.36715661014E+03  0.36715661015E+03  0.25500000000E-02 0.  1.
    5000001    1    1    2    0    0  0.42096621461E+02  0.14492632458E+03 -0.12389826987E+03  0.23292820004E+03  0.12700000000E+03 0.  0.
   -5000001    1    1    2    0    0 -0.42096621461E+02 -0.14492632458E+03 -0.13721207635E+03  0.24027467406E+03  0.12700000000E+03 0.  0.
<mgrwt>
<rscale>  0 0.39464205E+03</rscale>
<asrwt>0</asrwt>
<pdfrwt beam="1">  1        2 0.52450944E-01 0.39464205E+03</pdfrwt>
<pdfrwt beam="2">  1       -2 0.15149466E-01 0.39464205E+03</pdfrwt>
<totfact> 0.32240759E+03</totfact>
</mgrwt>
</event>
<event>
 4    1  0.1390278E-004  0.4118083E+03  0.7818608E-02  0.1039766E+00
          2   -1    0    0  501    0  0.00000000000E+00  0.00000000000E+00  0.12072036566E+04  0.12072036566E+04  0.25500000000E-02 0.  1.
         -2   -1    0    0    0  501 -0.00000000000E+00 -0.00000000000E+00 -0.35119614711E+02  0.35119614804E+02  0.25500000000E-02 0. -1.
    5000001    1    1    2    0    0  0.87308941403E+01  0.15022229210E+03  0.76766351193E+03  0.79251450025E+03  0.12700000000E+03 0.  0.
   -5000001    1    1    2    0    0 -0.87308941403E+01 -0.15022229210E+03  0.40442052993E+03  0.44980877113E+03  0.12700000000E+03 0.  0.
<mgrwt>
<rscale>  0 0.41180834E+03</rscale>
<asrwt>0</asrwt>
<pdfrwt beam="1">  1        2 0.17245767E+00 0.41180834E+03</pdfrwt>
<pdfrwt beam="2">  1       -2 0.50170876E-02 0.41180834E+03</pdfrwt>
<totfact> 0.43469362E+03</totfact>
</mgrwt>
</event>
<event>
 4    1  0.1390278E-004  0.5787264E+03  0.7818608E-02  0.9950552E-01
          2   -1    0    0  501    0  0.00000000000E+00  0.00000000000E+00  0.33864545435E+04  0.33864545435E+04  0.25500000000E-02 0.  1.
         -2   -1    0    0    0  501 -0.00000000000E+00 -0.00000000000E+00 -0.24725285995E+02  0.24725286127E+02  0.25500000000E-02 0. -1.
    5000001    1    1    2    0    0 -0.13783556309E+03 -0.21473417889E+03  0.13865839517E+04  0.14155753124E+04  0.12700000000E+03 0.  0.
   -5000001    1    1    2    0    0  0.13783556309E+03  0.21473417889E+03  0.19751453058E+04  0.19956045172E+04  0.12700000000E+03 0.  0.
<mgrwt>
<rscale>  0 0.57872639E+03</rscale>
<asrwt>0</asrwt>
<pdfrwt beam="1">  1        2 0.48377955E+00 0.57872639E+03</pdfrwt>
<pdfrwt beam="2">  1       -2 0.35321813E-02 0.57872639E+03</pdfrwt>
<totfact> 0.53765493E+02</totfact>
</mgrwt>
</event>
<event>
 4    1  0.1390278E-004  0.4427127E+03  0.7818608E-02  0.1029918E+00
         -2   -1    0    0    0  501 -0.00000000000E+00  0.00000000000E+00  0.31592885395E+02  0.31592885498E+02  0.25500000000E-02 0. -1.
          2   -1    0    0  501    0  0.00000000000E+00 -0.00000000000E+00 -0.15509385632E+04  0.15509385632E+04  0.25500000000E-02 0.  1.
    5000001    1    1    2    0    0 -0.13631535247E+03 -0.55322183022E+02 -0.11384346970E+04  0.11549047487E+04  0.12700000000E+03 0.  0.
   -5000001    1    1    2    0    0  0.13631535247E+03  0.55322183022E+02 -0.38091098087E+03  0.42762670006E+03  0.12700000000E+03 0.  0.
<mgrwt>
<rscale>  0 0.44271266E+03</rscale>
<asrwt>0</asrwt>
<pdfrwt beam="1">  1        2 0.22156260E+00 0.44271266E+03</pdfrwt>
<pdfrwt beam="2">  1       -2 0.45132703E-02 0.44271266E+03</pdfrwt>
<totfact> 0.33673540E+03</totfact>
</mgrwt>
</event>
<event>
 4    1  0.1390278E-004  0.3555728E+03  0.7818608E-02  0.1060351E+00
          2   -1    0    0  501    0  0.00000000000E+00  0.00000000000E+00  0.18296269169E+04  0.18296269169E+04  0.25500000000E-02 0.  1.
         -2   -1    0    0    0  501 -0.00000000000E+00 -0.00000000000E+00 -0.17275657180E+02  0.17275657368E+02  0.25500000000E-02 0. -1.
    5000001    1    1    2    0    0 -0.11499620786E+03  0.39839845289E+02  0.77196243594E+03  0.79174891449E+03  0.12700000000E+03 0.  0.
   -5000001    1    1    2    0    0  0.11499620786E+03 -0.39839845289E+02  0.10403888237E+04  0.10551536597E+04  0.12700000000E+03 0.  0.
<mgrwt>
<rscale>  0 0.35557282E+03</rscale>
<asrwt>0</asrwt>
<pdfrwt beam="1">  1        2 0.26137540E+00 0.35557282E+03</pdfrwt>
<pdfrwt beam="2">  1       -2 0.24679499E-02 0.35557282E+03</pdfrwt>
<totfact> 0.60734216E+03</totfact>
</mgrwt>
</event>
<event>
 4    1  0.1390278E-004  0.4487070E+03  0.7818608E-02  0.1028108E+00
          2   -1    0    0  501    0  0.00000000000E+00  0.00000000000E+00  0.10911033071E+04  0.10911033071E+04  0.25500000000E-02 0.  1.
         -2   -1    0    0    0  501 -0.00000000000E+00 -0.00000000000E+00 -0.46131733366E+02  0.46131733436E+02  0.25500000000E-02 0. -1.
    5000001    1    1    2    0    0  0.17952988345E+03  0.32426241171E+02  0.44548427470E+03  0.49786311289E+03  0.12700000000E+03 0.  0.
   -5000001    1    1    2    0    0 -0.17952988345E+03 -0.32426241171E+02  0.59948729905E+03  0.63937192767E+03  0.12700000000E+03 0.  0.
<mgrwt>
<rscale>  0 0.44870697E+03</rscale>
<asrwt>0</asrwt>
<pdfrwt beam="1">  1        2 0.15587188E+00 0.44870697E+03</pdfrwt>
<pdfrwt beam="2">  1       -2 0.65902486E-02 0.44870697E+03</pdfrwt>
<totfact> 0.33131286E+03</totfact>
</mgrwt>
</event>
<event>
 4    1  0.1390278E-004  0.3266906E+03  0.7818608E-02  0.1072611E+00
          2   -1    0    0  501    0  0.00000000000E+00  0.00000000000E+00  0.29367440343E+03  0.29367440345E+03  0.25500000000E-02 0.  1.
         -2   -1    0    0    0  501 -0.00000000000E+00 -0.00000000000E+00 -0.90854663302E+02  0.90854663338E+02  0.25500000000E-02 0. -1.
    5000001    1    1    2    0    0  0.80906861294E+02  0.62324840103E+02  0.88388600145E+02  0.18539646850E+03  0.12700000000E+03 0.  0.
   -5000001    1    1    2    0    0 -0.80906861294E+02 -0.62324840103E+02  0.11443113999E+03  0.19913259828E+03  0.12700000000E+03 0.  0.
<mgrwt>
<rscale>  0 0.32669061E+03</rscale>
<asrwt>0</asrwt>
<pdfrwt beam="1">  1        2 0.41953487E-01 0.32669061E+03</pdfrwt>
<pdfrwt beam="2">  1       -2 0.12979237E-01 0.32669061E+03</pdfrwt>
<totfact> 0.52808012E+03</totfact>
</mgrwt>
</event>
<event>
 4    1  0.1390278E-004  0.4325792E+03  0.7818608E-02  0.1033048E+00
         -2   -1    0    0    0  501 -0.00000000000E+00  0.00000000000E+00  0.29980844085E+02  0.29980844193E+02  0.25500000000E-02 0. -1.
          2   -1    0    0  501    0  0.00000000000E+00 -0.00000000000E+00 -0.15603693546E+04  0.15603693546E+04  0.25500000000E-02 0.  1.
    5000001    1    1    2    0    0 -0.98326976190E+02  0.10229746404E+02 -0.23396056635E+03  0.28397075301E+03  0.12700000000E+03 0.  0.
   -5000001    1    1    2    0    0  0.98326976190E+02 -0.10229746404E+02 -0.12964279442E+04  0.13063794458E+04  0.12700000000E+03 0.  0.
<mgrwt>
<rscale>  0 0.43257920E+03</rscale>
<asrwt>0</asrwt>
<pdfrwt beam="1">  1        2 0.22290986E+00 0.43257920E+03</pdfrwt>
<pdfrwt beam="2">  1       -2 0.42829787E-02 0.43257920E+03</pdfrwt>
<totfact> 0.36084117E+03</totfact>
</mgrwt>
</event>
<event>
 4    1  0.1390278E-004  0.3025837E+03  0.7818608E-02  0.1083956E+00
          2   -1    0    0  501    0  0.00000000000E+00  0.00000000000E+00  0.65273520774E+03  0.65273520775E+03  0.25500000000E-02 0.  1.
         -2   -1    0    0    0  501 -0.00000000000E+00 -0.00000000000E+00 -0.35066620513E+02  0.35066620606E+02  0.25500000000E-02 0. -1.
    5000001    1    1    2    0    0  0.28297840143E+02  0.72438173451E+02  0.24817365380E+03  0.28942567123E+03  0.12700000000E+03 0.  0.
   -5000001    1    1    2    0    0 -0.28297840143E+02 -0.72438173451E+02  0.36949493343E+03  0.39837615712E+03  0.12700000000E+03 0.  0.
<mgrwt>
<rscale>  0 0.30258366E+03</rscale>
<asrwt>0</asrwt>
<pdfrwt beam="1">  1        2 0.93247880E-01 0.30258366E+03</pdfrwt>
<pdfrwt beam="2">  1       -2 0.50095176E-02 0.30258366E+03</pdfrwt>
<totfact> 0.97334587E+03</totfact>
</mgrwt>
</event>
<event>
 4    1  0.1390278E-004  0.6581146E+03  0.7818608E-02  0.9791671E-01
         -2   -1    0    0    0  501 -0.00000000000E+00  0.00000000000E+00  0.24360493124E+02  0.24360493258E+02  0.25500000000E-02 0. -1.
          2   -1    0    0  501    0  0.00000000000E+00 -0.00000000000E+00 -0.44448487295E+04  0.44448487295E+04  0.25500000000E-02 0.  1.
    5000001    1    1    2    0    0  0.18509795336E+03  0.22361309909E+03 -0.28132860962E+04  0.28310725405E+04  0.12700000000E+03 0.  0.
   -5000001    1    1    2    0    0 -0.18509795336E+03 -0.22361309909E+03 -0.16072021402E+04  0.16381366823E+04  0.12700000000E+03 0.  0.
<mgrwt>
<rscale>  0 0.65811460E+03</rscale>
<asrwt>0</asrwt>
<pdfrwt beam="1">  1        2 0.63497787E+00 0.65811460E+03</pdfrwt>
<pdfrwt beam="2">  1       -2 0.34800733E-02 0.65811460E+03</pdfrwt>
<totfact> 0.10915520E+02</totfact>
</mgrwt>
</event>
<event>
 4    1  0.1390278E-004  0.4860242E+03  0.7818608E-02  0.1017493E+00
          2   -1    0    0  501    0  0.00000000000E+00  0.00000000000E+00  0.16209538055E+03  0.16209538057E+03  0.25500000000E-02 0.  1.
         -2   -1    0    0    0  501 -0.00000000000E+00 -0.00000000000E+00 -0.36432173335E+03  0.36432173336E+03  0.25500000000E-02 0. -1.
    5000001    1    1    2    0    0  0.42223170167E+02 -0.20131929575E+03 -0.74283208303E+02  0.25290166068E+03  0.12700000000E+03 0.  0.
   -5000001    1    1    2    0    0 -0.42223170167E+02  0.20131929575E+03 -0.12794314450E+03  0.27351545325E+03  0.12700000000E+03 0.  0.
<mgrwt>
<rscale>  0 0.48602416E+03</rscale>
<asrwt>0</asrwt>
<pdfrwt beam="1">  1        2 0.23156483E-01 0.48602416E+03</pdfrwt>
<pdfrwt beam="2">  1       -2 0.52045962E-01 0.48602416E+03</pdfrwt>
<totfact> 0.83765835E+02</totfact>
</mgrwt>
</event>
<event>
 4    1  0.1390278E-004  0.7150670E+03  0.7818608E-02  0.9691807E-01
          2   -1    0    0  501    0  0.00000000000E+00  0.00000000000E+00  0.19091995910E+04  0.19091995910E+04  0.25500000000E-02 0.  1.
         -2   -1    0    0    0  501 -0.00000000000E+00 -0.00000000000E+00 -0.66954872217E+02  0.66954872266E+02  0.25500000000E-02 0. -1.
    5000001    1    1    2    0    0 -0.26770464758E+03  0.18486726715E+03  0.11326687015E+04  0.11852886029E+04  0.12700000000E+03 0.  0.
   -5000001    1    1    2    0    0  0.26770464758E+03 -0.18486726715E+03  0.70957601732E+03  0.79086586041E+03  0.12700000000E+03 0.  0.
<mgrwt>
<rscale>  0 0.71506703E+03</rscale>
<asrwt>0</asrwt>
<pdfrwt beam="1">  1        2 0.27274279E+00 0.71506703E+03</pdfrwt>
<pdfrwt beam="2">  1       -2 0.95649821E-02 0.71506703E+03</pdfrwt>
<totfact> 0.67246381E+02</totfact>
</mgrwt>
</event>
<event>
 4    1  0.1390278E-004  0.4245115E+03  0.7818608E-02  0.1035608E+00
          2   -1    0    0  501    0  0.00000000000E+00  0.00000000000E+00  0.45911064570E+03  0.45911064571E+03  0.25500000000E-02 0.  1.
         -2   -1    0    0    0  501 -0.00000000000E+00 -0.00000000000E+00 -0.98129966353E+02  0.98129966386E+02  0.25500000000E-02 0. -1.
    5000001    1    1    2    0    0 -0.17406865561E+02 -0.48257022688E+02 -0.32354534361E+02  0.14073931612E+03  0.12700000000E+03 0.  0.
   -5000001    1    1    2    0    0  0.17406865561E+02  0.48257022688E+02  0.39333521371E+03  0.41650129598E+03  0.12700000000E+03 0.  0.
<mgrwt>
<rscale>  0 0.42451154E+03</rscale>
<asrwt>0</asrwt>
<pdfrwt beam="1">  1        2 0.65587235E-01 0.42451154E+03</pdfrwt>
<pdfrwt beam="2">  1       -2 0.14018567E-01 0.42451154E+03</pdfrwt>
<totfact> 0.28717371E+03</totfact>
</mgrwt>
</event>
<event>
 4    1  0.1390278E-004  0.3701035E+03  0.7818608E-02  0.1054653E+00
         -2   -1    0    0    0  501 -0.00000000000E+00  0.00000000000E+00  0.85496031337E+02  0.85496031375E+02  0.25500000000E-02 0. -1.
          2   -1    0    0  501    0  0.00000000000E+00 -0.00000000000E+00 -0.40053496646E+03  0.40053496646E+03  0.25500000000E-02 0.  1.
    5000001    1    1    2    0    0 -0.65767433122E+02  0.10858900436E+03 -0.21622279865E+03  0.28106623024E+03  0.12700000000E+03 0.  0.
   -5000001    1    1    2    0    0  0.65767433122E+02 -0.10858900436E+03 -0.98816136471E+02  0.20496476760E+03  0.12700000000E+03 0.  0.
<mgrwt>
<rscale>  0 0.37010350E+03</rscale>
<asrwt>0</asrwt>
<pdfrwt beam="1">  1        2 0.57219280E-01 0.37010350E+03</pdfrwt>
<pdfrwt beam="2">  1       -2 0.12213719E-01 0.37010350E+03</pdfrwt>
<totfact> 0.41760873E+03</totfact>
</mgrwt>
</event>
<event>
 4    1  0.1390278E-004  0.2865722E+03  0.7818608E-02  0.1092153E+00
          2   -1    0    0  501    0  0.00000000000E+00  0.00000000000E+00  0.15171477606E+03  0.15171477608E+03  0.25500000000E-02 0.  1.
         -2   -1    0    0    0  501 -0.00000000000E+00 -0.00000000000E+00 -0.13532567635E+03  0.13532567638E+03  0.25500000000E-02 0. -1.
    5000001    1    1    2    0    0  0.12017380550E+02 -0.63564929614E+02  0.22949097616E+02  0.14436266413E+03  0.12700000000E+03 0.  0.
   -5000001    1    1    2    0    0 -0.12017380550E+02  0.63564929614E+02 -0.65599979059E+01  0.14267778834E+03  0.12700000000E+03 0.  0.
<mgrwt>
<rscale>  0 0.28657219E+03</rscale>
<asrwt>0</asrwt>
<pdfrwt beam="1">  1        2 0.21673540E-01 0.28657219E+03</pdfrwt>
<pdfrwt beam="2">  1       -2 0.19332239E-01 0.28657219E+03</pdfrwt>
<totfact> 0.56109429E+03</totfact>
</mgrwt>
</event>
<event>
 4    1  0.1390278E-004  0.4308830E+03  0.7818608E-02  0.1033581E+00
         -2   -1    0    0    0  501 -0.00000000000E+00  0.00000000000E+00  0.31661827991E+03  0.31661827992E+03  0.25500000000E-02 0. -1.
          2   -1    0    0  501    0  0.00000000000E+00 -0.00000000000E+00 -0.14659618202E+03  0.14659618204E+03  0.25500000000E-02 0.  1.
    5000001    1    1    2    0    0 -0.24521244332E+02  0.74460084819E+01 -0.10003655332E+03  0.16368581632E+03  0.12700000000E+03 0.  0.
   -5000001    1    1    2    0    0  0.24521244332E+02 -0.74460084819E+01  0.27005865121E+03  0.29952864564E+03  0.12700000000E+03 0.  0.
<mgrwt>
<rscale>  0 0.43088296E+03</rscale>
<asrwt>0</asrwt>
<pdfrwt beam="1">  1        2 0.20942312E-01 0.43088296E+03</pdfrwt>
<pdfrwt beam="2">  1       -2 0.45231182E-01 0.43088296E+03</pdfrwt>
<totfact> 0.12450591E+03</totfact>
</mgrwt>
</event>
<event>
 4    1  0.1390278E-004  0.3378957E+03  0.7818608E-02  0.1067696E+00
         -2   -1    0    0    0  501 -0.00000000000E+00  0.00000000000E+00  0.30935035335E+02  0.30935035440E+02  0.25500000000E-02 0. -1.
          2   -1    0    0  501    0  0.00000000000E+00 -0.00000000000E+00 -0.92268772272E+03  0.92268772272E+03  0.25500000000E-02 0.  1.
    5000001    1    1    2    0    0 -0.21996271879E+02 -0.60978578284E+02 -0.70163037266E+03  0.71597234781E+03  0.12700000000E+03 0.  0.
   -5000001    1    1    2    0    0  0.21996271879E+02  0.60978578284E+02 -0.19012231472E+03  0.23765041036E+03  0.12700000000E+03 0.  0.
<mgrwt>
<rscale>  0 0.33789571E+03</rscale>
<asrwt>0</asrwt>
<pdfrwt beam="1">  1        2 0.13181251E+00 0.33789571E+03</pdfrwt>
<pdfrwt beam="2">  1       -2 0.44192913E-02 0.33789571E+03</pdfrwt>
<totfact> 0.77017242E+03</totfact>
</mgrwt>
</event>
<event>
 4    1  0.1390278E-004  0.5234350E+03  0.7818608E-02  0.1007837E+00
         -2   -1    0    0    0  501 -0.00000000000E+00  0.00000000000E+00  0.11160916827E+03  0.11160916830E+03  0.25500000000E-02 0. -1.
          2   -1    0    0  501    0  0.00000000000E+00 -0.00000000000E+00 -0.61371343132E+03  0.61371343133E+03  0.25500000000E-02 0.  1.
    5000001    1    1    2    0    0 -0.19827638467E+03  0.32548959562E+01 -0.92797660527E+02  0.25310970915E+03  0.12700000000E+03 0.  0.
   -5000001    1    1    2    0    0  0.19827638467E+03 -0.32548959562E+01 -0.40930660253E+03  0.47221289048E+03  0.12700000000E+03 0.  0.
<mgrwt>
<rscale>  0 0.52343498E+03</rscale>
<asrwt>0</asrwt>
<pdfrwt beam="1">  1        2 0.87673346E-01 0.52343498E+03</pdfrwt>
<pdfrwt beam="2">  1       -2 0.15944167E-01 0.52343498E+03</pdfrwt>
<totfact> 0.16649608E+03</totfact>
</mgrwt>
</event>
<event>
 4    1  0.1390278E-004  0.3128386E+03  0.7818608E-02  0.1078993E+00
          2   -1    0    0  501    0  0.00000000000E+00  0.00000000000E+00  0.76466561409E+02  0.76466561452E+02  0.25500000000E-02 0.  1.
         -2   -1    0    0    0  501 -0.00000000000E+00 -0.00000000000E+00 -0.31996988709E+03  0.31996988710E+03  0.25500000000E-02 0. -1.
    5000001    1    1    2    0    0 -0.72190791144E+02 -0.45254916290E+02 -0.16336754880E+03  0.22377996732E+03  0.12700000000E+03 0.  0.
   -5000001    1    1    2    0    0  0.72190791144E+02  0.45254916290E+02 -0.80135776884E+02  0.17265648123E+03  0.12700000000E+03 0.  0.
<mgrwt>
<rscale>  0 0.31283860E+03</rscale>
<asrwt>0</asrwt>
<pdfrwt beam="1">  1        2 0.10923795E-01 0.31283860E+03</pdfrwt>
<pdfrwt beam="2">  1       -2 0.45709983E-01 0.31283860E+03</pdfrwt>
<totfact> 0.26400915E+03</totfact>
</mgrwt>
</event>
<event>
 4    1  0.1390278E-004  0.3353489E+03  0.7818608E-02  0.1068794E+00
          2   -1    0    0  501    0  0.00000000000E+00  0.00000000000E+00  0.35767440837E+03  0.35767440838E+03  0.25500000000E-02 0.  1.
         -2   -1    0    0    0  501 -0.00000000000E+00 -0.00000000000E+00 -0.78604249932E+02  0.78604249974E+02  0.25500000000E-02 0. -1.
    5000001    1    1    2    0    0  0.10701383949E+03 -0.62601692018E+01  0.16846744861E+03  0.23664621865E+03  0.12700000000E+03 0.  0.
   -5000001    1    1    2    0    0 -0.10701383949E+03  0.62601692018E+01  0.11060270983E+03  0.19963243971E+03  0.12700000000E+03 0.  0.
<mgrwt>
<rscale>  0 0.33534894E+03</rscale>
<asrwt>0</asrwt>
<pdfrwt beam="1">  1        2 0.51096344E-01 0.33534894E+03</pdfrwt>
<pdfrwt beam="2">  1       -2 0.11229179E-01 0.33534894E+03</pdfrwt>
<totfact> 0.54005464E+03</totfact>
</mgrwt>
</event>
<event>
 4    1  0.1390278E-004  0.4983714E+03  0.7818608E-02  0.1014205E+00
          2   -1    0    0  501    0  0.00000000000E+00  0.00000000000E+00  0.74302275094E+03  0.74302275094E+03  0.25500000000E-02 0.  1.
         -2   -1    0    0    0  501 -0.00000000000E+00 -0.00000000000E+00 -0.83568801881E+02  0.83568801920E+02  0.25500000000E-02 0. -1.
    5000001    1    1    2    0    0 -0.23022683714E+02  0.20996955297E+03  0.26884844313E+03  0.36472694240E+03  0.12700000000E+03 0.  0.
   -5000001    1    1    2    0    0  0.23022683714E+02 -0.20996955297E+03  0.39060550592E+03  0.46186461046E+03  0.12700000000E+03 0.  0.
<mgrwt>
<rscale>  0 0.49837143E+03</rscale>
<asrwt>0</asrwt>
<pdfrwt beam="1">  1        2 0.10614611E+00 0.49837143E+03</pdfrwt>
<pdfrwt beam="2">  1       -2 0.11938400E-01 0.49837143E+03</pdfrwt>
<totfact> 0.21393245E+03</totfact>
</mgrwt>
</event>
<event>
 4    1  0.1390278E-004  0.4168005E+03  0.7818608E-02  0.1038113E+00
         -2   -1    0    0    0  501 -0.00000000000E+00  0.00000000000E+00  0.10000606642E+03  0.10000606645E+03  0.25500000000E-02 0. -1.
          2   -1    0    0  501    0  0.00000000000E+00 -0.00000000000E+00 -0.43428036085E+03  0.43428036085E+03  0.25500000000E-02 0.  1.
    5000001    1    1    2    0    0  0.36359331648E+02  0.14699611262E+03 -0.82379939223E+02  0.21411518514E+03  0.12700000000E+03 0.  0.
   -5000001    1    1    2    0    0 -0.36359331648E+02 -0.14699611262E+03 -0.25189435521E+03  0.32017124216E+03  0.12700000000E+03 0.  0.
<mgrwt>
<rscale>  0 0.41680053E+03</rscale>
<asrwt>0</asrwt>
<pdfrwt beam="1">  1        2 0.62040051E-01 0.41680053E+03</pdfrwt>
<pdfrwt beam="2">  1       -2 0.14286581E-01 0.41680053E+03</pdfrwt>
<totfact> 0.29590427E+03</totfact>
</mgrwt>
</event>
<event>
 4    1  0.1390278E-004  0.3563760E+03  0.7818608E-02  0.1060028E+00
         -2   -1    0    0    0  501 -0.00000000000E+00  0.00000000000E+00  0.10753097253E+02  0.10753097555E+02  0.25500000000E-02 0. -1.
          2   -1    0    0  501    0  0.00000000000E+00 -0.00000000000E+00 -0.29527277004E+04  0.29527277004E+04  0.25500000000E-02 0.  1.
    5000001    1    1    2    0    0  0.65560743273E+02 -0.89844810350E+02 -0.99680351264E+03  0.10109977962E+04  0.12700000000E+03 0.  0.
   -5000001    1    1    2    0    0 -0.65560743273E+02  0.89844810350E+02 -0.19451710905E+04  0.19524830018E+04  0.12700000000E+03 0.  0.
<mgrwt>
<rscale>  0 0.35637603E+03</rscale>
<asrwt>0</asrwt>
<pdfrwt beam="1">  1        2 0.42181772E+00 0.35637603E+03</pdfrwt>
<pdfrwt beam="2">  1       -2 0.15361587E-02 0.35637603E+03</pdfrwt>
<totfact> 0.33316188E+03</totfact>
</mgrwt>
</event>
<event>
 4    1  0.1390278E-004  0.3730335E+03  0.7818608E-02  0.1053539E+00
         -2   -1    0    0    0  501 -0.00000000000E+00  0.00000000000E+00  0.62066989574E+02  0.62066989626E+02  0.25500000000E-02 0. -1.
          2   -1    0    0  501    0  0.00000000000E+00 -0.00000000000E+00 -0.56049927639E+03  0.56049927640E+03  0.25500000000E-02 0.  1.
    5000001    1    1    2    0    0  0.11658534340E+03 -0.12892035017E+02 -0.13237737282E+03  0.21774093712E+03  0.12700000000E+03 0.  0.
   -5000001    1    1    2    0    0 -0.11658534340E+03  0.12892035017E+02 -0.36605491400E+03  0.40482532890E+03  0.12700000000E+03 0.  0.
<mgrwt>
<rscale>  0 0.37303353E+03</rscale>
<asrwt>0</asrwt>
<pdfrwt beam="1">  1        2 0.80071322E-01 0.37303353E+03</pdfrwt>
<pdfrwt beam="2">  1       -2 0.88667131E-02 0.37303353E+03</pdfrwt>
<totfact> 0.48088167E+03</totfact>
</mgrwt>
</event>
<event>
 4    1  0.1390278E-004  0.1064693E+04  0.7818608E-02  0.9240305E-01
         -2   -1    0    0    0  501 -0.00000000000E+00  0.00000000000E+00  0.59165503155E+02  0.59165503210E+02  0.25500000000E-02 0. -1.
          2   -1    0    0  501    0  0.00000000000E+00 -0.00000000000E+00 -0.47898292320E+04  0.47898292320E+04  0.25500000000E-02 0.  1.
    5000001    1    1    2    0    0 -0.73413643121E+02  0.49821895039E+03 -0.28974708795E+04  0.29436504859E+04  0.12700000000E+03 0.  0.
   -5000001    1    1    2    0    0  0.73413643121E+02 -0.49821895039E+03 -0.18331928493E+04  0.19053442493E+04  0.12700000000E+03 0.  0.
<mgrwt>
<rscale>  0 0.10646927E+04</rscale>
<asrwt>0</asrwt>
<pdfrwt beam="1">  1        2 0.68426107E+00 0.10646927E+04</pdfrwt>
<pdfrwt beam="2">  1       -2 0.84522178E-02 0.10646927E+04</pdfrwt>
<totfact> 0.13332273E+01</totfact>
</mgrwt>
</event>
<event>
 4    1  0.1390278E-004  0.3992633E+03  0.7818608E-02  0.1044035E+00
         -2   -1    0    0    0  501 -0.00000000000E+00  0.00000000000E+00  0.27223648395E+03  0.27223648396E+03  0.25500000000E-02 0. -1.
          2   -1    0    0  501    0  0.00000000000E+00 -0.00000000000E+00 -0.14639034297E+03  0.14639034299E+03  0.25500000000E-02 0.  1.
    5000001    1    1    2    0    0 -0.11460440560E+03 -0.98527749048E+02  0.94060203414E+02  0.21867375010E+03  0.12700000000E+03 0.  0.
   -5000001    1    1    2    0    0  0.11460440560E+03  0.98527749048E+02  0.31785937572E+02  0.19995307685E+03  0.12700000000E+03 0.  0.
<mgrwt>
<rscale>  0 0.39926328E+03</rscale>
<asrwt>0</asrwt>
<pdfrwt beam="1">  1        2 0.20912906E-01 0.39926328E+03</pdfrwt>
<pdfrwt beam="2">  1       -2 0.38890926E-01 0.39926328E+03</pdfrwt>
<totfact> 0.16714642E+03</totfact>
</mgrwt>
</event>
<event>
 4    1  0.1390278E-004  0.3975953E+03  0.7818608E-02  0.1044616E+00
          2   -1    0    0  501    0  0.00000000000E+00  0.00000000000E+00  0.95799830087E+03  0.95799830087E+03  0.25500000000E-02 0.  1.
         -2   -1    0    0    0  501 -0.00000000000E+00 -0.00000000000E+00 -0.41253208457E+02  0.41253208536E+02  0.25500000000E-02 0. -1.
    5000001    1    1    2    0    0 -0.47557903273E+02  0.11310746448E+03  0.68784163019E+03  0.71014798521E+03  0.12700000000E+03 0.  0.
   -5000001    1    1    2    0    0  0.47557903273E+02 -0.11310746448E+03  0.22890346223E+03  0.28910352420E+03  0.12700000000E+03 0.  0.
<mgrwt>
<rscale>  0 0.39759529E+03</rscale>
<asrwt>0</asrwt>
<pdfrwt beam="1">  1        2 0.13685688E+00 0.39759529E+03</pdfrwt>
<pdfrwt beam="2">  1       -2 0.58933162E-02 0.39759529E+03</pdfrwt>
<totfact> 0.47250914E+03</totfact>
</mgrwt>
</event>
<event>
 4    1  0.1390278E-004  0.2973357E+03  0.7818608E-02  0.1086580E+00
          2   -1    0    0  501    0  0.00000000000E+00  0.00000000000E+00  0.15966078814E+04  0.15966078814E+04  0.25500000000E-02 0.  1.
         -2   -1    0    0    0  501 -0.00000000000E+00 -0.00000000000E+00 -0.13843176835E+02  0.13843177069E+02  0.25500000000E-02 0. -1.
    5000001    1    1    2    0    0 -0.21052613787E+02 -0.21991180994E+02  0.11761398440E+04  0.11833683945E+04  0.12700000000E+03 0.  0.
   -5000001    1    1    2    0    0  0.21052613787E+02  0.21991180994E+02  0.40662486060E+03  0.42708266395E+03  0.12700000000E+03 0.  0.
<mgrwt>
<rscale>  0 0.29733567E+03</rscale>
<asrwt>0</asrwt>
<pdfrwt beam="1">  1        2 0.22808673E+00 0.29733567E+03</pdfrwt>
<pdfrwt beam="2">  1       -2 0.19775977E-02 0.29733567E+03</pdfrwt>
<totfact> 0.10983275E+04</totfact>
</mgrwt>
</event>
<event>
 4    1  0.1390278E-004  0.4265837E+03  0.7818608E-02  0.1034945E+00
         -2   -1    0    0    0  501 -0.00000000000E+00  0.00000000000E+00  0.59727750499E+02  0.59727750553E+02  0.25500000000E-02 0. -1.
          2   -1    0    0  501    0  0.00000000000E+00 -0.00000000000E+00 -0.76167982330E+03  0.76167982330E+03  0.25500000000E-02 0.  1.
    5000001    1    1    2    0    0 -0.10374772492E+03  0.13584900707E+03 -0.37423290662E+03  0.43057846154E+03  0.12700000000E+03 0.  0.
   -5000001    1    1    2    0    0  0.10374772492E+03 -0.13584900707E+03 -0.32771916618E+03  0.39082911232E+03  0.12700000000E+03 0.  0.
<mgrwt>
<rscale>  0 0.42658374E+03</rscale>
<asrwt>0</asrwt>
<pdfrwt beam="1">  1        2 0.10881140E+00 0.42658374E+03</pdfrwt>
<pdfrwt beam="2">  1       -2 0.85325362E-02 0.42658374E+03</pdfrwt>
<totfact> 0.35615872E+03</totfact>
</mgrwt>
</event>
<event>
 4    1  0.1390278E-004  0.5442512E+03  0.7818608E-02  0.1002833E+00
          2   -1    0    0  501    0  0.00000000000E+00  0.00000000000E+00  0.18617341927E+04  0.18617341927E+04  0.25500000000E-02 0.  1.
         -2   -1    0    0    0  501 -0.00000000000E+00 -0.00000000000E+00 -0.39775997585E+02  0.39775997667E+02  0.25500000000E-02 0. -1.
    5000001    1    1    2    0    0 -0.13420556226E+02  0.20791255704E+03  0.13319156712E+04  0.13540812745E+04  0.12700000000E+03 0.  0.
   -5000001    1    1    2    0    0  0.13420556226E+02 -0.20791255704E+03  0.49004252390E+03  0.54742891588E+03  0.12700000000E+03 0.  0.
<mgrwt>
<rscale>  0 0.54425117E+03</rscale>
<asrwt>0</asrwt>
<pdfrwt beam="1">  1        2 0.26596209E+00 0.54425117E+03</pdfrwt>
<pdfrwt beam="2">  1       -2 0.56822841E-02 0.54425117E+03</pdfrwt>
<totfact> 0.16386744E+03</totfact>
</mgrwt>
</event>
<event>
 4    1  0.1390278E-004  0.4121769E+03  0.7818608E-02  0.1039643E+00
         -2   -1    0    0    0  501 -0.00000000000E+00  0.00000000000E+00  0.31989701744E+02  0.31989701845E+02  0.25500000000E-02 0. -1.
          2   -1    0    0  501    0  0.00000000000E+00 -0.00000000000E+00 -0.13276914882E+04  0.13276914882E+04  0.25500000000E-02 0.  1.
    5000001    1    1    2    0    0 -0.12752207479E+03 -0.94028384347E+02 -0.76402409482E+03  0.79054730035E+03  0.12700000000E+03 0.  0.
   -5000001    1    1    2    0    0  0.12752207479E+03  0.94028384347E+02 -0.53167769165E+03  0.56913388972E+03  0.12700000000E+03 0.  0.
<mgrwt>
<rscale>  0 0.41217693E+03</rscale>
<asrwt>0</asrwt>
<pdfrwt beam="1">  1        2 0.18967018E+00 0.41217693E+03</pdfrwt>
<pdfrwt beam="2">  1       -2 0.45699582E-02 0.41217693E+03</pdfrwt>
<totfact> 0.43169896E+03</totfact>
</mgrwt>
</event>
<event>
 4    1  0.1390278E-004  0.3178732E+03  0.7818608E-02  0.1076632E+00
         -2   -1    0    0    0  501 -0.00000000000E+00  0.00000000000E+00  0.40005962287E+02  0.40005962369E+02  0.25500000000E-02 0. -1.
          2   -1    0    0  501    0  0.00000000000E+00 -0.00000000000E+00 -0.63142704057E+03  0.63142704058E+03  0.25500000000E-02 0.  1.
    5000001    1    1    2    0    0 -0.55260101193E+02  0.73840227963E+02 -0.34855049878E+03  0.38225973925E+03  0.12700000000E+03 0.  0.
   -5000001    1    1    2    0    0  0.55260101193E+02 -0.73840227963E+02 -0.24287057951E+03  0.28917326370E+03  0.12700000000E+03 0.  0.
<mgrwt>
<rscale>  0 0.31787322E+03</rscale>
<asrwt>0</asrwt>
<pdfrwt beam="1">  1        2 0.90203857E-01 0.31787322E+03</pdfrwt>
<pdfrwt beam="2">  1       -2 0.57151378E-02 0.31787322E+03</pdfrwt>
<totfact> 0.82838402E+03</totfact>
</mgrwt>
</event>
<event>
 4    1  0.1390278E-004  0.3679605E+03  0.7818608E-02  0.1055476E+00
         -2   -1    0    0    0  501 -0.00000000000E+00  0.00000000000E+00  0.24881648203E+02  0.24881648334E+02  0.25500000000E-02 0. -1.
          2   -1    0    0  501    0  0.00000000000E+00 -0.00000000000E+00 -0.13603894865E+04  0.13603894865E+04  0.25500000000E-02 0.  1.
    5000001    1    1    2    0    0 -0.32292309514E+02 -0.60211178881E+02 -0.23765863101E+03  0.27799065490E+03  0.12700000000E+03 0.  0.
   -5000001    1    1    2    0    0  0.32292309514E+02  0.60211178881E+02 -0.10978492073E+04  0.11072804799E+04  0.12700000000E+03 0.  0.
<mgrwt>
<rscale>  0 0.36796050E+03</rscale>
<asrwt>0</asrwt>
<pdfrwt beam="1">  1        2 0.19434131E+00 0.36796050E+03</pdfrwt>
<pdfrwt beam="2">  1       -2 0.35545220E-02 0.36796050E+03</pdfrwt>
<totfact> 0.60721706E+03</totfact>
</mgrwt>
</event>
<event>
 4    1  0.1390278E-004  0.1036823E+04  0.7818608E-02  0.9269056E-01
         -2   -1    0    0    0  501 -0.00000000000E+00  0.00000000000E+00  0.73933413884E+03  0.73933413885E+03  0.25500000000E-02 0. -1.
          2   -1    0    0  501    0  0.00000000000E+00 -0.00000000000E+00 -0.36350314130E+03  0.36350314131E+03  0.25500000000E-02 0.  1.
    5000001    1    1    2    0    0  0.18771708113E+03  0.44999157042E+03  0.58116503622E+02  0.50718501948E+03  0.12700000000E+03 0.  0.
   -5000001    1    1    2    0    0 -0.18771708113E+03 -0.44999157042E+03  0.31771449392E+03  0.59565226067E+03  0.12700000000E+03 0.  0.
<mgrwt>
<rscale>  0 0.10368226E+04</rscale>
<asrwt>0</asrwt>
<pdfrwt beam="1">  1        2 0.51929020E-01 0.10368226E+04</pdfrwt>
<pdfrwt beam="2">  1       -2 0.10561916E+00 0.10368226E+04</pdfrwt>
<totfact> 0.69565662E+01</totfact>
</mgrwt>
</event>
<event>
 4    1  0.1390278E-004  0.3905515E+03  0.7818608E-02  0.1047101E+00
         -2   -1    0    0    0  501 -0.00000000000E+00  0.00000000000E+00  0.14589647263E+02  0.14589647486E+02  0.25500000000E-02 0. -1.
          2   -1    0    0  501    0  0.00000000000E+00 -0.00000000000E+00 -0.26136761357E+04  0.26136761357E+04  0.25500000000E-02 0.  1.
    5000001    1    1    2    0    0  0.18598737611E+02  0.13923849041E+03 -0.16201972955E+04  0.16312270064E+04  0.12700000000E+03 0.  0.
   -5000001    1    1    2    0    0 -0.18598737611E+02 -0.13923849041E+03 -0.97888919294E+03  0.99703877673E+03  0.12700000000E+03 0.  0.
<mgrwt>
<rscale>  0 0.39055147E+03</rscale>
<asrwt>0</asrwt>
<pdfrwt beam="1">  1        2 0.37338201E+00 0.39055147E+03</pdfrwt>
<pdfrwt beam="2">  1       -2 0.20842370E-02 0.39055147E+03</pdfrwt>
<totfact> 0.31767656E+03</totfact>
</mgrwt>
</event>
<event>
 4    1  0.1390278E-004  0.2896889E+03  0.7818608E-02  0.1090512E+00
          2   -1    0    0  501    0  0.00000000000E+00  0.00000000000E+00  0.13776170736E+04  0.13776170736E+04  0.25500000000E-02 0.  1.
         -2   -1    0    0    0  501 -0.00000000000E+00 -0.00000000000E+00 -0.15229137130E+02  0.15229137343E+02  0.25500000000E-02 0. -1.
    5000001    1    1    2    0    0  0.55763128886E+02 -0.38594552615E+02  0.75749759972E+03  0.77105815579E+03  0.12700000000E+03 0.  0.
   -5000001    1    1    2    0    0 -0.55763128886E+02  0.38594552615E+02  0.60489033673E+03  0.62178805513E+03  0.12700000000E+03 0.  0.
<mgrwt>
<rscale>  0 0.28968893E+03</rscale>
<asrwt>0</asrwt>
<pdfrwt beam="1">  1        2 0.19680232E+00 0.28968893E+03</pdfrwt>
<pdfrwt beam="2">  1       -2 0.21755923E-02 0.28968893E+03</pdfrwt>
<totfact> 0.12318556E+04</totfact>
</mgrwt>
</event>
<event>
 4    1  0.1390278E-004  0.4088219E+03  0.7818608E-02  0.1040767E+00
         -2   -1    0    0    0  501 -0.00000000000E+00  0.00000000000E+00  0.89654098279E+02  0.89654098315E+02  0.25500000000E-02 0.  1.
          2   -1    0    0  501    0  0.00000000000E+00 -0.00000000000E+00 -0.46605609744E+03  0.46605609744E+03  0.25500000000E-02 0. -1.
    5000001    1    1    2    0    0  0.93241487928E+02 -0.26973018326E+02 -0.15012966961E+02  0.16054877130E+03  0.12700000000E+03 0.  0.
   -5000001    1    1    2    0    0 -0.93241487928E+02  0.26973018326E+02 -0.36138903220E+03  0.39516142446E+03  0.12700000000E+03 0.  0.
<mgrwt>
<rscale>  0 0.40882191E+03</rscale>
<asrwt>0</asrwt>
<pdfrwt beam="1">  1        2 0.66579441E-01 0.40882191E+03</pdfrwt>
<pdfrwt beam="2">  1       -2 0.12807729E-01 0.40882191E+03</pdfrwt>
<totfact> 0.32763304E+03</totfact>
</mgrwt>
</event>
<event>
 4    1  0.1390278E-004  0.4366596E+03  0.7818608E-02  0.1031777E+00
          2   -1    0    0  501    0  0.00000000000E+00  0.00000000000E+00  0.36585437987E+03  0.36585437988E+03  0.25500000000E-02 0.  1.
         -2   -1    0    0    0  501 -0.00000000000E+00 -0.00000000000E+00 -0.13029199182E+03  0.13029199184E+03  0.25500000000E-02 0. -1.
    5000001    1    1    2    0    0  0.28363543500E+02 -0.16769184313E+03  0.17587197950E+03  0.27565376476E+03  0.12700000000E+03 0.  0.
   -5000001    1    1    2    0    0 -0.28363543500E+02  0.16769184313E+03  0.59690408553E+02  0.22049260697E+03  0.12700000000E+03 0.  0.
<mgrwt>
<rscale>  0 0.43665957E+03</rscale>
<asrwt>0</asrwt>
<pdfrwt beam="1">  1        2 0.52264912E-01 0.43665957E+03</pdfrwt>
<pdfrwt beam="2">  1       -2 0.18613142E-01 0.43665957E+03</pdfrwt>
<totfact> 0.22886989E+03</totfact>
</mgrwt>
</event>
<event>
 4    1  0.1390278E-004  0.3119718E+03  0.7818608E-02  0.1079405E+00
         -2   -1    0    0    0  501 -0.00000000000E+00  0.00000000000E+00  0.51437874385E+02  0.51437874448E+02  0.25500000000E-02 0. -1.
          2   -1    0    0  501    0  0.00000000000E+00 -0.00000000000E+00 -0.47302896917E+03  0.47302896918E+03  0.25500000000E-02 0.  1.
    5000001    1    1    2    0    0  0.56582020552E+02  0.39386648259E+02 -0.11205447553E+03  0.18286070818E+03  0.12700000000E+03 0.  0.
   -5000001    1    1    2    0    0 -0.56582020552E+02 -0.39386648259E+02 -0.30953661926E+03  0.34160613544E+03  0.12700000000E+03 0.  0.
<mgrwt>
<rscale>  0 0.31197182E+03</rscale>
<asrwt>0</asrwt>
<pdfrwt beam="1">  1        2 0.67575565E-01 0.31197182E+03</pdfrwt>
<pdfrwt beam="2">  1       -2 0.73482680E-02 0.31197182E+03</pdfrwt>
<totfact> 0.77756354E+03</totfact>
</mgrwt>
</event>
<event>
 4    1  0.1390278E-004  0.2830711E+03  0.7818608E-02  0.1094023E+00
          2   -1    0    0  501    0  0.00000000000E+00  0.00000000000E+00  0.31163404630E+03  0.31163404631E+03  0.25500000000E-02 0.  1.
         -2   -1    0    0    0  501 -0.00000000000E+00 -0.00000000000E+00 -0.64281509831E+02  0.64281509882E+02  0.25500000000E-02 0. -1.
    5000001    1    1    2    0    0  0.26976459770E+02  0.48289619829E+02  0.16224952744E+03  0.21333899296E+03  0.12700000000E+03 0.  0.
   -5000001    1    1    2    0    0 -0.26976459770E+02 -0.48289619829E+02  0.85103009031E+02  0.16257656323E+03  0.12700000000E+03 0.  0.
<mgrwt>
<rscale>  0 0.28307107E+03</rscale>
<asrwt>0</asrwt>
<pdfrwt beam="1">  1        2 0.44519149E-01 0.28307107E+03</pdfrwt>
<pdfrwt beam="2">  1       -2 0.91830729E-02 0.28307107E+03</pdfrwt>
<totfact> 0.85904861E+03</totfact>
</mgrwt>
</event>
<event>
 4    1  0.1390278E-004  0.5334357E+03  0.7818608E-02  0.1005402E+00
         -2   -1    0    0    0  501 -0.00000000000E+00  0.00000000000E+00  0.30809838932E+02  0.30809839037E+02  0.25500000000E-02 0. -1.
          2   -1    0    0  501    0  0.00000000000E+00 -0.00000000000E+00 -0.23089512714E+04  0.23089512714E+04  0.25500000000E-02 0.  1.
    5000001    1    1    2    0    0  0.33987903389E+02 -0.21253822327E+03 -0.73038177478E+03  0.77195479845E+03  0.12700000000E+03 0.  0.
   -5000001    1    1    2    0    0 -0.33987903389E+02  0.21253822327E+03 -0.15477596577E+04  0.15678063120E+04  0.12700000000E+03 0.  0.
<mgrwt>
<rscale>  0 0.53343572E+03</rscale>
<asrwt>0</asrwt>
<pdfrwt beam="1">  1        2 0.32985007E+00 0.53343572E+03</pdfrwt>
<pdfrwt beam="2">  1       -2 0.44014070E-02 0.53343572E+03</pdfrwt>
<totfact> 0.14529010E+03</totfact>
</mgrwt>
</event>
<event>
 4    1  0.1390278E-004  0.5331841E+03  0.7818608E-02  0.1005463E+00
          2   -1    0    0  501    0  0.00000000000E+00  0.00000000000E+00  0.13534193280E+03  0.13534193283E+03  0.25500000000E-02 0.  1.
         -2   -1    0    0    0  501 -0.00000000000E+00 -0.00000000000E+00 -0.52512411067E+03  0.52512411067E+03  0.25500000000E-02 0. -1.
    5000001    1    1    2    0    0  0.18635486625E+03  0.13932672670E+03 -0.22997639427E+03  0.35093904723E+03  0.12700000000E+03 0.  0.
   -5000001    1    1    2    0    0 -0.18635486625E+03 -0.13932672670E+03 -0.15980578360E+03  0.30952699627E+03  0.12700000000E+03 0.  0.
<mgrwt>
<rscale>  0 0.53318407E+03</rscale>
<asrwt>0</asrwt>
<pdfrwt beam="1">  1        2 0.19334562E-01 0.53318407E+03</pdfrwt>
<pdfrwt beam="2">  1       -2 0.75017729E-01 0.53318407E+03</pdfrwt>
<totfact> 0.47618279E+02</totfact>
</mgrwt>
</event>
<event>
 4    1  0.1390278E-004  0.2856252E+03  0.7818608E-02  0.1092656E+00
          2   -1    0    0  501    0  0.00000000000E+00  0.00000000000E+00  0.13763670657E+04  0.13763670657E+04  0.25500000000E-02 0.  1.
         -2   -1    0    0    0  501 -0.00000000000E+00 -0.00000000000E+00 -0.14818309138E+02  0.14818309357E+02  0.25500000000E-02 0. -1.
    5000001    1    1    2    0    0 -0.57096851789E+02 -0.21150528218E+02  0.79593632899E+03  0.80830132694E+03  0.12700000000E+03 0.  0.
   -5000001    1    1    2    0    0  0.57096851789E+02  0.21150528218E+02  0.56561242762E+03  0.58288404816E+03  0.12700000000E+03 0.  0.
<mgrwt>
<rscale>  0 0.28562516E+03</rscale>
<asrwt>0</asrwt>
<pdfrwt beam="1">  1        2 0.19662377E+00 0.28562516E+03</pdfrwt>
<pdfrwt beam="2">  1       -2 0.21169024E-02 0.28562516E+03</pdfrwt>
<totfact> 0.12840009E+04</totfact>
</mgrwt>
</event>
<event>
 4    1  0.1390278E-004  0.5972787E+03  0.7818608E-02  0.9911068E-01
          2   -1    0    0  501    0  0.00000000000E+00  0.00000000000E+00  0.15239435906E+04  0.15239435906E+04  0.25500000000E-02 0.  1.
         -2   -1    0    0    0  501 -0.00000000000E+00 -0.00000000000E+00 -0.58522818901E+02  0.58522818957E+02  0.25500000000E-02 0. -1.
    5000001    1    1    2    0    0 -0.17336032911E+03  0.19039038872E+03  0.51496775520E+03  0.58959570277E+03  0.12700000000E+03 0.  0.
   -5000001    1    1    2    0    0  0.17336032911E+03 -0.19039038872E+03  0.95045301645E+03  0.99287070675E+03  0.12700000000E+03 0.  0.
<mgrwt>
<rscale>  0 0.59727875E+03</rscale>
<asrwt>0</asrwt>
<pdfrwt beam="1">  1        2 0.21770620E+00 0.59727875E+03</pdfrwt>
<pdfrwt beam="2">  1       -2 0.83604037E-02 0.59727875E+03</pdfrwt>
<totfact> 0.13210816E+03</totfact>
</mgrwt>
</event>
<event>
 4    1  0.1390278E-004  0.4585405E+03  0.7818608E-02  0.1025205E+00
          2   -1    0    0  501    0  0.00000000000E+00  0.00000000000E+00  0.59229162112E+03  0.59229162113E+03  0.25500000000E-02 0.  1.
         -2   -1    0    0    0  501 -0.00000000000E+00 -0.00000000000E+00 -0.88748271033E+02  0.88748271070E+02  0.25500000000E-02 0. -1.
    5000001    1    1    2    0    0  0.92541657762E+02 -0.91899530207E+02  0.44761974146E+02  0.18746230662E+03  0.12700000000E+03 0.  0.
   -5000001    1    1    2    0    0 -0.92541657762E+02  0.91899530207E+02  0.45878137594E+03  0.49357758558E+03  0.12700000000E+03 0.  0.
<mgrwt>
<rscale>  0 0.45854054E+03</rscale>
<asrwt>0</asrwt>
<pdfrwt beam="1">  1        2 0.84613089E-01 0.45854054E+03</pdfrwt>
<pdfrwt beam="2">  1       -2 0.12678324E-01 0.45854054E+03</pdfrwt>
<totfact> 0.25414058E+03</totfact>
</mgrwt>
</event>
<event>
 4    1  0.1390278E-004  0.3448649E+03  0.7818608E-02  0.1064743E+00
          2   -1    0    0  501    0  0.00000000000E+00  0.00000000000E+00  0.50005329461E+04  0.50005329461E+04  0.25500000000E-02 0.  1.
         -2   -1    0    0    0  501 -0.00000000000E+00 -0.00000000000E+00 -0.59459560881E+01  0.59459566349E+01  0.25500000000E-02 0. -1.
    5000001    1    1    2    0    0  0.67423404157E+02  0.56800394002E+01  0.11180987980E+04  0.11273207620E+04  0.12700000000E+03 0.  0.
   -5000001    1    1    2    0    0 -0.67423404157E+02 -0.56800394002E+01  0.38764881920E+04  0.38791581408E+04  0.12700000000E+03 0.  0.
<mgrwt>
<rscale>  0 0.34486491E+03</rscale>
<asrwt>0</asrwt>
<pdfrwt beam="1">  1        2 0.71436141E+00 0.34486491E+03</pdfrwt>
<pdfrwt beam="2">  1       -2 0.84942286E-03 0.34486491E+03</pdfrwt>
<totfact> 0.32696516E+02</totfact>
</mgrwt>
</event>
<event>
 4    1  0.1390278E-004  0.4750711E+03  0.7818608E-02  0.1020499E+00
         -2   -1    0    0    0  501 -0.00000000000E+00  0.00000000000E+00  0.17797128744E+02  0.17797128927E+02  0.25500000000E-02 0. -1.
          2   -1    0    0  501    0  0.00000000000E+00 -0.00000000000E+00 -0.31703503789E+04  0.31703503789E+04  0.25500000000E-02 0.  1.
    5000001    1    1    2    0    0  0.18292850757E+03 -0.61218322375E+02 -0.19489339747E+04  0.19625705489E+04  0.12700000000E+03 0.  0.
   -5000001    1    1    2    0    0 -0.18292850757E+03  0.61218322375E+02 -0.12036192754E+04  0.12255769589E+04  0.12700000000E+03 0.  0.
<mgrwt>
<rscale>  0 0.47507109E+03</rscale>
<asrwt>0</asrwt>
<pdfrwt beam="1">  1        2 0.45290684E+00 0.47507109E+03</pdfrwt>
<pdfrwt beam="2">  1       -2 0.25424490E-02 0.47507109E+03</pdfrwt>
<totfact> 0.11866700E+03</totfact>
</mgrwt>
</event>
<event>
 4    1  0.1390278E-004  0.4489616E+03  0.7818608E-02  0.1028032E+00
          2   -1    0    0  501    0  0.00000000000E+00  0.00000000000E+00  0.22951809255E+04  0.22951809255E+04  0.25500000000E-02 0.  1.
         -2   -1    0    0    0  501 -0.00000000000E+00 -0.00000000000E+00 -0.21955409430E+02  0.21955409578E+02  0.25500000000E-02 0. -1.
    5000001    1    1    2    0    0 -0.46660960472E+02  0.12658005873E+03  0.17907277056E+04  0.18002873304E+04  0.12700000000E+03 0.  0.
   -5000001    1    1    2    0    0  0.46660960472E+02 -0.12658005873E+03  0.48249781049E+03  0.51684900467E+03  0.12700000000E+03 0.  0.
<mgrwt>
<rscale>  0 0.44896163E+03</rscale>
<asrwt>0</asrwt>
<pdfrwt beam="1">  1        2 0.32788292E+00 0.44896163E+03</pdfrwt>
<pdfrwt beam="2">  1       -2 0.31364877E-02 0.44896163E+03</pdfrwt>
<totfact> 0.24859835E+03</totfact>
</mgrwt>
</event>
<event>
 4    1  0.1390278E-004  0.5972068E+03  0.7818608E-02  0.9911218E-01
         -2   -1    0    0    0  501 -0.00000000000E+00  0.00000000000E+00  0.35612875641E+02  0.35612875732E+02  0.25500000000E-02 0. -1.
          2   -1    0    0  501    0  0.00000000000E+00 -0.00000000000E+00 -0.25037006809E+04  0.25037006809E+04  0.25500000000E-02 0.  1.
    5000001    1    1    2    0    0 -0.20184935444E+03 -0.17790659788E+03 -0.13417007129E+04  0.13742938996E+04  0.12700000000E+03 0.  0.
   -5000001    1    1    2    0    0  0.20184935444E+03  0.17790659788E+03 -0.11263870924E+04  0.11650196570E+04  0.12700000000E+03 0.  0.
<mgrwt>
<rscale>  0 0.59720677E+03</rscale>
<asrwt>0</asrwt>
<pdfrwt beam="1">  1        2 0.35767141E+00 0.59720677E+03</pdfrwt>
<pdfrwt beam="2">  1       -2 0.50875552E-02 0.59720677E+03</pdfrwt>
<totfact> 0.92060697E+02</totfact>
</mgrwt>
</event>
<event>
 4    1  0.1390278E-004  0.4338773E+03  0.7818608E-02  0.1032642E+00
         -2   -1    0    0    0  501 -0.00000000000E+00  0.00000000000E+00  0.54435271551E+02  0.54435271611E+02  0.25500000000E-02 0. -1.
          2   -1    0    0  501    0  0.00000000000E+00 -0.00000000000E+00 -0.86455649295E+03  0.86455649296E+03  0.25500000000E-02 0.  1.
    5000001    1    1    2    0    0 -0.34483428006E+02 -0.17207773600E+03 -0.42953474069E+03  0.48107062631E+03  0.12700000000E+03 0.  0.
   -5000001    1    1    2    0    0  0.34483428006E+02  0.17207773600E+03 -0.38058648071E+03  0.43792113826E+03  0.12700000000E+03 0.  0.
<mgrwt>
<rscale>  0 0.43387725E+03</rscale>
<asrwt>0</asrwt>
<pdfrwt beam="1">  1        2 0.12350806E+00 0.43387725E+03</pdfrwt>
<pdfrwt beam="2">  1       -2 0.77764679E-02 0.43387725E+03</pdfrwt>
<totfact> 0.35132185E+03</totfact>
</mgrwt>
</event>
<event>
 4    1  0.1390278E-004  0.8100440E+03  0.7818608E-02  0.9545592E-01
         -2   -1    0    0    0  501 -0.00000000000E+00  0.00000000000E+00  0.76621687173E+02  0.76621687216E+02  0.25500000000E-02 0. -1.
          2   -1    0    0  501    0  0.00000000000E+00 -0.00000000000E+00 -0.21409451974E+04  0.21409451974E+04  0.25500000000E-02 0.  1.
    5000001    1    1    2    0    0 -0.25527308809E+03 -0.20870112800E+03 -0.49019313230E+03  0.60426717376E+03  0.12700000000E+03 0.  0.
   -5000001    1    1    2    0    0  0.25527308809E+03  0.20870112800E+03 -0.15741303779E+04  0.16132997108E+04  0.12700000000E+03 0.  0.
<mgrwt>
<rscale>  0 0.81004403E+03</rscale>
<asrwt>0</asrwt>
<pdfrwt beam="1">  1        2 0.30584928E+00 0.81004403E+03</pdfrwt>
<pdfrwt beam="2">  1       -2 0.10945957E-01 0.81004403E+03</pdfrwt>
<totfact> 0.40938993E+02</totfact>
</mgrwt>
</event>
<event>
 4    1  0.1390278E-004  0.3465909E+03  0.7818608E-02  0.1064023E+00
          2   -1    0    0  501    0  0.00000000000E+00  0.00000000000E+00  0.34197149437E+04  0.34197149437E+04  0.25500000000E-02 0.  1.
         -2   -1    0    0    0  501 -0.00000000000E+00 -0.00000000000E+00 -0.87818174573E+01  0.87818178275E+01  0.25500000000E-02 0. -1.
    5000001    1    1    2    0    0  0.42186065288E+02  0.10999697474E+03  0.16577027088E+04  0.16667292130E+04  0.12700000000E+03 0.  0.
   -5000001    1    1    2    0    0 -0.42186065288E+02 -0.10999697474E+03  0.17532304174E+04  0.17617675485E+04  0.12700000000E+03 0.  0.
<mgrwt>
<rscale>  0 0.34659090E+03</rscale>
<asrwt>0</asrwt>
<pdfrwt beam="1">  1        2 0.48853034E+00 0.34659090E+03</pdfrwt>
<pdfrwt beam="2">  1       -2 0.12545463E-02 0.34659090E+03</pdfrwt>
<totfact> 0.24819577E+03</totfact>
</mgrwt>
</event>
<event>
 4    1  0.1390278E-004  0.3018343E+03  0.7818608E-02  0.1084327E+00
          2   -1    0    0  501    0  0.00000000000E+00  0.00000000000E+00  0.29137772959E+04  0.29137772959E+04  0.25500000000E-02 0.  1.
         -2   -1    0    0    0  501 -0.00000000000E+00 -0.00000000000E+00 -0.78166505028E+01  0.78166509187E+01  0.25500000000E-02 0. -1.
    5000001    1    1    2    0    0  0.58449453375E+02 -0.27607509740E+02  0.19338915550E+04  0.19391348740E+04  0.12700000000E+03 0.  0.
   -5000001    1    1    2    0    0 -0.58449453375E+02  0.27607509740E+02  0.97206909040E+03  0.98245907279E+03  0.12700000000E+03 0.  0.
<mgrwt>
<rscale>  0 0.30183426E+03</rscale>
<asrwt>0</asrwt>
<pdfrwt beam="1">  1        2 0.41625321E+00 0.30183426E+03</pdfrwt>
<pdfrwt beam="2">  1       -2 0.11166662E-02 0.30183426E+03</pdfrwt>
<totfact> 0.55928979E+03</totfact>
</mgrwt>
</event>
<event>
 4    1  0.1390278E-004  0.5021495E+03  0.7818608E-02  0.1013219E+00
          2   -1    0    0  501    0  0.00000000000E+00  0.00000000000E+00  0.65564560500E+03  0.65564560500E+03  0.25500000000E-02 0.  1.
         -2   -1    0    0    0  501 -0.00000000000E+00 -0.00000000000E+00 -0.96147274241E+02  0.96147274274E+02  0.25500000000E-02 0. -1.
    5000001    1    1    2    0    0  0.21496053211E+02 -0.21193816038E+03  0.33830424057E+03  0.41947422247E+03  0.12700000000E+03 0.  0.
   -5000001    1    1    2    0    0 -0.21496053211E+02  0.21193816038E+03  0.22119409019E+03  0.33231865681E+03  0.12700000000E+03 0.  0.
<mgrwt>
<rscale>  0 0.50214953E+03</rscale>
<asrwt>0</asrwt>
<pdfrwt beam="1">  1        2 0.93663659E-01 0.50214953E+03</pdfrwt>
<pdfrwt beam="2">  1       -2 0.13735325E-01 0.50214953E+03</pdfrwt>
<totfact> 0.19762997E+03</totfact>
</mgrwt>
</event>
<event>
 4    1  0.1390278E-004  0.2682429E+03  0.7818608E-02  0.1102289E+00
          2   -1    0    0  501    0  0.00000000000E+00  0.00000000000E+00  0.12906129420E+04  0.12906129420E+04  0.25500000000E-02 0.  1.
         -2   -1    0    0    0  501 -0.00000000000E+00 -0.00000000000E+00 -0.13937998676E+02  0.13937998909E+02  0.25500000000E-02 0. -1.
    5000001    1    1    2    0    0 -0.39289138568E+02  0.13769420666E+02  0.58367577466E+03  0.59878179939E+03  0.12700000000E+03 0.  0.
   -5000001    1    1    2    0    0  0.39289138568E+02 -0.13769420666E+02  0.69299916864E+03  0.70576914149E+03  0.12700000000E+03 0.  0.
<mgrwt>
<rscale>  0 0.26824289E+03</rscale>
<asrwt>0</asrwt>
<pdfrwt beam="1">  1        2 0.18437321E+00 0.26824289E+03</pdfrwt>
<pdfrwt beam="2">  1       -2 0.19911434E-02 0.26824289E+03</pdfrwt>
<totfact> 0.15547808E+04</totfact>
</mgrwt>
</event>
<event>
 4    1  0.1390278E-004  0.2879173E+03  0.7818608E-02  0.1091442E+00
          2   -1    0    0  501    0  0.00000000000E+00  0.00000000000E+00  0.16801513720E+04  0.16801513720E+04  0.25500000000E-02 0.  1.
         -2   -1    0    0    0  501 -0.00000000000E+00 -0.00000000000E+00 -0.12334655666E+02  0.12334655930E+02  0.25500000000E-02 0. -1.
    5000001    1    1    2    0    0 -0.63408244035E+02 -0.18021898212E+02  0.92679686508E+03  0.93777759802E+03  0.12700000000E+03 0.  0.
   -5000001    1    1    2    0    0  0.63408244035E+02  0.18021898212E+02  0.74101985127E+03  0.75470842993E+03  0.12700000000E+03 0.  0.
<mgrwt>
<rscale>  0 0.28791727E+03</rscale>
<asrwt>0</asrwt>
<pdfrwt beam="1">  1        2 0.24002168E+00 0.28791727E+03</pdfrwt>
<pdfrwt beam="2">  1       -2 0.17620933E-02 0.28791727E+03</pdfrwt>
<totfact> 0.11820160E+04</totfact>
</mgrwt>
</event>
<event>
 4    1  0.1390278E-004  0.4204247E+03  0.7818608E-02  0.1036928E+00
         -2   -1    0    0    0  501 -0.00000000000E+00  0.00000000000E+00  0.83399531155E+02  0.83399531194E+02  0.25500000000E-02 0. -1.
          2   -1    0    0  501    0  0.00000000000E+00 -0.00000000000E+00 -0.52984989866E+03  0.52984989867E+03  0.25500000000E-02 0.  1.
    5000001    1    1    2    0    0  0.10419576048E+03 -0.97878598776E+02 -0.95869247582E+02  0.21390860018E+03  0.12700000000E+03 0.  0.
   -5000001    1    1    2    0    0 -0.10419576048E+03  0.97878598776E+02 -0.35058111993E+03  0.39934082968E+03  0.12700000000E+03 0.  0.
<mgrwt>
<rscale>  0 0.42042471E+03</rscale>
<asrwt>0</asrwt>
<pdfrwt beam="1">  1        2 0.75692841E-01 0.42042471E+03</pdfrwt>
<pdfrwt beam="2">  1       -2 0.11914219E-01 0.42042471E+03</pdfrwt>
<totfact> 0.31944201E+03</totfact>
</mgrwt>
</event>
<event>
 4    1  0.1390278E-004  0.3234408E+03  0.7818608E-02  0.1074077E+00
          2   -1    0    0  501    0  0.00000000000E+00  0.00000000000E+00  0.63718723216E+02  0.63718723267E+02  0.25500000000E-02 0.  1.
         -2   -1    0    0    0  501 -0.00000000000E+00 -0.00000000000E+00 -0.41045208224E+03  0.41045208225E+03  0.25500000000E-02 0. -1.
    5000001    1    1    2    0    0 -0.64983530892E+02  0.67017328252E+02 -0.22643380919E+03  0.27589028891E+03  0.12700000000E+03 0.  0.
   -5000001    1    1    2    0    0  0.64983530892E+02 -0.67017328252E+02 -0.12029954984E+03  0.19828051660E+03  0.12700000000E+03 0.  0.
<mgrwt>
<rscale>  0 0.32344077E+03</rscale>
<asrwt>0</asrwt>
<pdfrwt beam="1">  1        2 0.91026750E-02 0.32344077E+03</pdfrwt>
<pdfrwt beam="2">  1       -2 0.58636010E-01 0.32344077E+03</pdfrwt>
<totfact> 0.20082610E+03</totfact>
</mgrwt>
</event>
<event>
 4    1  0.1390278E-004  0.5465711E+03  0.7818608E-02  0.1002291E+00
          2   -1    0    0  501    0  0.00000000000E+00  0.00000000000E+00  0.41759792791E+03  0.41759792791E+03  0.25500000000E-02 0.  1.
         -2   -1    0    0    0  501 -0.00000000000E+00 -0.00000000000E+00 -0.17884429092E+03  0.17884429094E+03  0.25500000000E-02 0. -1.
    5000001    1    1    2    0    0 -0.22943613152E+03 -0.69737465687E+02  0.83986986538E+02  0.28405468924E+03  0.12700000000E+03 0.  0.
   -5000001    1    1    2    0    0  0.22943613152E+03  0.69737465687E+02  0.15476665045E+03  0.31238752962E+03  0.12700000000E+03 0.  0.
<mgrwt>
<rscale>  0 0.54657115E+03</rscale>
<asrwt>0</asrwt>
<pdfrwt beam="1">  1        2 0.59656847E-01 0.54657115E+03</pdfrwt>
<pdfrwt beam="2">  1       -2 0.25549184E-01 0.54657115E+03</pdfrwt>
<totfact> 0.11358870E+03</totfact>
</mgrwt>
</event>
<event>
 4    1  0.1390278E-004  0.3212844E+03  0.7818608E-02  0.1075060E+00
          2   -1    0    0  501    0  0.00000000000E+00  0.00000000000E+00  0.32117272189E+03  0.32117272190E+03  0.25500000000E-02 0.  1.
         -2   -1    0    0    0  501 -0.00000000000E+00 -0.00000000000E+00 -0.80349053271E+02  0.80349053312E+02  0.25500000000E-02 0. -1.
    5000001    1    1    2    0    0 -0.77485743133E+02  0.60092820603E+02  0.13023137134E+03  0.20665042356E+03  0.12700000000E+03 0.  0.
   -5000001    1    1    2    0    0  0.77485743133E+02 -0.60092820603E+02  0.11059229728E+03  0.19487135165E+03  0.12700000000E+03 0.  0.
<mgrwt>
<rscale>  0 0.32128445E+03</rscale>
<asrwt>0</asrwt>
<pdfrwt beam="1">  1        2 0.45881818E-01 0.32128445E+03</pdfrwt>
<pdfrwt beam="2">  1       -2 0.11478436E-01 0.32128445E+03</pdfrwt>
<totfact> 0.58492441E+03</totfact>
</mgrwt>
</event>
<event>
 4    1  0.1390278E-004  0.5921893E+03  0.7818608E-02  0.9921745E-01
          2   -1    0    0  501    0  0.00000000000E+00  0.00000000000E+00  0.42848157649E+03  0.42848157650E+03  0.25500000000E-02 0.  1.
         -2   -1    0    0    0  501 -0.00000000000E+00 -0.00000000000E+00 -0.20461096926E+03  0.20461096928E+03  0.25500000000E-02 0. -1.
    5000001    1    1    2    0    0 -0.24052514445E+03  0.11419660338E+03  0.13918763488E+03  0.32618308822E+03  0.12700000000E+03 0.  0.
   -5000001    1    1    2    0    0  0.24052514445E+03 -0.11419660338E+03  0.84682972355E+02  0.30690945757E+03  0.12700000000E+03 0.  0.
<mgrwt>
<rscale>  0 0.59218926E+03</rscale>
<asrwt>0</asrwt>
<pdfrwt beam="1">  1        2 0.61211653E-01 0.59218926E+03</pdfrwt>
<pdfrwt beam="2">  1       -2 0.29230139E-01 0.59218926E+03</pdfrwt>
<totfact> 0.86391759E+02</totfact>
</mgrwt>
</event>
<event>
 4    1  0.1390278E-004  0.3896884E+03  0.7818608E-02  0.1047410E+00
         -2   -1    0    0    0  501 -0.00000000000E+00  0.00000000000E+00  0.12446452158E+02  0.12446452419E+02  0.25500000000E-02 0. -1.
          2   -1    0    0  501    0  0.00000000000E+00 -0.00000000000E+00 -0.30502081490E+04  0.30502081490E+04  0.25500000000E-02 0.  1.
    5000001    1    1    2    0    0 -0.13566190996E+02  0.14661476680E+03 -0.14209272279E+04  0.14341698360E+04  0.12700000000E+03 0.  0.
   -5000001    1    1    2    0    0  0.13566190996E+02 -0.14661476680E+03 -0.16168344689E+04  0.16284847654E+04  0.12700000000E+03 0.  0.
<mgrwt>
<rscale>  0 0.38968844E+03</rscale>
<asrwt>0</asrwt>
<pdfrwt beam="1">  1        2 0.43574354E+00 0.38968844E+03</pdfrwt>
<pdfrwt beam="2">  1       -2 0.17780666E-02 0.38968844E+03</pdfrwt>
<totfact> 0.23737566E+03</totfact>
</mgrwt>
</event>
<event>
 4    1  0.1390278E-004  0.2893225E+03  0.7818608E-02  0.1090703E+00
         -2   -1    0    0    0  501 -0.00000000000E+00  0.00000000000E+00  0.11841740732E+03  0.11841740735E+03  0.25500000000E-02 0. -1.
          2   -1    0    0  501    0  0.00000000000E+00 -0.00000000000E+00 -0.17672128624E+03  0.17672128626E+03  0.25500000000E-02 0.  1.
    5000001    1    1    2    0    0 -0.49417836956E+02  0.46894431757E+01  0.20128245492E+02  0.13783417484E+03  0.12700000000E+03 0.  0.
   -5000001    1    1    2    0    0  0.49417836956E+02 -0.46894431757E+01 -0.78432124414E+02  0.15730451877E+03  0.12700000000E+03 0.  0.
<mgrwt>
<rscale>  0 0.28932250E+03</rscale>
<asrwt>0</asrwt>
<pdfrwt beam="1">  1        2 0.25245898E-01 0.28932250E+03</pdfrwt>
<pdfrwt beam="2">  1       -2 0.16916773E-01 0.28932250E+03</pdfrwt>
<totfact> 0.59221452E+03</totfact>
</mgrwt>
</event>
<event>
 4    1  0.1390278E-004  0.4407790E+03  0.7818608E-02  0.1030508E+00
         -2   -1    0    0    0  501 -0.00000000000E+00  0.00000000000E+00  0.24621064486E+02  0.24621064618E+02  0.25500000000E-02 0. -1.
          2   -1    0    0  501    0  0.00000000000E+00 -0.00000000000E+00 -0.19727636212E+04  0.19727636212E+04  0.25500000000E-02 0.  1.
    5000001    1    1    2    0    0 -0.28808955314E+02  0.91921943691E+02 -0.28440716162E+03  0.32603072435E+03  0.12700000000E+03 0.  0.
   -5000001    1    1    2    0    0  0.28808955314E+02 -0.91921943691E+02 -0.16637353951E+04  0.16713539615E+04  0.12700000000E+03 0.  0.
<mgrwt>
<rscale>  0 0.44077904E+03</rscale>
<asrwt>0</asrwt>
<pdfrwt beam="1">  1        2 0.28182327E+00 0.44077904E+03</pdfrwt>
<pdfrwt beam="2">  1       -2 0.35172962E-02 0.44077904E+03</pdfrwt>
<totfact> 0.30254684E+03</totfact>
</mgrwt>
</event>
<event>
 4    1  0.1390278E-004  0.6866401E+03  0.7818608E-02  0.9740356E-01
         -2   -1    0    0    0  501 -0.00000000000E+00  0.00000000000E+00  0.18843975113E+03  0.18843975115E+03  0.25500000000E-02 0. -1.
          2   -1    0    0  501    0  0.00000000000E+00 -0.00000000000E+00 -0.62549775323E+03  0.62549775323E+03  0.25500000000E-02 0.  1.
    5000001    1    1    2    0    0 -0.19721104082E+03  0.23384897952E+03 -0.32562245160E+03  0.46447445660E+03  0.12700000000E+03 0.  0.
   -5000001    1    1    2    0    0  0.19721104082E+03 -0.23384897952E+03 -0.11143555050E+03  0.34946304778E+03  0.12700000000E+03 0.  0.
<mgrwt>
<rscale>  0 0.68664005E+03</rscale>
<asrwt>0</asrwt>
<pdfrwt beam="1">  1        2 0.89356821E-01 0.68664005E+03</pdfrwt>
<pdfrwt beam="2">  1       -2 0.26919965E-01 0.68664005E+03</pdfrwt>
<totfact> 0.64914149E+02</totfact>
</mgrwt>
</event>
<event>
 4    1  0.1390278E-004  0.5977995E+03  0.7818608E-02  0.9909982E-01
          2   -1    0    0  501    0  0.00000000000E+00  0.00000000000E+00  0.29599072246E+04  0.29599072246E+04  0.25500000000E-02 0.  1.
         -2   -1    0    0    0  501 -0.00000000000E+00 -0.00000000000E+00 -0.30183736305E+02  0.30183736413E+02  0.25500000000E-02 0. -1.
    5000001    1    1    2    0    0 -0.70900311807E+02  0.25825396762E+03  0.12717825008E+04  0.13058643480E+04  0.12700000000E+03 0.  0.
   -5000001    1    1    2    0    0  0.70900311807E+02 -0.25825396762E+03  0.16579409875E+04  0.16842266131E+04  0.12700000000E+03 0.  0.
<mgrwt>
<rscale>  0 0.59779950E+03</rscale>
<asrwt>0</asrwt>
<pdfrwt beam="1">  1        2 0.42284393E+00 0.59779950E+03</pdfrwt>
<pdfrwt beam="2">  1       -2 0.43119620E-02 0.59779950E+03</pdfrwt>
<totfact> 0.68437811E+02</totfact>
</mgrwt>
</event>
<event>
 4    1  0.1390278E-004  0.4002448E+03  0.7818608E-02  0.1043695E+00
          2   -1    0    0  501    0  0.00000000000E+00  0.00000000000E+00  0.18278959898E+04  0.18278959898E+04  0.25500000000E-02 0.  1.
         -2   -1    0    0    0  501 -0.00000000000E+00 -0.00000000000E+00 -0.21909871522E+02  0.21909871670E+02  0.25500000000E-02 0. -1.
    5000001    1    1    2    0    0 -0.12480463765E+03 -0.88140900635E+02  0.79217367758E+03  0.81670873106E+03  0.12700000000E+03 0.  0.
   -5000001    1    1    2    0    0  0.12480463765E+03  0.88140900635E+02  0.10138124407E+04  0.10330971304E+04  0.12700000000E+03 0.  0.
<mgrwt>
<rscale>  0 0.40024476E+03</rscale>
<asrwt>0</asrwt>
<pdfrwt beam="1">  1        2 0.26112806E+00 0.40024476E+03</pdfrwt>
<pdfrwt beam="2">  1       -2 0.31299810E-02 0.40024476E+03</pdfrwt>
<totfact> 0.42623524E+03</totfact>
</mgrwt>
</event>
<event>
 4    1  0.1390278E-004  0.3214819E+03  0.7818608E-02  0.1074969E+00
         -2   -1    0    0    0  501 -0.00000000000E+00  0.00000000000E+00  0.26494750867E+02  0.26494750989E+02  0.25500000000E-02 0. -1.
          2   -1    0    0  501    0  0.00000000000E+00 -0.00000000000E+00 -0.97519915588E+03  0.97519915589E+03  0.25500000000E-02 0.  1.
    5000001    1    1    2    0    0  0.47274407157E+02  0.66253243519E+02 -0.30130820240E+03  0.33695696266E+03  0.12700000000E+03 0.  0.
   -5000001    1    1    2    0    0 -0.47274407157E+02 -0.66253243519E+02 -0.64739620261E+03  0.66473694422E+03  0.12700000000E+03 0.  0.
<mgrwt>
<rscale>  0 0.32148194E+03</rscale>
<asrwt>0</asrwt>
<pdfrwt beam="1">  1        2 0.13931414E+00 0.32148194E+03</pdfrwt>
<pdfrwt beam="2">  1       -2 0.37849650E-02 0.32148194E+03</pdfrwt>
<totfact> 0.90309287E+03</totfact>
</mgrwt>
</event>
<event>
 4    1  0.1390278E-004  0.3455280E+03  0.7818608E-02  0.1064466E+00
          2   -1    0    0  501    0  0.00000000000E+00  0.00000000000E+00  0.41505514040E+03  0.41505514041E+03  0.25500000000E-02 0.  1.
         -2   -1    0    0    0  501 -0.00000000000E+00 -0.00000000000E+00 -0.71911878745E+02  0.71911878790E+02  0.25500000000E-02 0. -1.
    5000001    1    1    2    0    0  0.11226726697E+03  0.27668789929E+02  0.19789630143E+03  0.26203329424E+03  0.12700000000E+03 0.  0.
   -5000001    1    1    2    0    0 -0.11226726697E+03 -0.27668789929E+02  0.14524696023E+03  0.22493372497E+03  0.12700000000E+03 0.  0.
<mgrwt>
<rscale>  0 0.34552797E+03</rscale>
<asrwt>0</asrwt>
<pdfrwt beam="1">  1        2 0.59293592E-01 0.34552797E+03</pdfrwt>
<pdfrwt beam="2">  1       -2 0.10273125E-01 0.34552797E+03</pdfrwt>
<totfact> 0.53035115E+03</totfact>
</mgrwt>
</event>
<event>
 4    1  0.1390278E-004  0.6454898E+03  0.7818608E-02  0.9815279E-01
          2   -1    0    0  501    0  0.00000000000E+00  0.00000000000E+00  0.11729061689E+04  0.11729061689E+04  0.25500000000E-02 0. -1.
         -2   -1    0    0    0  501 -0.00000000000E+00 -0.00000000000E+00 -0.88808699630E+02  0.88808699666E+02  0.25500000000E-02 0.  1.
    5000001    1    1    2    0    0  0.16896010235E+01  0.10308007576E+03  0.10858769220E+04  0.10981284290E+04  0.12700000000E+03 0.  0.
   -5000001    1    1    2    0    0 -0.16896010235E+01 -0.10308007576E+03 -0.17794527294E+01  0.16358643960E+03  0.12700000000E+03 0.  0.
<mgrwt>
<rscale>  0 0.64548980E+03</rscale>
<asrwt>0</asrwt>
<pdfrwt beam="1">  1        2 0.16755800E+00 0.64548980E+03</pdfrwt>
<pdfrwt beam="2">  1       -2 0.12686959E-01 0.64548980E+03</pdfrwt>
<totfact> 0.10352434E+03</totfact>
</mgrwt>
</event>
<event>
 4    1  0.1390278E-004  0.1970230E+04  0.7818608E-02  0.8620667E-01
         -2   -1    0    0    0  501 -0.00000000000E+00  0.00000000000E+00  0.44380523622E+03  0.44380523623E+03  0.25500000000E-02 0. -1.
          2   -1    0    0  501    0  0.00000000000E+00 -0.00000000000E+00 -0.21866618949E+04  0.21866618949E+04  0.25500000000E-02 0.  1.
    5000001    1    1    2    0    0 -0.80012991273E+03 -0.30292565613E+03 -0.15009860616E+04  0.17323567726E+04  0.12700000000E+03 0.  0.
   -5000001    1    1    2    0    0  0.80012991273E+03  0.30292565613E+03 -0.24187059705E+03  0.89811035853E+03  0.12700000000E+03 0.  0.
<mgrwt>
<rscale>  0 0.19702304E+04</rscale>
<asrwt>0</asrwt>
<pdfrwt beam="1">  1        2 0.31238026E+00 0.19702304E+04</pdfrwt>
<pdfrwt beam="2">  1       -2 0.63400749E-01 0.19702304E+04</pdfrwt>
<totfact> 0.13830902E+01</totfact>
</mgrwt>
</event>
<event>
 4    1  0.1390278E-004  0.3842269E+03  0.7818608E-02  0.1049382E+00
          2   -1    0    0  501    0  0.00000000000E+00  0.00000000000E+00  0.23914397451E+02  0.23914397586E+02  0.25500000000E-02 0.  1.
         -2   -1    0    0    0  501 -0.00000000000E+00 -0.00000000000E+00 -0.15433200796E+04  0.15433200796E+04  0.25500000000E-02 0. -1.
    5000001    1    1    2    0    0 -0.22054017240E+01  0.14403989825E+03 -0.73881895851E+03  0.76337068947E+03  0.12700000000E+03 0.  0.
   -5000001    1    1    2    0    0  0.22054017240E+01 -0.14403989825E+03 -0.78058672365E+03  0.80386378773E+03  0.12700000000E+03 0.  0.
<mgrwt>
<rscale>  0 0.38422686E+03</rscale>
<asrwt>0</asrwt>
<pdfrwt beam="1">  1        2 0.34163435E-02 0.38422686E+03</pdfrwt>
<pdfrwt beam="2">  1       -2 0.22047423E+00 0.38422686E+03</pdfrwt>
<totfact> 0.28247345E+02</totfact>
</mgrwt>
</event>
<event>
 4    1  0.1390278E-004  0.3768717E+03  0.7818608E-02  0.1052096E+00
          2   -1    0    0  501    0  0.00000000000E+00  0.00000000000E+00  0.39781168730E+03  0.39781168731E+03  0.25500000000E-02 0.  1.
         -2   -1    0    0    0  501 -0.00000000000E+00 -0.00000000000E+00 -0.89258505844E+02  0.89258505881E+02  0.25500000000E-02 0. -1.
    5000001    1    1    2    0    0 -0.46241533048E+02 -0.10055836900E+03  0.45156037510E+02  0.17440852238E+03  0.12700000000E+03 0.  0.
   -5000001    1    1    2    0    0  0.46241533048E+02  0.10055836900E+03  0.26339714394E+03  0.31266167081E+03  0.12700000000E+03 0.  0.
<mgrwt>
<rscale>  0 0.37687174E+03</rscale>
<asrwt>0</asrwt>
<pdfrwt beam="1">  1        2 0.56830241E-01 0.37687174E+03</pdfrwt>
<pdfrwt beam="2">  1       -2 0.12751215E-01 0.37687174E+03</pdfrwt>
<totfact> 0.39231523E+03</totfact>
</mgrwt>
</event>
<event>
 4    1  0.1390278E-004  0.6658228E+03  0.7818608E-02  0.9777534E-01
         -2   -1    0    0    0  501 -0.00000000000E+00  0.00000000000E+00  0.21258778500E+03  0.21258778501E+03  0.25500000000E-02 0. -1.
          2   -1    0    0  501    0  0.00000000000E+00 -0.00000000000E+00 -0.52133755043E+03  0.52133755044E+03  0.25500000000E-02 0.  1.
    5000001    1    1    2    0    0  0.13527990504E+01  0.22665869002E+03  0.75061628077E+02  0.27044267384E+03  0.12700000000E+03 0.  0.
   -5000001    1    1    2    0    0 -0.13527990504E+01 -0.22665869002E+03 -0.38381139351E+03  0.46348266161E+03  0.12700000000E+03 0.  0.
<mgrwt>
<rscale>  0 0.66582278E+03</rscale>
<asrwt>0</asrwt>
<pdfrwt beam="1">  1        2 0.74476792E-01 0.66582278E+03</pdfrwt>
<pdfrwt beam="2">  1       -2 0.30369684E-01 0.66582278E+03</pdfrwt>
<totfact> 0.64396270E+02</totfact>
</mgrwt>
</event>
<event>
 4    1  0.1390278E-004  0.4652890E+03  0.7818608E-02  0.1023258E+00
          2   -1    0    0  501    0  0.00000000000E+00  0.00000000000E+00  0.34488900101E+03  0.34488900102E+03  0.25500000000E-02 0.  1.
         -2   -1    0    0    0  501 -0.00000000000E+00 -0.00000000000E+00 -0.15693011214E+03  0.15693011216E+03  0.25500000000E-02 0. -1.
    5000001    1    1    2    0    0 -0.16175406784E+03  0.10779426363E+03  0.10962669129E+03  0.25677031210E+03  0.12700000000E+03 0.  0.
   -5000001    1    1    2    0    0  0.16175406784E+03 -0.10779426363E+03  0.78332197573E+02  0.24504880108E+03  0.12700000000E+03 0.  0.
<mgrwt>
<rscale>  0 0.46528903E+03</rscale>
<asrwt>0</asrwt>
<pdfrwt beam="1">  1        2 0.49269858E-01 0.46528903E+03</pdfrwt>
<pdfrwt beam="2">  1       -2 0.22418587E-01 0.46528903E+03</pdfrwt>
<totfact> 0.17689758E+03</totfact>
</mgrwt>
</event>
<event>
 4    1  0.1390278E-004  0.3189113E+03  0.7818608E-02  0.1076151E+00
          2   -1    0    0  501    0  0.00000000000E+00  0.00000000000E+00  0.20525403937E+03  0.20525403939E+03  0.25500000000E-02 0.  1.
         -2   -1    0    0    0  501 -0.00000000000E+00 -0.00000000000E+00 -0.12387629129E+03  0.12387629132E+03  0.25500000000E-02 0. -1.
    5000001    1    1    2    0    0  0.21725843837E+02  0.88390335368E+02  0.73524166137E+02  0.17268371864E+03  0.12700000000E+03 0.  0.
   -5000001    1    1    2    0    0 -0.21725843837E+02 -0.88390335368E+02  0.78535819443E+01  0.15644661206E+03  0.12700000000E+03 0.  0.
<mgrwt>
<rscale>  0 0.31891133E+03</rscale>
<asrwt>0</asrwt>
<pdfrwt beam="1">  1        2 0.29322006E-01 0.31891133E+03</pdfrwt>
<pdfrwt beam="2">  1       -2 0.17696613E-01 0.31891133E+03</pdfrwt>
<totfact> 0.46630171E+03</totfact>
</mgrwt>
</event>
<event>
 4    1  0.1390278E-004  0.6247934E+03  0.7818608E-02  0.9855262E-01
         -2   -1    0    0    0  501 -0.00000000000E+00  0.00000000000E+00  0.65726789592E+02  0.65726789641E+02  0.25500000000E-02 0. -1.
          2   -1    0    0  501    0  0.00000000000E+00 -0.00000000000E+00 -0.14848085675E+04  0.14848085675E+04  0.25500000000E-02 0.  1.
    5000001    1    1    2    0    0  0.19674983926E+03 -0.18164329407E+03 -0.46439548966E+03  0.55090557843E+03  0.12700000000E+03 0.  0.
   -5000001    1    1    2    0    0 -0.19674983926E+03  0.18164329407E+03 -0.95468628830E+03  0.99962977877E+03  0.12700000000E+03 0.  0.
<mgrwt>
<rscale>  0 0.62479341E+03</rscale>
<asrwt>0</asrwt>
<pdfrwt beam="1">  1        2 0.21211549E+00 0.62479341E+03</pdfrwt>
<pdfrwt beam="2">  1       -2 0.93895423E-02 0.62479341E+03</pdfrwt>
<totfact> 0.11478754E+03</totfact>
</mgrwt>
</event>
<event>
 4    1  0.1390278E-004  0.3304293E+03  0.7818608E-02  0.1070947E+00
          2   -1    0    0  501    0  0.00000000000E+00  0.00000000000E+00  0.20472046065E+03  0.20472046067E+03  0.25500000000E-02 0.  1.
         -2   -1    0    0    0  501 -0.00000000000E+00 -0.00000000000E+00 -0.13333244452E+03  0.13333244455E+03  0.25500000000E-02 0. -1.
    5000001    1    1    2    0    0  0.49152318625E+02 -0.69691217669E+02 -0.28148160458E+02  0.15554464048E+03  0.12700000000E+03 0.  0.
   -5000001    1    1    2    0    0 -0.49152318625E+02  0.69691217669E+02  0.99536176588E+02  0.18250826473E+03  0.12700000000E+03 0.  0.
<mgrwt>
<rscale>  0 0.33042929E+03</rscale>
<asrwt>0</asrwt>
<pdfrwt beam="1">  1        2 0.29245780E-01 0.33042929E+03</pdfrwt>
<pdfrwt beam="2">  1       -2 0.19047492E-01 0.33042929E+03</pdfrwt>
<totfact> 0.41315486E+03</totfact>
</mgrwt>
</event>
<event>
 4    1  0.1390278E-004  0.3845597E+03  0.7818608E-02  0.1049261E+00
          2   -1    0    0  501    0  0.00000000000E+00  0.00000000000E+00  0.72999111545E+03  0.72999111546E+03  0.25500000000E-02 0.  1.
         -2   -1    0    0    0  501 -0.00000000000E+00 -0.00000000000E+00 -0.50646571940E+02  0.50646572004E+02  0.25500000000E-02 0. -1.
    5000001    1    1    2    0    0  0.42309283863E+02  0.13318284598E+03  0.26606583123E+03  0.32626334841E+03  0.12700000000E+03 0.  0.
   -5000001    1    1    2    0    0 -0.42309283863E+02 -0.13318284598E+03  0.41327871228E+03  0.45437433906E+03  0.12700000000E+03 0.  0.
<mgrwt>
<rscale>  0 0.38455974E+03</rscale>
<asrwt>0</asrwt>
<pdfrwt beam="1">  1        2 0.10428444E+00 0.38455974E+03</pdfrwt>
<pdfrwt beam="2">  1       -2 0.72352251E-02 0.38455974E+03</pdfrwt>
<totfact> 0.48592983E+03</totfact>
</mgrwt>
</event>
<event>
 4    1  0.1390278E-004  0.7475812E+03  0.7818608E-02  0.9639153E-01
          2   -1    0    0  501    0  0.00000000000E+00  0.00000000000E+00  0.42986846019E+04  0.42986846019E+04  0.25500000000E-02 0.  1.
         -2   -1    0    0    0  501 -0.00000000000E+00 -0.00000000000E+00 -0.32502830050E+02  0.32502830150E+02  0.25500000000E-02 0. -1.
    5000001    1    1    2    0    0  0.25706759470E+03  0.23544966660E+03  0.23966915642E+04  0.24252380807E+04  0.12700000000E+03 0.  0.
   -5000001    1    1    2    0    0 -0.25706759470E+03 -0.23544966660E+03  0.18694902076E+04  0.19059493514E+04  0.12700000000E+03 0.  0.
<mgrwt>
<rscale>  0 0.74758121E+03</rscale>
<asrwt>0</asrwt>
<pdfrwt beam="1">  1        2 0.61409756E+00 0.74758121E+03</pdfrwt>
<pdfrwt beam="2">  1       -2 0.46432633E-02 0.74758121E+03</pdfrwt>
<totfact> 0.88696513E+01</totfact>
</mgrwt>
</event>
<event>
 4    1  0.1390278E-004  0.4131027E+03  0.7818608E-02  0.1039335E+00
          2   -1    0    0  501    0  0.00000000000E+00  0.00000000000E+00  0.50472552129E+03  0.50472552130E+03  0.25500000000E-02 0.  1.
         -2   -1    0    0    0  501 -0.00000000000E+00 -0.00000000000E+00 -0.84528028163E+02  0.84528028202E+02  0.25500000000E-02 0. -1.
    5000001    1    1    2    0    0  0.47707244094E+02  0.13792105465E+03  0.31331654434E+03  0.36823152420E+03  0.12700000000E+03 0.  0.
   -5000001    1    1    2    0    0 -0.47707244094E+02 -0.13792105465E+03  0.10688094879E+03  0.22102202530E+03  0.12700000000E+03 0.  0.
<mgrwt>
<rscale>  0 0.41310267E+03</rscale>
<asrwt>0</asrwt>
<pdfrwt beam="1">  1        2 0.72103645E-01 0.41310267E+03</pdfrwt>
<pdfrwt beam="2">  1       -2 0.12075433E-01 0.41310267E+03</pdfrwt>
<totfact> 0.33005781E+03</totfact>
</mgrwt>
</event>
<event>
 4    1  0.1390278E-004  0.5362091E+03  0.7818608E-02  0.1004737E+00
         -2   -1    0    0    0  501 -0.00000000000E+00  0.00000000000E+00  0.98854305466E+02  0.98854305499E+02  0.25500000000E-02 0. -1.
          2   -1    0    0  501    0  0.00000000000E+00 -0.00000000000E+00 -0.72713115285E+03  0.72713115286E+03  0.25500000000E-02 0.  1.
    5000001    1    1    2    0    0 -0.35805497277E+02  0.20874232194E+03 -0.15334625336E+03  0.29068791516E+03  0.12700000000E+03 0.  0.
   -5000001    1    1    2    0    0  0.35805497277E+02 -0.20874232194E+03 -0.47493059403E+03  0.53529754319E+03  0.12700000000E+03 0.  0.
<mgrwt>
<rscale>  0 0.53620908E+03</rscale>
<asrwt>0</asrwt>
<pdfrwt beam="1">  1        2 0.10387588E+00 0.53620908E+03</pdfrwt>
<pdfrwt beam="2">  1       -2 0.14122044E-01 0.53620908E+03</pdfrwt>
<totfact> 0.16644061E+03</totfact>
</mgrwt>
</event>
<event>
 4    1  0.1390278E-004  0.6022856E+03  0.7818608E-02  0.9900675E-01
          2   -1    0    0  501    0  0.00000000000E+00  0.00000000000E+00  0.18366231334E+03  0.18366231336E+03  0.25500000000E-02 0.  1.
         -2   -1    0    0    0  501 -0.00000000000E+00 -0.00000000000E+00 -0.49377026796E+03  0.49377026796E+03  0.25500000000E-02 0. -1.
    5000001    1    1    2    0    0  0.64016243419E+02  0.16563411366E+03  0.78251694155E+02  0.23191607678E+03  0.12700000000E+03 0.  0.
   -5000001    1    1    2    0    0 -0.64016243419E+02 -0.16563411366E+03 -0.38835964877E+03  0.44551650455E+03  0.12700000000E+03 0.  0.
<mgrwt>
<rscale>  0 0.60228561E+03</rscale>
<asrwt>0</asrwt>
<pdfrwt beam="1">  1        2 0.26237474E-01 0.60228561E+03</pdfrwt>
<pdfrwt beam="2">  1       -2 0.70538609E-01 0.60228561E+03</pdfrwt>
<totfact> 0.38261644E+02</totfact>
</mgrwt>
</event>
<event>
 4    1  0.1390278E-004  0.5275654E+03  0.7818608E-02  0.1006824E+00
         -2   -1    0    0    0  501 -0.00000000000E+00  0.00000000000E+00  0.20184538339E+02  0.20184538500E+02  0.25500000000E-02 0. -1.
          2   -1    0    0  501    0  0.00000000000E+00 -0.00000000000E+00 -0.34472582224E+04  0.34472582224E+04  0.25500000000E-02 0.  1.
    5000001    1    1    2    0    0  0.18034452388E+03 -0.55631731063E+02 -0.25912418789E+04  0.26012078948E+04  0.12700000000E+03 0.  0.
   -5000001    1    1    2    0    0 -0.18034452388E+03  0.55631731063E+02 -0.83583180513E+03  0.86623486611E+03  0.12700000000E+03 0.  0.
<mgrwt>
<rscale>  0 0.52756541E+03</rscale>
<asrwt>0</asrwt>
<pdfrwt beam="1">  1        2 0.49246508E+00 0.52756541E+03</pdfrwt>
<pdfrwt beam="2">  1       -2 0.28835077E-02 0.52756541E+03</pdfrwt>
<totfact> 0.67866881E+02</totfact>
</mgrwt>
</event>
<event>
 4    1  0.1390278E-004  0.5415705E+03  0.7818608E-02  0.1003464E+00
         -2   -1    0    0    0  501 -0.00000000000E+00  0.00000000000E+00  0.63003484775E+02  0.63003484827E+02  0.25500000000E-02 0. -1.
          2   -1    0    0  501    0  0.00000000000E+00 -0.00000000000E+00 -0.11638191613E+04  0.11638191613E+04  0.25500000000E-02 0.  1.
    5000001    1    1    2    0    0  0.21241883992E+03  0.10765648160E+03 -0.50057208525E+03  0.56869420088E+03  0.12700000000E+03 0.  0.
   -5000001    1    1    2    0    0 -0.21241883992E+03 -0.10765648160E+03 -0.60024359128E+03  0.65812844526E+03  0.12700000000E+03 0.  0.
<mgrwt>
<rscale>  0 0.54157054E+03</rscale>
<asrwt>0</asrwt>
<pdfrwt beam="1">  1        2 0.16625987E+00 0.54157054E+03</pdfrwt>
<pdfrwt beam="2">  1       -2 0.90004986E-02 0.54157054E+03</pdfrwt>
<totfact> 0.18375788E+03</totfact>
</mgrwt>
</event>
<event>
 4    1  0.1390278E-004  0.3200812E+03  0.7818608E-02  0.1075612E+00
          2   -1    0    0  501    0  0.00000000000E+00  0.00000000000E+00  0.13818974482E+04  0.13818974482E+04  0.25500000000E-02 0.  1.
         -2   -1    0    0    0  501 -0.00000000000E+00 -0.00000000000E+00 -0.18534657638E+02  0.18534657813E+02  0.25500000000E-02 0. -1.
    5000001    1    1    2    0    0 -0.91995993399E+02 -0.94503317405E+01  0.54815235330E+03  0.57022151309E+03  0.12700000000E+03 0.  0.
   -5000001    1    1    2    0    0  0.91995993399E+02  0.94503317405E+01  0.81521043728E+03  0.83021059294E+03  0.12700000000E+03 0.  0.
<mgrwt>
<rscale>  0 0.32008122E+03</rscale>
<asrwt>0</asrwt>
<pdfrwt beam="1">  1        2 0.19741396E+00 0.32008122E+03</pdfrwt>
<pdfrwt beam="2">  1       -2 0.26478078E-02 0.32008122E+03</pdfrwt>
<totfact> 0.91808210E+03</totfact>
</mgrwt>
</event>
<event>
 4    1  0.1390278E-004  0.4024394E+03  0.7818608E-02  0.1042938E+00
         -2   -1    0    0    0  501 -0.00000000000E+00  0.00000000000E+00  0.27690098486E+02  0.27690098604E+02  0.25500000000E-02 0. -1.
          2   -1    0    0  501    0  0.00000000000E+00 -0.00000000000E+00 -0.14622329699E+04  0.14622329699E+04  0.25500000000E-02 0.  1.
    5000001    1    1    2    0    0 -0.11406008250E+03  0.11859417447E+02 -0.32528897210E+03  0.36754899479E+03  0.12700000000E+03 0.  0.
   -5000001    1    1    2    0    0  0.11406008250E+03 -0.11859417447E+02 -0.11092538993E+04  0.11223740737E+04  0.12700000000E+03 0.  0.
<mgrwt>
<rscale>  0 0.40243944E+03</rscale>
<asrwt>0</asrwt>
<pdfrwt beam="1">  1        2 0.20889038E+00 0.40243944E+03</pdfrwt>
<pdfrwt beam="2">  1       -2 0.39557293E-02 0.40243944E+03</pdfrwt>
<totfact> 0.45736054E+03</totfact>
</mgrwt>
</event>
<event>
 4    1  0.1390278E-004  0.3275389E+03  0.7818608E-02  0.1072231E+00
         -2   -1    0    0    0  501 -0.00000000000E+00  0.00000000000E+00  0.84067070070E+02  0.84067070108E+02  0.25500000000E-02 0. -1.
          2   -1    0    0  501    0  0.00000000000E+00 -0.00000000000E+00 -0.31903616334E+03  0.31903616335E+03  0.25500000000E-02 0.  1.
    5000001    1    1    2    0    0 -0.45857208083E+02  0.88508282577E+02 -0.83671862776E+02  0.18184218498E+03  0.12700000000E+03 0.  0.
   -5000001    1    1    2    0    0  0.45857208083E+02 -0.88508282577E+02 -0.15129723049E+03  0.22126104847E+03  0.12700000000E+03 0.  0.
<mgrwt>
<rscale>  0 0.32753892E+03</rscale>
<asrwt>0</asrwt>
<pdfrwt beam="1">  1        2 0.45576594E-01 0.32753892E+03</pdfrwt>
<pdfrwt beam="2">  1       -2 0.12009582E-01 0.32753892E+03</pdfrwt>
<totfact> 0.54790271E+03</totfact>
</mgrwt>
</event>
<event>
 4    1  0.1390278E-004  0.5061470E+03  0.7818608E-02  0.1012187E+00
         -2   -1    0    0    0  501 -0.00000000000E+00  0.00000000000E+00  0.75609204593E+02  0.75609204636E+02  0.25500000000E-02 0. -1.
          2   -1    0    0  501    0  0.00000000000E+00 -0.00000000000E+00 -0.84706881366E+03  0.84706881366E+03  0.25500000000E-02 0.  1.
    5000001    1    1    2    0    0 -0.68552356709E+02  0.12937797535E+03 -0.89092876409E+02  0.21331813506E+03  0.12700000000E+03 0.  0.
   -5000001    1    1    2    0    0  0.68552356709E+02 -0.12937797535E+03 -0.68236673266E+03  0.70935988324E+03  0.12700000000E+03 0.  0.
<mgrwt>
<rscale>  0 0.50614701E+03</rscale>
<asrwt>0</asrwt>
<pdfrwt beam="1">  1        2 0.12100983E+00 0.50614701E+03</pdfrwt>
<pdfrwt beam="2">  1       -2 0.10801315E-01 0.50614701E+03</pdfrwt>
<totfact> 0.21337245E+03</totfact>
</mgrwt>
</event>
<event>
 4    1  0.1390278E-004  0.3924927E+03  0.7818608E-02  0.1046411E+00
          2   -1    0    0  501    0  0.00000000000E+00  0.00000000000E+00  0.23689270175E+04  0.23689270175E+04  0.25500000000E-02 0.  1.
         -2   -1    0    0    0  501 -0.00000000000E+00 -0.00000000000E+00 -0.16257418139E+02  0.16257418339E+02  0.25500000000E-02 0. -1.
    5000001    1    1    2    0    0  0.53679829816E+02  0.13952821855E+03  0.11409055385E+04  0.11576459285E+04  0.12700000000E+03 0.  0.
   -5000001    1    1    2    0    0 -0.53679829816E+02 -0.13952821855E+03  0.12117640608E+04  0.12275385073E+04  0.12700000000E+03 0.  0.
<mgrwt>
<rscale>  0 0.39249274E+03</rscale>
<asrwt>0</asrwt>
<pdfrwt beam="1">  1        2 0.33841799E+00 0.39249274E+03</pdfrwt>
<pdfrwt beam="2">  1       -2 0.23224894E-02 0.39249274E+03</pdfrwt>
<totfact> 0.35941698E+03</totfact>
</mgrwt>
</event>
<event>
 4    1  0.1390278E-004  0.5580893E+03  0.7818608E-02  0.9996387E-01
         -2   -1    0    0    0  501 -0.00000000000E+00  0.00000000000E+00  0.36459982825E+03  0.36459982826E+03  0.25500000000E-02 0. -1.
          2   -1    0    0  501    0  0.00000000000E+00 -0.00000000000E+00 -0.21356545698E+03  0.21356545699E+03  0.25500000000E-02 0.  1.
    5000001    1    1    2    0    0 -0.14500123934E+03  0.19428340809E+03  0.13193278594E+03  0.30382011466E+03  0.12700000000E+03 0.  0.
   -5000001    1    1    2    0    0  0.14500123934E+03 -0.19428340809E+03  0.19101585339E+02  0.27434517060E+03  0.12700000000E+03 0.  0.
<mgrwt>
<rscale>  0 0.55808934E+03</rscale>
<asrwt>0</asrwt>
<pdfrwt beam="1">  1        2 0.30509351E-01 0.55808934E+03</pdfrwt>
<pdfrwt beam="2">  1       -2 0.52085690E-01 0.55808934E+03</pdfrwt>
<totfact> 0.61177305E+02</totfact>
</mgrwt>
</event>
<event>
 4    1  0.1390278E-004  0.4825514E+03  0.7818608E-02  0.1018436E+00
         -2   -1    0    0    0  501 -0.00000000000E+00  0.00000000000E+00  0.13422736706E+03  0.13422736708E+03  0.25500000000E-02 0. -1.
          2   -1    0    0  501    0  0.00000000000E+00 -0.00000000000E+00 -0.43369672156E+03  0.43369672157E+03  0.25500000000E-02 0.  1.
    5000001    1    1    2    0    0  0.48558757864E+02 -0.18772060628E+03 -0.70889954221E+02  0.24238680780E+03  0.12700000000E+03 0.  0.
   -5000001    1    1    2    0    0 -0.48558757864E+02  0.18772060628E+03 -0.22857940028E+03  0.32553728085E+03  0.12700000000E+03 0.  0.
<mgrwt>
<rscale>  0 0.48255142E+03</rscale>
<asrwt>0</asrwt>
<pdfrwt beam="1">  1        2 0.61956674E-01 0.48255142E+03</pdfrwt>
<pdfrwt beam="2">  1       -2 0.19175338E-01 0.48255142E+03</pdfrwt>
<totfact> 0.18043522E+03</totfact>
</mgrwt>
</event>
<event>
 4    1  0.1390278E-004  0.4543091E+03  0.7818608E-02  0.1026445E+00
          2   -1    0    0  501    0  0.00000000000E+00  0.00000000000E+00  0.16116235731E+04  0.16116235731E+04  0.25500000000E-02 0.  1.
         -2   -1    0    0    0  501 -0.00000000000E+00 -0.00000000000E+00 -0.32016900565E+02  0.32016900666E+02  0.25500000000E-02 0. -1.
    5000001    1    1    2    0    0 -0.16473299222E+03  0.10816525033E+02  0.11177414014E+04  0.11369823202E+04  0.12700000000E+03 0.  0.
   -5000001    1    1    2    0    0  0.16473299222E+03 -0.10816525033E+02  0.46186527112E+03  0.50665815360E+03  0.12700000000E+03 0.  0.
<mgrwt>
<rscale>  0 0.45430911E+03</rscale>
<asrwt>0</asrwt>
<pdfrwt beam="1">  1        2 0.23023192E+00 0.45430911E+03</pdfrwt>
<pdfrwt beam="2">  1       -2 0.45738434E-02 0.45430911E+03</pdfrwt>
<totfact> 0.30720786E+03</totfact>
</mgrwt>
</event>
<event>
 4    1  0.1390278E-004  0.3732963E+03  0.7818608E-02  0.1053440E+00
          2   -1    0    0  501    0  0.00000000000E+00  0.00000000000E+00  0.32186155940E+03  0.32186155941E+03  0.25500000000E-02 0.  1.
         -2   -1    0    0    0  501 -0.00000000000E+00 -0.00000000000E+00 -0.10823760454E+03  0.10823760457E+03  0.25500000000E-02 0. -1.
    5000001    1    1    2    0    0  0.21552516615E+02  0.13035427678E+03  0.14757611204E+03  0.23529653055E+03  0.12700000000E+03 0.  0.
   -5000001    1    1    2    0    0 -0.21552516615E+02 -0.13035427678E+03  0.66047842829E+02  0.19480263342E+03  0.12700000000E+03 0.  0.
<mgrwt>
<rscale>  0 0.37329626E+03</rscale>
<asrwt>0</asrwt>
<pdfrwt beam="1">  1        2 0.45980223E-01 0.37329626E+03</pdfrwt>
<pdfrwt beam="2">  1       -2 0.15462515E-01 0.37329626E+03</pdfrwt>
<totfact> 0.35923349E+03</totfact>
</mgrwt>
</event>
<event>
 4    1  0.1390278E-004  0.3377255E+03  0.7818608E-02  0.1067769E+00
         -2   -1    0    0    0  501 -0.00000000000E+00  0.00000000000E+00  0.43650942683E+02  0.43650942757E+02  0.25500000000E-02 0. -1.
          2   -1    0    0  501    0  0.00000000000E+00 -0.00000000000E+00 -0.65324180373E+03  0.65324180374E+03  0.25500000000E-02 0.  1.
    5000001    1    1    2    0    0  0.84236926613E+02  0.26576980751E+02 -0.44449568835E+03  0.47064595257E+03  0.12700000000E+03 0.  0.
   -5000001    1    1    2    0    0 -0.84236926613E+02 -0.26576980751E+02 -0.16509517270E+03  0.22624679392E+03  0.12700000000E+03 0.  0.
<mgrwt>
<rscale>  0 0.33772545E+03</rscale>
<asrwt>0</asrwt>
<pdfrwt beam="1">  1        2 0.93320252E-01 0.33772545E+03</pdfrwt>
<pdfrwt beam="2">  1       -2 0.62358494E-02 0.33772545E+03</pdfrwt>
<totfact> 0.69733142E+03</totfact>
</mgrwt>
</event>
<event>
 4    1  0.1390278E-004  0.3536346E+03  0.7818608E-02  0.1061133E+00
         -2   -1    0    0    0  501 -0.00000000000E+00  0.00000000000E+00  0.39779958053E+02  0.39779958135E+02  0.25500000000E-02 0. -1.
          2   -1    0    0  501    0  0.00000000000E+00 -0.00000000000E+00 -0.78593229343E+03  0.78593229343E+03  0.25500000000E-02 0.  1.
    5000001    1    1    2    0    0  0.64623209472E+02 -0.10336769492E+03 -0.41174829887E+03  0.44780207813E+03  0.12700000000E+03 0.  0.
   -5000001    1    1    2    0    0 -0.64623209472E+02  0.10336769492E+03 -0.33440403651E+03  0.37791017344E+03  0.12700000000E+03 0.  0.
<mgrwt>
<rscale>  0 0.35363458E+03</rscale>
<asrwt>0</asrwt>
<pdfrwt beam="1">  1        2 0.11227603E+00 0.35363458E+03</pdfrwt>
<pdfrwt beam="2">  1       -2 0.56828517E-02 0.35363458E+03</pdfrwt>
<totfact> 0.64449126E+03</totfact>
</mgrwt>
</event>
<event>
 4    1  0.1390278E-004  0.3841397E+03  0.7818608E-02  0.1049414E+00
         -2   -1    0    0    0  501 -0.00000000000E+00  0.00000000000E+00  0.38504148878E+02  0.38504148963E+02  0.25500000000E-02 0. -1.
          2   -1    0    0  501    0  0.00000000000E+00 -0.00000000000E+00 -0.95810026686E+03  0.95810026687E+03  0.25500000000E-02 0.  1.
    5000001    1    1    2    0    0 -0.92160376307E+02  0.84306405356E+02 -0.64617370132E+03  0.67027647820E+03  0.12700000000E+03 0.  0.
   -5000001    1    1    2    0    0  0.92160376307E+02 -0.84306405356E+02 -0.27342241666E+03  0.32632793763E+03  0.12700000000E+03 0.  0.
<mgrwt>
<rscale>  0 0.38413974E+03</rscale>
<asrwt>0</asrwt>
<pdfrwt beam="1">  1        2 0.13687145E+00 0.38413974E+03</pdfrwt>
<pdfrwt beam="2">  1       -2 0.55005933E-02 0.38413974E+03</pdfrwt>
<totfact> 0.52527245E+03</totfact>
</mgrwt>
</event>
<event>
 4    1  0.1390278E-004  0.3074944E+03  0.7818608E-02  0.1081553E+00
         -2   -1    0    0    0  501 -0.00000000000E+00  0.00000000000E+00  0.10482632914E+02  0.10482633224E+02  0.25500000000E-02 0. -1.
          2   -1    0    0  501    0  0.00000000000E+00 -0.00000000000E+00 -0.22549871252E+04  0.22549871252E+04  0.25500000000E-02 0.  1.
    5000001    1    1    2    0    0 -0.75578755535E+02  0.35626813332E+02 -0.12915103074E+04  0.13004265809E+04  0.12700000000E+03 0.  0.
   -5000001    1    1    2    0    0  0.75578755535E+02 -0.35626813332E+02 -0.95299418492E+03  0.96504317759E+03  0.12700000000E+03 0.  0.
<mgrwt>
<rscale>  0 0.30749441E+03</rscale>
<asrwt>0</asrwt>
<pdfrwt beam="1">  1        2 0.32214071E+00 0.30749441E+03</pdfrwt>
<pdfrwt beam="2">  1       -2 0.14975204E-02 0.30749441E+03</pdfrwt>
<totfact> 0.78472778E+03</totfact>
</mgrwt>
</event>
<event>
 4    1  0.1390278E-004  0.5170815E+03  0.7818608E-02  0.1009414E+00
          2   -1    0    0  501    0  0.00000000000E+00  0.00000000000E+00  0.21791691590E+03  0.21791691592E+03  0.25500000000E-02 0.  1.
         -2   -1    0    0    0  501 -0.00000000000E+00 -0.00000000000E+00 -0.30673765427E+03  0.30673765428E+03  0.25500000000E-02 0. -1.
    5000001    1    1    2    0    0  0.10410587675E+03 -0.13239115396E+03 -0.19609523600E+03  0.28800658465E+03  0.12700000000E+03 0.  0.
   -5000001    1    1    2    0    0 -0.10410587675E+03  0.13239115396E+03  0.10727449763E+03  0.23664798554E+03  0.12700000000E+03 0.  0.
<mgrwt>
<rscale>  0 0.51708152E+03</rscale>
<asrwt>0</asrwt>
<pdfrwt beam="1">  1        2 0.31130988E-01 0.51708152E+03</pdfrwt>
<pdfrwt beam="2">  1       -2 0.43819665E-01 0.51708152E+03</pdfrwt>
<totfact> 0.84592184E+02</totfact>
</mgrwt>
</event>
<event>
 4    1  0.1390278E-004  0.3434703E+03  0.7818608E-02  0.1065327E+00
          2   -1    0    0  501    0  0.00000000000E+00  0.00000000000E+00  0.15130135535E+03  0.15130135537E+03  0.25500000000E-02 0.  1.
         -2   -1    0    0    0  501 -0.00000000000E+00 -0.00000000000E+00 -0.19492865022E+03  0.19492865024E+03  0.25500000000E-02 0. -1.
    5000001    1    1    2    0    0 -0.51612179856E+02  0.10182264195E+03 -0.40189249789E+02  0.17543045152E+03  0.12700000000E+03 0.  0.
   -5000001    1    1    2    0    0  0.51612179856E+02 -0.10182264195E+03 -0.34380450789E+01  0.17079955409E+03  0.12700000000E+03 0.  0.
<mgrwt>
<rscale>  0 0.34347034E+03</rscale>
<asrwt>0</asrwt>
<pdfrwt beam="1">  1        2 0.21614479E-01 0.34347034E+03</pdfrwt>
<pdfrwt beam="2">  1       -2 0.27846950E-01 0.34347034E+03</pdfrwt>
<totfact> 0.29854323E+03</totfact>
</mgrwt>
</event>
<event>
 4    1  0.1390278E-004  0.3957145E+03  0.7818608E-02  0.1045274E+00
         -2   -1    0    0    0  501 -0.00000000000E+00  0.00000000000E+00  0.11869272799E+03  0.11869272802E+03  0.25500000000E-02 0. -1.
          2   -1    0    0  501    0  0.00000000000E+00 -0.00000000000E+00 -0.32982218538E+03  0.32982218539E+03  0.25500000000E-02 0.  1.
    5000001    1    1    2    0    0 -0.89390516034E+02 -0.60664554438E+02 -0.22630377059E+03  0.28109295456E+03  0.12700000000E+03 0.  0.
   -5000001    1    1    2    0    0  0.89390516034E+02  0.60664554438E+02  0.15174313195E+02  0.16742195884E+03  0.12700000000E+03 0.  0.
<mgrwt>
<rscale>  0 0.39571452E+03</rscale>
<asrwt>0</asrwt>
<pdfrwt beam="1">  1        2 0.47117455E-01 0.39571452E+03</pdfrwt>
<pdfrwt beam="2">  1       -2 0.16956104E-01 0.39571452E+03</pdfrwt>
<totfact> 0.29995359E+03</totfact>
</mgrwt>
</event>
<event>
 4    1  0.1390278E-004  0.8319195E+03  0.7818608E-02  0.9514930E-01
         -2   -1    0    0    0  501 -0.00000000000E+00  0.00000000000E+00  0.38775415044E+03  0.38775415045E+03  0.25500000000E-02 0. -1.
          2   -1    0    0  501    0  0.00000000000E+00 -0.00000000000E+00 -0.44621707426E+03  0.44621707427E+03  0.25500000000E-02 0.  1.
    5000001    1    1    2    0    0 -0.36974154015E+03  0.12579266567E+03  0.36968673117E+02  0.41234486057E+03  0.12700000000E+03 0.  0.
   -5000001    1    1    2    0    0  0.36974154015E+03 -0.12579266567E+03 -0.95431596938E+02  0.42162636414E+03  0.12700000000E+03 0.  0.
<mgrwt>
<rscale>  0 0.83191952E+03</rscale>
<asrwt>0</asrwt>
<pdfrwt beam="1">  1        2 0.63745296E-01 0.83191952E+03</pdfrwt>
<pdfrwt beam="2">  1       -2 0.55393450E-01 0.83191952E+03</pdfrwt>
<totfact> 0.23554048E+02</totfact>
</mgrwt>
</event>
<event>
 4    1  0.1390278E-004  0.5335959E+03  0.7818608E-02  0.1005364E+00
          2   -1    0    0  501    0  0.00000000000E+00  0.00000000000E+00  0.38729360369E+03  0.38729360370E+03  0.25500000000E-02 0.  1.
         -2   -1    0    0    0  501 -0.00000000000E+00 -0.00000000000E+00 -0.18379116177E+03  0.18379116178E+03  0.25500000000E-02 0. -1.
    5000001    1    1    2    0    0 -0.19778322449E+03  0.13014878375E+02 -0.32627004116E+02  0.23765755268E+03  0.12700000000E+03 0.  0.
   -5000001    1    1    2    0    0  0.19778322449E+03 -0.13014878375E+02  0.23612944604E+03  0.33342721280E+03  0.12700000000E+03 0.  0.
<mgrwt>
<rscale>  0 0.53359588E+03</rscale>
<asrwt>0</asrwt>
<pdfrwt beam="1">  1        2 0.55327657E-01 0.53359588E+03</pdfrwt>
<pdfrwt beam="2">  1       -2 0.26255881E-01 0.53359588E+03</pdfrwt>
<totfact> 0.11756549E+03</totfact>
</mgrwt>
</event>
<event>
 4    1  0.1390278E-004  0.3888737E+03  0.7818608E-02  0.1047702E+00
         -2   -1    0    0    0  501 -0.00000000000E+00  0.00000000000E+00  0.19776065623E+02  0.19776065788E+02  0.25500000000E-02 0. -1.
          2   -1    0    0  501    0  0.00000000000E+00 -0.00000000000E+00 -0.19116890602E+04  0.19116890602E+04  0.25500000000E-02 0.  1.
    5000001    1    1    2    0    0 -0.12249493735E+03  0.20366401508E+02 -0.55307868128E+03  0.58090001521E+03  0.12700000000E+03 0.  0.
   -5000001    1    1    2    0    0  0.12249493735E+03 -0.20366401508E+02 -0.13388343133E+04  0.13505651107E+04  0.12700000000E+03 0.  0.
<mgrwt>
<rscale>  0 0.38887370E+03</rscale>
<asrwt>0</asrwt>
<pdfrwt beam="1">  1        2 0.27309832E+00 0.38887370E+03</pdfrwt>
<pdfrwt beam="2">  1       -2 0.28251535E-02 0.38887370E+03</pdfrwt>
<totfact> 0.45193832E+03</totfact>
</mgrwt>
</event>
<event>
 4    1  0.1390278E-004  0.3612895E+03  0.7818608E-02  0.1058074E+00
         -2   -1    0    0    0  501 -0.00000000000E+00  0.00000000000E+00  0.17143509491E+03  0.17143509493E+03  0.25500000000E-02 0. -1.
          2   -1    0    0  501    0  0.00000000000E+00 -0.00000000000E+00 -0.19034918545E+03  0.19034918546E+03  0.25500000000E-02 0.  1.
    5000001    1    1    2    0    0  0.39922845692E+02  0.12204755203E+03 -0.13216132595E+02  0.18108866537E+03  0.12700000000E+03 0.  0.
   -5000001    1    1    2    0    0 -0.39922845692E+02 -0.12204755203E+03 -0.56979579378E+01  0.18069561503E+03  0.12700000000E+03 0.  0.
<mgrwt>
<rscale>  0 0.36128953E+03</rscale>
<asrwt>0</asrwt>
<pdfrwt beam="1">  1        2 0.27192741E-01 0.36128953E+03</pdfrwt>
<pdfrwt beam="2">  1       -2 0.24490728E-01 0.36128953E+03</pdfrwt>
<totfact> 0.29002936E+03</totfact>
</mgrwt>
</event>
<event>
 4    1  0.1390278E-004  0.3204813E+03  0.7818608E-02  0.1075428E+00
          2   -1    0    0  501    0  0.00000000000E+00  0.00000000000E+00  0.12668667423E+04  0.12668667423E+04  0.25500000000E-02 0.  1.
         -2   -1    0    0    0  501 -0.00000000000E+00 -0.00000000000E+00 -0.20268172004E+02  0.20268172165E+02  0.25500000000E-02 0. -1.
    5000001    1    1    2    0    0 -0.90775945433E+02 -0.19436009792E+02  0.50081716650E+03  0.52494272545E+03  0.12700000000E+03 0.  0.
   -5000001    1    1    2    0    0  0.90775945433E+02  0.19436009792E+02  0.74578140381E+03  0.76219218903E+03  0.12700000000E+03 0.  0.
<mgrwt>
<rscale>  0 0.32048135E+03</rscale>
<asrwt>0</asrwt>
<pdfrwt beam="1">  1        2 0.18098094E+00 0.32048135E+03</pdfrwt>
<pdfrwt beam="2">  1       -2 0.28954535E-02 0.32048135E+03</pdfrwt>
<totfact> 0.92389865E+03</totfact>
</mgrwt>
</event>
<event>
 4    1  0.1390278E-004  0.4613251E+03  0.7818608E-02  0.1024398E+00
         -2   -1    0    0    0  501 -0.00000000000E+00  0.00000000000E+00  0.28488111306E+02  0.28488111420E+02  0.25500000000E-02 0. -1.
          2   -1    0    0  501    0  0.00000000000E+00 -0.00000000000E+00 -0.18676288412E+04  0.18676288412E+04  0.25500000000E-02 0.  1.
    5000001    1    1    2    0    0  0.55353450841E+02  0.15092625913E+03 -0.48394301947E+03  0.52552125200E+03  0.12700000000E+03 0.  0.
   -5000001    1    1    2    0    0 -0.55353450841E+02 -0.15092625913E+03 -0.13551977104E+04  0.13705957006E+04  0.12700000000E+03 0.  0.
<mgrwt>
<rscale>  0 0.46132513E+03</rscale>
<asrwt>0</asrwt>
<pdfrwt beam="1">  1        2 0.26680404E+00 0.46132513E+03</pdfrwt>
<pdfrwt beam="2">  1       -2 0.40697314E-02 0.46132513E+03</pdfrwt>
<totfact> 0.27315379E+03</totfact>
</mgrwt>
</event>
<event>
 4    1  0.1390278E-004  0.7302153E+03  0.7818608E-02  0.9666911E-01
          2   -1    0    0  501    0  0.00000000000E+00  0.00000000000E+00  0.19216517773E+04  0.19216517773E+04  0.25500000000E-02 0.  1.
         -2   -1    0    0    0  501 -0.00000000000E+00 -0.00000000000E+00 -0.69369286969E+02  0.69369287016E+02  0.25500000000E-02 0. -1.
    5000001    1    1    2    0    0  0.20505504035E+03 -0.24946923846E+03  0.12357316250E+04  0.12835279972E+04  0.12700000000E+03 0.  0.
   -5000001    1    1    2    0    0 -0.20505504035E+03  0.24946923846E+03  0.61655086532E+03  0.70749306713E+03  0.12700000000E+03 0.  0.
<mgrwt>
<rscale>  0 0.73021535E+03</rscale>
<asrwt>0</asrwt>
<pdfrwt beam="1">  1        2 0.27452169E+00 0.73021535E+03</pdfrwt>
<pdfrwt beam="2">  1       -2 0.99098978E-02 0.73021535E+03</pdfrwt>
<totfact> 0.62517701E+02</totfact>
</mgrwt>
</event>
<event>
 4    1  0.1390278E-004  0.5214064E+03  0.7818608E-02  0.1008338E+00
          2   -1    0    0  501    0  0.00000000000E+00  0.00000000000E+00  0.17654904379E+04  0.17654904379E+04  0.25500000000E-02 0.  1.
         -2   -1    0    0    0  501 -0.00000000000E+00 -0.00000000000E+00 -0.38497037389E+02  0.38497037473E+02  0.25500000000E-02 0. -1.
    5000001    1    1    2    0    0 -0.21869858132E+03  0.12068835672E+02  0.64847255786E+03  0.69614681251E+03  0.12700000000E+03 0.  0.
   -5000001    1    1    2    0    0  0.21869858132E+03 -0.12068835672E+02  0.10785208426E+04  0.11078406628E+04  0.12700000000E+03 0.  0.
<mgrwt>
<rscale>  0 0.52140637E+03</rscale>
<asrwt>0</asrwt>
<pdfrwt beam="1">  1        2 0.25221300E+00 0.52140637E+03</pdfrwt>
<pdfrwt beam="2">  1       -2 0.54995749E-02 0.52140637E+03</pdfrwt>
<totfact> 0.19289957E+03</totfact>
</mgrwt>
</event>
<event>
 4    1  0.1390278E-004  0.4423173E+03  0.7818608E-02  0.1030038E+00
         -2   -1    0    0    0  501 -0.00000000000E+00  0.00000000000E+00  0.22163770464E+02  0.22163770610E+02  0.25500000000E-02 0. -1.
          2   -1    0    0  501    0  0.00000000000E+00 -0.00000000000E+00 -0.22068066395E+04  0.22068066395E+04  0.25500000000E-02 0.  1.
    5000001    1    1    2    0    0  0.98357111187E+02  0.14643525726E+03 -0.88671113419E+03  0.91296387737E+03  0.12700000000E+03 0.  0.
   -5000001    1    1    2    0    0 -0.98357111187E+02 -0.14643525726E+03 -0.12979317349E+04  0.13160065328E+04  0.12700000000E+03 0.  0.
<mgrwt>
<rscale>  0 0.44231733E+03</rscale>
<asrwt>0</asrwt>
<pdfrwt beam="1">  1        2 0.31525795E+00 0.44231733E+03</pdfrwt>
<pdfrwt beam="2">  1       -2 0.31662543E-02 0.44231733E+03</pdfrwt>
<totfact> 0.27138006E+03</totfact>
</mgrwt>
</event>
<event>
 4    1  0.1390278E-004  0.1005302E+04  0.7818608E-02  0.9302748E-01
          2   -1    0    0  501    0  0.00000000000E+00  0.00000000000E+00  0.78455009520E+03  0.78455009520E+03  0.25500000000E-02 0.  1.
         -2   -1    0    0    0  501 -0.00000000000E+00 -0.00000000000E+00 -0.32204219254E+03  0.32204219255E+03  0.25500000000E-02 0. -1.
    5000001    1    1    2    0    0 -0.89626806222E+02 -0.47728357081E+03  0.20220022706E+03  0.54115293881E+03  0.12700000000E+03 0.  0.
   -5000001    1    1    2    0    0  0.89626806222E+02  0.47728357081E+03  0.26030767560E+03  0.56543934895E+03  0.12700000000E+03 0.  0.
<mgrwt>
<rscale>  0 0.10053024E+04</rscale>
<asrwt>0</asrwt>
<pdfrwt beam="1">  1        2 0.11207859E+00 0.10053024E+04</pdfrwt>
<pdfrwt beam="2">  1       -2 0.46006028E-01 0.10053024E+04</pdfrwt>
<totfact> 0.17416867E+02</totfact>
</mgrwt>
</event>
<event>
 4    1  0.1390278E-004  0.2892145E+03  0.7818608E-02  0.1090760E+00
          2   -1    0    0  501    0  0.00000000000E+00  0.00000000000E+00  0.48626113350E+03  0.48626113350E+03  0.25500000000E-02 0.  1.
         -2   -1    0    0    0  501 -0.00000000000E+00 -0.00000000000E+00 -0.43004172618E+02  0.43004172693E+02  0.25500000000E-02 0. -1.
    5000001    1    1    2    0    0  0.50889697240E+02  0.45709160440E+02  0.20304067163E+03  0.24906545921E+03  0.12700000000E+03 0.  0.
   -5000001    1    1    2    0    0 -0.50889697240E+02 -0.45709160440E+02  0.24021628925E+03  0.28019984699E+03  0.12700000000E+03 0.  0.
<mgrwt>
<rscale>  0 0.28921451E+03</rscale>
<asrwt>0</asrwt>
<pdfrwt beam="1">  1        2 0.69465873E-01 0.28921451E+03</pdfrwt>
<pdfrwt beam="2">  1       -2 0.61434535E-02 0.28921451E+03</pdfrwt>
<totfact> 0.99255429E+03</totfact>
</mgrwt>
</event>
<event>
 4    1  0.1390278E-004  0.3182389E+03  0.7818608E-02  0.1076463E+00
         -2   -1    0    0    0  501 -0.00000000000E+00  0.00000000000E+00  0.11842335175E+02  0.11842335450E+02  0.25500000000E-02 0. -1.
          2   -1    0    0  501    0  0.00000000000E+00 -0.00000000000E+00 -0.21380070629E+04  0.21380070629E+04  0.25500000000E-02 0.  1.
    5000001    1    1    2    0    0 -0.76455759769E+02 -0.48722283084E+02 -0.85261407039E+03  0.86677511333E+03  0.12700000000E+03 0.  0.
   -5000001    1    1    2    0    0  0.76455759769E+02  0.48722283084E+02 -0.12735506573E+04  0.12830742850E+04  0.12700000000E+03 0.  0.
<mgrwt>
<rscale>  0 0.31823888E+03</rscale>
<asrwt>0</asrwt>
<pdfrwt beam="1">  1        2 0.30542933E+00 0.31823888E+03</pdfrwt>
<pdfrwt beam="2">  1       -2 0.16917636E-02 0.31823888E+03</pdfrwt>
<totfact> 0.74898236E+03</totfact>
</mgrwt>
</event>
<event>
 4    1  0.1390278E-004  0.6312904E+03  0.7818608E-02  0.9842534E-01
         -2   -1    0    0    0  501 -0.00000000000E+00  0.00000000000E+00  0.31987142675E+02  0.31987142776E+02  0.25500000000E-02 0. -1.
          2   -1    0    0  501    0  0.00000000000E+00 -0.00000000000E+00 -0.31147482913E+04  0.31147482913E+04  0.25500000000E-02 0.  1.
    5000001    1    1    2    0    0  0.79045792959E+02  0.24218109408E+03 -0.86151621595E+03  0.90732525043E+03  0.12700000000E+03 0.  0.
   -5000001    1    1    2    0    0 -0.79045792959E+02 -0.24218109408E+03 -0.22212449327E+04  0.22394101837E+04  0.12700000000E+03 0.  0.
<mgrwt>
<rscale>  0 0.63129042E+03</rscale>
<asrwt>0</asrwt>
<pdfrwt beam="1">  1        2 0.44496385E+00 0.63129042E+03</pdfrwt>
<pdfrwt beam="2">  1       -2 0.45695938E-02 0.63129042E+03</pdfrwt>
<totfact> 0.51311496E+02</totfact>
</mgrwt>
</event>
<event>
 4    1  0.1390278E-004  0.2920041E+03  0.7818608E-02  0.1089307E+00
          2   -1    0    0  501    0  0.00000000000E+00  0.00000000000E+00  0.77328016428E+03  0.77328016428E+03  0.25500000000E-02 0.  1.
         -2   -1    0    0    0  501 -0.00000000000E+00 -0.00000000000E+00 -0.27566459847E+02  0.27566459965E+02  0.25500000000E-02 0. -1.
    5000001    1    1    2    0    0  0.31294401207E+02  0.61060147620E+02  0.43293863298E+03  0.45636886517E+03  0.12700000000E+03 0.  0.
   -5000001    1    1    2    0    0 -0.31294401207E+02 -0.61060147620E+02  0.31277507145E+03  0.34447775907E+03  0.12700000000E+03 0.  0.
<mgrwt>
<rscale>  0 0.29200409E+03</rscale>
<asrwt>0</asrwt>
<pdfrwt beam="1">  1        2 0.11046858E+00 0.29200409E+03</pdfrwt>
<pdfrwt beam="2">  1       -2 0.39380664E-02 0.29200409E+03</pdfrwt>
<totfact> 0.11427414E+04</totfact>
</mgrwt>
</event>
<event>
 4    1  0.1390278E-004  0.4009274E+03  0.7818608E-02  0.1043459E+00
          2   -1    0    0  501    0  0.00000000000E+00  0.00000000000E+00  0.92155959357E+03  0.92155959358E+03  0.25500000000E-02 0.  1.
         -2   -1    0    0    0  501 -0.00000000000E+00 -0.00000000000E+00 -0.43606172077E+02  0.43606172152E+02  0.25500000000E-02 0. -1.
    5000001    1    1    2    0    0 -0.14865451404E+03  0.44242827559E+02  0.44149455603E+03  0.48487321573E+03  0.12700000000E+03 0.  0.
   -5000001    1    1    2    0    0  0.14865451404E+03 -0.44242827559E+02  0.43645886547E+03  0.48029254999E+03  0.12700000000E+03 0.  0.
<mgrwt>
<rscale>  0 0.40092736E+03</rscale>
<asrwt>0</asrwt>
<pdfrwt beam="1">  1        2 0.13165136E+00 0.40092736E+03</pdfrwt>
<pdfrwt beam="2">  1       -2 0.62294537E-02 0.40092736E+03</pdfrwt>
<totfact> 0.45676645E+03</totfact>
</mgrwt>
</event>
<event>
 4    1  0.1390278E-004  0.3563714E+03  0.7818608E-02  0.1060030E+00
         -2   -1    0    0    0  501 -0.00000000000E+00  0.00000000000E+00  0.33907111467E+03  0.33907111468E+03  0.25500000000E-02 0. -1.
          2   -1    0    0  501    0  0.00000000000E+00 -0.00000000000E+00 -0.93638621188E+02  0.93638621223E+02  0.25500000000E-02 0.  1.
    5000001    1    1    2    0    0 -0.24651112403E+01 -0.97570350067E+02  0.27921505198E+02  0.16258739323E+03  0.12700000000E+03 0.  0.
   -5000001    1    1    2    0    0  0.24651112403E+01  0.97570350067E+02  0.21751098829E+03  0.27012234267E+03  0.12700000000E+03 0.  0.
<mgrwt>
<rscale>  0 0.35637144E+03</rscale>
<asrwt>0</asrwt>
<pdfrwt beam="1">  1        2 0.13376946E-01 0.35637144E+03</pdfrwt>
<pdfrwt beam="2">  1       -2 0.48438730E-01 0.35637144E+03</pdfrwt>
<totfact> 0.18423078E+03</totfact>
</mgrwt>
</event>
<event>
 4    1  0.1390278E-004  0.3489192E+03  0.7818608E-02  0.1063060E+00
          2   -1    0    0  501    0  0.00000000000E+00  0.00000000000E+00  0.68733511266E+03  0.68733511267E+03  0.25500000000E-02 0.  1.
         -2   -1    0    0    0  501 -0.00000000000E+00 -0.00000000000E+00 -0.44281390166E+02  0.44281390239E+02  0.25500000000E-02 0. -1.
    5000001    1    1    2    0    0 -0.80092772329E+02  0.48471152349E+02  0.47763485905E+03  0.50301924751E+03  0.12700000000E+03 0.  0.
   -5000001    1    1    2    0    0  0.80092772329E+02 -0.48471152349E+02  0.16541886345E+03  0.22859725540E+03  0.12700000000E+03 0.  0.
<mgrwt>
<rscale>  0 0.34891921E+03</rscale>
<asrwt>0</asrwt>
<pdfrwt beam="1">  1        2 0.98190731E-01 0.34891921E+03</pdfrwt>
<pdfrwt beam="2">  1       -2 0.63259129E-02 0.34891921E+03</pdfrwt>
<totfact> 0.64271542E+03</totfact>
</mgrwt>
</event>
<event>
 4    1  0.1390278E-004  0.3762113E+03  0.7818608E-02  0.1052343E+00
          2   -1    0    0  501    0  0.00000000000E+00  0.00000000000E+00  0.10992865833E+04  0.10992865833E+04  0.25500000000E-02 0.  1.
         -2   -1    0    0    0  501 -0.00000000000E+00 -0.00000000000E+00 -0.32187910632E+02  0.32187910733E+02  0.25500000000E-02 0. -1.
    5000001    1    1    2    0    0 -0.70876856953E+02 -0.11840350055E+03  0.48977727701E+03  0.52445562145E+03  0.12700000000E+03 0.  0.
   -5000001    1    1    2    0    0  0.70876856953E+02  0.11840350055E+03  0.57732139569E+03  0.60701887262E+03  0.12700000000E+03 0.  0.
<mgrwt>
<rscale>  0 0.37621131E+03</rscale>
<asrwt>0</asrwt>
<pdfrwt beam="1">  1        2 0.15704094E+00 0.37621131E+03</pdfrwt>
<pdfrwt beam="2">  1       -2 0.45982730E-02 0.37621131E+03</pdfrwt>
<totfact> 0.57046546E+03</totfact>
</mgrwt>
</event>
<event>
 4    1  0.1390278E-004  0.3945041E+03  0.7818608E-02  0.1045700E+00
          2   -1    0    0  501    0  0.00000000000E+00  0.00000000000E+00  0.31103514145E+03  0.31103514146E+03  0.25500000000E-02 0.  1.
         -2   -1    0    0    0  501 -0.00000000000E+00 -0.00000000000E+00 -0.12509316103E+03  0.12509316106E+03  0.25500000000E-02 0. -1.
    5000001    1    1    2    0    0  0.14388061435E+03 -0.76633138693E+01  0.43296644400E+02  0.19688564443E+03  0.12700000000E+03 0.  0.
   -5000001    1    1    2    0    0 -0.14388061435E+03  0.76633138693E+01  0.14264533602E+03  0.23924265809E+03  0.12700000000E+03 0.  0.
<mgrwt>
<rscale>  0 0.39450409E+03</rscale>
<asrwt>0</asrwt>
<pdfrwt beam="1">  1        2 0.44433591E-01 0.39450409E+03</pdfrwt>
<pdfrwt beam="2">  1       -2 0.17870452E-01 0.39450409E+03</pdfrwt>
<totfact> 0.29248556E+03</totfact>
</mgrwt>
</event>
<event>
 4    1  0.1390278E-004  0.4786578E+03  0.7818608E-02  0.1019505E+00
         -2   -1    0    0    0  501 -0.00000000000E+00  0.00000000000E+00  0.15367124377E+03  0.15367124379E+03  0.25500000000E-02 0. -1.
          2   -1    0    0  501    0  0.00000000000E+00 -0.00000000000E+00 -0.37273284438E+03  0.37273284439E+03  0.25500000000E-02 0.  1.
    5000001    1    1    2    0    0 -0.10740696055E+03  0.17153939980E+03 -0.94479924083E+02  0.25693866372E+03  0.12700000000E+03 0.  0.
   -5000001    1    1    2    0    0  0.10740696055E+03 -0.17153939980E+03 -0.12458167652E+03  0.26946542447E+03  0.12700000000E+03 0.  0.
<mgrwt>
<rscale>  0 0.47865779E+03</rscale>
<asrwt>0</asrwt>
<pdfrwt beam="1">  1        2 0.53247549E-01 0.47865779E+03</pdfrwt>
<pdfrwt beam="2">  1       -2 0.21953035E-01 0.47865779E+03</pdfrwt>
<totfact> 0.16857522E+03</totfact>
</mgrwt>
</event>
<event>
 4    1  0.1390278E-004  0.3871581E+03  0.7818608E-02  0.1048319E+00
         -2   -1    0    0    0  501 -0.00000000000E+00  0.00000000000E+00  0.57157812098E+02  0.57157812155E+02  0.25500000000E-02 0. -1.
          2   -1    0    0  501    0  0.00000000000E+00 -0.00000000000E+00 -0.65560319353E+03  0.65560319354E+03  0.25500000000E-02 0.  1.
    5000001    1    1    2    0    0  0.57496393503E+02  0.81844570257E+02 -0.49526602753E+03  0.52098158026E+03  0.12700000000E+03 0.  0.
   -5000001    1    1    2    0    0 -0.57496393503E+02 -0.81844570257E+02 -0.10317935390E+03  0.19177942543E+03  0.12700000000E+03 0.  0.
<mgrwt>
<rscale>  0 0.38715808E+03</rscale>
<asrwt>0</asrwt>
<pdfrwt beam="1">  1        2 0.93657594E-01 0.38715808E+03</pdfrwt>
<pdfrwt beam="2">  1       -2 0.81654022E-02 0.38715808E+03</pdfrwt>
<totfact> 0.45713387E+03</totfact>
</mgrwt>
</event>
<event>
 4    1  0.1390278E-004  0.8169916E+03  0.7818608E-02  0.9535743E-01
          2   -1    0    0  501    0  0.00000000000E+00  0.00000000000E+00  0.10203983963E+03  0.10203983966E+03  0.25500000000E-02 0.  1.
         -2   -1    0    0    0  501 -0.00000000000E+00 -0.00000000000E+00 -0.16353300686E+04  0.16353300686E+04  0.25500000000E-02 0. -1.
    5000001    1    1    2    0    0 -0.31534748100E+03 -0.96121156343E+02 -0.33053987240E+03  0.48380669457E+03  0.12700000000E+03 0.  0.
   -5000001    1    1    2    0    0  0.31534748100E+03  0.96121156343E+02 -0.12027503566E+04  0.12535632137E+04  0.12700000000E+03 0.  0.
<mgrwt>
<rscale>  0 0.81699160E+03</rscale>
<asrwt>0</asrwt>
<pdfrwt beam="1">  1        2 0.14577121E-01 0.81699160E+03</pdfrwt>
<pdfrwt beam="2">  1       -2 0.23361857E+00 0.81699160E+03</pdfrwt>
<totfact> 0.34354650E+01</totfact>
</mgrwt>
</event>
<event>
 4    1  0.1390278E-004  0.5011937E+03  0.7818608E-02  0.1013468E+00
          2   -1    0    0  501    0  0.00000000000E+00  0.00000000000E+00  0.20493448010E+04  0.20493448010E+04  0.25500000000E-02 0.  1.
         -2   -1    0    0    0  501 -0.00000000000E+00 -0.00000000000E+00 -0.30643348657E+02  0.30643348764E+02  0.25500000000E-02 0. -1.
    5000001    1    1    2    0    0  0.49543605861E+02  0.21022623309E+03  0.99072186196E+03  0.10219141088E+04  0.12700000000E+03 0.  0.
   -5000001    1    1    2    0    0 -0.49543605861E+02 -0.21022623309E+03  0.10279795903E+04  0.10580740409E+04  0.12700000000E+03 0.  0.
<mgrwt>
<rscale>  0 0.50119372E+03</rscale>
<asrwt>0</asrwt>
<pdfrwt beam="1">  1        2 0.29276366E+00 0.50119372E+03</pdfrwt>
<pdfrwt beam="2">  1       -2 0.43776195E-02 0.50119372E+03</pdfrwt>
<totfact> 0.19800499E+03</totfact>
</mgrwt>
</event>
<event>
 4    1  0.1390278E-004  0.3072291E+03  0.7818608E-02  0.1081682E+00
         -2   -1    0    0    0  501 -0.00000000000E+00  0.00000000000E+00  0.28869638839E+03  0.28869638840E+03  0.25500000000E-02 0. -1.
          2   -1    0    0  501    0  0.00000000000E+00 -0.00000000000E+00 -0.81737885237E+02  0.81737885277E+02  0.25500000000E-02 0.  1.
    5000001    1    1    2    0    0  0.14343800300E+02  0.83042613073E+02  0.12656543688E+03  0.19811519378E+03  0.12700000000E+03 0.  0.
   -5000001    1    1    2    0    0 -0.14343800300E+02 -0.83042613073E+02  0.80393066276E+02  0.17231907990E+03  0.12700000000E+03 0.  0.
<mgrwt>
<rscale>  0 0.30722911E+03</rscale>
<asrwt>0</asrwt>
<pdfrwt beam="1">  1        2 0.11676841E-01 0.30722911E+03</pdfrwt>
<pdfrwt beam="2">  1       -2 0.41242340E-01 0.30722911E+03</pdfrwt>
<totfact> 0.29694809E+03</totfact>
</mgrwt>
</event>
<event>
 4    1  0.1390278E-004  0.2886315E+03  0.7818608E-02  0.1091066E+00
         -2   -1    0    0    0  501 -0.00000000000E+00  0.00000000000E+00  0.35054664463E+02  0.35054664555E+02  0.25500000000E-02 0. -1.
          2   -1    0    0  501    0  0.00000000000E+00 -0.00000000000E+00 -0.59413013530E+03  0.59413013531E+03  0.25500000000E-02 0.  1.
    5000001    1    1    2    0    0 -0.24212401823E+02  0.30097635729E+02 -0.40296501960E+03  0.42426632567E+03  0.12700000000E+03 0.  0.
   -5000001    1    1    2    0    0  0.24212401823E+02 -0.30097635729E+02 -0.15611045124E+03  0.20491847419E+03  0.12700000000E+03 0.  0.
<mgrwt>
<rscale>  0 0.28863148E+03</rscale>
<asrwt>0</asrwt>
<pdfrwt beam="1">  1        2 0.84875728E-01 0.28863148E+03</pdfrwt>
<pdfrwt beam="2">  1       -2 0.50078096E-02 0.28863148E+03</pdfrwt>
<totfact> 0.10837549E+04</totfact>
</mgrwt>
</event>
