<event>
 4    1  0.4090208E+000  0.4352245E+03  0.7546771E-02  0.1032222E+00
         21   -1    0    0  501  502  0.00000000000E+00  0.00000000000E+00  0.23199958080E+03  0.23199958080E+03  0.00000000000E+00 0. -1.
         21   -1    0    0  502  503 -0.00000000000E+00 -0.00000000000E+00 -0.89875913971E+03  0.89875913971E+03  0.00000000000E+00 0.  1.
          6    1    1    2  501    0  0.37955859504E+03  0.12420399321E+03 -0.16230207902E+03  0.46450223235E+03  0.17300000000E+03 0.  1.
         -6    1    1    2    0  503 -0.37955859504E+03 -0.12420399321E+03 -0.50445747989E+03  0.66625648816E+03  0.17300000000E+03 0.  1.
<mgrwt>
<rscale>  2 0.43522449E+03</rscale>
<asrwt>0</asrwt>
<pdfrwt beam="1">  1       21 0.35692244E-01 0.43522449E+03</pdfrwt>
<pdfrwt beam="2">  1       21 0.13827063E+00 0.43522449E+03</pdfrwt>
<totfact> 0.24223167E+03</totfact>
</mgrwt>
</event>
<event>
 4    1  0.4090208E+000  0.1738457E+03  0.7546771E-02  0.1173896E+00
         21   -1    0    0  503  502  0.00000000000E+00  0.00000000000E+00  0.29765778322E+03  0.29765778322E+03  0.00000000000E+00 0. -1.
         21   -1    0    0  501  503 -0.00000000000E+00 -0.00000000000E+00 -0.10917159086E+03  0.10917159086E+03  0.00000000000E+00 0. -1.
          6    1    1    2  501    0 -0.16859787635E+02 -0.30103557181E+01  0.40439360127E+02  0.17848713267E+03  0.17300000000E+03 0. -1.
         -6    1    1    2    0  502  0.16859787635E+02  0.30103557181E+01  0.14804683223E+03  0.22834224142E+03  0.17300000000E+03 0. -1.
<mgrwt>
<rscale>  2 0.17384566E+03</rscale>
<asrwt>0</asrwt>
<pdfrwt beam="1">  1       21 0.45793505E-01 0.17384566E+03</pdfrwt>
<pdfrwt beam="2">  1       21 0.16795629E-01 0.17384566E+03</pdfrwt>
<totfact> 0.14673034E+05</totfact>
</mgrwt>
</event>
<event>
 4    1  0.4090208E+000  0.2901050E+03  0.7546771E-02  0.1090294E+00
         21   -1    0    0  501  502  0.00000000000E+00  0.00000000000E+00  0.41971372053E+03  0.41971372053E+03  0.00000000000E+00 0.  1.
         21   -1    0    0  502  503 -0.00000000000E+00 -0.00000000000E+00 -0.22447988490E+03  0.22447988490E+03  0.00000000000E+00 0. -1.
          6    1    1    2  501    0  0.12040348692E+03 -0.19933621977E+03 -0.76135522125E+01  0.29020491786E+03  0.17300000000E+03 0. -1.
         -6    1    1    2    0  503 -0.12040348692E+03  0.19933621977E+03  0.20284738784E+03  0.35398868757E+03  0.17300000000E+03 0.  1.
<mgrwt>
<rscale>  2 0.29010503E+03</rscale>
<asrwt>0</asrwt>
<pdfrwt beam="1">  1       21 0.64571342E-01 0.29010503E+03</pdfrwt>
<pdfrwt beam="2">  1       21 0.34535367E-01 0.29010503E+03</pdfrwt>
<totfact> 0.16983199E+04</totfact>
</mgrwt>
</event>
<event>
 4    1  0.4090208E+000  0.1959511E+03  0.7546771E-02  0.1153201E+00
         21   -1    0    0  503  502  0.00000000000E+00  0.00000000000E+00  0.37473417073E+03  0.37473417073E+03  0.00000000000E+00 0. -1.
         21   -1    0    0  501  503 -0.00000000000E+00 -0.00000000000E+00 -0.10246417836E+03  0.10246417836E+03  0.00000000000E+00 0.  1.
          6    1    1    2  501    0  0.88127908076E+02  0.26482081277E+02  0.13614706228E+03  0.23860605897E+03  0.17300000000E+03 0. -1.
         -6    1    1    2    0  502 -0.88127908076E+02 -0.26482081277E+02  0.13612293008E+03  0.23859229012E+03  0.17300000000E+03 0.  1.
<mgrwt>
<rscale>  2 0.19595109E+03</rscale>
<asrwt>0</asrwt>
<pdfrwt beam="1">  1       21 0.57651410E-01 0.19595109E+03</pdfrwt>
<pdfrwt beam="2">  1       21 0.15763720E-01 0.19595109E+03</pdfrwt>
<totfact> 0.10099433E+05</totfact>
</mgrwt>
</event>
<event>
 4    1  0.4090208E+000  0.1994482E+03  0.7546771E-02  0.1150205E+00
         21   -1    0    0  501  502  0.00000000000E+00  0.00000000000E+00  0.75138994065E+02  0.75138994065E+02  0.00000000000E+00 0.  1.
         21   -1    0    0  502  503 -0.00000000000E+00 -0.00000000000E+00 -0.62250247659E+03  0.62250247659E+03  0.00000000000E+00 0.  1.
          6    1    1    2  501    0 -0.41683451507E+02  0.90072698464E+02 -0.13879142380E+03  0.24298695533E+03  0.17300000000E+03 0.  1.
         -6    1    1    2    0  503  0.41683451507E+02 -0.90072698464E+02 -0.40857205872E+03  0.45465451533E+03  0.17300000000E+03 0.  1.
<mgrwt>
<rscale>  2 0.19944824E+03</rscale>
<asrwt>0</asrwt>
<pdfrwt beam="1">  1       21 0.11559845E-01 0.19944824E+03</pdfrwt>
<pdfrwt beam="2">  1       21 0.95769615E-01 0.19944824E+03</pdfrwt>
<totfact> 0.56833163E+04</totfact>
</mgrwt>
</event>
<event>
 4    1  0.4090208E+000  0.4113042E+03  0.7546771E-02  0.1039934E+00
         21   -1    0    0  503  502  0.00000000000E+00  0.00000000000E+00  0.29424785286E+03  0.29424785286E+03  0.00000000000E+00 0. -1.
         21   -1    0    0  501  503 -0.00000000000E+00 -0.00000000000E+00 -0.77281134174E+03  0.77281134174E+03  0.00000000000E+00 0.  1.
          6    1    1    2  501    0  0.78557648058E+02 -0.36478871788E+03  0.30695524363E+02  0.41244797003E+03  0.17300000000E+03 0. -1.
         -6    1    1    2    0  502 -0.78557648058E+02  0.36478871788E+03 -0.50925901325E+03  0.65461122457E+03  0.17300000000E+03 0.  1.
<mgrwt>
<rscale>  2 0.41130416E+03</rscale>
<asrwt>0</asrwt>
<pdfrwt beam="1">  1       21 0.45268901E-01 0.41130416E+03</pdfrwt>
<pdfrwt beam="2">  1       21 0.11889405E+00 0.41130416E+03</pdfrwt>
<totfact> 0.22143570E+03</totfact>
</mgrwt>
</event>
<event>
 4    1  0.4090208E+000  0.2088016E+03  0.7546771E-02  0.1142519E+00
         21   -1    0    0  501  502  0.00000000000E+00  0.00000000000E+00  0.47303608134E+03  0.47303608134E+03  0.00000000000E+00 0.  1.
         21   -1    0    0  502  503 -0.00000000000E+00 -0.00000000000E+00 -0.94500851624E+02  0.94500851624E+02  0.00000000000E+00 0.  1.
          6    1    1    2  501    0  0.90462175846E+02 -0.74065580655E+02  0.14466889151E+03  0.25402205350E+03  0.17300000000E+03 0.  1.
         -6    1    1    2    0  503 -0.90462175846E+02  0.74065580655E+02  0.23386633821E+03  0.31351487946E+03  0.17300000000E+03 0.  1.
<mgrwt>
<rscale>  2 0.20880162E+03</rscale>
<asrwt>0</asrwt>
<pdfrwt beam="1">  1       21 0.72774780E-01 0.20880162E+03</pdfrwt>
<pdfrwt beam="2">  1       21 0.14538593E-01 0.20880162E+03</pdfrwt>
<totfact> 0.70080799E+04</totfact>
</mgrwt>
</event>
<event>
 4    1  0.4090208E+000  0.1998255E+03  0.7546771E-02  0.1149886E+00
         21   -1    0    0  503  502  0.00000000000E+00  0.00000000000E+00  0.29172164014E+03  0.29172164014E+03  0.00000000000E+00 0. -1.
         21   -1    0    0  501  503 -0.00000000000E+00 -0.00000000000E+00 -0.18718334512E+03  0.18718334512E+03  0.00000000000E+00 0. -1.
          6    1    1    2  501    0 -0.22067254195E+02  0.97541049130E+02 -0.71865677330E+02  0.21235558752E+03  0.17300000000E+03 0. -1.
         -6    1    1    2    0  502  0.22067254195E+02 -0.97541049130E+02  0.17640397235E+03  0.26654939774E+03  0.17300000000E+03 0. -1.
<mgrwt>
<rscale>  2 0.19982547E+03</rscale>
<asrwt>0</asrwt>
<pdfrwt beam="1">  1       21 0.44880252E-01 0.19982547E+03</pdfrwt>
<pdfrwt beam="2">  1       21 0.28797438E-01 0.19982547E+03</pdfrwt>
<totfact> 0.54789315E+04</totfact>
</mgrwt>
</event>
<event>
 4    1  0.4090208E+000  0.2484947E+03  0.7546771E-02  0.1114260E+00
         21   -1    0    0  501  502  0.00000000000E+00  0.00000000000E+00  0.52033718299E+03  0.52033718299E+03  0.00000000000E+00 0.  1.
         21   -1    0    0  502  503 -0.00000000000E+00 -0.00000000000E+00 -0.13001734319E+03  0.13001734319E+03  0.00000000000E+00 0.  1.
          6    1    1    2  501    0  0.17682490535E+03  0.23527676477E+02  0.29121559534E+03  0.38282649030E+03  0.17300000000E+03 0.  1.
         -6    1    1    2    0  503 -0.17682490535E+03 -0.23527676477E+02  0.99104244464E+02  0.26752803588E+03  0.17300000000E+03 0.  1.
<mgrwt>
<rscale>  2 0.24849467E+03</rscale>
<asrwt>0</asrwt>
<pdfrwt beam="1">  1       21 0.80051873E-01 0.24849467E+03</pdfrwt>
<pdfrwt beam="2">  1       21 0.20002669E-01 0.24849467E+03</pdfrwt>
<totfact> 0.30806491E+04</totfact>
</mgrwt>
</event>
<event>
 4    1  0.4090208E+000  0.1774803E+03  0.7546771E-02  0.1170264E+00
         21   -1    0    0  503  502  0.00000000000E+00  0.00000000000E+00  0.82047172166E+03  0.82047172166E+03  0.00000000000E+00 0.  1.
         21   -1    0    0  501  503 -0.00000000000E+00 -0.00000000000E+00 -0.64830635886E+02  0.64830635886E+02  0.00000000000E+00 0.  1.
          6    1    1    2  501    0 -0.18462473762E+02 -0.35062529751E+02  0.95141199718E+02  0.20137301660E+03  0.17300000000E+03 0.  1.
         -6    1    1    2    0  502  0.18462473762E+02  0.35062529751E+02  0.66049988606E+03  0.68392934095E+03  0.17300000000E+03 0.  1.
<mgrwt>
<rscale>  2 0.17748026E+03</rscale>
<asrwt>0</asrwt>
<pdfrwt beam="1">  1       21 0.12622641E+00 0.17748026E+03</pdfrwt>
<pdfrwt beam="2">  1       21 0.99739446E-02 0.17748026E+03</pdfrwt>
<totfact> 0.38273748E+04</totfact>
</mgrwt>
</event>
<event>
 4    1  0.4090208E+000  0.1998161E+03  0.7546771E-02  0.1149894E+00
         21   -1    0    0  501  502  0.00000000000E+00  0.00000000000E+00  0.17069698904E+03  0.17069698904E+03  0.00000000000E+00 0. -1.
         21   -1    0    0  502  503 -0.00000000000E+00 -0.00000000000E+00 -0.42439637737E+03  0.42439637737E+03  0.00000000000E+00 0. -1.
          6    1    1    2  501    0 -0.13051309338E+02 -0.99131941950E+02 -0.32619665359E+03  0.38253200572E+03  0.17300000000E+03 0. -1.
         -6    1    1    2    0  503  0.13051309338E+02  0.99131941950E+02  0.72497265256E+02  0.21256136069E+03  0.17300000000E+03 0. -1.
<mgrwt>
<rscale>  2 0.19981611E+03</rscale>
<asrwt>0</asrwt>
<pdfrwt beam="1">  1       21 0.26261075E-01 0.19981611E+03</pdfrwt>
<pdfrwt beam="2">  1       21 0.65291750E-01 0.19981611E+03</pdfrwt>
<totfact> 0.29634710E+04</totfact>
</mgrwt>
</event>
<event>
 4    1  0.4090208E+000  0.1949214E+03  0.7546771E-02  0.1154096E+00
         21   -1    0    0  503  502  0.00000000000E+00  0.00000000000E+00  0.47569885603E+02  0.47569885603E+02  0.00000000000E+00 0. -1.
         21   -1    0    0  501  503 -0.00000000000E+00 -0.00000000000E+00 -0.88712034664E+03  0.88712034664E+03  0.00000000000E+00 0. -1.
          6    1    1    2  501    0 -0.34727247374E+02  0.82821367211E+02 -0.56731442937E+03  0.59986667047E+03  0.17300000000E+03 0. -1.
         -6    1    1    2    0  502  0.34727247374E+02 -0.82821367211E+02 -0.27223603167E+03  0.33482356177E+03  0.17300000000E+03 0. -1.
<mgrwt>
<rscale>  2 0.19492142E+03</rscale>
<asrwt>0</asrwt>
<pdfrwt beam="1">  1       21 0.73184444E-02 0.19492142E+03</pdfrwt>
<pdfrwt beam="2">  1       21 0.13648004E+00 0.19492142E+03</pdfrwt>
<totfact> 0.53450849E+04</totfact>
</mgrwt>
</event>
<event>
 4    1  0.4090208E+000  0.2940321E+03  0.7546771E-02  0.1088263E+00
         21   -1    0    0  503  502  0.00000000000E+00  0.00000000000E+00  0.44958036834E+03  0.44958036834E+03  0.00000000000E+00 0.  1.
         21   -1    0    0  501  503 -0.00000000000E+00 -0.00000000000E+00 -0.12854627335E+04  0.12854627335E+04  0.00000000000E+00 0.  1.
          6    1    1    2  501    0  0.18496481648E+03 -0.14937841600E+03 -0.12179461348E+04  0.12529356256E+04  0.17300000000E+03 0.  1.
         -6    1    1    2    0  502 -0.18496481648E+03  0.14937841600E+03  0.38206376971E+03  0.48210747622E+03  0.17300000000E+03 0.  1.
<mgrwt>
<rscale>  2 0.29403213E+03</rscale>
<asrwt>0</asrwt>
<pdfrwt beam="1">  1       21 0.69166211E-01 0.29403213E+03</pdfrwt>
<pdfrwt beam="2">  1       21 0.19776349E+00 0.29403213E+03</pdfrwt>
<totfact> 0.23727438E+02</totfact>
</mgrwt>
</event>
<event>
 4    1  0.4090208E+000  0.2580466E+03  0.7546771E-02  0.1108323E+00
         21   -1    0    0  501  502  0.00000000000E+00  0.00000000000E+00  0.18798292824E+03  0.18798292824E+03  0.00000000000E+00 0. -1.
         21   -1    0    0  502  503 -0.00000000000E+00 -0.00000000000E+00 -0.87416330440E+03  0.87416330440E+03  0.00000000000E+00 0. -1.
          6    1    1    2  501    0  0.90614878812E+02  0.16866529739E+03  0.66485730176E+02  0.26647399709E+03  0.17300000000E+03 0. -1.
         -6    1    1    2    0  503 -0.90614878812E+02 -0.16866529739E+03 -0.75266610634E+03  0.79567223556E+03  0.17300000000E+03 0. -1.
<mgrwt>
<rscale>  2 0.25804658E+03</rscale>
<asrwt>0</asrwt>
<pdfrwt beam="1">  1       21 0.28920451E-01 0.25804658E+03</pdfrwt>
<pdfrwt beam="2">  1       21 0.13448666E+00 0.25804658E+03</pdfrwt>
<totfact> 0.43240886E+03</totfact>
</mgrwt>
</event>
<event>
 4    1  0.4090208E+000  0.2322513E+03  0.7546771E-02  0.1125065E+00
         21   -1    0    0  503  502  0.00000000000E+00  0.00000000000E+00  0.53117902780E+03  0.53117902780E+03  0.00000000000E+00 0. -1.
         21   -1    0    0  501  503 -0.00000000000E+00 -0.00000000000E+00 -0.11941642053E+03  0.11941642053E+03  0.00000000000E+00 0.  1.
          6    1    1    2  501    0 -0.41827391548E+02  0.14920503996E+03  0.80052377689E+02  0.24566045226E+03  0.17300000000E+03 0.  1.
         -6    1    1    2    0  502  0.41827391548E+02 -0.14920503996E+03  0.33171022958E+03  0.40493499607E+03  0.17300000000E+03 0. -1.
<mgrwt>
<rscale>  2 0.23225132E+03</rscale>
<asrwt>0</asrwt>
<pdfrwt beam="1">  1       21 0.81719849E-01 0.23225132E+03</pdfrwt>
<pdfrwt beam="2">  1       21 0.18371757E-01 0.23225132E+03</pdfrwt>
<totfact> 0.34717247E+04</totfact>
</mgrwt>
</event>
<event>
 4    1  0.4090208E+000  0.2750863E+03  0.7546771E-02  0.1098403E+00
         21   -1    0    0  501  502  0.00000000000E+00  0.00000000000E+00  0.15556203128E+03  0.15556203128E+03  0.00000000000E+00 0.  1.
         21   -1    0    0  502  503 -0.00000000000E+00 -0.00000000000E+00 -0.49497335248E+03  0.49497335248E+03  0.00000000000E+00 0. -1.
          6    1    1    2  501    0  0.20804365408E+03 -0.49611788519E+02 -0.21239928929E+03  0.34754273069E+03  0.17300000000E+03 0.  1.
         -6    1    1    2    0  503 -0.20804365408E+03  0.49611788519E+02 -0.12701203190E+03  0.30299265307E+03  0.17300000000E+03 0. -1.
<mgrwt>
<rscale>  2 0.27508633E+03</rscale>
<asrwt>0</asrwt>
<pdfrwt beam="1">  1       21 0.23932620E-01 0.27508633E+03</pdfrwt>
<pdfrwt beam="2">  1       21 0.76149748E-01 0.27508633E+03</pdfrwt>
<totfact> 0.24265293E+04</totfact>
</mgrwt>
</event>
<event>
 4    1  0.4090208E+000  0.2603730E+03  0.7546771E-02  0.1106919E+00
         21   -1    0    0  503  502  0.00000000000E+00  0.00000000000E+00  0.15514288371E+03  0.15514288371E+03  0.00000000000E+00 0. -1.
         21   -1    0    0  501  503 -0.00000000000E+00 -0.00000000000E+00 -0.48655951543E+03  0.48655951543E+03  0.00000000000E+00 0. -1.
          6    1    1    2  501    0 -0.19345840193E+03  0.20951490287E+02 -0.26813025790E+03  0.37374851629E+03  0.17300000000E+03 0. -1.
         -6    1    1    2    0  502  0.19345840193E+03 -0.20951490287E+02 -0.63286373819E+02  0.26795388285E+03  0.17300000000E+03 0. -1.
<mgrwt>
<rscale>  2 0.26037304E+03</rscale>
<asrwt>0</asrwt>
<pdfrwt beam="1">  1       21 0.23868136E-01 0.26037304E+03</pdfrwt>
<pdfrwt beam="2">  1       21 0.74855309E-01 0.26037304E+03</pdfrwt>
<totfact> 0.25515416E+04</totfact>
</mgrwt>
</event>
<event>
 4    1  0.4090208E+000  0.1775766E+03  0.7546771E-02  0.1170169E+00
         21   -1    0    0  503  502  0.00000000000E+00  0.00000000000E+00  0.21644348974E+04  0.21644348974E+04  0.00000000000E+00 0. -1.
         21   -1    0    0  501  503 -0.00000000000E+00 -0.00000000000E+00 -0.19303481079E+02  0.19303481079E+02  0.00000000000E+00 0. -1.
          6    1    1    2  501    0 -0.38873090117E+02  0.96610009607E+01  0.53181982283E+03  0.56068331171E+03  0.17300000000E+03 0. -1.
         -6    1    1    2    0  502  0.38873090117E+02 -0.96610009607E+01  0.16133115935E+04  0.16230550668E+04  0.17300000000E+03 0. -1.
<mgrwt>
<rscale>  2 0.17757661E+03</rscale>
<asrwt>0</asrwt>
<pdfrwt beam="1">  1       21 0.33298979E+00 0.17757661E+03</pdfrwt>
<pdfrwt beam="2">  1       21 0.29697680E-02 0.17757661E+03</pdfrwt>
<totfact> 0.14405912E+04</totfact>
</mgrwt>
</event>
<event>
 4    1  0.4090208E+000  0.1740729E+03  0.7546771E-02  0.1173666E+00
         21   -1    0    0  501  502  0.00000000000E+00  0.00000000000E+00  0.14013526117E+03  0.14013526117E+03  0.00000000000E+00 0. -1.
         21   -1    0    0  502  503 -0.00000000000E+00 -0.00000000000E+00 -0.22286848090E+03  0.22286848090E+03  0.00000000000E+00 0. -1.
          6    1    1    2  501    0 -0.91661403730E+00  0.19275294699E+02 -0.10040421374E+02  0.17436222994E+03  0.17300000000E+03 0. -1.
         -6    1    1    2    0  503  0.91661403730E+00 -0.19275294699E+02 -0.72692798358E+02  0.18864151213E+03  0.17300000000E+03 0. -1.
<mgrwt>
<rscale>  2 0.17407291E+03</rscale>
<asrwt>0</asrwt>
<pdfrwt beam="1">  1       21 0.21559271E-01 0.17407291E+03</pdfrwt>
<pdfrwt beam="2">  1       21 0.34287459E-01 0.17407291E+03</pdfrwt>
<totfact> 0.16532569E+05</totfact>
</mgrwt>
</event>
<event>
 4    1  0.4090208E+000  0.1964177E+03  0.7546771E-02  0.1152797E+00
         21   -1    0    0  501  502  0.00000000000E+00  0.00000000000E+00  0.45001386790E+02  0.45001386790E+02  0.00000000000E+00 0. -1.
         21   -1    0    0  502  503 -0.00000000000E+00 -0.00000000000E+00 -0.11784494435E+04  0.11784494435E+04  0.00000000000E+00 0.  1.
          6    1    1    2  501    0 -0.60144689003E+02 -0.70947250227E+02 -0.24738535066E+03  0.31587878633E+03  0.17300000000E+03 0. -1.
         -6    1    1    2    0  503  0.60144689003E+02  0.70947250227E+02 -0.88606270600E+03  0.90757204392E+03  0.17300000000E+03 0.  1.
<mgrwt>
<rscale>  2 0.19641766E+03</rscale>
<asrwt>0</asrwt>
<pdfrwt beam="1">  1       21 0.69232904E-02 0.19641766E+03</pdfrwt>
<pdfrwt beam="2">  1       21 0.18129991E+00 0.19641766E+03</pdfrwt>
<totfact> 0.27417552E+04</totfact>
</mgrwt>
</event>
<event>
 4    1  0.4090208E+000  0.1768065E+03  0.7546771E-02  0.1170930E+00
         21   -1    0    0  501  502  0.00000000000E+00  0.00000000000E+00  0.19235254931E+03  0.19235254931E+03  0.00000000000E+00 0.  1.
         21   -1    0    0  502  503 -0.00000000000E+00 -0.00000000000E+00 -0.18745694994E+03  0.18745694994E+03  0.00000000000E+00 0.  1.
          6    1    1    2  501    0  0.27250489660E+01 -0.36388597726E+02 -0.66820255233E+02  0.18901191086E+03  0.17300000000E+03 0.  1.
         -6    1    1    2    0  503 -0.27250489660E+01  0.36388597726E+02  0.71715854606E+02  0.19079758840E+03  0.17300000000E+03 0.  1.
<mgrwt>
<rscale>  2 0.17680655E+03</rscale>
<asrwt>0</asrwt>
<pdfrwt beam="1">  1       21 0.29592700E-01 0.17680655E+03</pdfrwt>
<pdfrwt beam="2">  1       21 0.28839531E-01 0.17680655E+03</pdfrwt>
<totfact> 0.12660766E+05</totfact>
</mgrwt>
</event>
<event>
 4    1  0.4090208E+000  0.2620051E+03  0.7546771E-02  0.1105944E+00
         21   -1    0    0  503  502  0.00000000000E+00  0.00000000000E+00  0.11605301062E+03  0.11605301062E+03  0.00000000000E+00 0.  1.
         21   -1    0    0  501  503 -0.00000000000E+00 -0.00000000000E+00 -0.88681454136E+03  0.88681454136E+03  0.00000000000E+00 0.  1.
          6    1    1    2  501    0  0.73569807211E+02 -0.18249701908E+03 -0.67473591543E+03  0.72381989064E+03  0.17300000000E+03 0.  1.
         -6    1    1    2    0  502 -0.73569807211E+02  0.18249701908E+03 -0.96025615301E+02  0.27904766134E+03  0.17300000000E+03 0.  1.
<mgrwt>
<rscale>  2 0.26200511E+03</rscale>
<asrwt>0</asrwt>
<pdfrwt beam="1">  1       21 0.17854310E-01 0.26200511E+03</pdfrwt>
<pdfrwt beam="2">  1       21 0.13643300E+00 0.26200511E+03</pdfrwt>
<totfact> 0.10420916E+04</totfact>
</mgrwt>
</event>
<event>
 4    1  0.4090208E+000  0.2228486E+03  0.7546771E-02  0.1131777E+00
         21   -1    0    0  501  502  0.00000000000E+00  0.00000000000E+00  0.45495036074E+03  0.45495036074E+03  0.00000000000E+00 0.  1.
         21   -1    0    0  502  503 -0.00000000000E+00 -0.00000000000E+00 -0.11442742876E+03  0.11442742876E+03  0.00000000000E+00 0.  1.
          6    1    1    2  501    0  0.39800561940E+02 -0.13471597350E+03  0.10916914678E+03  0.24815193099E+03  0.17300000000E+03 0.  1.
         -6    1    1    2    0  503 -0.39800561940E+02  0.13471597350E+03  0.23135378520E+03  0.32122585851E+03  0.17300000000E+03 0.  1.
<mgrwt>
<rscale>  2 0.22284855E+03</rscale>
<asrwt>0</asrwt>
<pdfrwt beam="1">  1       21 0.69992362E-01 0.22284855E+03</pdfrwt>
<pdfrwt beam="2">  1       21 0.17604220E-01 0.22284855E+03</pdfrwt>
<totfact> 0.53451219E+04</totfact>
</mgrwt>
</event>
<event>
 4    1  0.4090208E+000  0.1792698E+03  0.7546771E-02  0.1168512E+00
         21   -1    0    0  501  502  0.00000000000E+00  0.00000000000E+00  0.67615270275E+03  0.67615270275E+03  0.00000000000E+00 0.  1.
         21   -1    0    0  502  503 -0.00000000000E+00 -0.00000000000E+00 -0.90533556737E+02  0.90533556737E+02  0.00000000000E+00 0. -1.
          6    1    1    2  501    0  0.16777554885E+02  0.43899437751E+02  0.55701045746E+03  0.58514809809E+03  0.17300000000E+03 0.  1.
         -6    1    1    2    0  503 -0.16777554885E+02 -0.43899437751E+02  0.28608688559E+02  0.18153816140E+03  0.17300000000E+03 0. -1.
<mgrwt>
<rscale>  2 0.17926976E+03</rscale>
<asrwt>0</asrwt>
<pdfrwt beam="1">  1       21 0.10402349E+00 0.17926976E+03</pdfrwt>
<pdfrwt beam="2">  1       21 0.13928240E-01 0.17926976E+03</pdfrwt>
<totfact> 0.33782939E+04</totfact>
</mgrwt>
</event>
<event>
 4    1  0.4090208E+000  0.2270845E+03  0.7546771E-02  0.1128709E+00
         21   -1    0    0  503  502  0.00000000000E+00  0.00000000000E+00  0.27368531337E+03  0.27368531337E+03  0.00000000000E+00 0.  1.
         21   -1    0    0  501  503 -0.00000000000E+00 -0.00000000000E+00 -0.19643979792E+03  0.19643979792E+03  0.00000000000E+00 0.  1.
          6    1    1    2  501    0 -0.26970087459E+02  0.14460635441E+03  0.86122399238E+02  0.24286714682E+03  0.17300000000E+03 0.  1.
         -6    1    1    2    0  502  0.26970087459E+02 -0.14460635441E+03 -0.88768837867E+01  0.22725796448E+03  0.17300000000E+03 0.  1.
<mgrwt>
<rscale>  2 0.22708453E+03</rscale>
<asrwt>0</asrwt>
<pdfrwt beam="1">  1       21 0.42105433E-01 0.22708453E+03</pdfrwt>
<pdfrwt beam="2">  1       21 0.30221507E-01 0.22708453E+03</pdfrwt>
<totfact> 0.56140774E+04</totfact>
</mgrwt>
</event>
<event>
 4    1  0.4090208E+000  0.1912990E+03  0.7546771E-02  0.1157295E+00
         21   -1    0    0  501  502  0.00000000000E+00  0.00000000000E+00  0.50957403780E+02  0.50957403780E+02  0.00000000000E+00 0.  1.
         21   -1    0    0  502  503 -0.00000000000E+00 -0.00000000000E+00 -0.90807533039E+03  0.90807533039E+03  0.00000000000E+00 0. -1.
          6    1    1    2  501    0  0.61806557598E+02  0.53350156891E+02 -0.20926394039E+03  0.28352546015E+03  0.17300000000E+03 0.  1.
         -6    1    1    2    0  503 -0.61806557598E+02 -0.53350156891E+02 -0.64785398622E+03  0.67550727403E+03  0.17300000000E+03 0. -1.
<mgrwt>
<rscale>  2 0.19129895E+03</rscale>
<asrwt>0</asrwt>
<pdfrwt beam="1">  1       21 0.78396013E-02 0.19129895E+03</pdfrwt>
<pdfrwt beam="2">  1       21 0.13970388E+00 0.19129895E+03</pdfrwt>
<totfact> 0.44759250E+04</totfact>
</mgrwt>
</event>
<event>
 4    1  0.4090208E+000  0.2426681E+03  0.7546771E-02  0.1118028E+00
         21   -1    0    0  501  502  0.00000000000E+00  0.00000000000E+00  0.26771067114E+03  0.26771067114E+03  0.00000000000E+00 0. -1.
         21   -1    0    0  502  503 -0.00000000000E+00 -0.00000000000E+00 -0.49752223603E+03  0.49752223603E+03  0.00000000000E+00 0. -1.
          6    1    1    2  501    0 -0.10438269885E+03  0.13439879670E+03  0.17087387674E+03  0.29679229459E+03  0.17300000000E+03 0. -1.
         -6    1    1    2    0  503  0.10438269885E+03 -0.13439879670E+03 -0.40068544163E+03  0.46844061258E+03  0.17300000000E+03 0. -1.
<mgrwt>
<rscale>  2 0.24266805E+03</rscale>
<asrwt>0</asrwt>
<pdfrwt beam="1">  1       21 0.41186257E-01 0.24266805E+03</pdfrwt>
<pdfrwt beam="2">  1       21 0.76541882E-01 0.24266805E+03</pdfrwt>
<totfact> 0.83460845E+03</totfact>
</mgrwt>
</event>
<event>
 4    1  0.4090208E+000  0.2342102E+03  0.7546771E-02  0.1123711E+00
         21   -1    0    0  501  502  0.00000000000E+00  0.00000000000E+00  0.12088399062E+04  0.12088399062E+04  0.00000000000E+00 0. -1.
         21   -1    0    0  502  503 -0.00000000000E+00 -0.00000000000E+00 -0.56202862950E+02  0.56202862950E+02  0.00000000000E+00 0. -1.
          6    1    1    2  501    0 -0.23023391747E+02 -0.15619007931E+03  0.85391407423E+03  0.88545110741E+03  0.17300000000E+03 0. -1.
         -6    1    1    2    0  503  0.23023391747E+02  0.15619007931E+03  0.29872296902E+03  0.37959166174E+03  0.17300000000E+03 0. -1.
<mgrwt>
<rscale>  2 0.23421020E+03</rscale>
<asrwt>0</asrwt>
<pdfrwt beam="1">  1       21 0.18597535E+00 0.23421020E+03</pdfrwt>
<pdfrwt beam="2">  1       21 0.86465952E-02 0.23421020E+03</pdfrwt>
<totfact> 0.16875436E+04</totfact>
</mgrwt>
</event>
<event>
 4    1  0.4090208E+000  0.1866115E+03  0.7546771E-02  0.1161554E+00
         21   -1    0    0  501  502  0.00000000000E+00  0.00000000000E+00  0.92894639451E+02  0.92894639451E+02  0.00000000000E+00 0. -1.
         21   -1    0    0  502  503 -0.00000000000E+00 -0.00000000000E+00 -0.46927210374E+03  0.46927210374E+03  0.00000000000E+00 0.  1.
          6    1    1    2  501    0  0.36768466087E+02 -0.59522499954E+02 -0.62121313699E+02  0.19667970336E+03  0.17300000000E+03 0. -1.
         -6    1    1    2    0  503 -0.36768466087E+02  0.59522499954E+02 -0.31425615059E+03  0.36548703983E+03  0.17300000000E+03 0.  1.
<mgrwt>
<rscale>  2 0.18661149E+03</rscale>
<asrwt>0</asrwt>
<pdfrwt beam="1">  1       21 0.14291483E-01 0.18661149E+03</pdfrwt>
<pdfrwt beam="2">  1       21 0.72195710E-01 0.18661149E+03</pdfrwt>
<totfact> 0.74319812E+04</totfact>
</mgrwt>
</event>
<event>
 4    1  0.4090208E+000  0.2132392E+03  0.7546771E-02  0.1139026E+00
         21   -1    0    0  503  502  0.00000000000E+00  0.00000000000E+00  0.35122492996E+03  0.35122492996E+03  0.00000000000E+00 0. -1.
         21   -1    0    0  501  503 -0.00000000000E+00 -0.00000000000E+00 -0.13497955378E+03  0.13497955378E+03  0.00000000000E+00 0. -1.
          6    1    1    2  501    0 -0.81736324543E+02 -0.94133599966E+02  0.58980770071E+02  0.22124577427E+03  0.17300000000E+03 0. -1.
         -6    1    1    2    0  502  0.81736324543E+02  0.94133599966E+02  0.15726460611E+03  0.26495870948E+03  0.17300000000E+03 0. -1.
<mgrwt>
<rscale>  2 0.21323921E+03</rscale>
<asrwt>0</asrwt>
<pdfrwt beam="1">  1       21 0.54034604E-01 0.21323921E+03</pdfrwt>
<pdfrwt beam="2">  1       21 0.20766085E-01 0.21323921E+03</pdfrwt>
<totfact> 0.69034424E+04</totfact>
</mgrwt>
</event>
<event>
 4    1  0.4090208E+000  0.1968538E+03  0.7546771E-02  0.1152421E+00
         21   -1    0    0  501  502  0.00000000000E+00  0.00000000000E+00  0.41247166056E+03  0.41247166056E+03  0.00000000000E+00 0.  1.
         21   -1    0    0  502  503 -0.00000000000E+00 -0.00000000000E+00 -0.26603936247E+03  0.26603936247E+03  0.00000000000E+00 0.  1.
          6    1    1    2  501    0 -0.93903970844E+02 -0.21127322406E+01  0.34607112123E+03  0.39814148280E+03  0.17300000000E+03 0.  1.
         -6    1    1    2    0  503  0.93903970844E+02  0.21127322406E+01 -0.19963882315E+03  0.28036954023E+03  0.17300000000E+03 0.  1.
<mgrwt>
<rscale>  2 0.19685380E+03</rscale>
<asrwt>0</asrwt>
<pdfrwt beam="1">  1       21 0.63457178E-01 0.19685380E+03</pdfrwt>
<pdfrwt beam="2">  1       21 0.40929133E-01 0.19685380E+03</pdfrwt>
<totfact> 0.13167155E+04</totfact>
</mgrwt>
</event>
<event>
 4    1  0.4090208E+000  0.2557338E+03  0.7546771E-02  0.1109734E+00
         21   -1    0    0  503  502  0.00000000000E+00  0.00000000000E+00  0.60650372712E+03  0.60650372712E+03  0.00000000000E+00 0.  1.
         21   -1    0    0  501  503 -0.00000000000E+00 -0.00000000000E+00 -0.15599475060E+03  0.15599475060E+03  0.00000000000E+00 0. -1.
          6    1    1    2  501    0 -0.18550979017E+03 -0.32510101515E+02  0.13411061241E+02  0.25608523096E+03  0.17300000000E+03 0. -1.
         -6    1    1    2    0  502  0.18550979017E+03  0.32510101515E+02  0.43709791528E+03  0.50641324676E+03  0.17300000000E+03 0.  1.
<mgrwt>
<rscale>  2 0.25573382E+03</rscale>
<asrwt>0</asrwt>
<pdfrwt beam="1">  1       21 0.93308265E-01 0.25573382E+03</pdfrwt>
<pdfrwt beam="2">  1       21 0.23999193E-01 0.25573382E+03</pdfrwt>
<totfact> 0.15247759E+04</totfact>
</mgrwt>
</event>
<event>
 4    1  0.4090208E+000  0.2131116E+03  0.7546771E-02  0.1139125E+00
         21   -1    0    0  501  502  0.00000000000E+00  0.00000000000E+00  0.21781029088E+03  0.21781029088E+03  0.00000000000E+00 0.  1.
         21   -1    0    0  502  503 -0.00000000000E+00 -0.00000000000E+00 -0.29910433714E+03  0.29910433714E+03  0.00000000000E+00 0.  1.
          6    1    1    2  501    0  0.41208317570E+02 -0.11742840585E+03  0.10159166516E+03  0.23608774294E+03  0.17300000000E+03 0.  1.
         -6    1    1    2    0  503 -0.41208317570E+02  0.11742840585E+03 -0.18288571142E+03  0.28082688507E+03  0.17300000000E+03 0.  1.
<mgrwt>
<rscale>  2 0.21311160E+03</rscale>
<asrwt>0</asrwt>
<pdfrwt beam="1">  1       21 0.33509275E-01 0.21311160E+03</pdfrwt>
<pdfrwt beam="2">  1       21 0.46016052E-01 0.21311160E+03</pdfrwt>
<totfact> 0.38417008E+04</totfact>
</mgrwt>
</event>
<event>
 4    1  0.4090208E+000  0.3164735E+03  0.7546771E-02  0.1077284E+00
         21   -1    0    0  503  502  0.00000000000E+00  0.00000000000E+00  0.21514558193E+03  0.21514558193E+03  0.00000000000E+00 0. -1.
         21   -1    0    0  501  503 -0.00000000000E+00 -0.00000000000E+00 -0.48940992868E+03  0.48940992868E+03  0.00000000000E+00 0.  1.
          6    1    1    2  501    0  0.26984184113E+02 -0.26362537563E+03 -0.59307436846E+02  0.32198269664E+03  0.17300000000E+03 0.  1.
         -6    1    1    2    0  502 -0.26984184113E+02  0.26362537563E+03 -0.21495690991E+03  0.38257281397E+03  0.17300000000E+03 0. -1.
<mgrwt>
<rscale>  2 0.31647351E+03</rscale>
<asrwt>0</asrwt>
<pdfrwt beam="1">  1       21 0.33099321E-01 0.31647351E+03</pdfrwt>
<pdfrwt beam="2">  1       21 0.75293834E-01 0.31647351E+03</pdfrwt>
<totfact> 0.12982029E+04</totfact>
</mgrwt>
</event>
<event>
 4    1  0.4090208E+000  0.1931194E+03  0.7546771E-02  0.1155678E+00
         21   -1    0    0  501  502  0.00000000000E+00  0.00000000000E+00  0.72604930126E+03  0.72604930126E+03  0.00000000000E+00 0.  1.
         21   -1    0    0  502  503 -0.00000000000E+00 -0.00000000000E+00 -0.62565078692E+02  0.62565078692E+02  0.00000000000E+00 0. -1.
          6    1    1    2  501    0  0.62753017858E+02  0.58550410453E+02  0.49855796478E+03  0.53465422103E+03  0.17300000000E+03 0.  1.
         -6    1    1    2    0  503 -0.62753017858E+02 -0.58550410453E+02  0.16492625779E+03  0.25396015893E+03  0.17300000000E+03 0.  1.
<mgrwt>
<rscale>  2 0.19311937E+03</rscale>
<asrwt>0</asrwt>
<pdfrwt beam="1">  1       21 0.11169989E+00 0.19311937E+03</pdfrwt>
<pdfrwt beam="2">  1       21 0.96253972E-02 0.19311937E+03</pdfrwt>
<totfact> 0.54611821E+04</totfact>
</mgrwt>
</event>
<event>
 4    1  0.4090208E+000  0.1752018E+03  0.7546771E-02  0.1172529E+00
         21   -1    0    0  501  502  0.00000000000E+00  0.00000000000E+00  0.10709303866E+03  0.10709303866E+03  0.00000000000E+00 0.  1.
         21   -1    0    0  502  503 -0.00000000000E+00 -0.00000000000E+00 -0.57124662285E+03  0.57124662285E+03  0.00000000000E+00 0.  1.
          6    1    1    2  501    0  0.26195620423E+02  0.89701042345E+01  0.73310671568E+01  0.17535511924E+03  0.17300000000E+03 0.  1.
         -6    1    1    2    0  503 -0.26195620423E+02 -0.89701042345E+01 -0.47148465135E+03  0.50298454226E+03  0.17300000000E+03 0.  1.
<mgrwt>
<rscale>  2 0.17520181E+03</rscale>
<asrwt>0</asrwt>
<pdfrwt beam="1">  1       21 0.16475852E-01 0.17520181E+03</pdfrwt>
<pdfrwt beam="2">  1       21 0.87884098E-01 0.17520181E+03</pdfrwt>
<totfact> 0.37020073E+04</totfact>
</mgrwt>
</event>
<event>
 4    1  0.4090208E+000  0.3935698E+03  0.7546771E-02  0.1046029E+00
         21   -1    0    0  503  502  0.00000000000E+00  0.00000000000E+00  0.21414644905E+03  0.21414644905E+03  0.00000000000E+00 0.  1.
         21   -1    0    0  501  503 -0.00000000000E+00 -0.00000000000E+00 -0.72943139276E+03  0.72943139276E+03  0.00000000000E+00 0. -1.
          6    1    1    2  501    0 -0.33491945285E+03  0.11312433370E+03 -0.21447049627E+03  0.44821283844E+03  0.17300000000E+03 0. -1.
         -6    1    1    2    0  502  0.33491945285E+03 -0.11312433370E+03 -0.30081444744E+03  0.49536500336E+03  0.17300000000E+03 0.  1.
<mgrwt>
<rscale>  2 0.39356976E+03</rscale>
<asrwt>0</asrwt>
<pdfrwt beam="1">  1       21 0.32945607E-01 0.39356976E+03</pdfrwt>
<pdfrwt beam="2">  1       21 0.11222022E+00 0.39356976E+03</pdfrwt>
<totfact> 0.49362560E+03</totfact>
</mgrwt>
</event>
<event>
 4    1  0.4090208E+000  0.1773473E+03  0.7546771E-02  0.1170395E+00
         21   -1    0    0  501  502  0.00000000000E+00  0.00000000000E+00  0.21470292585E+03  0.21470292585E+03  0.00000000000E+00 0. -1.
         21   -1    0    0  502  503 -0.00000000000E+00 -0.00000000000E+00 -0.15682139294E+03  0.15682139294E+03  0.00000000000E+00 0. -1.
          6    1    1    2  501    0 -0.27219853924E+02 -0.27967144951E+02 -0.18736303628E+02  0.17833432288E+03  0.17300000000E+03 0. -1.
         -6    1    1    2    0  503  0.27219853924E+02  0.27967144951E+02  0.76617836535E+02  0.19318999591E+03  0.17300000000E+03 0. -1.
<mgrwt>
<rscale>  2 0.17734735E+03</rscale>
<asrwt>0</asrwt>
<pdfrwt beam="1">  1       21 0.33031219E-01 0.17734735E+03</pdfrwt>
<pdfrwt beam="2">  1       21 0.24126368E-01 0.17734735E+03</pdfrwt>
<totfact> 0.14375104E+05</totfact>
</mgrwt>
</event>
<event>
 4    1  0.4090208E+000  0.1977475E+03  0.7546771E-02  0.1151654E+00
         21   -1    0    0  501  502  0.00000000000E+00  0.00000000000E+00  0.19726970001E+03  0.19726970001E+03  0.00000000000E+00 0. -1.
         21   -1    0    0  502  503 -0.00000000000E+00 -0.00000000000E+00 -0.28592005009E+03  0.28592005009E+03  0.00000000000E+00 0. -1.
          6    1    1    2  501    0  0.34716488887E+02  0.89273889040E+02  0.89472785263E+02  0.21704709435E+03  0.17300000000E+03 0. -1.
         -6    1    1    2    0  503 -0.34716488887E+02 -0.89273889040E+02 -0.17812313534E+03  0.26614265575E+03  0.17300000000E+03 0. -1.
<mgrwt>
<rscale>  2 0.19774747E+03</rscale>
<asrwt>0</asrwt>
<pdfrwt beam="1">  1       21 0.30349185E-01 0.19774747E+03</pdfrwt>
<pdfrwt beam="2">  1       21 0.43987700E-01 0.19774747E+03</pdfrwt>
<totfact> 0.51600044E+04</totfact>
</mgrwt>
</event>
<event>
 4    1  0.4090208E+000  0.2699102E+03  0.7546771E-02  0.1101331E+00
         21   -1    0    0  501  502  0.00000000000E+00  0.00000000000E+00  0.21838143238E+03  0.21838143238E+03  0.00000000000E+00 0.  1.
         21   -1    0    0  502  503 -0.00000000000E+00 -0.00000000000E+00 -0.65164023981E+03  0.65164023981E+03  0.00000000000E+00 0. -1.
          6    1    1    2  501    0 -0.18891146824E+03  0.85058747418E+02  0.87276240771E+02  0.28367001171E+03  0.17300000000E+03 0.  1.
         -6    1    1    2    0  503  0.18891146824E+03 -0.85058747418E+02 -0.52053504820E+03  0.58635166048E+03  0.17300000000E+03 0. -1.
<mgrwt>
<rscale>  2 0.26991023E+03</rscale>
<asrwt>0</asrwt>
<pdfrwt beam="1">  1       21 0.33597144E-01 0.26991023E+03</pdfrwt>
<pdfrwt beam="2">  1       21 0.10025234E+00 0.26991023E+03</pdfrwt>
<totfact> 0.66203293E+03</totfact>
</mgrwt>
</event>
<event>
 4    1  0.4090208E+000  0.1842950E+03  0.7546771E-02  0.1163710E+00
         21   -1    0    0  503  502  0.00000000000E+00  0.00000000000E+00  0.70467311732E+03  0.70467311732E+03  0.00000000000E+00 0. -1.
         21   -1    0    0  501  503 -0.00000000000E+00 -0.00000000000E+00 -0.51590476179E+02  0.51590476179E+02  0.00000000000E+00 0. -1.
          6    1    1    2  501    0 -0.61350445140E+02  0.16485516430E+02  0.22959243084E+03  0.29441014532E+03  0.17300000000E+03 0. -1.
         -6    1    1    2    0  502  0.61350445140E+02 -0.16485516430E+02  0.42349021031E+03  0.46185344818E+03  0.17300000000E+03 0. -1.
<mgrwt>
<rscale>  2 0.18429501E+03</rscale>
<asrwt>0</asrwt>
<pdfrwt beam="1">  1       21 0.10841124E+00 0.18429501E+03</pdfrwt>
<pdfrwt beam="2">  1       21 0.79369968E-02 0.18429501E+03</pdfrwt>
<totfact> 0.82608258E+04</totfact>
</mgrwt>
</event>
<event>
 4    1  0.4090208E+000  0.1856308E+03  0.7546771E-02  0.1162462E+00
         21   -1    0    0  503  502  0.00000000000E+00  0.00000000000E+00  0.10135002513E+04  0.10135002513E+04  0.00000000000E+00 0. -1.
         21   -1    0    0  501  503 -0.00000000000E+00 -0.00000000000E+00 -0.68130348343E+02  0.68130348343E+02  0.00000000000E+00 0. -1.
          6    1    1    2  501    0  0.67271875247E+02  0.20747452991E+01  0.89904039389E+02  0.20625602068E+03  0.17300000000E+03 0. -1.
         -6    1    1    2    0  502 -0.67271875247E+02 -0.20747452991E+01  0.85546586357E+03  0.87537457897E+03  0.17300000000E+03 0. -1.
<mgrwt>
<rscale>  2 0.18563084E+03</rscale>
<asrwt>0</asrwt>
<pdfrwt beam="1">  1       21 0.15592310E+00 0.18563084E+03</pdfrwt>
<pdfrwt beam="2">  1       21 0.10481593E-01 0.18563084E+03</pdfrwt>
<totfact> 0.20238315E+04</totfact>
</mgrwt>
</event>
<event>
 4    1  0.4090208E+000  0.2489000E+03  0.7546771E-02  0.1114002E+00
         21   -1    0    0  503  502  0.00000000000E+00  0.00000000000E+00  0.10906247895E+03  0.10906247895E+03  0.00000000000E+00 0.  1.
         21   -1    0    0  501  503 -0.00000000000E+00 -0.00000000000E+00 -0.64340278495E+03  0.64340278495E+03  0.00000000000E+00 0.  1.
          6    1    1    2  501    0 -0.13723604627E+03  0.11484114700E+03 -0.39593878497E+03  0.46767375689E+03  0.17300000000E+03 0.  1.
         -6    1    1    2    0  502  0.13723604627E+03 -0.11484114700E+03 -0.13840152103E+03  0.28479150701E+03  0.17300000000E+03 0.  1.
<mgrwt>
<rscale>  2 0.24890002E+03</rscale>
<asrwt>0</asrwt>
<pdfrwt beam="1">  1       21 0.16778843E-01 0.24890002E+03</pdfrwt>
<pdfrwt beam="2">  1       21 0.98985043E-01 0.24890002E+03</pdfrwt>
<totfact> 0.26078024E+04</totfact>
</mgrwt>
</event>
<event>
 4    1  0.4090208E+000  0.1831446E+03  0.7546771E-02  0.1164794E+00
         21   -1    0    0  501  502  0.00000000000E+00  0.00000000000E+00  0.46372557657E+03  0.46372557657E+03  0.00000000000E+00 0. -1.
         21   -1    0    0  502  503 -0.00000000000E+00 -0.00000000000E+00 -0.89906903141E+02  0.89906903141E+02  0.00000000000E+00 0.  1.
          6    1    1    2  501    0 -0.50962756145E+02  0.31870532093E+02  0.30930008175E+03  0.35945580243E+03  0.17300000000E+03 0. -1.
         -6    1    1    2    0  503  0.50962756145E+02 -0.31870532093E+02  0.64518591688E+02  0.19417667729E+03  0.17300000000E+03 0.  1.
<mgrwt>
<rscale>  2 0.18314457E+03</rscale>
<asrwt>0</asrwt>
<pdfrwt beam="1">  1       21 0.71342395E-01 0.18314457E+03</pdfrwt>
<pdfrwt beam="2">  1       21 0.13831832E-01 0.18314457E+03</pdfrwt>
<totfact> 0.81068864E+04</totfact>
</mgrwt>
</event>
<event>
 4    1  0.4090208E+000  0.2598023E+03  0.7546771E-02  0.1107262E+00
         21   -1    0    0  501  502  0.00000000000E+00  0.00000000000E+00  0.21412860396E+03  0.21412860396E+03  0.00000000000E+00 0. -1.
         21   -1    0    0  502  503 -0.00000000000E+00 -0.00000000000E+00 -0.58967066071E+03  0.58967066071E+03  0.00000000000E+00 0. -1.
          6    1    1    2  501    0 -0.98419360917E+02 -0.16697864159E+03  0.86415679943E+02  0.27379720066E+03  0.17300000000E+03 0. -1.
         -6    1    1    2    0  503  0.98419360917E+02  0.16697864159E+03 -0.46195773670E+03  0.53000206400E+03  0.17300000000E+03 0. -1.
<mgrwt>
<rscale>  2 0.25980230E+03</rscale>
<asrwt>0</asrwt>
<pdfrwt beam="1">  1       21 0.32942862E-01 0.25980230E+03</pdfrwt>
<pdfrwt beam="2">  1       21 0.90718563E-01 0.25980230E+03</pdfrwt>
<totfact> 0.87685580E+03</totfact>
</mgrwt>
</event>
<event>
 4    1  0.4090208E+000  0.2053178E+03  0.7546771E-02  0.1145328E+00
         21   -1    0    0  501  502  0.00000000000E+00  0.00000000000E+00  0.25182870266E+03  0.25182870266E+03  0.00000000000E+00 0. -1.
         21   -1    0    0  502  503 -0.00000000000E+00 -0.00000000000E+00 -0.20038082768E+03  0.20038082768E+03  0.00000000000E+00 0. -1.
          6    1    1    2  501    0  0.42760236929E+02 -0.10197033358E+03  0.11745822714E+03  0.23654137464E+03  0.17300000000E+03 0. -1.
         -6    1    1    2    0  503 -0.42760236929E+02  0.10197033358E+03 -0.66010352167E+02  0.21566815570E+03  0.17300000000E+03 0. -1.
<mgrwt>
<rscale>  2 0.20531777E+03</rscale>
<asrwt>0</asrwt>
<pdfrwt beam="1">  1       21 0.38742877E-01 0.20531777E+03</pdfrwt>
<pdfrwt beam="2">  1       21 0.30827820E-01 0.20531777E+03</pdfrwt>
<totfact> 0.64539360E+04</totfact>
</mgrwt>
</event>
<event>
 4    1  0.4090208E+000  0.4376939E+03  0.7546771E-02  0.1031457E+00
         21   -1    0    0  503  502  0.00000000000E+00  0.00000000000E+00  0.27744012921E+03  0.27744012921E+03  0.00000000000E+00 0. -1.
         21   -1    0    0  501  503 -0.00000000000E+00 -0.00000000000E+00 -0.69173731528E+03  0.69173731528E+03  0.00000000000E+00 0. -1.
          6    1    1    2  501    0  0.28705489019E+03  0.28150739798E+03 -0.22753813179E+03  0.49330469947E+03  0.17300000000E+03 0. -1.
         -6    1    1    2    0  502 -0.28705489019E+03 -0.28150739798E+03 -0.18675905428E+03  0.47587274502E+03  0.17300000000E+03 0. -1.
<mgrwt>
<rscale>  2 0.43769387E+03</rscale>
<asrwt>0</asrwt>
<pdfrwt beam="1">  1       21 0.42683097E-01 0.43769387E+03</pdfrwt>
<pdfrwt beam="2">  1       21 0.10642112E+00 0.43769387E+03</pdfrwt>
<totfact> 0.32646788E+03</totfact>
</mgrwt>
</event>
<event>
 4    1  0.4090208E+000  0.2046250E+03  0.7546771E-02  0.1145895E+00
         21   -1    0    0  501  502  0.00000000000E+00  0.00000000000E+00  0.33165906663E+02  0.33165906663E+02  0.00000000000E+00 0. -1.
         21   -1    0    0  502  503 -0.00000000000E+00 -0.00000000000E+00 -0.13945166569E+04  0.13945166569E+04  0.00000000000E+00 0. -1.
          6    1    1    2  501    0 -0.10641931060E+03  0.24846164218E+02 -0.90032563726E+03  0.92328633405E+03  0.17300000000E+03 0. -1.
         -6    1    1    2    0  503  0.10641931060E+03 -0.24846164218E+02 -0.46102511294E+03  0.50439622947E+03  0.17300000000E+03 0. -1.
<mgrwt>
<rscale>  2 0.20462503E+03</rscale>
<asrwt>0</asrwt>
<pdfrwt beam="1">  1       21 0.51024474E-02 0.20462503E+03</pdfrwt>
<pdfrwt beam="2">  1       21 0.21454101E+00 0.20462503E+03</pdfrwt>
<totfact> 0.28002548E+04</totfact>
</mgrwt>
</event>
<event>
 4    1  0.4090208E+000  0.2444981E+03  0.7546771E-02  0.1116832E+00
         21   -1    0    0  501  502  0.00000000000E+00  0.00000000000E+00  0.67204143681E+02  0.67204143681E+02  0.00000000000E+00 0.  1.
         21   -1    0    0  502  503 -0.00000000000E+00 -0.00000000000E+00 -0.10700710266E+04  0.10700710266E+04  0.00000000000E+00 0.  1.
          6    1    1    2  501    0  0.16629288731E+03  0.46872088011E+02 -0.26785580454E+03  0.36266520239E+03  0.17300000000E+03 0. -1.
         -6    1    1    2    0  503 -0.16629288731E+03 -0.46872088011E+02 -0.73501107835E+03  0.77460996785E+03  0.17300000000E+03 0. -1.
<mgrwt>
<rscale>  2 0.24449809E+03</rscale>
<asrwt>0</asrwt>
<pdfrwt beam="1">  1       21 0.10339099E-01 0.24449809E+03</pdfrwt>
<pdfrwt beam="2">  1       21 0.16462632E+00 0.24449809E+03</pdfrwt>
<totfact> 0.17228642E+04</totfact>
</mgrwt>
</event>
<event>
 4    1  0.4090208E+000  0.4451461E+03  0.7546771E-02  0.1029179E+00
         21   -1    0    0  501  502  0.00000000000E+00  0.00000000000E+00  0.91386002988E+03  0.91386002988E+03  0.00000000000E+00 0. -1.
         21   -1    0    0  502  503 -0.00000000000E+00 -0.00000000000E+00 -0.42179937267E+03  0.42179937267E+03  0.00000000000E+00 0.  1.
          6    1    1    2  501    0  0.18321506085E+03  0.36695815864E+03  0.71156714287E+03  0.83933476487E+03  0.17300000000E+03 0. -1.
         -6    1    1    2    0  503 -0.18321506085E+03 -0.36695815864E+03 -0.21950648565E+03  0.49632463767E+03  0.17300000000E+03 0.  1.
<mgrwt>
<rscale>  2 0.44514610E+03</rscale>
<asrwt>0</asrwt>
<pdfrwt beam="1">  1       21 0.14059385E+00 0.44514610E+03</pdfrwt>
<pdfrwt beam="2">  1       21 0.64892212E-01 0.44514610E+03</pdfrwt>
<totfact> 0.65079081E+02</totfact>
</mgrwt>
</event>
<event>
 4    1  0.4090208E+000  0.2151731E+03  0.7546771E-02  0.1137534E+00
         21   -1    0    0  501  502  0.00000000000E+00  0.00000000000E+00  0.37426767060E+03  0.37426767060E+03  0.00000000000E+00 0. -1.
         21   -1    0    0  502  503 -0.00000000000E+00 -0.00000000000E+00 -0.23322939413E+03  0.23322939413E+03  0.00000000000E+00 0.  1.
          6    1    1    2  501    0  0.12115864073E+03 -0.41122391794E+02  0.27866814668E+03  0.35207300849E+03  0.17300000000E+03 0. -1.
         -6    1    1    2    0  503 -0.12115864073E+03  0.41122391794E+02 -0.13762987021E+03  0.25542405624E+03  0.17300000000E+03 0.  1.
<mgrwt>
<rscale>  2 0.21517311E+03</rscale>
<asrwt>0</asrwt>
<pdfrwt beam="1">  1       21 0.57579642E-01 0.21517311E+03</pdfrwt>
<pdfrwt beam="2">  1       21 0.35881445E-01 0.21517311E+03</pdfrwt>
<totfact> 0.20918345E+04</totfact>
</mgrwt>
</event>
<event>
 4    1  0.4090208E+000  0.1747993E+03  0.7546771E-02  0.1172933E+00
         21   -1    0    0  501  502  0.00000000000E+00  0.00000000000E+00  0.42092919486E+02  0.42092919486E+02  0.00000000000E+00 0.  1.
         21   -1    0    0  502  503 -0.00000000000E+00 -0.00000000000E+00 -0.11899328467E+04  0.11899328467E+04  0.00000000000E+00 0.  1.
          6    1    1    2  501    0  0.21859923862E+02 -0.12162598565E+02 -0.18923243969E+03  0.25761153178E+03  0.17300000000E+03 0.  1.
         -6    1    1    2    0  503 -0.21859923862E+02  0.12162598565E+02 -0.95860748754E+03  0.97441423442E+03  0.17300000000E+03 0.  1.
<mgrwt>
<rscale>  2 0.17479927E+03</rscale>
<asrwt>0</asrwt>
<pdfrwt beam="1">  1       21 0.64758346E-02 0.17479927E+03</pdfrwt>
<pdfrwt beam="2">  1       21 0.18306657E+00 0.17479927E+03</pdfrwt>
<totfact> 0.30379214E+04</totfact>
</mgrwt>
</event>
<event>
 4    1  0.4090208E+000  0.1919210E+03  0.7546771E-02  0.1156740E+00
         21   -1    0    0  501  502  0.00000000000E+00  0.00000000000E+00  0.22747285501E+03  0.22747285501E+03  0.00000000000E+00 0.  1.
         21   -1    0    0  502  503 -0.00000000000E+00 -0.00000000000E+00 -0.29877360326E+03  0.29877360326E+03  0.00000000000E+00 0.  1.
          6    1    1    2  501    0 -0.47660746556E+02  0.68067148802E+02  0.14242639833E+03  0.23899573731E+03  0.17300000000E+03 0.  1.
         -6    1    1    2    0  503  0.47660746556E+02 -0.68067148802E+02 -0.21372714658E+03  0.28725072096E+03  0.17300000000E+03 0.  1.
<mgrwt>
<rscale>  2 0.19192103E+03</rscale>
<asrwt>0</asrwt>
<pdfrwt beam="1">  1       21 0.34995824E-01 0.19192103E+03</pdfrwt>
<pdfrwt beam="2">  1       21 0.45965170E-01 0.19192103E+03</pdfrwt>
<totfact> 0.35721445E+04</totfact>
</mgrwt>
</event>
<event>
 4    1  0.4090208E+000  0.2110203E+03  0.7546771E-02  0.1140761E+00
         21   -1    0    0  503  502  0.00000000000E+00  0.00000000000E+00  0.75671748637E+03  0.75671748637E+03  0.00000000000E+00 0. -1.
         21   -1    0    0  501  503 -0.00000000000E+00 -0.00000000000E+00 -0.14615863956E+03  0.14615863956E+03  0.00000000000E+00 0. -1.
          6    1    1    2  501    0 -0.97979475479E+02  0.70714803182E+02 -0.43640093825E+02  0.21548554196E+03  0.17300000000E+03 0. -1.
         -6    1    1    2    0  502  0.97979475479E+02 -0.70714803182E+02  0.65419894063E+03  0.68739058397E+03  0.17300000000E+03 0. -1.
<mgrwt>
<rscale>  2 0.21102029E+03</rscale>
<asrwt>0</asrwt>
<pdfrwt beam="1">  1       21 0.11641807E+00 0.21102029E+03</pdfrwt>
<pdfrwt beam="2">  1       21 0.22485945E-01 0.21102029E+03</pdfrwt>
<totfact> 0.10404369E+04</totfact>
</mgrwt>
</event>
<event>
 4    1  0.4090208E+000  0.2004318E+03  0.7546771E-02  0.1149375E+00
         21   -1    0    0  503  502  0.00000000000E+00  0.00000000000E+00  0.39920132703E+02  0.39920132703E+02  0.00000000000E+00 0. -1.
         21   -1    0    0  501  503 -0.00000000000E+00 -0.00000000000E+00 -0.17862037087E+04  0.17862037087E+04  0.00000000000E+00 0.  1.
          6    1    1    2  501    0  0.37907799027E+02  0.93845193705E+02 -0.14764596987E+04  0.14900020683E+04  0.17300000000E+03 0.  1.
         -6    1    1    2    0  502 -0.37907799027E+02 -0.93845193705E+02 -0.26982387733E+03  0.33612177315E+03  0.17300000000E+03 0. -1.
<mgrwt>
<rscale>  2 0.20043184E+03</rscale>
<asrwt>0</asrwt>
<pdfrwt beam="1">  1       21 0.61415587E-02 0.20043184E+03</pdfrwt>
<pdfrwt beam="2">  1       21 0.27480058E+00 0.20043184E+03</pdfrwt>
<totfact> 0.89632771E+03</totfact>
</mgrwt>
</event>
<event>
 4    1  0.4090208E+000  0.1971323E+03  0.7546771E-02  0.1152181E+00
         21   -1    0    0  503  502  0.00000000000E+00  0.00000000000E+00  0.47413261365E+02  0.47413261365E+02  0.00000000000E+00 0. -1.
         21   -1    0    0  501  503 -0.00000000000E+00 -0.00000000000E+00 -0.96968155941E+03  0.96968155941E+03  0.00000000000E+00 0. -1.
          6    1    1    2  501    0  0.59089004809E+02 -0.73760601753E+02 -0.66118623006E+03  0.68994809057E+03  0.17300000000E+03 0. -1.
         -6    1    1    2    0  502 -0.59089004809E+02  0.73760601753E+02 -0.26108206799E+03  0.32714673021E+03  0.17300000000E+03 0. -1.
<mgrwt>
<rscale>  2 0.19713228E+03</rscale>
<asrwt>0</asrwt>
<pdfrwt beam="1">  1       21 0.72943478E-02 0.19713228E+03</pdfrwt>
<pdfrwt beam="2">  1       21 0.14918178E+00 0.19713228E+03</pdfrwt>
<totfact> 0.42603535E+04</totfact>
</mgrwt>
</event>
<event>
 4    1  0.4090208E+000  0.1993697E+03  0.7546771E-02  0.1150272E+00
         21   -1    0    0  501  502  0.00000000000E+00  0.00000000000E+00  0.23342387906E+03  0.23342387906E+03  0.00000000000E+00 0.  1.
         21   -1    0    0  502  503 -0.00000000000E+00 -0.00000000000E+00 -0.21713859549E+03  0.21713859549E+03  0.00000000000E+00 0.  1.
          6    1    1    2  501    0  0.61883384223E+01  0.98898891494E+02  0.11279135882E+03  0.22906369615E+03  0.17300000000E+03 0.  1.
         -6    1    1    2    0  503 -0.61883384223E+01 -0.98898891494E+02 -0.96506075256E+02  0.22149877840E+03  0.17300000000E+03 0.  1.
<mgrwt>
<rscale>  2 0.19936972E+03</rscale>
<asrwt>0</asrwt>
<pdfrwt beam="1">  1       21 0.35911366E-01 0.19936972E+03</pdfrwt>
<pdfrwt beam="2">  1       21 0.33405938E-01 0.19936972E+03</pdfrwt>
<totfact> 0.64331910E+04</totfact>
</mgrwt>
</event>
<event>
 4    1  0.4090208E+000  0.2328897E+03  0.7546771E-02  0.1124622E+00
         21   -1    0    0  501  502  0.00000000000E+00  0.00000000000E+00  0.14585150659E+03  0.14585150659E+03  0.00000000000E+00 0. -1.
         21   -1    0    0  502  503 -0.00000000000E+00 -0.00000000000E+00 -0.90983755593E+03  0.90983755593E+03  0.00000000000E+00 0. -1.
          6    1    1    2  501    0  0.10509035742E+03  0.11517214142E+03  0.23891671825E+02  0.23411197612E+03  0.17300000000E+03 0. -1.
         -6    1    1    2    0  503 -0.10509035742E+03 -0.11517214142E+03 -0.78787772116E+03  0.82157708639E+03  0.17300000000E+03 0. -1.
<mgrwt>
<rscale>  2 0.23288969E+03</rscale>
<asrwt>0</asrwt>
<pdfrwt beam="1">  1       21 0.22438693E-01 0.23288969E+03</pdfrwt>
<pdfrwt beam="2">  1       21 0.13997501E+00 0.23288969E+03</pdfrwt>
<totfact> 0.64601293E+03</totfact>
</mgrwt>
</event>
<event>
 4    1  0.4090208E+000  0.1967681E+03  0.7546771E-02  0.1152495E+00
         21   -1    0    0  503  502  0.00000000000E+00  0.00000000000E+00  0.34532428932E+03  0.34532428932E+03  0.00000000000E+00 0. -1.
         21   -1    0    0  501  503 -0.00000000000E+00 -0.00000000000E+00 -0.14130889780E+03  0.14130889780E+03  0.00000000000E+00 0. -1.
          6    1    1    2  501    0 -0.41057347234E+02  0.84279257544E+02 -0.85775329086E+01  0.19695500269E+03  0.17300000000E+03 0. -1.
         -6    1    1    2    0  502  0.41057347234E+02 -0.84279257544E+02  0.21259292443E+03  0.28967818442E+03  0.17300000000E+03 0. -1.
<mgrwt>
<rscale>  2 0.19676814E+03</rscale>
<asrwt>0</asrwt>
<pdfrwt beam="1">  1       21 0.53126813E-01 0.19676814E+03</pdfrwt>
<pdfrwt beam="2">  1       21 0.21739831E-01 0.19676814E+03</pdfrwt>
<totfact> 0.66122376E+04</totfact>
</mgrwt>
</event>
<event>
 4    1  0.4090208E+000  0.2145386E+03  0.7546771E-02  0.1138021E+00
         21   -1    0    0  501  502  0.00000000000E+00  0.00000000000E+00  0.83314310650E+03  0.83314310650E+03  0.00000000000E+00 0.  1.
         21   -1    0    0  502  503 -0.00000000000E+00 -0.00000000000E+00 -0.90630210431E+02  0.90630210431E+02  0.00000000000E+00 0. -1.
          6    1    1    2  501    0  0.26737952922E+02  0.12402779209E+03  0.65986629050E+03  0.69386622102E+03  0.17300000000E+03 0. -1.
         -6    1    1    2    0  503 -0.26737952922E+02 -0.12402779209E+03  0.82646605570E+02  0.22990709591E+03  0.17300000000E+03 0.  1.
<mgrwt>
<rscale>  2 0.21453860E+03</rscale>
<asrwt>0</asrwt>
<pdfrwt beam="1">  1       21 0.12817586E+00 0.21453860E+03</pdfrwt>
<pdfrwt beam="2">  1       21 0.13943110E-01 0.21453860E+03</pdfrwt>
<totfact> 0.19786826E+04</totfact>
</mgrwt>
</event>
<event>
 4    1  0.4090208E+000  0.2159849E+03  0.7546771E-02  0.1136912E+00
         21   -1    0    0  503  502  0.00000000000E+00  0.00000000000E+00  0.35343202609E+02  0.35343202609E+02  0.00000000000E+00 0.  1.
         21   -1    0    0  501  503 -0.00000000000E+00 -0.00000000000E+00 -0.13515285280E+04  0.13515285280E+04  0.00000000000E+00 0.  1.
          6    1    1    2  501    0 -0.11453638546E+03  0.60015762300E+02 -0.55201189841E+03  0.59276185041E+03  0.17300000000E+03 0.  1.
         -6    1    1    2    0  502  0.11453638546E+03 -0.60015762300E+02 -0.76417342695E+03  0.79410988017E+03  0.17300000000E+03 0.  1.
<mgrwt>
<rscale>  2 0.21598490E+03</rscale>
<asrwt>0</asrwt>
<pdfrwt beam="1">  1       21 0.54374162E-02 0.21598490E+03</pdfrwt>
<pdfrwt beam="2">  1       21 0.20792745E+00 0.21598490E+03</pdfrwt>
<totfact> 0.27426876E+04</totfact>
</mgrwt>
</event>
<event>
 4    1  0.4090208E+000  0.2010359E+03  0.7546771E-02  0.1148868E+00
         21   -1    0    0  501  502  0.00000000000E+00  0.00000000000E+00  0.32013527744E+03  0.32013527744E+03  0.00000000000E+00 0.  1.
         21   -1    0    0  502  503 -0.00000000000E+00 -0.00000000000E+00 -0.12632089798E+03  0.12632089798E+03  0.00000000000E+00 0. -1.
          6    1    1    2  501    0  0.81529540982E+02 -0.61962535389E+02  0.10238527144E+03  0.22560621812E+03  0.17300000000E+03 0.  1.
         -6    1    1    2    0  503 -0.81529540982E+02  0.61962535389E+02  0.91429108022E+02  0.22084995730E+03  0.17300000000E+03 0.  1.
<mgrwt>
<rscale>  2 0.20103587E+03</rscale>
<asrwt>0</asrwt>
<pdfrwt beam="1">  1       21 0.49251581E-01 0.20103587E+03</pdfrwt>
<pdfrwt beam="2">  1       21 0.19433984E-01 0.20103587E+03</pdfrwt>
<totfact> 0.95426936E+04</totfact>
</mgrwt>
</event>
<event>
 4    1  0.4090208E+000  0.1800915E+03  0.7546771E-02  0.1167715E+00
         21   -1    0    0  503  502  0.00000000000E+00  0.00000000000E+00  0.32975360351E+02  0.32975360351E+02  0.00000000000E+00 0.  1.
         21   -1    0    0  501  503 -0.00000000000E+00 -0.00000000000E+00 -0.11156101119E+04  0.11156101119E+04  0.00000000000E+00 0. -1.
          6    1    1    2  501    0 -0.36927032332E+02 -0.33768844638E+02 -0.73890588772E+03  0.76053589757E+03  0.17300000000E+03 0. -1.
         -6    1    1    2    0  502  0.36927032332E+02  0.33768844638E+02 -0.34372886387E+03  0.38804957472E+03  0.17300000000E+03 0.  1.
<mgrwt>
<rscale>  2 0.18009148E+03</rscale>
<asrwt>0</asrwt>
<pdfrwt beam="1">  1       21 0.50731331E-02 0.18009148E+03</pdfrwt>
<pdfrwt beam="2">  1       21 0.17163230E+00 0.18009148E+03</pdfrwt>
<totfact> 0.54950200E+04</totfact>
</mgrwt>
</event>
<event>
 4    1  0.4090208E+000  0.2551530E+03  0.7546771E-02  0.1110091E+00
         21   -1    0    0  501  502  0.00000000000E+00  0.00000000000E+00  0.92398135998E+02  0.92398135998E+02  0.00000000000E+00 0.  1.
         21   -1    0    0  502  503 -0.00000000000E+00 -0.00000000000E+00 -0.84099890351E+03  0.84099890351E+03  0.00000000000E+00 0. -1.
          6    1    1    2  501    0 -0.89532761352E+02  0.16479669101E+03 -0.56225610604E+03  0.61744229974E+03  0.17300000000E+03 0. -1.
         -6    1    1    2    0  503  0.89532761352E+02 -0.16479669101E+03 -0.18634466147E+03  0.31595473977E+03  0.17300000000E+03 0.  1.
<mgrwt>
<rscale>  2 0.25515302E+03</rscale>
<asrwt>0</asrwt>
<pdfrwt beam="1">  1       21 0.14215098E-01 0.25515302E+03</pdfrwt>
<pdfrwt beam="2">  1       21 0.12938444E+00 0.25515302E+03</pdfrwt>
<totfact> 0.18234893E+04</totfact>
</mgrwt>
</event>
<event>
 4    1  0.4090208E+000  0.3104746E+03  0.7546771E-02  0.1080119E+00
         21   -1    0    0  503  502  0.00000000000E+00  0.00000000000E+00  0.21184050828E+03  0.21184050828E+03  0.00000000000E+00 0.  1.
         21   -1    0    0  501  503 -0.00000000000E+00 -0.00000000000E+00 -0.70435075719E+03  0.70435075719E+03  0.00000000000E+00 0.  1.
          6    1    1    2  501    0 -0.14640506852E+03 -0.21220522332E+03  0.26289700367E+02  0.31158570127E+03  0.17300000000E+03 0.  1.
         -6    1    1    2    0  502  0.14640506852E+03  0.21220522332E+03 -0.51879994928E+03  0.60460556420E+03  0.17300000000E+03 0.  1.
<mgrwt>
<rscale>  2 0.31047464E+03</rscale>
<asrwt>0</asrwt>
<pdfrwt beam="1">  1       21 0.32590847E-01 0.31047464E+03</pdfrwt>
<pdfrwt beam="2">  1       21 0.10836166E+00 0.31047464E+03</pdfrwt>
<totfact> 0.57018923E+03</totfact>
</mgrwt>
</event>
<event>
 4    1  0.4090208E+000  0.2000822E+03  0.7546771E-02  0.1149670E+00
         21   -1    0    0  501  502  0.00000000000E+00  0.00000000000E+00  0.36893999481E+02  0.36893999481E+02  0.00000000000E+00 0.  1.
         21   -1    0    0  502  503 -0.00000000000E+00 -0.00000000000E+00 -0.11520571997E+04  0.11520571997E+04  0.00000000000E+00 0. -1.
          6    1    1    2  501    0  0.95098313736E+02 -0.32560715766E+02 -0.70092081724E+03  0.72891898145E+03  0.17300000000E+03 0.  1.
         -6    1    1    2    0  503 -0.95098313736E+02  0.32560715766E+02 -0.41424238295E+03  0.46003221770E+03  0.17300000000E+03 0. -1.
<mgrwt>
<rscale>  2 0.20008221E+03</rscale>
<asrwt>0</asrwt>
<pdfrwt beam="1">  1       21 0.56760003E-02 0.20008221E+03</pdfrwt>
<pdfrwt beam="2">  1       21 0.17723956E+00 0.20008221E+03</pdfrwt>
<totfact> 0.41007368E+04</totfact>
</mgrwt>
</event>
<event>
 4    1  0.4090208E+000  0.2003181E+03  0.7546771E-02  0.1149471E+00
         21   -1    0    0  501  502  0.00000000000E+00  0.00000000000E+00  0.24201798763E+03  0.24201798763E+03  0.00000000000E+00 0.  1.
         21   -1    0    0  502  503 -0.00000000000E+00 -0.00000000000E+00 -0.24523072509E+03  0.24523072509E+03  0.00000000000E+00 0. -1.
          6    1    1    2  501    0  0.70436708846E+02  0.72367062566E+02  0.13704340828E+03  0.24271015111E+03  0.17300000000E+03 0.  1.
         -6    1    1    2    0  503 -0.70436708846E+02 -0.72367062566E+02 -0.14025614574E+03  0.24453856161E+03  0.17300000000E+03 0. -1.
<mgrwt>
<rscale>  2 0.20031805E+03</rscale>
<asrwt>0</asrwt>
<pdfrwt beam="1">  1       21 0.37233537E-01 0.20031805E+03</pdfrwt>
<pdfrwt beam="2">  1       21 0.37727804E-01 0.20031805E+03</pdfrwt>
<totfact> 0.46957420E+04</totfact>
</mgrwt>
</event>
<event>
 4    1  0.4090208E+000  0.2012874E+03  0.7546771E-02  0.1148657E+00
         21   -1    0    0  503  502  0.00000000000E+00  0.00000000000E+00  0.10157926040E+04  0.10157926040E+04  0.00000000000E+00 0. -1.
         21   -1    0    0  501  503 -0.00000000000E+00 -0.00000000000E+00 -0.46565795450E+02  0.46565795450E+02  0.00000000000E+00 0. -1.
          6    1    1    2  501    0 -0.67586974821E+02  0.77586098012E+02  0.28344174821E+03  0.34764324587E+03  0.17300000000E+03 0. -1.
         -6    1    1    2    0  502  0.67586974821E+02 -0.77586098012E+02  0.68578506033E+03  0.71471515357E+03  0.17300000000E+03 0. -1.
<mgrwt>
<rscale>  2 0.20128736E+03</rscale>
<asrwt>0</asrwt>
<pdfrwt beam="1">  1       21 0.15627577E+00 0.20128736E+03</pdfrwt>
<pdfrwt beam="2">  1       21 0.71639693E-02 0.20128736E+03</pdfrwt>
<totfact> 0.38765165E+04</totfact>
</mgrwt>
</event>
<event>
 4    1  0.4090208E+000  0.2723305E+03  0.7546771E-02  0.1099953E+00
         21   -1    0    0  503  502  0.00000000000E+00  0.00000000000E+00  0.35806317005E+03  0.35806317005E+03  0.00000000000E+00 0. -1.
         21   -1    0    0  501  503 -0.00000000000E+00 -0.00000000000E+00 -0.21500339532E+03  0.21500339532E+03  0.00000000000E+00 0. -1.
          6    1    1    2  501    0 -0.88948654514E+02 -0.19058598794E+03  0.16681025801E+02  0.27284086674E+03  0.17300000000E+03 0. -1.
         -6    1    1    2    0  502  0.88948654514E+02  0.19058598794E+03  0.12637874894E+03  0.30022569864E+03  0.17300000000E+03 0. -1.
<mgrwt>
<rscale>  2 0.27233046E+03</rscale>
<asrwt>0</asrwt>
<pdfrwt beam="1">  1       21 0.55086642E-01 0.27233046E+03</pdfrwt>
<pdfrwt beam="2">  1       21 0.33077445E-01 0.27233046E+03</pdfrwt>
<totfact> 0.26304794E+04</totfact>
</mgrwt>
</event>
<event>
 4    1  0.4090208E+000  0.2118581E+03  0.7546771E-02  0.1140103E+00
         21   -1    0    0  503  502  0.00000000000E+00  0.00000000000E+00  0.37207057902E+03  0.37207057902E+03  0.00000000000E+00 0. -1.
         21   -1    0    0  501  503 -0.00000000000E+00 -0.00000000000E+00 -0.12348466412E+03  0.12348466412E+03  0.00000000000E+00 0. -1.
          6    1    1    2  501    0 -0.76073595479E+02  0.95747899309E+02  0.86637060568E+02  0.22888825312E+03  0.17300000000E+03 0. -1.
         -6    1    1    2    0  502  0.76073595479E+02 -0.95747899309E+02  0.16194885432E+03  0.26666699002E+03  0.17300000000E+03 0. -1.
<mgrwt>
<rscale>  2 0.21185809E+03</rscale>
<asrwt>0</asrwt>
<pdfrwt beam="1">  1       21 0.57241627E-01 0.21185809E+03</pdfrwt>
<pdfrwt beam="2">  1       21 0.18997641E-01 0.21185809E+03</pdfrwt>
<totfact> 0.72185245E+04</totfact>
</mgrwt>
</event>
<event>
 4    1  0.4090208E+000  0.1737839E+03  0.7546771E-02  0.1173958E+00
         21   -1    0    0  503  502  0.00000000000E+00  0.00000000000E+00  0.39367178304E+03  0.39367178304E+03  0.00000000000E+00 0.  1.
         21   -1    0    0  501  503 -0.00000000000E+00 -0.00000000000E+00 -0.83853291207E+02  0.83853291207E+02  0.00000000000E+00 0.  1.
          6    1    1    2  501    0  0.14879545975E+02  0.71011989402E+01  0.85249754112E+02  0.19356742621E+03  0.17300000000E+03 0.  1.
         -6    1    1    2    0  502 -0.14879545975E+02 -0.71011989402E+01  0.22456873772E+03  0.28395764803E+03  0.17300000000E+03 0.  1.
<mgrwt>
<rscale>  2 0.17378385E+03</rscale>
<asrwt>0</asrwt>
<pdfrwt beam="1">  1       21 0.60564889E-01 0.17378385E+03</pdfrwt>
<pdfrwt beam="2">  1       21 0.12900506E-01 0.17378385E+03</pdfrwt>
<totfact> 0.13175558E+05</totfact>
</mgrwt>
</event>
<event>
 4    1  0.4090208E+000  0.2214300E+03  0.7546771E-02  0.1132821E+00
         21   -1    0    0  503  502  0.00000000000E+00  0.00000000000E+00  0.36215077785E+03  0.36215077785E+03  0.00000000000E+00 0.  1.
         21   -1    0    0  501  503 -0.00000000000E+00 -0.00000000000E+00 -0.21241186892E+03  0.21241186892E+03  0.00000000000E+00 0.  1.
          6    1    1    2  501    0  0.42679201353E+02 -0.13145611033E+03 -0.98123300210E+02  0.24219703800E+03  0.17300000000E+03 0.  1.
         -6    1    1    2    0  502 -0.42679201353E+02  0.13145611033E+03  0.24786220915E+03  0.33236560877E+03  0.17300000000E+03 0.  1.
<mgrwt>
<rscale>  2 0.22142995E+03</rscale>
<asrwt>0</asrwt>
<pdfrwt beam="1">  1       21 0.55715504E-01 0.22142995E+03</pdfrwt>
<pdfrwt beam="2">  1       21 0.32678749E-01 0.22142995E+03</pdfrwt>
<totfact> 0.26926214E+04</totfact>
</mgrwt>
</event>
<event>
 4    1  0.4090208E+000  0.1739061E+03  0.7546771E-02  0.1173835E+00
         21   -1    0    0  501  502  0.00000000000E+00  0.00000000000E+00  0.39539182279E+03  0.39539182279E+03  0.00000000000E+00 0. -1.
         21   -1    0    0  502  503 -0.00000000000E+00 -0.00000000000E+00 -0.12539765245E+03  0.12539765245E+03  0.00000000000E+00 0. -1.
          6    1    1    2  501    0 -0.16595434976E+02  0.62381313432E+01  0.29761864773E+03  0.34470303483E+03  0.17300000000E+03 0. -1.
         -6    1    1    2    0  503  0.16595434976E+02 -0.62381313432E+01 -0.27624477389E+02  0.17608644041E+03  0.17300000000E+03 0. -1.
<mgrwt>
<rscale>  2 0.17390607E+03</rscale>
<asrwt>0</asrwt>
<pdfrwt beam="1">  1       21 0.60829511E-01 0.17390607E+03</pdfrwt>
<pdfrwt beam="2">  1       21 0.19291947E-01 0.17390607E+03</pdfrwt>
<totfact> 0.62637517E+04</totfact>
</mgrwt>
</event>
<event>
 4    1  0.4090208E+000  0.1950494E+03  0.7546771E-02  0.1153984E+00
         21   -1    0    0  501  502  0.00000000000E+00  0.00000000000E+00  0.10238610698E+03  0.10238610698E+03  0.00000000000E+00 0. -1.
         21   -1    0    0  502  503 -0.00000000000E+00 -0.00000000000E+00 -0.58380327377E+03  0.58380327377E+03  0.00000000000E+00 0. -1.
          6    1    1    2  501    0 -0.84722708989E+02  0.30616137169E+02 -0.33846601958E+02  0.19796433451E+03  0.17300000000E+03 0. -1.
         -6    1    1    2    0  503  0.84722708989E+02 -0.30616137169E+02 -0.44757056483E+03  0.48822504624E+03  0.17300000000E+03 0. -1.
<mgrwt>
<rscale>  2 0.19504944E+03</rscale>
<asrwt>0</asrwt>
<pdfrwt beam="1">  1       21 0.15751709E-01 0.19504944E+03</pdfrwt>
<pdfrwt beam="2">  1       21 0.89815887E-01 0.19504944E+03</pdfrwt>
<totfact> 0.37826693E+04</totfact>
</mgrwt>
</event>
<event>
 4    1  0.4090208E+000  0.2014922E+03  0.7546771E-02  0.1148486E+00
         21   -1    0    0  501  502  0.00000000000E+00  0.00000000000E+00  0.41362046374E+03  0.41362046374E+03  0.00000000000E+00 0. -1.
         21   -1    0    0  502  503 -0.00000000000E+00 -0.00000000000E+00 -0.10344901833E+03  0.10344901833E+03  0.00000000000E+00 0. -1.
          6    1    1    2  501    0  0.10255527812E+03 -0.12349335702E+02  0.96602521854E+02  0.22345276546E+03  0.17300000000E+03 0. -1.
         -6    1    1    2    0  503 -0.10255527812E+03  0.12349335702E+02  0.21356892356E+03  0.29361671661E+03  0.17300000000E+03 0. -1.
<mgrwt>
<rscale>  2 0.20149216E+03</rscale>
<asrwt>0</asrwt>
<pdfrwt beam="1">  1       21 0.63633917E-01 0.20149216E+03</pdfrwt>
<pdfrwt beam="2">  1       21 0.15915234E-01 0.20149216E+03</pdfrwt>
<totfact> 0.80051565E+04</totfact>
</mgrwt>
</event>
<event>
 4    1  0.4090208E+000  0.1822180E+03  0.7546771E-02  0.1165674E+00
         21   -1    0    0  503  502  0.00000000000E+00  0.00000000000E+00  0.10648986451E+03  0.10648986451E+03  0.00000000000E+00 0. -1.
         21   -1    0    0  501  503 -0.00000000000E+00 -0.00000000000E+00 -0.75291091028E+03  0.75291091028E+03  0.00000000000E+00 0. -1.
          6    1    1    2  501    0 -0.39764507071E+02  0.41148152702E+02 -0.65211407079E+03  0.67709389882E+03  0.17300000000E+03 0. -1.
         -6    1    1    2    0  502  0.39764507071E+02 -0.41148152702E+02  0.56930250165E+01  0.18230687597E+03  0.17300000000E+03 0. -1.
<mgrwt>
<rscale>  2 0.18221796E+03</rscale>
<asrwt>0</asrwt>
<pdfrwt beam="1">  1       21 0.16383056E-01 0.18221796E+03</pdfrwt>
<pdfrwt beam="2">  1       21 0.11583245E+00 0.18221796E+03</pdfrwt>
<totfact> 0.19361125E+04</totfact>
</mgrwt>
</event>
<event>
 4    1  0.4090208E+000  0.2053670E+03  0.7546771E-02  0.1145288E+00
         21   -1    0    0  501  502  0.00000000000E+00  0.00000000000E+00  0.82380144059E+03  0.82380144059E+03  0.00000000000E+00 0. -1.
         21   -1    0    0  502  503 -0.00000000000E+00 -0.00000000000E+00 -0.90431057564E+02  0.90431057564E+02  0.00000000000E+00 0. -1.
          6    1    1    2  501    0 -0.93896229812E+02 -0.58567128210E+02  0.66777993569E+03  0.69864558468E+03  0.17300000000E+03 0. -1.
         -6    1    1    2    0  503  0.93896229812E+02  0.58567128210E+02  0.65590447332E+02  0.21558691347E+03  0.17300000000E+03 0. -1.
<mgrwt>
<rscale>  2 0.20536701E+03</rscale>
<asrwt>0</asrwt>
<pdfrwt beam="1">  1       21 0.12673868E+00 0.20536701E+03</pdfrwt>
<pdfrwt beam="2">  1       21 0.13912471E-01 0.20536701E+03</pdfrwt>
<totfact> 0.20554801E+04</totfact>
</mgrwt>
</event>
<event>
 4    1  0.4090208E+000  0.2054207E+03  0.7546771E-02  0.1145244E+00
         21   -1    0    0  503  502  0.00000000000E+00  0.00000000000E+00  0.52706635598E+03  0.52706635598E+03  0.00000000000E+00 0.  1.
         21   -1    0    0  501  503 -0.00000000000E+00 -0.00000000000E+00 -0.95949662248E+02  0.95949662248E+02  0.00000000000E+00 0. -1.
          6    1    1    2  501    0 -0.41878971256E+02 -0.10254179138E+03  0.88797312836E+02  0.22379148773E+03  0.17300000000E+03 0.  1.
         -6    1    1    2    0  502  0.41878971256E+02  0.10254179138E+03  0.34231938090E+03  0.39922453050E+03  0.17300000000E+03 0.  1.
<mgrwt>
<rscale>  2 0.20542071E+03</rscale>
<asrwt>0</asrwt>
<pdfrwt beam="1">  1       21 0.81087130E-01 0.20542071E+03</pdfrwt>
<pdfrwt beam="2">  1       21 0.14761487E-01 0.20542071E+03</pdfrwt>
<totfact> 0.53541754E+04</totfact>
</mgrwt>
</event>
<event>
 4    1  0.4090208E+000  0.2574959E+03  0.7546771E-02  0.1108657E+00
         21   -1    0    0  501  502  0.00000000000E+00  0.00000000000E+00  0.26227629113E+03  0.26227629113E+03  0.00000000000E+00 0.  1.
         21   -1    0    0  502  503 -0.00000000000E+00 -0.00000000000E+00 -0.28051380452E+03  0.28051380452E+03  0.00000000000E+00 0.  1.
          6    1    1    2  501    0  0.15221946062E+03  0.11491019861E+03  0.76181985825E+02  0.26852897963E+03  0.17300000000E+03 0.  1.
         -6    1    1    2    0  503 -0.15221946062E+03 -0.11491019861E+03 -0.94419499211E+02  0.27426111603E+03  0.17300000000E+03 0.  1.
<mgrwt>
<rscale>  2 0.25749586E+03</rscale>
<asrwt>0</asrwt>
<pdfrwt beam="1">  1       21 0.40350198E-01 0.25749586E+03</pdfrwt>
<pdfrwt beam="2">  1       21 0.43155970E-01 0.25749586E+03</pdfrwt>
<totfact> 0.29591561E+04</totfact>
</mgrwt>
</event>
<event>
 4    1  0.4090208E+000  0.1738657E+03  0.7546771E-02  0.1173875E+00
         21   -1    0    0  501  502  0.00000000000E+00  0.00000000000E+00  0.37756049660E+03  0.37756049660E+03  0.00000000000E+00 0. -1.
         21   -1    0    0  502  503 -0.00000000000E+00 -0.00000000000E+00 -0.81138481502E+02  0.81138481502E+02  0.00000000000E+00 0. -1.
          6    1    1    2  501    0 -0.14803799357E+02 -0.90065884583E+01  0.17459500363E+03  0.24639944481E+03  0.17300000000E+03 0. -1.
         -6    1    1    2    0  503  0.14803799357E+02  0.90065884583E+01  0.12182701146E+03  0.21229953328E+03  0.17300000000E+03 0. -1.
<mgrwt>
<rscale>  2 0.17386567E+03</rscale>
<asrwt>0</asrwt>
<pdfrwt beam="1">  1       21 0.58086229E-01 0.17386567E+03</pdfrwt>
<pdfrwt beam="2">  1       21 0.12482844E-01 0.17386567E+03</pdfrwt>
<totfact> 0.15281176E+05</totfact>
</mgrwt>
</event>
<event>
 4    1  0.4090208E+000  0.2145559E+03  0.7546771E-02  0.1138008E+00
         21   -1    0    0  503  502  0.00000000000E+00  0.00000000000E+00  0.14115088654E+03  0.14115088654E+03  0.00000000000E+00 0. -1.
         21   -1    0    0  501  503 -0.00000000000E+00 -0.00000000000E+00 -0.35748822375E+03  0.35748822375E+03  0.00000000000E+00 0. -1.
          6    1    1    2  501    0 -0.10327070087E+02 -0.12648549408E+03 -0.18200453054E+03  0.28135365241E+03  0.17300000000E+03 0. -1.
         -6    1    1    2    0  502  0.10327070087E+02  0.12648549408E+03 -0.34332806671E+02  0.21728545787E+03  0.17300000000E+03 0. -1.
<mgrwt>
<rscale>  2 0.21455589E+03</rscale>
<asrwt>0</asrwt>
<pdfrwt beam="1">  1       21 0.21715521E-01 0.21455589E+03</pdfrwt>
<pdfrwt beam="2">  1       21 0.54998188E-01 0.21455589E+03</pdfrwt>
<totfact> 0.61093435E+04</totfact>
</mgrwt>
</event>
<event>
 4    1  0.4090208E+000  0.3356085E+03  0.7546771E-02  0.1068682E+00
         21   -1    0    0  501  502  0.00000000000E+00  0.00000000000E+00  0.84605337115E+03  0.84605337115E+03  0.00000000000E+00 0. -1.
         21   -1    0    0  502  503 -0.00000000000E+00 -0.00000000000E+00 -0.13418142075E+03  0.13418142075E+03  0.00000000000E+00 0.  1.
          6    1    1    2  501    0  0.23738127237E+03 -0.16233976403E+03  0.31250153705E+03  0.45857417951E+03  0.17300000000E+03 0. -1.
         -6    1    1    2    0  503 -0.23738127237E+03  0.16233976403E+03  0.39937041335E+03  0.52166061239E+03  0.17300000000E+03 0.  1.
<mgrwt>
<rscale>  2 0.33560850E+03</rscale>
<asrwt>0</asrwt>
<pdfrwt beam="1">  1       21 0.13016205E+00 0.33560850E+03</pdfrwt>
<pdfrwt beam="2">  1       21 0.20643296E-01 0.33560850E+03</pdfrwt>
<totfact> 0.86365031E+03</totfact>
</mgrwt>
</event>
<event>
 4    1  0.4090208E+000  0.2215172E+03  0.7546771E-02  0.1132757E+00
         21   -1    0    0  501  502  0.00000000000E+00  0.00000000000E+00  0.20567096362E+03  0.20567096362E+03  0.00000000000E+00 0.  1.
         21   -1    0    0  502  503 -0.00000000000E+00 -0.00000000000E+00 -0.35830920362E+03  0.35830920362E+03  0.00000000000E+00 0. -1.
          6    1    1    2  501    0  0.78385295516E+02  0.11400272029E+03  0.86684405490E+02  0.23787404428E+03  0.17300000000E+03 0. -1.
         -6    1    1    2    0  503 -0.78385295516E+02 -0.11400272029E+03 -0.23932264549E+03  0.32610612296E+03  0.17300000000E+03 0. -1.
<mgrwt>
<rscale>  2 0.22151721E+03</rscale>
<asrwt>0</asrwt>
<pdfrwt beam="1">  1       21 0.31641687E-01 0.22151721E+03</pdfrwt>
<pdfrwt beam="2">  1       21 0.55124492E-01 0.22151721E+03</pdfrwt>
<totfact> 0.29350228E+04</totfact>
</mgrwt>
</event>
<event>
 4    1  0.4090208E+000  0.3973973E+03  0.7546771E-02  0.1044685E+00
         21   -1    0    0  501  502  0.00000000000E+00  0.00000000000E+00  0.26440305902E+03  0.26440305902E+03  0.00000000000E+00 0. -1.
         21   -1    0    0  502  503 -0.00000000000E+00 -0.00000000000E+00 -0.64833099239E+03  0.64833099239E+03  0.00000000000E+00 0. -1.
          6    1    1    2  501    0 -0.23230034606E+02 -0.35700981535E+03 -0.63912060983E+02  0.40250390595E+03  0.17300000000E+03 0. -1.
         -6    1    1    2    0  503  0.23230034606E+02  0.35700981535E+03 -0.32001587239E+03  0.51023014547E+03  0.17300000000E+03 0. -1.
<mgrwt>
<rscale>  2 0.39739734E+03</rscale>
<asrwt>0</asrwt>
<pdfrwt beam="1">  1       21 0.40677394E-01 0.39739734E+03</pdfrwt>
<pdfrwt beam="2">  1       21 0.99743228E-01 0.39739734E+03</pdfrwt>
<totfact> 0.42907514E+03</totfact>
</mgrwt>
</event>
<event>
 4    1  0.4090208E+000  0.1738954E+03  0.7546771E-02  0.1173845E+00
         21   -1    0    0  503  502  0.00000000000E+00  0.00000000000E+00  0.17511619314E+04  0.17511619314E+04  0.00000000000E+00 0. -1.
         21   -1    0    0  501  503 -0.00000000000E+00 -0.00000000000E+00 -0.54841770572E+02  0.54841770572E+02  0.00000000000E+00 0. -1.
          6    1    1    2  501    0  0.17254437454E+02 -0.35886879804E+01  0.10072488008E+03  0.20096043332E+03  0.17300000000E+03 0. -1.
         -6    1    1    2    0  502 -0.17254437454E+02  0.35886879804E+01  0.15955952808E+04  0.16050432687E+04  0.17300000000E+03 0. -1.
<mgrwt>
<rscale>  2 0.17389535E+03</rscale>
<asrwt>0</asrwt>
<pdfrwt beam="1">  1       21 0.26940949E+00 0.17389535E+03</pdfrwt>
<pdfrwt beam="2">  1       21 0.84371968E-02 0.17389535E+03</pdfrwt>
<totfact> 0.57222852E+03</totfact>
</mgrwt>
</event>
<event>
 4    1  0.4090208E+000  0.2062686E+03  0.7546771E-02  0.1144555E+00
         21   -1    0    0  501  502  0.00000000000E+00  0.00000000000E+00  0.13910091938E+03  0.13910091938E+03  0.00000000000E+00 0.  1.
         21   -1    0    0  502  503 -0.00000000000E+00 -0.00000000000E+00 -0.33631889802E+03  0.33631889802E+03  0.00000000000E+00 0.  1.
          6    1    1    2  501    0  0.10283566644E+03  0.45194551647E+02 -0.27083414399E+02  0.20803901828E+03  0.17300000000E+03 0.  1.
         -6    1    1    2    0  503 -0.10283566644E+03 -0.45194551647E+02 -0.17013456424E+03  0.26738079912E+03  0.17300000000E+03 0.  1.
<mgrwt>
<rscale>  2 0.20626857E+03</rscale>
<asrwt>0</asrwt>
<pdfrwt beam="1">  1       21 0.21400141E-01 0.20626857E+03</pdfrwt>
<pdfrwt beam="2">  1       21 0.51741369E-01 0.20626857E+03</pdfrwt>
<totfact> 0.71695618E+04</totfact>
</mgrwt>
</event>
<event>
 4    1  0.4090208E+000  0.2243489E+03  0.7546771E-02  0.1130682E+00
         21   -1    0    0  503  502  0.00000000000E+00  0.00000000000E+00  0.15743741967E+04  0.15743741967E+04  0.00000000000E+00 0.  1.
         21   -1    0    0  501  503 -0.00000000000E+00 -0.00000000000E+00 -0.35593866169E+02  0.35593866169E+02  0.00000000000E+00 0.  1.
          6    1    1    2  501    0  0.12679171037E+03 -0.65782307702E+02  0.10262504264E+04  0.10504867383E+04  0.17300000000E+03 0.  1.
         -6    1    1    2    0  502 -0.12679171037E+03  0.65782307702E+02  0.51252990416E+03  0.55948132451E+03  0.17300000000E+03 0.  1.
<mgrwt>
<rscale>  2 0.22434895E+03</rscale>
<asrwt>0</asrwt>
<pdfrwt beam="1">  1       21 0.24221136E+00 0.22434895E+03</pdfrwt>
<pdfrwt beam="2">  1       21 0.54759806E-02 0.22434895E+03</pdfrwt>
<totfact> 0.16592776E+04</totfact>
</mgrwt>
</event>
<event>
 4    1  0.4090208E+000  0.1766693E+03  0.7546771E-02  0.1171066E+00
         21   -1    0    0  503  502  0.00000000000E+00  0.00000000000E+00  0.37892193575E+02  0.37892193575E+02  0.00000000000E+00 0. -1.
         21   -1    0    0  501  503 -0.00000000000E+00 -0.00000000000E+00 -0.10044698691E+04  0.10044698691E+04  0.00000000000E+00 0. -1.
          6    1    1    2  501    0  0.35680865328E+02  0.31469868476E+01 -0.70438232163E+03  0.72620002940E+03  0.17300000000E+03 0. -1.
         -6    1    1    2    0  502 -0.35680865328E+02 -0.31469868476E+01 -0.26219535387E+03  0.31616203324E+03  0.17300000000E+03 0. -1.
<mgrwt>
<rscale>  2 0.17666926E+03</rscale>
<asrwt>0</asrwt>
<pdfrwt beam="1">  1       21 0.58295690E-02 0.17666926E+03</pdfrwt>
<pdfrwt beam="2">  1       21 0.15453381E+00 0.17666926E+03</pdfrwt>
<totfact> 0.57738419E+04</totfact>
</mgrwt>
</event>
<event>
 4    1  0.4090208E+000  0.4311975E+03  0.7546771E-02  0.1033482E+00
         21   -1    0    0  503  502  0.00000000000E+00  0.00000000000E+00  0.59212457023E+03  0.59212457023E+03  0.00000000000E+00 0. -1.
         21   -1    0    0  501  503 -0.00000000000E+00 -0.00000000000E+00 -0.33109557780E+03  0.33109557780E+03  0.00000000000E+00 0.  1.
          6    1    1    2  501    0  0.38002509996E+03  0.10762521380E+03  0.25644445805E+02  0.43195937407E+03  0.17300000000E+03 0.  1.
         -6    1    1    2    0  502 -0.38002509996E+03 -0.10762521380E+03  0.23538454663E+03  0.49126077396E+03  0.17300000000E+03 0. -1.
<mgrwt>
<rscale>  2 0.43119748E+03</rscale>
<asrwt>0</asrwt>
<pdfrwt beam="1">  1       21 0.91096088E-01 0.43119748E+03</pdfrwt>
<pdfrwt beam="2">  1       21 0.50937781E-01 0.43119748E+03</pdfrwt>
<totfact> 0.32856787E+03</totfact>
</mgrwt>
</event>
<event>
 4    1  0.4090208E+000  0.2048652E+03  0.7546771E-02  0.1145698E+00
         21   -1    0    0  503  502  0.00000000000E+00  0.00000000000E+00  0.65163180906E+02  0.65163180906E+02  0.00000000000E+00 0.  1.
         21   -1    0    0  501  503 -0.00000000000E+00 -0.00000000000E+00 -0.84108784403E+03  0.84108784403E+03  0.00000000000E+00 0. -1.
          6    1    1    2  501    0 -0.28996361385E+00  0.10972995630E+03 -0.60726755183E+03  0.64089283573E+03  0.17300000000E+03 0. -1.
         -6    1    1    2    0  502  0.28996361385E+00 -0.10972995630E+03 -0.16865711130E+03  0.26535818921E+03  0.17300000000E+03 0.  1.
<mgrwt>
<rscale>  2 0.20486519E+03</rscale>
<asrwt>0</asrwt>
<pdfrwt beam="1">  1       21 0.10025105E-01 0.20486519E+03</pdfrwt>
<pdfrwt beam="2">  1       21 0.12939812E+00 0.20486519E+03</pdfrwt>
<totfact> 0.35081290E+04</totfact>
</mgrwt>
</event>
<event>
 4    1  0.4090208E+000  0.2118861E+03  0.7546771E-02  0.1140081E+00
         21   -1    0    0  501  502  0.00000000000E+00  0.00000000000E+00  0.83119533237E+03  0.83119533237E+03  0.00000000000E+00 0. -1.
         21   -1    0    0  502  503 -0.00000000000E+00 -0.00000000000E+00 -0.56846137231E+02  0.56846137231E+02  0.00000000000E+00 0. -1.
          6    1    1    2  501    0  0.50531094133E+01  0.12223406427E+03  0.48629306706E+03  0.53044947681E+03  0.17300000000E+03 0. -1.
         -6    1    1    2    0  503 -0.50531094133E+01 -0.12223406427E+03  0.28805612808E+03  0.35759199279E+03  0.17300000000E+03 0. -1.
<mgrwt>
<rscale>  2 0.21188606E+03</rscale>
<asrwt>0</asrwt>
<pdfrwt beam="1">  1       21 0.12787620E+00 0.21188606E+03</pdfrwt>
<pdfrwt beam="2">  1       21 0.87455602E-02 0.21188606E+03</pdfrwt>
<totfact> 0.45800154E+04</totfact>
</mgrwt>
</event>
<event>
 4    1  0.4090208E+000  0.1967824E+03  0.7546771E-02  0.1152482E+00
         21   -1    0    0  503  502  0.00000000000E+00  0.00000000000E+00  0.15713214222E+03  0.15713214222E+03  0.00000000000E+00 0.  1.
         21   -1    0    0  501  503 -0.00000000000E+00 -0.00000000000E+00 -0.32207071794E+03  0.32207071794E+03  0.00000000000E+00 0. -1.
          6    1    1    2  501    0 -0.81059077774E+02 -0.47156341439E+02 -0.19857920122E+03  0.27956572355E+03  0.17300000000E+03 0. -1.
         -6    1    1    2    0  502  0.81059077774E+02  0.47156341439E+02  0.33640625502E+02  0.19963713660E+03  0.17300000000E+03 0.  1.
<mgrwt>
<rscale>  2 0.19678235E+03</rscale>
<asrwt>0</asrwt>
<pdfrwt beam="1">  1       21 0.24174176E-01 0.19678235E+03</pdfrwt>
<pdfrwt beam="2">  1       21 0.49549340E-01 0.19678235E+03</pdfrwt>
<totfact> 0.62585193E+04</totfact>
</mgrwt>
</event>
<event>
 4    1  0.4090208E+000  0.1882659E+03  0.7546771E-02  0.1160035E+00
         21   -1    0    0  501  502  0.00000000000E+00  0.00000000000E+00  0.11586809525E+03  0.11586809525E+03  0.00000000000E+00 0. -1.
         21   -1    0    0  502  503 -0.00000000000E+00 -0.00000000000E+00 -0.42710648584E+03  0.42710648584E+03  0.00000000000E+00 0. -1.
          6    1    1    2  501    0  0.12170409431E+02 -0.73259235234E+02 -0.30024460296E+03  0.35438800208E+03  0.17300000000E+03 0. -1.
         -6    1    1    2    0  503 -0.12170409431E+02  0.73259235234E+02 -0.10993787623E+02  0.18858657900E+03  0.17300000000E+03 0. -1.
<mgrwt>
<rscale>  2 0.18826586E+03</rscale>
<asrwt>0</asrwt>
<pdfrwt beam="1">  1       21 0.17825861E-01 0.18826586E+03</pdfrwt>
<pdfrwt beam="2">  1       21 0.65708688E-01 0.18826586E+03</pdfrwt>
<totfact> 0.60965882E+04</totfact>
</mgrwt>
</event>
<event>
 4    1  0.4090208E+000  0.1914650E+03  0.7546771E-02  0.1157147E+00
         21   -1    0    0  503  502  0.00000000000E+00  0.00000000000E+00  0.44213520255E+02  0.44213520255E+02  0.00000000000E+00 0.  1.
         21   -1    0    0  501  503 -0.00000000000E+00 -0.00000000000E+00 -0.13015684914E+04  0.13015684914E+04  0.00000000000E+00 0.  1.
          6    1    1    2  501    0  0.78821134515E+02  0.22739163080E+02 -0.22327821194E+03  0.29412922451E+03  0.17300000000E+03 0.  1.
         -6    1    1    2    0  502 -0.78821134515E+02 -0.22739163080E+02 -0.10340767592E+04  0.10516527872E+04  0.17300000000E+03 0.  1.
<mgrwt>
<rscale>  2 0.19146499E+03</rscale>
<asrwt>0</asrwt>
<pdfrwt beam="1">  1       21 0.68020796E-02 0.19146499E+03</pdfrwt>
<pdfrwt beam="2">  1       21 0.20024132E+00 0.19146499E+03</pdfrwt>
<totfact> 0.21284354E+04</totfact>
</mgrwt>
</event>
<event>
 4    1  0.4090208E+000  0.2156209E+03  0.7546771E-02  0.1137191E+00
         21   -1    0    0  501  502  0.00000000000E+00  0.00000000000E+00  0.41034185086E+03  0.41034185086E+03  0.00000000000E+00 0. -1.
         21   -1    0    0  502  503 -0.00000000000E+00 -0.00000000000E+00 -0.13325560113E+03  0.13325560113E+03  0.00000000000E+00 0.  1.
          6    1    1    2  501    0  0.11093295062E+03  0.65247777631E+02  0.24371983363E+03  0.32541012480E+03  0.17300000000E+03 0. -1.
         -6    1    1    2    0  503 -0.11093295062E+03 -0.65247777631E+02  0.33366416097E+02  0.21818732718E+03  0.17300000000E+03 0.  1.
<mgrwt>
<rscale>  2 0.21562095E+03</rscale>
<asrwt>0</asrwt>
<pdfrwt beam="1">  1       21 0.63129515E-01 0.21562095E+03</pdfrwt>
<pdfrwt beam="2">  1       21 0.20500862E-01 0.21562095E+03</pdfrwt>
<totfact> 0.50616777E+04</totfact>
</mgrwt>
</event>
<event>
 4    1  0.4090208E+000  0.2656087E+03  0.7546771E-02  0.1103819E+00
         21   -1    0    0  503  502  0.00000000000E+00  0.00000000000E+00  0.33163486031E+03  0.33163486031E+03  0.00000000000E+00 0. -1.
         21   -1    0    0  501  503 -0.00000000000E+00 -0.00000000000E+00 -0.21651409849E+03  0.21651409849E+03  0.00000000000E+00 0.  1.
          6    1    1    2  501    0  0.74899190093E+02  0.18710716708E+03  0.21317028374E+02  0.26646274852E+03  0.17300000000E+03 0. -1.
         -6    1    1    2    0  502 -0.74899190093E+02 -0.18710716708E+03  0.93803733450E+02  0.28168621028E+03  0.17300000000E+03 0.  1.
<mgrwt>
<rscale>  2 0.26560870E+03</rscale>
<asrwt>0</asrwt>
<pdfrwt beam="1">  1       21 0.51020748E-01 0.26560870E+03</pdfrwt>
<pdfrwt beam="2">  1       21 0.33309861E-01 0.26560870E+03</pdfrwt>
<totfact> 0.30608186E+04</totfact>
</mgrwt>
</event>
<event>
 4    1  0.4090208E+000  0.1996191E+03  0.7546771E-02  0.1150061E+00
         21   -1    0    0  503  502  0.00000000000E+00  0.00000000000E+00  0.28900143023E+02  0.28900143023E+02  0.00000000000E+00 0. -1.
         21   -1    0    0  501  503 -0.00000000000E+00 -0.00000000000E+00 -0.16692691202E+04  0.16692691202E+04  0.00000000000E+00 0. -1.
          6    1    1    2  501    0 -0.97267559146E+00  0.99588423228E+02 -0.11743697346E+04  0.11912145372E+04  0.17300000000E+03 0. -1.
         -6    1    1    2    0  502  0.97267559146E+00 -0.99588423228E+02 -0.46599924264E+03  0.50695472606E+03  0.17300000000E+03 0. -1.
<mgrwt>
<rscale>  2 0.19961914E+03</rscale>
<asrwt>0</asrwt>
<pdfrwt beam="1">  1       21 0.44461747E-02 0.19961914E+03</pdfrwt>
<pdfrwt beam="2">  1       21 0.25681070E+00 0.19961914E+03</pdfrwt>
<totfact> 0.19773897E+04</totfact>
</mgrwt>
</event>
<event>
 4    1  0.4090208E+000  0.2817995E+03  0.7546771E-02  0.1094710E+00
         21   -1    0    0  503  502  0.00000000000E+00  0.00000000000E+00  0.64872342519E+02  0.64872342519E+02  0.00000000000E+00 0.  1.
         21   -1    0    0  501  503 -0.00000000000E+00 -0.00000000000E+00 -0.12407822871E+04  0.12407822871E+04  0.00000000000E+00 0. -1.
          6    1    1    2  501    0 -0.21578365554E+03 -0.54031396603E+02 -0.66362591038E+03  0.72097872836E+03  0.17300000000E+03 0.  1.
         -6    1    1    2    0  502  0.21578365554E+03  0.54031396603E+02 -0.51228403421E+03  0.58467590127E+03  0.17300000000E+03 0.  1.
<mgrwt>
<rscale>  2 0.28179953E+03</rscale>
<asrwt>0</asrwt>
<pdfrwt beam="1">  1       21 0.99803609E-02 0.28179953E+03</pdfrwt>
<pdfrwt beam="2">  1       21 0.19088957E+00 0.28179953E+03</pdfrwt>
<totfact> 0.11793991E+04</totfact>
</mgrwt>
</event>
<event>
 4    1  0.4090208E+000  0.1760314E+03  0.7546771E-02  0.1171700E+00
         21   -1    0    0  501  502  0.00000000000E+00  0.00000000000E+00  0.31521495719E+03  0.31521495719E+03  0.00000000000E+00 0.  1.
         21   -1    0    0  502  503 -0.00000000000E+00 -0.00000000000E+00 -0.15483651579E+03  0.15483651579E+03  0.00000000000E+00 0.  1.
          6    1    1    2  501    0 -0.13666997454E+02 -0.29516967327E+02  0.22220156346E+03  0.28347940487E+03  0.17300000000E+03 0.  1.
         -6    1    1    2    0  503  0.13666997454E+02  0.29516967327E+02 -0.61823122059E+02  0.18657206811E+03  0.17300000000E+03 0.  1.
<mgrwt>
<rscale>  2 0.17603136E+03</rscale>
<asrwt>0</asrwt>
<pdfrwt beam="1">  1       21 0.48494609E-01 0.17603136E+03</pdfrwt>
<pdfrwt beam="2">  1       21 0.23821003E-01 0.17603136E+03</pdfrwt>
<totfact> 0.67919866E+04</totfact>
</mgrwt>
</event>
<event>
 4    1  0.4090208E+000  0.2309710E+03  0.7546771E-02  0.1125958E+00
         21   -1    0    0  501  502  0.00000000000E+00  0.00000000000E+00  0.36809934149E+04  0.36809934149E+04  0.00000000000E+00 0. -1.
         21   -1    0    0  502  503 -0.00000000000E+00 -0.00000000000E+00 -0.17109107477E+02  0.17109107477E+02  0.00000000000E+00 0.  1.
          6    1    1    2  501    0 -0.76729376916E+02  0.13240547112E+03  0.25550221104E+04  0.25654406231E+04  0.17300000000E+03 0. -1.
         -6    1    1    2    0  503  0.76729376916E+02 -0.13240547112E+03  0.11088621970E+04  0.11326618993E+04  0.17300000000E+03 0.  1.
<mgrwt>
<rscale>  2 0.23097101E+03</rscale>
<asrwt>0</asrwt>
<pdfrwt beam="1">  1       21 0.56630605E+00 0.23097101E+03</pdfrwt>
<pdfrwt beam="2">  1       21 0.26321733E-02 0.23097101E+03</pdfrwt>
<totfact> 0.45938266E+02</totfact>
</mgrwt>
</event>
<event>
 4    1  0.4090208E+000  0.1785381E+03  0.7546771E-02  0.1169225E+00
         21   -1    0    0  503  502  0.00000000000E+00  0.00000000000E+00  0.17795064837E+03  0.17795064837E+03  0.00000000000E+00 0.  1.
         21   -1    0    0  501  503 -0.00000000000E+00 -0.00000000000E+00 -0.24590431615E+03  0.24590431615E+03  0.00000000000E+00 0.  1.
          6    1    1    2  501    0  0.40235914546E+02 -0.18108710191E+02 -0.14441446116E+03  0.22963316572E+03  0.17300000000E+03 0.  1.
         -6    1    1    2    0  502 -0.40235914546E+02  0.18108710191E+02  0.76460793389E+02  0.19422179880E+03  0.17300000000E+03 0.  1.
<mgrwt>
<rscale>  2 0.17853810E+03</rscale>
<asrwt>0</asrwt>
<pdfrwt beam="1">  1       21 0.27377023E-01 0.17853810E+03</pdfrwt>
<pdfrwt beam="2">  1       21 0.37831433E-01 0.17853810E+03</pdfrwt>
<totfact> 0.86225331E+04</totfact>
</mgrwt>
</event>
<event>
 4    1  0.4090208E+000  0.1784329E+03  0.7546771E-02  0.1169328E+00
         21   -1    0    0  501  502  0.00000000000E+00  0.00000000000E+00  0.56297917452E+03  0.56297917452E+03  0.00000000000E+00 0.  1.
         21   -1    0    0  502  503 -0.00000000000E+00 -0.00000000000E+00 -0.78704379087E+02  0.78704379087E+02  0.00000000000E+00 0.  1.
          6    1    1    2  501    0  0.41595710342E+02 -0.13382045035E+02  0.41234922819E+03  0.44929964193E+03  0.17300000000E+03 0.  1.
         -6    1    1    2    0  503 -0.41595710342E+02  0.13382045035E+02  0.71925567236E+02  0.19238391167E+03  0.17300000000E+03 0.  1.
<mgrwt>
<rscale>  2 0.17843285E+03</rscale>
<asrwt>0</asrwt>
<pdfrwt beam="1">  1       21 0.86612178E-01 0.17843285E+03</pdfrwt>
<pdfrwt beam="2">  1       21 0.12108366E-01 0.17843285E+03</pdfrwt>
<totfact> 0.66704947E+04</totfact>
</mgrwt>
</event>
<event>
 4    1  0.4090208E+000  0.1929461E+03  0.7546771E-02  0.1155831E+00
         21   -1    0    0  501  502  0.00000000000E+00  0.00000000000E+00  0.10357676716E+03  0.10357676716E+03  0.00000000000E+00 0. -1.
         21   -1    0    0  502  503 -0.00000000000E+00 -0.00000000000E+00 -0.36326262996E+03  0.36326262996E+03  0.00000000000E+00 0.  1.
          6    1    1    2  501    0 -0.52477255811E+02  0.67418973724E+02 -0.15383145862E+03  0.24676364817E+03  0.17300000000E+03 0. -1.
         -6    1    1    2    0  503  0.52477255811E+02 -0.67418973724E+02 -0.10585440418E+03  0.22007574896E+03  0.17300000000E+03 0.  1.
<mgrwt>
<rscale>  2 0.19294606E+03</rscale>
<asrwt>0</asrwt>
<pdfrwt beam="1">  1       21 0.15934887E-01 0.19294606E+03</pdfrwt>
<pdfrwt beam="2">  1       21 0.55886558E-01 0.19294606E+03</pdfrwt>
<totfact> 0.10592088E+05</totfact>
</mgrwt>
</event>
<event>
 4    1  0.4090208E+000  0.2229276E+03  0.7546771E-02  0.1131719E+00
         21   -1    0    0  501  502  0.00000000000E+00  0.00000000000E+00  0.62724774059E+02  0.62724774059E+02  0.00000000000E+00 0.  1.
         21   -1    0    0  502  503 -0.00000000000E+00 -0.00000000000E+00 -0.91248053162E+03  0.91248053162E+03  0.00000000000E+00 0.  1.
          6    1    1    2  501    0  0.14052126478E+03 -0.46377092168E+01 -0.60183755724E+03  0.64179839475E+03  0.17300000000E+03 0.  1.
         -6    1    1    2    0  503 -0.14052126478E+03  0.46377092168E+01 -0.24791820032E+03  0.33340691093E+03  0.17300000000E+03 0.  1.
<mgrwt>
<rscale>  2 0.22292764E+03</rscale>
<asrwt>0</asrwt>
<pdfrwt beam="1">  1       21 0.96499658E-02 0.22292764E+03</pdfrwt>
<pdfrwt beam="2">  1       21 0.14038161E+00 0.22292764E+03</pdfrwt>
<totfact> 0.30158492E+04</totfact>
</mgrwt>
</event>
<event>
 4    1  0.4090208E+000  0.2018343E+03  0.7546771E-02  0.1148201E+00
         21   -1    0    0  501  502  0.00000000000E+00  0.00000000000E+00  0.48669848311E+02  0.48669848311E+02  0.00000000000E+00 0.  1.
         21   -1    0    0  502  503 -0.00000000000E+00 -0.00000000000E+00 -0.84149893513E+03  0.84149893513E+03  0.00000000000E+00 0.  1.
          6    1    1    2  501    0  0.39044029803E+02 -0.96351697033E+02 -0.36390201116E+03  0.41612709538E+03  0.17300000000E+03 0.  1.
         -6    1    1    2    0  503 -0.39044029803E+02  0.96351697033E+02 -0.42892707566E+03  0.47404168806E+03  0.17300000000E+03 0.  1.
<mgrwt>
<rscale>  2 0.20183430E+03</rscale>
<asrwt>0</asrwt>
<pdfrwt beam="1">  1       21 0.74876691E-02 0.20183430E+03</pdfrwt>
<pdfrwt beam="2">  1       21 0.12946137E+00 0.20183430E+03</pdfrwt>
<totfact> 0.58522093E+04</totfact>
</mgrwt>
</event>
<event>
 4    1  0.4090208E+000  0.1970156E+03  0.7546771E-02  0.1152282E+00
         21   -1    0    0  503  502  0.00000000000E+00  0.00000000000E+00  0.17595251578E+04  0.17595251578E+04  0.00000000000E+00 0. -1.
         21   -1    0    0  501  503 -0.00000000000E+00 -0.00000000000E+00 -0.22235275789E+02  0.22235275789E+02  0.00000000000E+00 0.  1.
          6    1    1    2  501    0 -0.52204926223E+02 -0.78490667333E+02  0.78954994247E+03  0.81375933226E+03  0.17300000000E+03 0. -1.
         -6    1    1    2    0  502  0.52204926223E+02  0.78490667333E+02  0.94773993958E+03  0.96800110137E+03  0.17300000000E+03 0. -1.
<mgrwt>
<rscale>  2 0.19701558E+03</rscale>
<asrwt>0</asrwt>
<pdfrwt beam="1">  1       21 0.27069607E+00 0.19701558E+03</pdfrwt>
<pdfrwt beam="2">  1       21 0.34208130E-02 0.19701558E+03</pdfrwt>
<totfact> 0.25528630E+04</totfact>
</mgrwt>
</event>
<event>
 4    1  0.4090208E+000  0.1762423E+03  0.7546771E-02  0.1171490E+00
         21   -1    0    0  503  502  0.00000000000E+00  0.00000000000E+00  0.56319379130E+02  0.56319379130E+02  0.00000000000E+00 0. -1.
         21   -1    0    0  501  503 -0.00000000000E+00 -0.00000000000E+00 -0.55177048417E+03  0.55177048417E+03  0.00000000000E+00 0. -1.
          6    1    1    2  501    0  0.25990880670E+02 -0.21373424733E+02 -0.24126702566E+03  0.29878274186E+03  0.17300000000E+03 0.  1.
         -6    1    1    2    0  502 -0.25990880670E+02  0.21373424733E+02 -0.25418407938E+03  0.30930712144E+03  0.17300000000E+03 0.  1.
<mgrwt>
<rscale>  2 0.17624230E+03</rscale>
<asrwt>0</asrwt>
<pdfrwt beam="1">  1       21 0.86645200E-02 0.17624230E+03</pdfrwt>
<pdfrwt beam="2">  1       21 0.84887766E-01 0.17624230E+03</pdfrwt>
<totfact> 0.12624661E+05</totfact>
</mgrwt>
</event>
<event>
 4    1  0.4090208E+000  0.2626012E+03  0.7546771E-02  0.1105590E+00
         21   -1    0    0  501  502  0.00000000000E+00  0.00000000000E+00  0.47012109202E+03  0.47012109202E+03  0.00000000000E+00 0. -1.
         21   -1    0    0  502  503 -0.00000000000E+00 -0.00000000000E+00 -0.30142286471E+03  0.30142286471E+03  0.00000000000E+00 0.  1.
          6    1    1    2  501    0 -0.54844487429E+01  0.19748501415E+03  0.36075149739E+03  0.44620741014E+03  0.17300000000E+03 0. -1.
         -6    1    1    2    0  503  0.54844487429E+01 -0.19748501415E+03 -0.19205327009E+03  0.32533654659E+03  0.17300000000E+03 0.  1.
<mgrwt>
<rscale>  2 0.26260124E+03</rscale>
<asrwt>0</asrwt>
<pdfrwt beam="1">  1       21 0.72326322E-01 0.26260124E+03</pdfrwt>
<pdfrwt beam="2">  1       21 0.46372748E-01 0.26260124E+03</pdfrwt>
<totfact> 0.73410863E+03</totfact>
</mgrwt>
</event>
<event>
 4    1  0.4090208E+000  0.1989196E+03  0.7546771E-02  0.1150654E+00
         21   -1    0    0  501  502  0.00000000000E+00  0.00000000000E+00  0.23891178838E+03  0.23891178838E+03  0.00000000000E+00 0.  1.
         21   -1    0    0  502  503 -0.00000000000E+00 -0.00000000000E+00 -0.42707399932E+03  0.42707399932E+03  0.00000000000E+00 0.  1.
          6    1    1    2  501    0  0.63931420176E+02 -0.74516967419E+02  0.16646196911E+03  0.25938117140E+03  0.17300000000E+03 0.  1.
         -6    1    1    2    0  503 -0.63931420176E+02  0.74516967419E+02 -0.35462418005E+03  0.40660461630E+03  0.17300000000E+03 0.  1.
<mgrwt>
<rscale>  2 0.19891959E+03</rscale>
<asrwt>0</asrwt>
<pdfrwt beam="1">  1       21 0.36755661E-01 0.19891959E+03</pdfrwt>
<pdfrwt beam="2">  1       21 0.65703691E-01 0.19891959E+03</pdfrwt>
<totfact> 0.15137366E+04</totfact>
</mgrwt>
</event>
<event>
 4    1  0.4090208E+000  0.2092470E+03  0.7546771E-02  0.1142164E+00
         21   -1    0    0  503  502  0.00000000000E+00  0.00000000000E+00  0.76277362957E+03  0.76277362957E+03  0.00000000000E+00 0. -1.
         21   -1    0    0  501  503 -0.00000000000E+00 -0.00000000000E+00 -0.96213669160E+02  0.96213669160E+02  0.00000000000E+00 0. -1.
          6    1    1    2  501    0 -0.27636620750E+02 -0.11441828665E+03  0.60493722858E+02  0.21781601785E+03  0.17300000000E+03 0. -1.
         -6    1    1    2    0  502  0.27636620750E+02  0.11441828665E+03  0.60606623755E+03  0.64117128088E+03  0.17300000000E+03 0. -1.
<mgrwt>
<rscale>  2 0.20924705E+03</rscale>
<asrwt>0</asrwt>
<pdfrwt beam="1">  1       21 0.11734978E+00 0.20924705E+03</pdfrwt>
<pdfrwt beam="2">  1       21 0.14802104E-01 0.20924705E+03</pdfrwt>
<totfact> 0.22196340E+04</totfact>
</mgrwt>
</event>
<event>
 4    1  0.4090208E+000  0.2022340E+03  0.7546771E-02  0.1147868E+00
         21   -1    0    0  503  502  0.00000000000E+00  0.00000000000E+00  0.13281042802E+03  0.13281042802E+03  0.00000000000E+00 0. -1.
         21   -1    0    0  501  503 -0.00000000000E+00 -0.00000000000E+00 -0.32495553426E+03  0.32495553426E+03  0.00000000000E+00 0. -1.
          6    1    1    2  501    0  0.10129637868E+03 -0.26620103481E+02 -0.14843665897E+03  0.25086256790E+03  0.17300000000E+03 0. -1.
         -6    1    1    2    0  502 -0.10129637868E+03  0.26620103481E+02 -0.43708447263E+02  0.20690339438E+03  0.17300000000E+03 0. -1.
<mgrwt>
<rscale>  2 0.20223399E+03</rscale>
<asrwt>0</asrwt>
<pdfrwt beam="1">  1       21 0.20432373E-01 0.20223399E+03</pdfrwt>
<pdfrwt beam="2">  1       21 0.49993159E-01 0.20223399E+03</pdfrwt>
<totfact> 0.84187805E+04</totfact>
</mgrwt>
</event>
<event>
 4    1  0.4090208E+000  0.1758893E+03  0.7546771E-02  0.1171842E+00
         21   -1    0    0  501  502  0.00000000000E+00  0.00000000000E+00  0.18621903020E+03  0.18621903020E+03  0.00000000000E+00 0. -1.
         21   -1    0    0  502  503 -0.00000000000E+00 -0.00000000000E+00 -0.16728801153E+03  0.16728801153E+03  0.00000000000E+00 0. -1.
          6    1    1    2  501    0 -0.18237002418E+02 -0.25989250214E+02  0.24155668143E+02  0.17754020865E+03  0.17300000000E+03 0. -1.
         -6    1    1    2    0  503  0.18237002418E+02  0.25989250214E+02 -0.52246494745E+01  0.17596683309E+03  0.17300000000E+03 0. -1.
<mgrwt>
<rscale>  2 0.17588925E+03</rscale>
<asrwt>0</asrwt>
<pdfrwt beam="1">  1       21 0.28649081E-01 0.17588925E+03</pdfrwt>
<pdfrwt beam="2">  1       21 0.25736617E-01 0.17588925E+03</pdfrwt>
<totfact> 0.16785967E+05</totfact>
</mgrwt>
</event>
<event>
 4    1  0.4090208E+000  0.2111495E+03  0.7546771E-02  0.1140659E+00
         21   -1    0    0  501  502  0.00000000000E+00  0.00000000000E+00  0.75412540542E+03  0.75412540542E+03  0.00000000000E+00 0. -1.
         21   -1    0    0  502  503 -0.00000000000E+00 -0.00000000000E+00 -0.62123148212E+02  0.62123148212E+02  0.00000000000E+00 0.  1.
          6    1    1    2  501    0  0.12101297554E+03 -0.33126942269E+01  0.43573015751E+03  0.48419508915E+03  0.17300000000E+03 0.  1.
         -6    1    1    2    0  503 -0.12101297554E+03  0.33126942269E+01  0.25627209969E+03  0.33205346448E+03  0.17300000000E+03 0. -1.
<mgrwt>
<rscale>  2 0.21114951E+03</rscale>
<asrwt>0</asrwt>
<pdfrwt beam="1">  1       21 0.11601929E+00 0.21114951E+03</pdfrwt>
<pdfrwt beam="2">  1       21 0.95574080E-02 0.21114951E+03</pdfrwt>
<totfact> 0.49945253E+04</totfact>
</mgrwt>
</event>
<event>
 4    1  0.4090208E+000  0.2113096E+03  0.7546771E-02  0.1140533E+00
         21   -1    0    0  503  502  0.00000000000E+00  0.00000000000E+00  0.11775452441E+03  0.11775452441E+03  0.00000000000E+00 0.  1.
         21   -1    0    0  501  503 -0.00000000000E+00 -0.00000000000E+00 -0.63142127146E+03  0.63142127146E+03  0.00000000000E+00 0.  1.
          6    1    1    2  501    0 -0.73575609883E+02  0.96485014424E+02 -0.49358378872E+03  0.53691403862E+03  0.17300000000E+03 0.  1.
         -6    1    1    2    0  502  0.73575609883E+02 -0.96485014424E+02 -0.20082958330E+02  0.21226175726E+03  0.17300000000E+03 0.  1.
<mgrwt>
<rscale>  2 0.21130956E+03</rscale>
<asrwt>0</asrwt>
<pdfrwt beam="1">  1       21 0.18116081E-01 0.21130956E+03</pdfrwt>
<pdfrwt beam="2">  1       21 0.97141735E-01 0.21130956E+03</pdfrwt>
<totfact> 0.24123851E+04</totfact>
</mgrwt>
</event>
<event>
 4    1  0.4090208E+000  0.2095473E+03  0.7546771E-02  0.1141925E+00
         21   -1    0    0  503  502  0.00000000000E+00  0.00000000000E+00  0.13610431371E+03  0.13610431371E+03  0.00000000000E+00 0. -1.
         21   -1    0    0  501  503 -0.00000000000E+00 -0.00000000000E+00 -0.38705881616E+03  0.38705881616E+03  0.00000000000E+00 0.  1.
          6    1    1    2  501    0  0.47548080477E+02 -0.10826017017E+03 -0.23220803216E+03  0.31277892289E+03  0.17300000000E+03 0.  1.
         -6    1    1    2    0  502 -0.47548080477E+02  0.10826017017E+03 -0.18746470286E+02  0.21038420699E+03  0.17300000000E+03 0. -1.
<mgrwt>
<rscale>  2 0.20954733E+03</rscale>
<asrwt>0</asrwt>
<pdfrwt beam="1">  1       21 0.20939126E-01 0.20954733E+03</pdfrwt>
<pdfrwt beam="2">  1       21 0.59547508E-01 0.20954733E+03</pdfrwt>
<totfact> 0.55342913E+04</totfact>
</mgrwt>
</event>
<event>
 4    1  0.4090208E+000  0.1756127E+03  0.7546771E-02  0.1172118E+00
         21   -1    0    0  501  502  0.00000000000E+00  0.00000000000E+00  0.27302213898E+02  0.27302213898E+02  0.00000000000E+00 0.  1.
         21   -1    0    0  502  503 -0.00000000000E+00 -0.00000000000E+00 -0.11308440799E+04  0.11308440799E+04  0.00000000000E+00 0.  1.
          6    1    1    2  501    0 -0.27204836252E+02 -0.13066130768E+02 -0.57118977815E+03  0.59757642989E+03  0.17300000000E+03 0.  1.
         -6    1    1    2    0  503  0.27204836252E+02  0.13066130768E+02 -0.53235208785E+03  0.56056986391E+03  0.17300000000E+03 0.  1.
<mgrwt>
<rscale>  2 0.17561272E+03</rscale>
<asrwt>0</asrwt>
<pdfrwt beam="1">  1       21 0.42003403E-02 0.17561272E+03</pdfrwt>
<pdfrwt beam="2">  1       21 0.17397602E+00 0.17561272E+03</pdfrwt>
<totfact> 0.72958276E+04</totfact>
</mgrwt>
</event>
<event>
 4    1  0.4090208E+000  0.1931429E+03  0.7546771E-02  0.1155657E+00
         21   -1    0    0  503  502  0.00000000000E+00  0.00000000000E+00  0.92977434521E+02  0.92977434521E+02  0.00000000000E+00 0.  1.
         21   -1    0    0  501  503 -0.00000000000E+00 -0.00000000000E+00 -0.52369451267E+03  0.52369451267E+03  0.00000000000E+00 0.  1.
          6    1    1    2  501    0 -0.51916538151E+02  0.68409589004E+02 -0.66246742923E+02  0.20418822138E+03  0.17300000000E+03 0.  1.
         -6    1    1    2    0  502  0.51916538151E+02 -0.68409589004E+02 -0.36447033523E+03  0.41248372581E+03  0.17300000000E+03 0.  1.
<mgrwt>
<rscale>  2 0.19314295E+03</rscale>
<asrwt>0</asrwt>
<pdfrwt beam="1">  1       21 0.14304220E-01 0.19314295E+03</pdfrwt>
<pdfrwt beam="2">  1       21 0.80568389E-01 0.19314295E+03</pdfrwt>
<totfact> 0.57873281E+04</totfact>
</mgrwt>
</event>
<event>
 4    1  0.4090208E+000  0.1750557E+03  0.7546771E-02  0.1172676E+00
         21   -1    0    0  503  502  0.00000000000E+00  0.00000000000E+00  0.22491761403E+03  0.22491761403E+03  0.00000000000E+00 0. -1.
         21   -1    0    0  501  503 -0.00000000000E+00 -0.00000000000E+00 -0.15160475791E+03  0.15160475791E+03  0.00000000000E+00 0. -1.
          6    1    1    2  501    0 -0.25421276277E+02  0.83227740098E+01 -0.23261700982E+02  0.17659449761E+03  0.17300000000E+03 0. -1.
         -6    1    1    2    0  502  0.25421276277E+02 -0.83227740098E+01  0.96574557101E+02  0.19992787433E+03  0.17300000000E+03 0. -1.
<mgrwt>
<rscale>  2 0.17505573E+03</rscale>
<asrwt>0</asrwt>
<pdfrwt beam="1">  1       21 0.34602710E-01 0.17505573E+03</pdfrwt>
<pdfrwt beam="2">  1       21 0.23323809E-01 0.17505573E+03</pdfrwt>
<totfact> 0.13995295E+05</totfact>
</mgrwt>
</event>
<event>
 4    1  0.4090208E+000  0.1754161E+03  0.7546771E-02  0.1172315E+00
         21   -1    0    0  503  502  0.00000000000E+00  0.00000000000E+00  0.37994274400E+03  0.37994274400E+03  0.00000000000E+00 0.  1.
         21   -1    0    0  501  503 -0.00000000000E+00 -0.00000000000E+00 -0.11187658523E+03  0.11187658523E+03  0.00000000000E+00 0.  1.
          6    1    1    2  501    0 -0.24917332329E+02  0.14863568515E+02  0.48204167571E+01  0.17548229408E+03  0.17300000000E+03 0. -1.
         -6    1    1    2    0  502  0.24917332329E+02 -0.14863568515E+02  0.26324574201E+03  0.31633703515E+03  0.17300000000E+03 0. -1.
<mgrwt>
<rscale>  2 0.17541607E+03</rscale>
<asrwt>0</asrwt>
<pdfrwt beam="1">  1       21 0.58452729E-01 0.17541607E+03</pdfrwt>
<pdfrwt beam="2">  1       21 0.17211783E-01 0.17541607E+03</pdfrwt>
<totfact> 0.84156027E+04</totfact>
</mgrwt>
</event>
<event>
 4    1  0.4090208E+000  0.2104065E+03  0.7546771E-02  0.1141245E+00
         21   -1    0    0  501  502  0.00000000000E+00  0.00000000000E+00  0.28346006926E+03  0.28346006926E+03  0.00000000000E+00 0.  1.
         21   -1    0    0  502  503 -0.00000000000E+00 -0.00000000000E+00 -0.20119504524E+03  0.20119504524E+03  0.00000000000E+00 0.  1.
          6    1    1    2  501    0  0.27437642502E+02  0.11657210144E+03 -0.73490431069E+02  0.22287153815E+03  0.17300000000E+03 0.  1.
         -6    1    1    2    0  503 -0.27437642502E+02 -0.11657210144E+03  0.15575545508E+03  0.26178357635E+03  0.17300000000E+03 0.  1.
<mgrwt>
<rscale>  2 0.21040646E+03</rscale>
<asrwt>0</asrwt>
<pdfrwt beam="1">  1       21 0.43609241E-01 0.21040646E+03</pdfrwt>
<pdfrwt beam="2">  1       21 0.30953084E-01 0.21040646E+03</pdfrwt>
<totfact> 0.50229422E+04</totfact>
</mgrwt>
</event>
<event>
 4    1  0.4090208E+000  0.2176330E+03  0.7546771E-02  0.1135660E+00
         21   -1    0    0  503  502  0.00000000000E+00  0.00000000000E+00  0.12912180849E+04  0.12912180849E+04  0.00000000000E+00 0. -1.
         21   -1    0    0  501  503 -0.00000000000E+00 -0.00000000000E+00 -0.52849073223E+02  0.52849073223E+02  0.00000000000E+00 0. -1.
          6    1    1    2  501    0 -0.49728678582E+02  0.12232005962E+03  0.24748554087E+03  0.32956521570E+03  0.17300000000E+03 0. -1.
         -6    1    1    2    0  502  0.49728678582E+02 -0.12232005962E+03  0.99088347080E+03  0.10145019424E+04  0.17300000000E+03 0. -1.
<mgrwt>
<rscale>  2 0.21763304E+03</rscale>
<asrwt>0</asrwt>
<pdfrwt beam="1">  1       21 0.19864891E+00 0.21763304E+03</pdfrwt>
<pdfrwt beam="2">  1       21 0.81306277E-02 0.21763304E+03</pdfrwt>
<totfact> 0.15680118E+04</totfact>
</mgrwt>
</event>
<event>
 4    1  0.4090208E+000  0.1902496E+03  0.7546771E-02  0.1158236E+00
         21   -1    0    0  503  502  0.00000000000E+00  0.00000000000E+00  0.38748162468E+02  0.38748162468E+02  0.00000000000E+00 0.  1.
         21   -1    0    0  501  503 -0.00000000000E+00 -0.00000000000E+00 -0.99126253361E+03  0.99126253361E+03  0.00000000000E+00 0.  1.
          6    1    1    2  501    0 -0.75293705782E+02  0.24429076978E+02 -0.35259204192E+03  0.40064456811E+03  0.17300000000E+03 0.  1.
         -6    1    1    2    0  502  0.75293705782E+02 -0.24429076978E+02 -0.59992232922E+03  0.62936612797E+03  0.17300000000E+03 0.  1.
<mgrwt>
<rscale>  2 0.19024963E+03</rscale>
<asrwt>0</asrwt>
<pdfrwt beam="1">  1       21 0.59612556E-02 0.19024963E+03</pdfrwt>
<pdfrwt beam="2">  1       21 0.15250193E+00 0.19024963E+03</pdfrwt>
<totfact> 0.57124945E+04</totfact>
</mgrwt>
</event>
<event>
 4    1  0.4090208E+000  0.1873393E+03  0.7546771E-02  0.1160883E+00
         21   -1    0    0  503  502  0.00000000000E+00  0.00000000000E+00  0.27112401473E+03  0.27112401473E+03  0.00000000000E+00 0. -1.
         21   -1    0    0  501  503 -0.00000000000E+00 -0.00000000000E+00 -0.21463501394E+03  0.21463501394E+03  0.00000000000E+00 0.  1.
          6    1    1    2  501    0 -0.66602432395E+02 -0.27039626421E+02 -0.12476958039E+03  0.22508548062E+03  0.17300000000E+03 0.  1.
         -6    1    1    2    0  502  0.66602432395E+02  0.27039626421E+02  0.18125858118E+03  0.26067354804E+03  0.17300000000E+03 0. -1.
<mgrwt>
<rscale>  2 0.18733933E+03</rscale>
<asrwt>0</asrwt>
<pdfrwt beam="1">  1       21 0.41711387E-01 0.18733933E+03</pdfrwt>
<pdfrwt beam="2">  1       21 0.33020771E-01 0.18733933E+03</pdfrwt>
<totfact> 0.48979031E+04</totfact>
</mgrwt>
</event>
<event>
 4    1  0.4090208E+000  0.2016969E+03  0.7546771E-02  0.1148315E+00
         21   -1    0    0  503  502  0.00000000000E+00  0.00000000000E+00  0.33438888857E+02  0.33438888857E+02  0.00000000000E+00 0.  1.
         21   -1    0    0  501  503 -0.00000000000E+00 -0.00000000000E+00 -0.15214090488E+04  0.15214090488E+04  0.00000000000E+00 0. -1.
          6    1    1    2  501    0 -0.82653409825E+02  0.62618420773E+02 -0.10919624284E+04  0.11104339682E+04  0.17300000000E+03 0. -1.
         -6    1    1    2    0  502  0.82653409825E+02 -0.62618420773E+02 -0.39600773155E+03  0.44441396942E+03  0.17300000000E+03 0.  1.
<mgrwt>
<rscale>  2 0.20169693E+03</rscale>
<asrwt>0</asrwt>
<pdfrwt beam="1">  1       21 0.51444445E-02 0.20169693E+03</pdfrwt>
<pdfrwt beam="2">  1       21 0.23406293E+00 0.20169693E+03</pdfrwt>
<totfact> 0.21030591E+04</totfact>
</mgrwt>
</event>
<event>
 4    1  0.4090208E+000  0.1774994E+03  0.7546771E-02  0.1170245E+00
         21   -1    0    0  501  502  0.00000000000E+00  0.00000000000E+00  0.37030247541E+03  0.37030247541E+03  0.00000000000E+00 0.  1.
         21   -1    0    0  502  503 -0.00000000000E+00 -0.00000000000E+00 -0.11525035862E+03  0.11525035862E+03  0.00000000000E+00 0.  1.
          6    1    1    2  501    0  0.15869215232E+02 -0.36403278860E+02  0.25173763123E+03  0.30802250840E+03  0.17300000000E+03 0. -1.
         -6    1    1    2    0  503 -0.15869215232E+02  0.36403278860E+02  0.33144855665E+01  0.17753032563E+03  0.17300000000E+03 0. -1.
<mgrwt>
<rscale>  2 0.17749938E+03</rscale>
<asrwt>0</asrwt>
<pdfrwt beam="1">  1       21 0.56969611E-01 0.17749938E+03</pdfrwt>
<pdfrwt beam="2">  1       21 0.17730825E-01 0.17749938E+03</pdfrwt>
<totfact> 0.84084625E+04</totfact>
</mgrwt>
</event>
<event>
 4    1  0.4090208E+000  0.1852989E+03  0.7546771E-02  0.1162771E+00
         21   -1    0    0  501  502  0.00000000000E+00  0.00000000000E+00  0.27127764529E+03  0.27127764529E+03  0.00000000000E+00 0.  1.
         21   -1    0    0  502  503 -0.00000000000E+00 -0.00000000000E+00 -0.15458337847E+03  0.15458337847E+03  0.00000000000E+00 0.  1.
          6    1    1    2  501    0 -0.15740918676E+02 -0.64489498327E+02  0.14899081168E+03  0.23776865622E+03  0.17300000000E+03 0.  1.
         -6    1    1    2    0  503  0.15740918676E+02  0.64489498327E+02 -0.32296544864E+02  0.18809236754E+03  0.17300000000E+03 0.  1.
<mgrwt>
<rscale>  2 0.18529887E+03</rscale>
<asrwt>0</asrwt>
<pdfrwt beam="1">  1       21 0.41735022E-01 0.18529887E+03</pdfrwt>
<pdfrwt beam="2">  1       21 0.23782058E-01 0.18529887E+03</pdfrwt>
<totfact> 0.92328560E+04</totfact>
</mgrwt>
</event>
<event>
 4    1  0.4090208E+000  0.4663452E+03  0.7546771E-02  0.1022957E+00
         21   -1    0    0  503  502  0.00000000000E+00  0.00000000000E+00  0.13351887505E+03  0.13351887505E+03  0.00000000000E+00 0.  1.
         21   -1    0    0  501  503 -0.00000000000E+00 -0.00000000000E+00 -0.16733018289E+04  0.16733018289E+04  0.00000000000E+00 0. -1.
          6    1    1    2  501    0 -0.24754032255E+03 -0.35534863215E+03 -0.62259168902E+03  0.77788062895E+03  0.17300000000E+03 0.  1.
         -6    1    1    2    0  502  0.24754032255E+03  0.35534863215E+03 -0.91719126481E+03  0.10289400750E+04  0.17300000000E+03 0. -1.
<mgrwt>
<rscale>  2 0.46634522E+03</rscale>
<asrwt>0</asrwt>
<pdfrwt beam="1">  1       21 0.20541366E-01 0.46634522E+03</pdfrwt>
<pdfrwt beam="2">  1       21 0.25743104E+00 0.46634522E+03</pdfrwt>
<totfact> 0.10750603E+03</totfact>
</mgrwt>
</event>
<event>
 4    1  0.4090208E+000  0.1874034E+03  0.7546771E-02  0.1160824E+00
         21   -1    0    0  503  502  0.00000000000E+00  0.00000000000E+00  0.85924523526E+03  0.85924523526E+03  0.00000000000E+00 0.  1.
         21   -1    0    0  501  503 -0.00000000000E+00 -0.00000000000E+00 -0.47845134081E+02  0.47845134081E+02  0.00000000000E+00 0.  1.
          6    1    1    2  501    0  0.47375653429E+02  0.54282460125E+02  0.57883336395E+03  0.60841441571E+03  0.17300000000E+03 0.  1.
         -6    1    1    2    0  502 -0.47375653429E+02 -0.54282460125E+02  0.23256673722E+03  0.29867595363E+03  0.17300000000E+03 0.  1.
<mgrwt>
<rscale>  2 0.18740341E+03</rscale>
<asrwt>0</asrwt>
<pdfrwt beam="1">  1       21 0.13219156E+00 0.18740341E+03</pdfrwt>
<pdfrwt beam="2">  1       21 0.73607905E-02 0.18740341E+03</pdfrwt>
<totfact> 0.57616454E+04</totfact>
</mgrwt>
</event>
<event>
 4    1  0.4090208E+000  0.2179694E+03  0.7546771E-02  0.1135406E+00
         21   -1    0    0  501  502  0.00000000000E+00  0.00000000000E+00  0.70869476139E+03  0.70869476139E+03  0.00000000000E+00 0. -1.
         21   -1    0    0  502  503 -0.00000000000E+00 -0.00000000000E+00 -0.32976285526E+03  0.32976285526E+03  0.00000000000E+00 0.  1.
          6    1    1    2  501    0  0.13207599207E+03 -0.11729432248E+02  0.65292048328E+03  0.68834279596E+03  0.17300000000E+03 0. -1.
         -6    1    1    2    0  503 -0.13207599207E+03  0.11729432248E+02 -0.27398857715E+03  0.35011482069E+03  0.17300000000E+03 0.  1.
<mgrwt>
<rscale>  2 0.21796937E+03</rscale>
<asrwt>0</asrwt>
<pdfrwt beam="1">  1       21 0.10902996E+00 0.21796937E+03</pdfrwt>
<pdfrwt beam="2">  1       21 0.50732747E-01 0.21796937E+03</pdfrwt>
<totfact> 0.24132660E+03</totfact>
</mgrwt>
</event>
<event>
 4    1  0.4090208E+000  0.1953530E+03  0.7546771E-02  0.1153720E+00
         21   -1    0    0  501  502  0.00000000000E+00  0.00000000000E+00  0.35105450734E+02  0.35105450734E+02  0.00000000000E+00 0. -1.
         21   -1    0    0  502  503 -0.00000000000E+00 -0.00000000000E+00 -0.11596721872E+04  0.11596721872E+04  0.00000000000E+00 0.  1.
          6    1    1    2  501    0  0.62588862171E+02  0.65699518627E+02 -0.41283065119E+03  0.45671866502E+03  0.17300000000E+03 0. -1.
         -6    1    1    2    0  503 -0.62588862171E+02 -0.65699518627E+02 -0.71173608531E+03  0.73805897294E+03  0.17300000000E+03 0.  1.
<mgrwt>
<rscale>  2 0.19535299E+03</rscale>
<asrwt>0</asrwt>
<pdfrwt beam="1">  1       21 0.54008395E-02 0.19535299E+03</pdfrwt>
<pdfrwt beam="2">  1       21 0.17841108E+00 0.19535299E+03</pdfrwt>
<totfact> 0.43946972E+04</totfact>
</mgrwt>
</event>
<event>
 4    1  0.4090208E+000  0.2761130E+03  0.7546771E-02  0.1097831E+00
         21   -1    0    0  501  502  0.00000000000E+00  0.00000000000E+00  0.29280765567E+03  0.29280765567E+03  0.00000000000E+00 0.  1.
         21   -1    0    0  502  503 -0.00000000000E+00 -0.00000000000E+00 -0.28064453363E+03  0.28064453363E+03  0.00000000000E+00 0. -1.
          6    1    1    2  501    0  0.21505876453E+03 -0.76884085893E+01  0.83147481149E+02  0.28836068984E+03  0.17300000000E+03 0. -1.
         -6    1    1    2    0  503 -0.21505876453E+03  0.76884085893E+01 -0.70984359100E+02  0.28509149946E+03  0.17300000000E+03 0.  1.
<mgrwt>
<rscale>  2 0.27611299E+03</rscale>
<asrwt>0</asrwt>
<pdfrwt beam="1">  1       21 0.45047332E-01 0.27611299E+03</pdfrwt>
<pdfrwt beam="2">  1       21 0.43176082E-01 0.27611299E+03</pdfrwt>
<totfact> 0.23391207E+04</totfact>
</mgrwt>
</event>
<event>
 4    1  0.4090208E+000  0.1920030E+03  0.7546771E-02  0.1156667E+00
         21   -1    0    0  501  502  0.00000000000E+00  0.00000000000E+00  0.21354053043E+03  0.21354053043E+03  0.00000000000E+00 0.  1.
         21   -1    0    0  502  503 -0.00000000000E+00 -0.00000000000E+00 -0.19417041774E+03  0.19417041774E+03  0.00000000000E+00 0.  1.
          6    1    1    2  501    0  0.11021164253E+01 -0.83276172734E+02  0.77571141034E+02  0.20708070293E+03  0.17300000000E+03 0. -1.
         -6    1    1    2    0  503 -0.11021164253E+01  0.83276172734E+02 -0.58201028338E+02  0.20063024524E+03  0.17300000000E+03 0. -1.
<mgrwt>
<rscale>  2 0.19200296E+03</rscale>
<asrwt>0</asrwt>
<pdfrwt beam="1">  1       21 0.32852389E-01 0.19200296E+03</pdfrwt>
<pdfrwt beam="2">  1       21 0.29872372E-01 0.19200296E+03</pdfrwt>
<totfact> 0.95864689E+04</totfact>
</mgrwt>
</event>
<event>
 4    1  0.4090208E+000  0.1763539E+03  0.7546771E-02  0.1171379E+00
         21   -1    0    0  503  502  0.00000000000E+00  0.00000000000E+00  0.13043915620E+03  0.13043915620E+03  0.00000000000E+00 0. -1.
         21   -1    0    0  501  503 -0.00000000000E+00 -0.00000000000E+00 -0.24806462594E+03  0.24806462594E+03  0.00000000000E+00 0. -1.
          6    1    1    2  501    0  0.30680109775E+02  0.15180306547E+02 -0.96108323804E+02  0.20084202933E+03  0.17300000000E+03 0. -1.
         -6    1    1    2    0  502 -0.30680109775E+02 -0.15180306547E+02 -0.21517145937E+02  0.17766175281E+03  0.17300000000E+03 0. -1.
<mgrwt>
<rscale>  2 0.17635394E+03</rscale>
<asrwt>0</asrwt>
<pdfrwt beam="1">  1       21 0.20067563E-01 0.17635394E+03</pdfrwt>
<pdfrwt beam="2">  1       21 0.38163788E-01 0.17635394E+03</pdfrwt>
<totfact> 0.15267618E+05</totfact>
</mgrwt>
</event>
<event>
 4    1  0.4090208E+000  0.2179728E+03  0.7546771E-02  0.1135404E+00
         21   -1    0    0  503  502  0.00000000000E+00  0.00000000000E+00  0.51924869621E+03  0.51924869621E+03  0.00000000000E+00 0. -1.
         21   -1    0    0  501  503 -0.00000000000E+00 -0.00000000000E+00 -0.10653726005E+03  0.10653726005E+03  0.00000000000E+00 0. -1.
          6    1    1    2  501    0 -0.12733379931E+03  0.37003076826E+02  0.32390101499E+03  0.39041515295E+03  0.17300000000E+03 0. -1.
         -6    1    1    2    0  502  0.12733379931E+03 -0.37003076826E+02  0.88810421171E+02  0.23537080331E+03  0.17300000000E+03 0. -1.
<mgrwt>
<rscale>  2 0.21797276E+03</rscale>
<asrwt>0</asrwt>
<pdfrwt beam="1">  1       21 0.79884413E-01 0.21797276E+03</pdfrwt>
<pdfrwt beam="2">  1       21 0.16390348E-01 0.21797276E+03</pdfrwt>
<totfact> 0.45457402E+04</totfact>
</mgrwt>
</event>
<event>
 4    1  0.4090208E+000  0.1764018E+03  0.7546771E-02  0.1171332E+00
         21   -1    0    0  501  502  0.00000000000E+00  0.00000000000E+00  0.33329463003E+03  0.33329463003E+03  0.00000000000E+00 0.  1.
         21   -1    0    0  502  503 -0.00000000000E+00 -0.00000000000E+00 -0.18595379173E+03  0.18595379173E+03  0.00000000000E+00 0.  1.
          6    1    1    2  501    0 -0.15186293787E+02  0.30951213751E+02  0.25687024609E+03  0.31160860784E+03  0.17300000000E+03 0.  1.
         -6    1    1    2    0  503  0.15186293787E+02 -0.30951213751E+02 -0.10952940779E+03  0.20763981391E+03  0.17300000000E+03 0.  1.
<mgrwt>
<rscale>  2 0.17640182E+03</rscale>
<asrwt>0</asrwt>
<pdfrwt beam="1">  1       21 0.51276097E-01 0.17640182E+03</pdfrwt>
<pdfrwt beam="2">  1       21 0.28608276E-01 0.17640182E+03</pdfrwt>
<totfact> 0.42590910E+04</totfact>
</mgrwt>
</event>
<event>
 4    1  0.4090208E+000  0.1976255E+03  0.7546771E-02  0.1151758E+00
         21   -1    0    0  503  502  0.00000000000E+00  0.00000000000E+00  0.10268510661E+03  0.10268510661E+03  0.00000000000E+00 0.  1.
         21   -1    0    0  501  503 -0.00000000000E+00 -0.00000000000E+00 -0.48716611796E+03  0.48716611796E+03  0.00000000000E+00 0. -1.
          6    1    1    2  501    0  0.19669289776E+02 -0.93487741421E+02 -0.33034286187E+03  0.38494447021E+03  0.17300000000E+03 0. -1.
         -6    1    1    2    0  502 -0.19669289776E+02  0.93487741421E+02 -0.54138149487E+02  0.20490675437E+03  0.17300000000E+03 0.  1.
<mgrwt>
<rscale>  2 0.19762550E+03</rscale>
<asrwt>0</asrwt>
<pdfrwt beam="1">  1       21 0.15797709E-01 0.19762550E+03</pdfrwt>
<pdfrwt beam="2">  1       21 0.74948634E-01 0.19762550E+03</pdfrwt>
<totfact> 0.56694685E+04</totfact>
</mgrwt>
</event>
<event>
 4    1  0.4090208E+000  0.2401108E+03  0.7546771E-02  0.1119719E+00
         21   -1    0    0  503  502  0.00000000000E+00  0.00000000000E+00  0.18536553245E+03  0.18536553245E+03  0.00000000000E+00 0. -1.
         21   -1    0    0  501  503 -0.00000000000E+00 -0.00000000000E+00 -0.33988270425E+03  0.33988270425E+03  0.00000000000E+00 0.  1.
          6    1    1    2  501    0 -0.76255598232E+02 -0.14801776380E+03 -0.15378416945E+03  0.28513636288E+03  0.17300000000E+03 0. -1.
         -6    1    1    2    0  502  0.76255598232E+02  0.14801776380E+03 -0.73300235225E+00  0.24011187383E+03  0.17300000000E+03 0.  1.
<mgrwt>
<rscale>  2 0.24011075E+03</rscale>
<asrwt>0</asrwt>
<pdfrwt beam="1">  1       21 0.28517774E-01 0.24011075E+03</pdfrwt>
<pdfrwt beam="2">  1       21 0.52289646E-01 0.24011075E+03</pdfrwt>
<totfact> 0.39880968E+04</totfact>
</mgrwt>
</event>
<event>
 4    1  0.4090208E+000  0.1836703E+03  0.7546771E-02  0.1164297E+00
         21   -1    0    0  501  502  0.00000000000E+00  0.00000000000E+00  0.82031722251E+03  0.82031722251E+03  0.00000000000E+00 0.  1.
         21   -1    0    0  502  503 -0.00000000000E+00 -0.00000000000E+00 -0.59644419526E+02  0.59644419526E+02  0.00000000000E+00 0. -1.
          6    1    1    2  501    0  0.60288798402E+02  0.13078699747E+02  0.62550977472E+03  0.65191814660E+03  0.17300000000E+03 0.  1.
         -6    1    1    2    0  503 -0.60288798402E+02 -0.13078699747E+02  0.13516302827E+03  0.22804349543E+03  0.17300000000E+03 0. -1.
<mgrwt>
<rscale>  2 0.18367033E+03</rscale>
<asrwt>0</asrwt>
<pdfrwt beam="1">  1       21 0.12620264E+00 0.18367033E+03</pdfrwt>
<pdfrwt beam="2">  1       21 0.91760651E-02 0.18367033E+03</pdfrwt>
<totfact> 0.44185131E+04</totfact>
</mgrwt>
</event>
<event>
 4    1  0.4090208E+000  0.2293129E+03  0.7546771E-02  0.1127124E+00
         21   -1    0    0  501  502  0.00000000000E+00  0.00000000000E+00  0.23038602509E+03  0.23038602509E+03  0.00000000000E+00 0.  1.
         21   -1    0    0  502  503 -0.00000000000E+00 -0.00000000000E+00 -0.47103692305E+03  0.47103692305E+03  0.00000000000E+00 0.  1.
          6    1    1    2  501    0  0.53467356579E+02  0.14070060427E+03  0.13146530131E+03  0.26432469372E+03  0.17300000000E+03 0.  1.
         -6    1    1    2    0  503 -0.53467356579E+02 -0.14070060427E+03 -0.37211619927E+03  0.43709825443E+03  0.17300000000E+03 0.  1.
<mgrwt>
<rscale>  2 0.22931293E+03</rscale>
<asrwt>0</asrwt>
<pdfrwt beam="1">  1       21 0.35444004E-01 0.22931293E+03</pdfrwt>
<pdfrwt beam="2">  1       21 0.72467218E-01 0.22931293E+03</pdfrwt>
<totfact> 0.12872730E+04</totfact>
</mgrwt>
</event>
<event>
 4    1  0.4090208E+000  0.1817045E+03  0.7546771E-02  0.1166164E+00
         21   -1    0    0  501  502  0.00000000000E+00  0.00000000000E+00  0.20548005975E+03  0.20548005975E+03  0.00000000000E+00 0.  1.
         21   -1    0    0  502  503 -0.00000000000E+00 -0.00000000000E+00 -0.20870339190E+03  0.20870339190E+03  0.00000000000E+00 0.  1.
          6    1    1    2  501    0 -0.11346345854E+02  0.54394739690E+02  0.97728435871E+02  0.20631862361E+03  0.17300000000E+03 0.  1.
         -6    1    1    2    0  503  0.11346345854E+02 -0.54394739690E+02 -0.10095176803E+03  0.20786482804E+03  0.17300000000E+03 0.  1.
<mgrwt>
<rscale>  2 0.18170451E+03</rscale>
<asrwt>0</asrwt>
<pdfrwt beam="1">  1       21 0.31612317E-01 0.18170451E+03</pdfrwt>
<pdfrwt beam="2">  1       21 0.32108214E-01 0.18170451E+03</pdfrwt>
<totfact> 0.90135568E+04</totfact>
</mgrwt>
</event>
<event>
 4    1  0.4090208E+000  0.1773032E+03  0.7546771E-02  0.1170439E+00
         21   -1    0    0  503  502  0.00000000000E+00  0.00000000000E+00  0.96720117724E+02  0.96720117724E+02  0.00000000000E+00 0.  1.
         21   -1    0    0  501  503 -0.00000000000E+00 -0.00000000000E+00 -0.11942154882E+04  0.11942154882E+04  0.00000000000E+00 0.  1.
          6    1    1    2  501    0 -0.33822745144E+02 -0.19064524136E+02 -0.10994168694E+04  0.11136219676E+04  0.17300000000E+03 0.  1.
         -6    1    1    2    0  502  0.33822745144E+02  0.19064524136E+02  0.19214988697E+01  0.17731363830E+03  0.17300000000E+03 0.  1.
<mgrwt>
<rscale>  2 0.17730323E+03</rscale>
<asrwt>0</asrwt>
<pdfrwt beam="1">  1       21 0.14880017E-01 0.17730323E+03</pdfrwt>
<pdfrwt beam="2">  1       21 0.18372547E+00 0.17730323E+03</pdfrwt>
<totfact> 0.69277949E+03</totfact>
</mgrwt>
</event>
<event>
 4    1  0.4090208E+000  0.1820591E+03  0.7546771E-02  0.1165825E+00
         21   -1    0    0  503  502  0.00000000000E+00  0.00000000000E+00  0.73689295569E+03  0.73689295569E+03  0.00000000000E+00 0.  1.
         21   -1    0    0  501  503 -0.00000000000E+00 -0.00000000000E+00 -0.72806288348E+02  0.72806288348E+02  0.00000000000E+00 0.  1.
          6    1    1    2  501    0 -0.56549445374E+02 -0.43225325528E+01  0.81757598904E+02  0.19957411916E+03  0.17300000000E+03 0.  1.
         -6    1    1    2    0  502  0.56549445374E+02  0.43225325528E+01  0.58232906843E+03  0.61012512487E+03  0.17300000000E+03 0.  1.
<mgrwt>
<rscale>  2 0.18205912E+03</rscale>
<asrwt>0</asrwt>
<pdfrwt beam="1">  1       21 0.11336814E+00 0.18205912E+03</pdfrwt>
<pdfrwt beam="2">  1       21 0.11200968E-01 0.18205912E+03</pdfrwt>
<totfact> 0.40512674E+04</totfact>
</mgrwt>
</event>
<event>
 4    1  0.4090208E+000  0.2385618E+03  0.7546771E-02  0.1120755E+00
         21   -1    0    0  503  502  0.00000000000E+00  0.00000000000E+00  0.46327091127E+03  0.46327091127E+03  0.00000000000E+00 0.  1.
         21   -1    0    0  501  503 -0.00000000000E+00 -0.00000000000E+00 -0.12554976911E+03  0.12554976911E+03  0.00000000000E+00 0. -1.
          6    1    1    2  501    0  0.38425368565E+02 -0.15970664876E+03  0.12566881716E+03  0.26963748666E+03  0.17300000000E+03 0. -1.
         -6    1    1    2    0  502 -0.38425368565E+02  0.15970664876E+03  0.21205232500E+03  0.31918319371E+03  0.17300000000E+03 0. -1.
<mgrwt>
<rscale>  2 0.23856178E+03</rscale>
<asrwt>0</asrwt>
<pdfrwt beam="1">  1       21 0.71272447E-01 0.23856178E+03</pdfrwt>
<pdfrwt beam="2">  1       21 0.19315349E-01 0.23856178E+03</pdfrwt>
<totfact> 0.42906637E+04</totfact>
</mgrwt>
</event>
<event>
 4    1  0.4090208E+000  0.2067162E+03  0.7546771E-02  0.1144193E+00
         21   -1    0    0  503  502  0.00000000000E+00  0.00000000000E+00  0.13419516775E+04  0.13419516775E+04  0.00000000000E+00 0.  1.
         21   -1    0    0  501  503 -0.00000000000E+00 -0.00000000000E+00 -0.33645667004E+02  0.33645667004E+02  0.00000000000E+00 0.  1.
          6    1    1    2  501    0  0.11290832534E+03  0.73677921676E+01  0.49494245689E+03  0.53637636965E+03  0.17300000000E+03 0.  1.
         -6    1    1    2    0  502 -0.11290832534E+03 -0.73677921676E+01  0.81336355361E+03  0.83922097485E+03  0.17300000000E+03 0.  1.
<mgrwt>
<rscale>  2 0.20671617E+03</rscale>
<asrwt>0</asrwt>
<pdfrwt beam="1">  1       21 0.20645406E+00 0.20671617E+03</pdfrwt>
<pdfrwt beam="2">  1       21 0.51762575E-02 0.20671617E+03</pdfrwt>
<totfact> 0.30670843E+04</totfact>
</mgrwt>
</event>
<event>
 4    1  0.4090208E+000  0.1765408E+03  0.7546771E-02  0.1171194E+00
         21   -1    0    0  503  502  0.00000000000E+00  0.00000000000E+00  0.63916436728E+03  0.63916436728E+03  0.00000000000E+00 0. -1.
         21   -1    0    0  501  503 -0.00000000000E+00 -0.00000000000E+00 -0.66369624306E+02  0.66369624306E+02  0.00000000000E+00 0. -1.
          6    1    1    2  501    0  0.33052527790E+02 -0.12048952735E+02  0.10469559760E+03  0.20525061513E+03  0.17300000000E+03 0. -1.
         -6    1    1    2    0  502 -0.33052527790E+02  0.12048952735E+02  0.46809914538E+03  0.50028337646E+03  0.17300000000E+03 0. -1.
<mgrwt>
<rscale>  2 0.17654078E+03</rscale>
<asrwt>0</asrwt>
<pdfrwt beam="1">  1       21 0.98332976E-01 0.17654078E+03</pdfrwt>
<pdfrwt beam="2">  1       21 0.10210712E-01 0.17654078E+03</pdfrwt>
<totfact> 0.67309138E+04</totfact>
</mgrwt>
</event>
<event>
 4    1  0.4090208E+000  0.1782809E+03  0.7546771E-02  0.1169477E+00
         21   -1    0    0  503  502  0.00000000000E+00  0.00000000000E+00  0.56205008950E+02  0.56205008950E+02  0.00000000000E+00 0.  1.
         21   -1    0    0  501  503 -0.00000000000E+00 -0.00000000000E+00 -0.59402433343E+03  0.59402433343E+03  0.00000000000E+00 0. -1.
          6    1    1    2  501    0 -0.37842571203E+02 -0.20567690992E+02 -0.34014916219E+03  0.38403846506E+03  0.17300000000E+03 0. -1.
         -6    1    1    2    0  502  0.37842571203E+02  0.20567690992E+02 -0.19767016229E+03  0.26619087732E+03  0.17300000000E+03 0.  1.
<mgrwt>
<rscale>  2 0.17828093E+03</rscale>
<asrwt>0</asrwt>
<pdfrwt beam="1">  1       21 0.86469238E-02 0.17828093E+03</pdfrwt>
<pdfrwt beam="2">  1       21 0.91388366E-01 0.17828093E+03</pdfrwt>
<totfact> 0.10684424E+05</totfact>
</mgrwt>
</event>
<event>
 4    1  0.4090208E+000  0.2209989E+03  0.7546771E-02  0.1133141E+00
         21   -1    0    0  503  502  0.00000000000E+00  0.00000000000E+00  0.92572706784E+03  0.92572706784E+03  0.00000000000E+00 0. -1.
         21   -1    0    0  501  503 -0.00000000000E+00 -0.00000000000E+00 -0.78469503208E+02  0.78469503208E+02  0.00000000000E+00 0.  1.
          6    1    1    2  501    0 -0.15432785513E+02  0.13665037467E+03  0.71103291925E+03  0.74458599773E+03  0.17300000000E+03 0. -1.
         -6    1    1    2    0  502  0.15432785513E+02 -0.13665037467E+03  0.13622464538E+03  0.25961057331E+03  0.17300000000E+03 0.  1.
<mgrwt>
<rscale>  2 0.22099886E+03</rscale>
<asrwt>0</asrwt>
<pdfrwt beam="1">  1       21 0.14241954E+00 0.22099886E+03</pdfrwt>
<pdfrwt beam="2">  1       21 0.12072232E-01 0.22099886E+03</pdfrwt>
<totfact> 0.19512135E+04</totfact>
</mgrwt>
</event>
<event>
 4    1  0.4090208E+000  0.1904087E+03  0.7546771E-02  0.1158093E+00
         21   -1    0    0  501  502  0.00000000000E+00  0.00000000000E+00  0.20336628551E+04  0.20336628551E+04  0.00000000000E+00 0. -1.
         21   -1    0    0  502  503 -0.00000000000E+00 -0.00000000000E+00 -0.18417561125E+02  0.18417561125E+02  0.00000000000E+00 0. -1.
          6    1    1    2  501    0 -0.78901737508E+00  0.79535200736E+02  0.11912486466E+04  0.12063700961E+04  0.17300000000E+03 0. -1.
         -6    1    1    2    0  503  0.78901737508E+00 -0.79535200736E+02  0.82399664739E+03  0.84571032016E+03  0.17300000000E+03 0. -1.
<mgrwt>
<rscale>  2 0.19040869E+03</rscale>
<asrwt>0</asrwt>
<pdfrwt beam="1">  1       21 0.31287103E+00 0.19040869E+03</pdfrwt>
<pdfrwt beam="2">  1       21 0.28334726E-02 0.19040869E+03</pdfrwt>
<totfact> 0.20056934E+04</totfact>
</mgrwt>
</event>
<event>
 4    1  0.4090208E+000  0.2195483E+03  0.7546771E-02  0.1134220E+00
         21   -1    0    0  503  502  0.00000000000E+00  0.00000000000E+00  0.15413831722E+03  0.15413831722E+03  0.00000000000E+00 0.  1.
         21   -1    0    0  501  503 -0.00000000000E+00 -0.00000000000E+00 -0.35972266890E+03  0.35972266890E+03  0.00000000000E+00 0.  1.
          6    1    1    2  501    0 -0.89373623757E+02 -0.10141405738E+03 -0.19567028249E+03  0.29408895782E+03  0.17300000000E+03 0.  1.
         -6    1    1    2    0  502  0.89373623757E+02  0.10141405738E+03 -0.99140691845E+01  0.21977202831E+03  0.17300000000E+03 0.  1.
<mgrwt>
<rscale>  2 0.21954830E+03</rscale>
<asrwt>0</asrwt>
<pdfrwt beam="1">  1       21 0.23713587E-01 0.21954830E+03</pdfrwt>
<pdfrwt beam="2">  1       21 0.55341949E-01 0.21954830E+03</pdfrwt>
<totfact> 0.50910591E+04</totfact>
</mgrwt>
</event>
<event>
 4    1  0.4090208E+000  0.4638394E+03  0.7546771E-02  0.1023674E+00
         21   -1    0    0  501  502  0.00000000000E+00  0.00000000000E+00  0.19037951149E+03  0.19037951149E+03  0.00000000000E+00 0.  1.
         21   -1    0    0  502  503 -0.00000000000E+00 -0.00000000000E+00 -0.13425889770E+04  0.13425889770E+04  0.00000000000E+00 0. -1.
          6    1    1    2  501    0  0.39472165949E+03 -0.17150164824E+03 -0.88103787649E+03  0.99567803211E+03  0.17300000000E+03 0. -1.
         -6    1    1    2    0  503 -0.39472165949E+03  0.17150164824E+03 -0.27117158903E+03  0.53729045638E+03  0.17300000000E+03 0.  1.
<mgrwt>
<rscale>  2 0.46383942E+03</rscale>
<asrwt>0</asrwt>
<pdfrwt beam="1">  1       21 0.29289155E-01 0.46383942E+03</pdfrwt>
<pdfrwt beam="2">  1       21 0.20655216E+00 0.46383942E+03</pdfrwt>
<totfact> 0.11300431E+03</totfact>
</mgrwt>
</event>
<event>
 4    1  0.4090208E+000  0.2340192E+03  0.7546771E-02  0.1123842E+00
         21   -1    0    0  501  502  0.00000000000E+00  0.00000000000E+00  0.18594588493E+04  0.18594588493E+04  0.00000000000E+00 0.  1.
         21   -1    0    0  502  503 -0.00000000000E+00 -0.00000000000E+00 -0.31174756751E+02  0.31174756751E+02  0.00000000000E+00 0.  1.
          6    1    1    2  501    0  0.59217315961E+02 -0.14604555472E+03  0.11363570678E+04  0.11602035943E+04  0.17300000000E+03 0.  1.
         -6    1    1    2    0  503 -0.59217315961E+02  0.14604555472E+03  0.69192702472E+03  0.73043001178E+03  0.17300000000E+03 0.  1.
<mgrwt>
<rscale>  2 0.23401922E+03</rscale>
<asrwt>0</asrwt>
<pdfrwt beam="1">  1       21 0.28607050E+00 0.23401922E+03</pdfrwt>
<pdfrwt beam="2">  1       21 0.47961179E-02 0.23401922E+03</pdfrwt>
<totfact> 0.11393320E+04</totfact>
</mgrwt>
</event>
<event>
 4    1  0.4090208E+000  0.2737488E+03  0.7546771E-02  0.1099153E+00
         21   -1    0    0  501  502  0.00000000000E+00  0.00000000000E+00  0.32311415279E+03  0.32311415279E+03  0.00000000000E+00 0. -1.
         21   -1    0    0  502  503 -0.00000000000E+00 -0.00000000000E+00 -0.23197611778E+03  0.23197611778E+03  0.00000000000E+00 0. -1.
          6    1    1    2  501    0  0.20461663850E+03  0.56048540542E+02  0.41468734069E+02  0.27687192627E+03  0.17300000000E+03 0. -1.
         -6    1    1    2    0  503 -0.20461663850E+03 -0.56048540542E+02  0.49669300937E+02  0.27821834430E+03  0.17300000000E+03 0. -1.
<mgrwt>
<rscale>  2 0.27374880E+03</rscale>
<asrwt>0</asrwt>
<pdfrwt beam="1">  1       21 0.49709870E-01 0.27374880E+03</pdfrwt>
<pdfrwt beam="2">  1       21 0.35688633E-01 0.27374880E+03</pdfrwt>
<totfact> 0.28076311E+04</totfact>
</mgrwt>
</event>
<event>
 4    1  0.4090208E+000  0.1875116E+03  0.7546771E-02  0.1160725E+00
         21   -1    0    0  501  502  0.00000000000E+00  0.00000000000E+00  0.29390279465E+02  0.29390279465E+02  0.00000000000E+00 0.  1.
         21   -1    0    0  502  503 -0.00000000000E+00 -0.00000000000E+00 -0.12023701739E+04  0.12023701739E+04  0.00000000000E+00 0. -1.
          6    1    1    2  501    0 -0.20675367942E+02  0.69311722532E+02 -0.63012786324E+03  0.65743570770E+03  0.17300000000E+03 0. -1.
         -6    1    1    2    0  503  0.20675367942E+02 -0.69311722532E+02 -0.54285203124E+03  0.57432474572E+03  0.17300000000E+03 0. -1.
<mgrwt>
<rscale>  2 0.18751156E+03</rscale>
<asrwt>0</asrwt>
<pdfrwt beam="1">  1       21 0.45215814E-02 0.18751156E+03</pdfrwt>
<pdfrwt beam="2">  1       21 0.18498003E+00 0.18751156E+03</pdfrwt>
<totfact> 0.53869295E+04</totfact>
</mgrwt>
</event>
<event>
 4    1  0.4090208E+000  0.1812451E+03  0.7546771E-02  0.1166603E+00
         21   -1    0    0  501  502  0.00000000000E+00  0.00000000000E+00  0.28178568765E+03  0.28178568765E+03  0.00000000000E+00 0. -1.
         21   -1    0    0  502  503 -0.00000000000E+00 -0.00000000000E+00 -0.12034856835E+03  0.12034856835E+03  0.00000000000E+00 0. -1.
          6    1    1    2  501    0 -0.99216220354E+01  0.53125792639E+02  0.45125142398E+02  0.18677812212E+03  0.17300000000E+03 0. -1.
         -6    1    1    2    0  503  0.99216220354E+01 -0.53125792639E+02  0.11631197691E+03  0.21535613388E+03  0.17300000000E+03 0. -1.
<mgrwt>
<rscale>  2 0.18124511E+03</rscale>
<asrwt>0</asrwt>
<pdfrwt beam="1">  1       21 0.43351644E-01 0.18124511E+03</pdfrwt>
<pdfrwt beam="2">  1       21 0.18515164E-01 0.18124511E+03</pdfrwt>
<totfact> 0.13682116E+05</totfact>
</mgrwt>
</event>
<event>
 4    1  0.4090208E+000  0.2031755E+03  0.7546771E-02  0.1147087E+00
         21   -1    0    0  501  502  0.00000000000E+00  0.00000000000E+00  0.14118601278E+03  0.14118601278E+03  0.00000000000E+00 0. -1.
         21   -1    0    0  502  503 -0.00000000000E+00 -0.00000000000E+00 -0.39539865945E+03  0.39539865945E+03  0.00000000000E+00 0. -1.
          6    1    1    2  501    0 -0.66631603692E+02 -0.83135452651E+02  0.98379967927E+01  0.20341352039E+03  0.17300000000E+03 0. -1.
         -6    1    1    2    0  503  0.66631603692E+02  0.83135452651E+02 -0.26405064347E+03  0.33317115183E+03  0.17300000000E+03 0. -1.
<mgrwt>
<rscale>  2 0.20317548E+03</rscale>
<asrwt>0</asrwt>
<pdfrwt beam="1">  1       21 0.21720925E-01 0.20317548E+03</pdfrwt>
<pdfrwt beam="2">  1       21 0.60830562E-01 0.20317548E+03</pdfrwt>
<totfact> 0.49486372E+04</totfact>
</mgrwt>
</event>
<event>
 4    1  0.4090208E+000  0.2071653E+03  0.7546771E-02  0.1143831E+00
         21   -1    0    0  501  502  0.00000000000E+00  0.00000000000E+00  0.57858675450E+03  0.57858675450E+03  0.00000000000E+00 0. -1.
         21   -1    0    0  502  503 -0.00000000000E+00 -0.00000000000E+00 -0.94931014257E+02  0.94931014257E+02  0.00000000000E+00 0. -1.
          6    1    1    2  501    0  0.11034712100E+03  0.28495051891E+02  0.39928880690E+03  0.44983219806E+03  0.17300000000E+03 0. -1.
         -6    1    1    2    0  503 -0.11034712100E+03 -0.28495051891E+02  0.84366933342E+02  0.22368557070E+03  0.17300000000E+03 0. -1.
<mgrwt>
<rscale>  2 0.20716528E+03</rscale>
<asrwt>0</asrwt>
<pdfrwt beam="1">  1       21 0.89013345E-01 0.20716528E+03</pdfrwt>
<pdfrwt beam="2">  1       21 0.14604772E-01 0.20716528E+03</pdfrwt>
<totfact> 0.44048414E+04</totfact>
</mgrwt>
</event>
<event>
 4    1  0.4090208E+000  0.1830119E+03  0.7546771E-02  0.1164920E+00
         21   -1    0    0  501  502  0.00000000000E+00  0.00000000000E+00  0.38168871428E+02  0.38168871428E+02  0.00000000000E+00 0.  1.
         21   -1    0    0  502  503 -0.00000000000E+00 -0.00000000000E+00 -0.94350672325E+03  0.94350672325E+03  0.00000000000E+00 0.  1.
          6    1    1    2  501    0  0.56696033253E+02 -0.18705808128E+02 -0.32284774464E+03  0.37111186139E+03  0.17300000000E+03 0.  1.
         -6    1    1    2    0  503 -0.56696033253E+02  0.18705808128E+02 -0.58249010719E+03  0.61056373329E+03  0.17300000000E+03 0.  1.
<mgrwt>
<rscale>  2 0.18301188E+03</rscale>
<asrwt>0</asrwt>
<pdfrwt beam="1">  1       21 0.58721344E-02 0.18301188E+03</pdfrwt>
<pdfrwt beam="2">  1       21 0.14515487E+00 0.18301188E+03</pdfrwt>
<totfact> 0.66975849E+04</totfact>
</mgrwt>
</event>
<event>
 4    1  0.4090208E+000  0.2172047E+03  0.7546771E-02  0.1135984E+00
         21   -1    0    0  503  502  0.00000000000E+00  0.00000000000E+00  0.26261498680E+03  0.26261498680E+03  0.00000000000E+00 0.  1.
         21   -1    0    0  501  503 -0.00000000000E+00 -0.00000000000E+00 -0.28892849442E+03  0.28892849442E+03  0.00000000000E+00 0.  1.
          6    1    1    2  501    0 -0.90293355402E+02  0.95373014729E+02 -0.18275782312E+03  0.28386321332E+03  0.17300000000E+03 0. -1.
         -6    1    1    2    0  502  0.90293355402E+02 -0.95373014729E+02  0.15644431549E+03  0.26768026789E+03  0.17300000000E+03 0. -1.
<mgrwt>
<rscale>  2 0.21720475E+03</rscale>
<asrwt>0</asrwt>
<pdfrwt beam="1">  1       21 0.40402306E-01 0.21720475E+03</pdfrwt>
<pdfrwt beam="2">  1       21 0.44450537E-01 0.21720475E+03</pdfrwt>
<totfact> 0.28305270E+04</totfact>
</mgrwt>
</event>
<event>
 4    1  0.4090208E+000  0.2771672E+03  0.7546771E-02  0.1097246E+00
         21   -1    0    0  503  502  0.00000000000E+00  0.00000000000E+00  0.91067986182E+02  0.91067986182E+02  0.00000000000E+00 0.  1.
         21   -1    0    0  501  503 -0.00000000000E+00 -0.00000000000E+00 -0.88997303682E+03  0.88997303682E+03  0.00000000000E+00 0. -1.
          6    1    1    2  501    0  0.19157796299E+02 -0.21569799821E+03 -0.51146629627E+03  0.58173827432E+03  0.17300000000E+03 0. -1.
         -6    1    1    2    0  502 -0.19157796299E+02  0.21569799821E+03 -0.28743875437E+03  0.39930274868E+03  0.17300000000E+03 0.  1.
<mgrwt>
<rscale>  2 0.27716718E+03</rscale>
<asrwt>0</asrwt>
<pdfrwt beam="1">  1       21 0.14010460E-01 0.27716718E+03</pdfrwt>
<pdfrwt beam="2">  1       21 0.13691892E+00 0.27716718E+03</pdfrwt>
<totfact> 0.16014360E+04</totfact>
</mgrwt>
</event>
<event>
 4    1  0.4090208E+000  0.2561192E+03  0.7546771E-02  0.1109498E+00
         21   -1    0    0  501  502  0.00000000000E+00  0.00000000000E+00  0.15249984591E+04  0.15249984591E+04  0.00000000000E+00 0.  1.
         21   -1    0    0  502  503 -0.00000000000E+00 -0.00000000000E+00 -0.50843966449E+02  0.50843966449E+02  0.00000000000E+00 0. -1.
          6    1    1    2  501    0  0.93594109579E+02  0.16403712256E+03  0.10462700450E+04  0.10771620314E+04  0.17300000000E+03 0.  1.
         -6    1    1    2    0  503 -0.93594109579E+02 -0.16403712256E+03  0.42788444770E+03  0.49868039415E+03  0.17300000000E+03 0.  1.
<mgrwt>
<rscale>  2 0.25611918E+03</rscale>
<asrwt>0</asrwt>
<pdfrwt beam="1">  1       21 0.23461511E+00 0.25611918E+03</pdfrwt>
<pdfrwt beam="2">  1       21 0.78221498E-02 0.25611918E+03</pdfrwt>
<totfact> 0.97234196E+03</totfact>
</mgrwt>
</event>
<event>
 4    1  0.4090208E+000  0.2803514E+03  0.7546771E-02  0.1095497E+00
         21   -1    0    0  501  502  0.00000000000E+00  0.00000000000E+00  0.13572927537E+03  0.13572927537E+03  0.00000000000E+00 0.  1.
         21   -1    0    0  502  503 -0.00000000000E+00 -0.00000000000E+00 -0.64385233420E+03  0.64385233420E+03  0.00000000000E+00 0. -1.
          6    1    1    2  501    0  0.43919385486E+02  0.21619200465E+03 -0.13042033346E+03  0.30920277922E+03  0.17300000000E+03 0.  1.
         -6    1    1    2    0  503 -0.43919385486E+02 -0.21619200465E+03 -0.37770272537E+03  0.47037883036E+03  0.17300000000E+03 0.  1.
<mgrwt>
<rscale>  2 0.28035138E+03</rscale>
<asrwt>0</asrwt>
<pdfrwt beam="1">  1       21 0.20881427E-01 0.28035138E+03</pdfrwt>
<pdfrwt beam="2">  1       21 0.99054205E-01 0.28035138E+03</pdfrwt>
<totfact> 0.17043244E+04</totfact>
</mgrwt>
</event>
<event>
 4    1  0.4090208E+000  0.1773370E+03  0.7546771E-02  0.1170405E+00
         21   -1    0    0  503  502  0.00000000000E+00  0.00000000000E+00  0.17859295564E+03  0.17859295564E+03  0.00000000000E+00 0.  1.
         21   -1    0    0  501  503 -0.00000000000E+00 -0.00000000000E+00 -0.20969311774E+03  0.20969311774E+03  0.00000000000E+00 0.  1.
          6    1    1    2  501    0  0.72355051116E+01  0.38302247461E+02 -0.93267827549E+02  0.20036791747E+03  0.17300000000E+03 0.  1.
         -6    1    1    2    0  502 -0.72355051116E+01 -0.38302247461E+02  0.62167665443E+02  0.18791815591E+03  0.17300000000E+03 0.  1.
<mgrwt>
<rscale>  2 0.17733701E+03</rscale>
<asrwt>0</asrwt>
<pdfrwt beam="1">  1       21 0.27475839E-01 0.17733701E+03</pdfrwt>
<pdfrwt beam="2">  1       21 0.32260480E-01 0.17733701E+03</pdfrwt>
<totfact> 0.11744776E+05</totfact>
</mgrwt>
</event>
<event>
 4    1  0.4090208E+000  0.2713910E+03  0.7546771E-02  0.1100486E+00
         21   -1    0    0  501  502  0.00000000000E+00  0.00000000000E+00  0.29940060478E+03  0.29940060478E+03  0.00000000000E+00 0.  1.
         21   -1    0    0  502  503 -0.00000000000E+00 -0.00000000000E+00 -0.61782957923E+03  0.61782957923E+03  0.00000000000E+00 0. -1.
          6    1    1    2  501    0 -0.14725772001E+03  0.14845622609E+03  0.19656828219E+03  0.33510024877E+03  0.17300000000E+03 0.  1.
         -6    1    1    2    0  503  0.14725772001E+03 -0.14845622609E+03 -0.51499725663E+03  0.58212993524E+03  0.17300000000E+03 0.  1.
<mgrwt>
<rscale>  2 0.27139102E+03</rscale>
<asrwt>0</asrwt>
<pdfrwt beam="1">  1       21 0.46061632E-01 0.27139102E+03</pdfrwt>
<pdfrwt beam="2">  1       21 0.95050704E-01 0.27139102E+03</pdfrwt>
<totfact> 0.39535503E+03</totfact>
</mgrwt>
</event>
<event>
 4    1  0.4090208E+000  0.1974701E+03  0.7546771E-02  0.1151891E+00
         21   -1    0    0  503  502  0.00000000000E+00  0.00000000000E+00  0.20232780579E+03  0.20232780579E+03  0.00000000000E+00 0. -1.
         21   -1    0    0  501  503 -0.00000000000E+00 -0.00000000000E+00 -0.33658142190E+03  0.33658142190E+03  0.00000000000E+00 0. -1.
          6    1    1    2  501    0 -0.87375185865E+02  0.37828868674E+02 -0.24328346630E+03  0.31333894010E+03  0.17300000000E+03 0. -1.
         -6    1    1    2    0  502  0.87375185865E+02 -0.37828868674E+02  0.10902985019E+03  0.22557028759E+03  0.17300000000E+03 0. -1.
<mgrwt>
<rscale>  2 0.19747012E+03</rscale>
<asrwt>0</asrwt>
<pdfrwt beam="1">  1       21 0.31127355E-01 0.19747012E+03</pdfrwt>
<pdfrwt beam="2">  1       21 0.51781757E-01 0.19747012E+03</pdfrwt>
<totfact> 0.35025523E+04</totfact>
</mgrwt>
</event>
<event>
 4    1  0.4090208E+000  0.1834142E+03  0.7546771E-02  0.1164539E+00
         21   -1    0    0  501  502  0.00000000000E+00  0.00000000000E+00  0.94534264112E+02  0.94534264112E+02  0.00000000000E+00 0. -1.
         21   -1    0    0  502  503 -0.00000000000E+00 -0.00000000000E+00 -0.49166499688E+03  0.49166499688E+03  0.00000000000E+00 0. -1.
          6    1    1    2  501    0  0.44154145863E+02 -0.41978263632E+02 -0.44522396317E+02  0.18874058119E+03  0.17300000000E+03 0. -1.
         -6    1    1    2    0  503 -0.44154145863E+02  0.41978263632E+02 -0.35260833645E+03  0.39745867980E+03  0.17300000000E+03 0. -1.
<mgrwt>
<rscale>  2 0.18341418E+03</rscale>
<asrwt>0</asrwt>
<pdfrwt beam="1">  1       21 0.14543733E-01 0.18341418E+03</pdfrwt>
<pdfrwt beam="2">  1       21 0.75640770E-01 0.18341418E+03</pdfrwt>
<totfact> 0.64998452E+04</totfact>
</mgrwt>
</event>
<event>
 4    1  0.4090208E+000  0.1810832E+03  0.7546771E-02  0.1166759E+00
         21   -1    0    0  501  502  0.00000000000E+00  0.00000000000E+00  0.53864098548E+03  0.53864098548E+03  0.00000000000E+00 0.  1.
         21   -1    0    0  502  503 -0.00000000000E+00 -0.00000000000E+00 -0.61032032371E+02  0.61032032371E+02  0.00000000000E+00 0.  1.
          6    1    1    2  501    0 -0.47038122772E+02 -0.25486107645E+02  0.22371795824E+03  0.28782086706E+03  0.17300000000E+03 0.  1.
         -6    1    1    2    0  503  0.47038122772E+02  0.25486107645E+02  0.25389099486E+03  0.31185215079E+03  0.17300000000E+03 0.  1.
<mgrwt>
<rscale>  2 0.18108320E+03</rscale>
<asrwt>0</asrwt>
<pdfrwt beam="1">  1       21 0.82867841E-01 0.18108320E+03</pdfrwt>
<pdfrwt beam="2">  1       21 0.93895438E-02 0.18108320E+03</pdfrwt>
<totfact> 0.11563970E+05</totfact>
</mgrwt>
</event>
<event>
 4    1  0.4090208E+000  0.2646163E+03  0.7546771E-02  0.1104401E+00
         21   -1    0    0  501  502  0.00000000000E+00  0.00000000000E+00  0.87338370210E+02  0.87338370210E+02  0.00000000000E+00 0. -1.
         21   -1    0    0  502  503 -0.00000000000E+00 -0.00000000000E+00 -0.17566351816E+04  0.17566351816E+04  0.00000000000E+00 0.  1.
          6    1    1    2  501    0 -0.19989896612E+03  0.11541615697E+02 -0.15487527813E+03  0.30660749717E+03  0.17300000000E+03 0. -1.
         -6    1    1    2    0  503  0.19989896612E+03 -0.11541615697E+02 -0.15144215333E+04  0.15373660546E+04  0.17300000000E+03 0.  1.
<mgrwt>
<rscale>  2 0.26461634E+03</rscale>
<asrwt>0</asrwt>
<pdfrwt beam="1">  1       21 0.13436670E-01 0.26461634E+03</pdfrwt>
<pdfrwt beam="2">  1       21 0.27025161E+00 0.26461634E+03</pdfrwt>
<totfact> 0.22561146E+03</totfact>
</mgrwt>
</event>
<event>
 4    1  0.4090208E+000  0.2567564E+03  0.7546771E-02  0.1109108E+00
         21   -1    0    0  501  502  0.00000000000E+00  0.00000000000E+00  0.44873231658E+03  0.44873231658E+03  0.00000000000E+00 0.  1.
         21   -1    0    0  502  503 -0.00000000000E+00 -0.00000000000E+00 -0.21968641014E+03  0.21968641014E+03  0.00000000000E+00 0.  1.
          6    1    1    2  501    0  0.18596944678E+03 -0.37552698885E+02  0.30688017840E+03  0.40012408603E+03  0.17300000000E+03 0.  1.
         -6    1    1    2    0  503 -0.18596944678E+03  0.37552698885E+02 -0.77834271969E+02  0.26829464069E+03  0.17300000000E+03 0.  1.
<mgrwt>
<rscale>  2 0.25675638E+03</rscale>
<asrwt>0</asrwt>
<pdfrwt beam="1">  1       21 0.69035741E-01 0.25675638E+03</pdfrwt>
<pdfrwt beam="2">  1       21 0.33797909E-01 0.25675638E+03</pdfrwt>
<totfact> 0.15535288E+04</totfact>
</mgrwt>
</event>
<event>
 4    1  0.4090208E+000  0.3576059E+03  0.7546771E-02  0.1059536E+00
         21   -1    0    0  501  502  0.00000000000E+00  0.00000000000E+00  0.83591024365E+03  0.83591024365E+03  0.00000000000E+00 0.  1.
         21   -1    0    0  502  503 -0.00000000000E+00 -0.00000000000E+00 -0.19323458749E+03  0.19323458749E+03  0.00000000000E+00 0.  1.
          6    1    1    2  501    0 -0.22327024659E+03 -0.21932483083E+03  0.55618381060E+03  0.66122796039E+03  0.17300000000E+03 0.  1.
         -6    1    1    2    0  503  0.22327024659E+03  0.21932483083E+03  0.86491845565E+02  0.36791687075E+03  0.17300000000E+03 0.  1.
<mgrwt>
<rscale>  2 0.35760591E+03</rscale>
<asrwt>0</asrwt>
<pdfrwt beam="1">  1       21 0.12860157E+00 0.35760591E+03</pdfrwt>
<pdfrwt beam="2">  1       21 0.29728398E-01 0.35760591E+03</pdfrwt>
<totfact> 0.43572333E+03</totfact>
</mgrwt>
</event>
<event>
 4    1  0.4090208E+000  0.1784422E+03  0.7546771E-02  0.1169319E+00
         21   -1    0    0  501  502  0.00000000000E+00  0.00000000000E+00  0.16958702423E+04  0.16958702423E+04  0.00000000000E+00 0. -1.
         21   -1    0    0  502  503 -0.00000000000E+00 -0.00000000000E+00 -0.17104024075E+03  0.17104024075E+03  0.00000000000E+00 0. -1.
          6    1    1    2  501    0  0.30499383994E+02 -0.31343578982E+02  0.16431461017E+04  0.16528069288E+04  0.17300000000E+03 0. -1.
         -6    1    1    2    0  503 -0.30499383994E+02  0.31343578982E+02 -0.11831610018E+03  0.21410355422E+03  0.17300000000E+03 0. -1.
<mgrwt>
<rscale>  2 0.17844224E+03</rscale>
<asrwt>0</asrwt>
<pdfrwt beam="1">  1       21 0.26090310E+00 0.17844224E+03</pdfrwt>
<pdfrwt beam="2">  1       21 0.26313884E-01 0.17844224E+03</pdfrwt>
<totfact> 0.80351185E+02</totfact>
</mgrwt>
</event>
<event>
 4    1  0.4090208E+000  0.1745739E+03  0.7546771E-02  0.1173160E+00
         21   -1    0    0  503  502  0.00000000000E+00  0.00000000000E+00  0.37613089866E+02  0.37613089866E+02  0.00000000000E+00 0.  1.
         21   -1    0    0  501  503 -0.00000000000E+00 -0.00000000000E+00 -0.88582591584E+03  0.88582591584E+03  0.00000000000E+00 0.  1.
          6    1    1    2  501    0  0.17853147120E+02 -0.15109428534E+02 -0.55896975972E+03  0.58559646684E+03  0.17300000000E+03 0. -1.
         -6    1    1    2    0  502 -0.17853147120E+02  0.15109428534E+02 -0.28924306625E+03  0.33784253887E+03  0.17300000000E+03 0. -1.
<mgrwt>
<rscale>  2 0.17457385E+03</rscale>
<asrwt>0</asrwt>
<pdfrwt beam="1">  1       21 0.57866294E-02 0.17457385E+03</pdfrwt>
<pdfrwt beam="2">  1       21 0.13628090E+00 0.17457385E+03</pdfrwt>
<totfact> 0.81157527E+04</totfact>
</mgrwt>
</event>
<event>
 4    1  0.4090208E+000  0.2549425E+03  0.7546771E-02  0.1110221E+00
         21   -1    0    0  501  502  0.00000000000E+00  0.00000000000E+00  0.36411022736E+03  0.36411022736E+03  0.00000000000E+00 0.  1.
         21   -1    0    0  502  503 -0.00000000000E+00 -0.00000000000E+00 -0.17852535393E+03  0.17852535393E+03  0.00000000000E+00 0. -1.
          6    1    1    2  501    0  0.85841355721E+02 -0.16642701130E+03  0.95651629028E+02  0.27229565288E+03  0.17300000000E+03 0.  1.
         -6    1    1    2    0  503 -0.85841355721E+02  0.16642701130E+03  0.89933244404E+02  0.27033992841E+03  0.17300000000E+03 0. -1.
<mgrwt>
<rscale>  2 0.25494252E+03</rscale>
<asrwt>0</asrwt>
<pdfrwt beam="1">  1       21 0.56016958E-01 0.25494252E+03</pdfrwt>
<pdfrwt beam="2">  1       21 0.27465439E-01 0.25494252E+03</pdfrwt>
<totfact> 0.36838573E+04</totfact>
</mgrwt>
</event>
<event>
 4    1  0.4090208E+000  0.2062637E+03  0.7546771E-02  0.1144559E+00
         21   -1    0    0  501  502  0.00000000000E+00  0.00000000000E+00  0.56559365115E+03  0.56559365115E+03  0.00000000000E+00 0. -1.
         21   -1    0    0  502  503 -0.00000000000E+00 -0.00000000000E+00 -0.83851674089E+02  0.83851674089E+02  0.00000000000E+00 0. -1.
          6    1    1    2  501    0 -0.97270039410E+02  0.56162667713E+02  0.34504774336E+03  0.40199832214E+03  0.17300000000E+03 0. -1.
         -6    1    1    2    0  503  0.97270039410E+02 -0.56162667713E+02  0.13669423370E+03  0.24744700309E+03  0.17300000000E+03 0. -1.
<mgrwt>
<rscale>  2 0.20626368E+03</rscale>
<asrwt>0</asrwt>
<pdfrwt beam="1">  1       21 0.87014405E-01 0.20626368E+03</pdfrwt>
<pdfrwt beam="2">  1       21 0.12900258E-01 0.20626368E+03</pdfrwt>
<totfact> 0.58144593E+04</totfact>
</mgrwt>
</event>
<event>
 4    1  0.4090208E+000  0.1776819E+03  0.7546771E-02  0.1170066E+00
         21   -1    0    0  503  502  0.00000000000E+00  0.00000000000E+00  0.35311404024E+02  0.35311404024E+02  0.00000000000E+00 0.  1.
         21   -1    0    0  501  503 -0.00000000000E+00 -0.00000000000E+00 -0.10988815925E+04  0.10988815925E+04  0.00000000000E+00 0.  1.
          6    1    1    2  501    0 -0.31326913189E+02 -0.25699973021E+02 -0.77661184593E+03  0.79667861986E+03  0.17300000000E+03 0.  1.
         -6    1    1    2    0  502  0.31326913189E+02  0.25699973021E+02 -0.28695834259E+03  0.33751437671E+03  0.17300000000E+03 0.  1.
<mgrwt>
<rscale>  2 0.17768192E+03</rscale>
<asrwt>0</asrwt>
<pdfrwt beam="1">  1       21 0.54325244E-02 0.17768192E+03</pdfrwt>
<pdfrwt beam="2">  1       21 0.16905869E+00 0.17768192E+03</pdfrwt>
<totfact> 0.51071140E+04</totfact>
</mgrwt>
</event>
<event>
 4    1  0.4090208E+000  0.2487479E+03  0.7546771E-02  0.1114099E+00
         21   -1    0    0  501  502  0.00000000000E+00  0.00000000000E+00  0.60931169552E+03  0.60931169552E+03  0.00000000000E+00 0. -1.
         21   -1    0    0  502  503 -0.00000000000E+00 -0.00000000000E+00 -0.10835671957E+03  0.10835671957E+03  0.00000000000E+00 0.  1.
          6    1    1    2  501    0  0.29202153764E+02  0.17633414919E+03  0.34041488736E+03  0.42161332224E+03  0.17300000000E+03 0. -1.
         -6    1    1    2    0  503 -0.29202153764E+02 -0.17633414919E+03  0.16054008860E+03  0.29605509285E+03  0.17300000000E+03 0.  1.
<mgrwt>
<rscale>  2 0.24874786E+03</rscale>
<asrwt>0</asrwt>
<pdfrwt beam="1">  1       21 0.93740259E-01 0.24874786E+03</pdfrwt>
<pdfrwt beam="2">  1       21 0.16670265E-01 0.24874786E+03</pdfrwt>
<totfact> 0.30022900E+04</totfact>
</mgrwt>
</event>
<event>
 4    1  0.4090208E+000  0.1766233E+03  0.7546771E-02  0.1171112E+00
         21   -1    0    0  501  502  0.00000000000E+00  0.00000000000E+00  0.68673582936E+03  0.68673582936E+03  0.00000000000E+00 0. -1.
         21   -1    0    0  502  503 -0.00000000000E+00 -0.00000000000E+00 -0.14028408566E+03  0.14028408566E+03  0.00000000000E+00 0. -1.
          6    1    1    2  501    0  0.34835472243E+02  0.72994167691E+01  0.61325687308E+03  0.63818475694E+03  0.17300000000E+03 0. -1.
         -6    1    1    2    0  503 -0.34835472243E+02 -0.72994167691E+01 -0.66805129385E+02  0.18883515807E+03  0.17300000000E+03 0. -1.
<mgrwt>
<rscale>  2 0.17662330E+03</rscale>
<asrwt>0</asrwt>
<pdfrwt beam="1">  1       21 0.10565166E+00 0.17662330E+03</pdfrwt>
<pdfrwt beam="2">  1       21 0.21582167E-01 0.17662330E+03</pdfrwt>
<totfact> 0.14561787E+04</totfact>
</mgrwt>
</event>
<event>
 4    1  0.4090208E+000  0.1860238E+03  0.7546771E-02  0.1162097E+00
         21   -1    0    0  501  502  0.00000000000E+00  0.00000000000E+00  0.12912604572E+03  0.12912604572E+03  0.00000000000E+00 0.  1.
         21   -1    0    0  502  503 -0.00000000000E+00 -0.00000000000E+00 -0.42400728327E+03  0.42400728327E+03  0.00000000000E+00 0.  1.
          6    1    1    2  501    0 -0.52254317489E+02  0.44105978149E+02  0.20322166250E+02  0.18713054653E+03  0.17300000000E+03 0.  1.
         -6    1    1    2    0  503  0.52254317489E+02 -0.44105978149E+02 -0.31520340379E+03  0.36600278246E+03  0.17300000000E+03 0.  1.
<mgrwt>
<rscale>  2 0.18602379E+03</rscale>
<asrwt>0</asrwt>
<pdfrwt beam="1">  1       21 0.19865545E-01 0.18602379E+03</pdfrwt>
<pdfrwt beam="2">  1       21 0.65231890E-01 0.18602379E+03</pdfrwt>
<totfact> 0.50711905E+04</totfact>
</mgrwt>
</event>
<event>
 4    1  0.4090208E+000  0.1871827E+03  0.7546771E-02  0.1161027E+00
         21   -1    0    0  503  502  0.00000000000E+00  0.00000000000E+00  0.61720633587E+02  0.61720633587E+02  0.00000000000E+00 0. -1.
         21   -1    0    0  501  503 -0.00000000000E+00 -0.00000000000E+00 -0.79550880061E+03  0.79550880061E+03  0.00000000000E+00 0. -1.
          6    1    1    2  501    0 -0.66068740531E+02  0.27263484232E+02 -0.59627214631E+03  0.62496227767E+03  0.17300000000E+03 0. -1.
         -6    1    1    2    0  502  0.66068740531E+02 -0.27263484232E+02 -0.13751602072E+03  0.23226715653E+03  0.17300000000E+03 0. -1.
<mgrwt>
<rscale>  2 0.18718273E+03</rscale>
<asrwt>0</asrwt>
<pdfrwt beam="1">  1       21 0.94954824E-02 0.18718273E+03</pdfrwt>
<pdfrwt beam="2">  1       21 0.12238596E+00 0.18718273E+03</pdfrwt>
<totfact> 0.44837119E+04</totfact>
</mgrwt>
</event>
<event>
 4    1  0.4090208E+000  0.1875795E+03  0.7546771E-02  0.1160663E+00
         21   -1    0    0  503  502  0.00000000000E+00  0.00000000000E+00  0.17114216647E+03  0.17114216647E+03  0.00000000000E+00 0.  1.
         21   -1    0    0  501  503 -0.00000000000E+00 -0.00000000000E+00 -0.48580900355E+03  0.48580900355E+03  0.00000000000E+00 0. -1.
          6    1    1    2  501    0  0.50376031707E+02 -0.52147202960E+02 -0.40680137671E+03  0.44796588647E+03  0.17300000000E+03 0. -1.
         -6    1    1    2    0  502 -0.50376031707E+02  0.52147202960E+02  0.92134539637E+02  0.20898528355E+03  0.17300000000E+03 0.  1.
<mgrwt>
<rscale>  2 0.18757952E+03</rscale>
<asrwt>0</asrwt>
<pdfrwt beam="1">  1       21 0.26329564E-01 0.18757952E+03</pdfrwt>
<pdfrwt beam="2">  1       21 0.74739846E-01 0.18757952E+03</pdfrwt>
<totfact> 0.22043264E+04</totfact>
</mgrwt>
</event>
<event>
 4    1  0.4090208E+000  0.1816733E+03  0.7546771E-02  0.1166193E+00
         21   -1    0    0  503  502  0.00000000000E+00  0.00000000000E+00  0.27057985755E+03  0.27057985755E+03  0.00000000000E+00 0.  1.
         21   -1    0    0  501  503 -0.00000000000E+00 -0.00000000000E+00 -0.20804334554E+03  0.20804334554E+03  0.00000000000E+00 0.  1.
          6    1    1    2  501    0 -0.30718407732E+02  0.46179794809E+02 -0.12265251438E+03  0.21920044094E+03  0.17300000000E+03 0.  1.
         -6    1    1    2    0  502  0.30718407732E+02 -0.46179794809E+02  0.18518902640E+03  0.25942276215E+03  0.17300000000E+03 0.  1.
<mgrwt>
<rscale>  2 0.18167332E+03</rscale>
<asrwt>0</asrwt>
<pdfrwt beam="1">  1       21 0.41627670E-01 0.18167332E+03</pdfrwt>
<pdfrwt beam="2">  1       21 0.32006669E-01 0.18167332E+03</pdfrwt>
<totfact> 0.52426499E+04</totfact>
</mgrwt>
</event>
<event>
 4    1  0.4090208E+000  0.2113399E+03  0.7546771E-02  0.1140509E+00
         21   -1    0    0  501  502  0.00000000000E+00  0.00000000000E+00  0.35919096002E+03  0.35919096002E+03  0.00000000000E+00 0. -1.
         21   -1    0    0  502  503 -0.00000000000E+00 -0.00000000000E+00 -0.12434771560E+03  0.12434771560E+03  0.00000000000E+00 0.  1.
          6    1    1    2  501    0 -0.38379428912E+02 -0.11516326046E+03  0.11757603799E+03  0.24184433389E+03  0.17300000000E+03 0. -1.
         -6    1    1    2    0  503  0.38379428912E+02  0.11516326046E+03  0.11726720643E+03  0.24169434173E+03  0.17300000000E+03 0. -1.
<mgrwt>
<rscale>  2 0.21133991E+03</rscale>
<asrwt>0</asrwt>
<pdfrwt beam="1">  1       21 0.55260147E-01 0.21133991E+03</pdfrwt>
<pdfrwt beam="2">  1       21 0.19130418E-01 0.21133991E+03</pdfrwt>
<totfact> 0.76818539E+04</totfact>
</mgrwt>
</event>
<event>
 4    1  0.4090208E+000  0.1970816E+03  0.7546771E-02  0.1152225E+00
         21   -1    0    0  503  502  0.00000000000E+00  0.00000000000E+00  0.23185197629E+03  0.23185197629E+03  0.00000000000E+00 0. -1.
         21   -1    0    0  501  503 -0.00000000000E+00 -0.00000000000E+00 -0.27822359446E+03  0.27822359446E+03  0.00000000000E+00 0. -1.
          6    1    1    2  501    0  0.96601337954E+01 -0.93908762770E+02 -0.18405658319E+03  0.26966275183E+03  0.17300000000E+03 0. -1.
         -6    1    1    2    0  502 -0.96601337954E+01  0.93908762770E+02  0.13768496502E+03  0.24041281892E+03  0.17300000000E+03 0. -1.
<mgrwt>
<rscale>  2 0.19708164E+03</rscale>
<asrwt>0</asrwt>
<pdfrwt beam="1">  1       21 0.35669535E-01 0.19708164E+03</pdfrwt>
<pdfrwt beam="2">  1       21 0.42803630E-01 0.19708164E+03</pdfrwt>
<totfact> 0.39694531E+04</totfact>
</mgrwt>
</event>
<event>
 4    1  0.4090208E+000  0.1745267E+03  0.7546771E-02  0.1173208E+00
         21   -1    0    0  503  502  0.00000000000E+00  0.00000000000E+00  0.47861057965E+02  0.47861057965E+02  0.00000000000E+00 0. -1.
         21   -1    0    0  501  503 -0.00000000000E+00 -0.00000000000E+00 -0.14026154191E+04  0.14026154191E+04  0.00000000000E+00 0. -1.
          6    1    1    2  501    0 -0.65855493749E+01  0.22072880095E+02 -0.12133985101E+04  0.12258856088E+04  0.17300000000E+03 0. -1.
         -6    1    1    2    0  502  0.65855493749E+01 -0.22072880095E+02 -0.14135585104E+03  0.22459086829E+03  0.17300000000E+03 0. -1.
<mgrwt>
<rscale>  2 0.17452674E+03</rscale>
<asrwt>0</asrwt>
<pdfrwt beam="1">  1       21 0.73632401E-02 0.17452674E+03</pdfrwt>
<pdfrwt beam="2">  1       21 0.21578698E+00 0.17452674E+03</pdfrwt>
<totfact> 0.15032058E+04</totfact>
</mgrwt>
</event>
<event>
 4    1  0.4090208E+000  0.2059292E+03  0.7546771E-02  0.1144831E+00
         21   -1    0    0  503  502  0.00000000000E+00  0.00000000000E+00  0.73729419523E+02  0.73729419523E+02  0.00000000000E+00 0. -1.
         21   -1    0    0  501  503 -0.00000000000E+00 -0.00000000000E+00 -0.61442606554E+03  0.61442606554E+03  0.00000000000E+00 0. -1.
          6    1    1    2  501    0 -0.50152489941E+02 -0.99812624729E+02 -0.18337541392E+03  0.27574149984E+03  0.17300000000E+03 0. -1.
         -6    1    1    2    0  502  0.50152489941E+02  0.99812624729E+02 -0.35732123209E+03  0.41241398522E+03  0.17300000000E+03 0. -1.
<mgrwt>
<rscale>  2 0.20592919E+03</rscale>
<asrwt>0</asrwt>
<pdfrwt beam="1">  1       21 0.11342988E-01 0.20592919E+03</pdfrwt>
<pdfrwt beam="2">  1       21 0.94527087E-01 0.20592919E+03</pdfrwt>
<totfact> 0.60424303E+04</totfact>
</mgrwt>
</event>
<event>
 4    1  0.4090208E+000  0.1776117E+03  0.7546771E-02  0.1170135E+00
         21   -1    0    0  503  502  0.00000000000E+00  0.00000000000E+00  0.10372484249E+03  0.10372484249E+03  0.00000000000E+00 0. -1.
         21   -1    0    0  501  503 -0.00000000000E+00 -0.00000000000E+00 -0.37701472920E+03  0.37701472920E+03  0.00000000000E+00 0. -1.
          6    1    1    2  501    0 -0.96263262800E+01  0.39041486480E+02 -0.24233084378E+03  0.30044989877E+03  0.17300000000E+03 0.  1.
         -6    1    1    2    0  502  0.96263262800E+01 -0.39041486480E+02 -0.30959042926E+02  0.18028967292E+03  0.17300000000E+03 0.  1.
<mgrwt>
<rscale>  2 0.17761167E+03</rscale>
<asrwt>0</asrwt>
<pdfrwt beam="1">  1       21 0.15957668E-01 0.17761167E+03</pdfrwt>
<pdfrwt beam="2">  1       21 0.58002265E-01 0.17761167E+03</pdfrwt>
<totfact> 0.98185514E+04</totfact>
</mgrwt>
</event>
<event>
 4    1  0.4090208E+000  0.2289073E+03  0.7546771E-02  0.1127411E+00
         21   -1    0    0  503  502  0.00000000000E+00  0.00000000000E+00  0.80562586670E+02  0.80562586670E+02  0.00000000000E+00 0.  1.
         21   -1    0    0  501  503 -0.00000000000E+00 -0.00000000000E+00 -0.67837132641E+03  0.67837132641E+03  0.00000000000E+00 0. -1.
          6    1    1    2  501    0 -0.79186237494E+02 -0.12727566212E+03 -0.37594756772E+03  0.44015352782E+03  0.17300000000E+03 0.  1.
         -6    1    1    2    0  502  0.79186237494E+02  0.12727566212E+03 -0.22186117202E+03  0.31878038526E+03  0.17300000000E+03 0.  1.
<mgrwt>
<rscale>  2 0.22890731E+03</rscale>
<asrwt>0</asrwt>
<pdfrwt beam="1">  1       21 0.12394244E-01 0.22890731E+03</pdfrwt>
<pdfrwt beam="2">  1       21 0.10436482E+00 0.22890731E+03</pdfrwt>
<totfact> 0.40293018E+04</totfact>
</mgrwt>
</event>
<event>
 4    1  0.4090208E+000  0.2293460E+03  0.7546771E-02  0.1127101E+00
         21   -1    0    0  501  502  0.00000000000E+00  0.00000000000E+00  0.13882460270E+04  0.13882460270E+04  0.00000000000E+00 0. -1.
         21   -1    0    0  502  503 -0.00000000000E+00 -0.00000000000E+00 -0.43060457906E+02  0.43060457906E+02  0.00000000000E+00 0. -1.
          6    1    1    2  501    0  0.14927841551E+03 -0.19661254745E+02  0.92059698332E+03  0.94873516640E+03  0.17300000000E+03 0. -1.
         -6    1    1    2    0  503 -0.14927841551E+03  0.19661254745E+02  0.42458858581E+03  0.48257131854E+03  0.17300000000E+03 0. -1.
<mgrwt>
<rscale>  2 0.22934605E+03</rscale>
<asrwt>0</asrwt>
<pdfrwt beam="1">  1       21 0.21357628E+00 0.22934605E+03</pdfrwt>
<pdfrwt beam="2">  1       21 0.66246869E-02 0.22934605E+03</pdfrwt>
<totfact> 0.17832070E+04</totfact>
</mgrwt>
</event>
<event>
 4    1  0.4090208E+000  0.2354525E+03  0.7546771E-02  0.1122860E+00
         21   -1    0    0  503  502  0.00000000000E+00  0.00000000000E+00  0.27373244746E+02  0.27373244746E+02  0.00000000000E+00 0. -1.
         21   -1    0    0  501  503 -0.00000000000E+00 -0.00000000000E+00 -0.29851636042E+04  0.29851636042E+04  0.00000000000E+00 0. -1.
          6    1    1    2  501    0  0.13238462888E+03 -0.89348609780E+02 -0.23330423821E+04  0.23448933069E+04  0.17300000000E+03 0. -1.
         -6    1    1    2    0  502 -0.13238462888E+03  0.89348609780E+02 -0.62474797731E+03  0.66764354201E+03  0.17300000000E+03 0. -1.
<mgrwt>
<rscale>  2 0.23545247E+03</rscale>
<asrwt>0</asrwt>
<pdfrwt beam="1">  1       21 0.42112707E-02 0.23545247E+03</pdfrwt>
<pdfrwt beam="2">  1       21 0.45925569E+00 0.23545247E+03</pdfrwt>
<totfact> 0.12202023E+03</totfact>
</mgrwt>
</event>
<event>
 4    1  0.4090208E+000  0.2025124E+03  0.7546771E-02  0.1147636E+00
         21   -1    0    0  501  502  0.00000000000E+00  0.00000000000E+00  0.37787129586E+03  0.37787129586E+03  0.00000000000E+00 0.  1.
         21   -1    0    0  502  503 -0.00000000000E+00 -0.00000000000E+00 -0.13059704275E+03  0.13059704275E+03  0.00000000000E+00 0. -1.
          6    1    1    2  501    0  0.40365768849E+02  0.97226009959E+02  0.22813689838E+03  0.30505366202E+03  0.17300000000E+03 0.  1.
         -6    1    1    2    0  503 -0.40365768849E+02 -0.97226009959E+02  0.19137354727E+02  0.20341467659E+03  0.17300000000E+03 0. -1.
<mgrwt>
<rscale>  2 0.20251245E+03</rscale>
<asrwt>0</asrwt>
<pdfrwt beam="1">  1       21 0.58134045E-01 0.20251245E+03</pdfrwt>
<pdfrwt beam="2">  1       21 0.20091853E-01 0.20251245E+03</pdfrwt>
<totfact> 0.63165515E+04</totfact>
</mgrwt>
</event>
<event>
 4    1  0.4090208E+000  0.1928498E+03  0.7546771E-02  0.1155916E+00
         21   -1    0    0  501  502  0.00000000000E+00  0.00000000000E+00  0.38243196270E+03  0.38243196270E+03  0.00000000000E+00 0. -1.
         21   -1    0    0  502  503 -0.00000000000E+00 -0.00000000000E+00 -0.12481266762E+03  0.12481266762E+03  0.00000000000E+00 0. -1.
          6    1    1    2  501    0 -0.20401943899E+02  0.82739304423E+02  0.96227346425E+01  0.19308969116E+03  0.17300000000E+03 0. -1.
         -6    1    1    2    0  503  0.20401943899E+02 -0.82739304423E+02  0.24799656044E+03  0.31415493916E+03  0.17300000000E+03 0. -1.
<mgrwt>
<rscale>  2 0.19284976E+03</rscale>
<asrwt>0</asrwt>
<pdfrwt beam="1">  1       21 0.58835686E-01 0.19284976E+03</pdfrwt>
<pdfrwt beam="2">  1       21 0.19201949E-01 0.19284976E+03</pdfrwt>
<totfact> 0.67297989E+04</totfact>
</mgrwt>
</event>
<event>
 4    1  0.4090208E+000  0.2117279E+03  0.7546771E-02  0.1140205E+00
         21   -1    0    0  501  502  0.00000000000E+00  0.00000000000E+00  0.10774422985E+04  0.10774422985E+04  0.00000000000E+00 0. -1.
         21   -1    0    0  502  503 -0.00000000000E+00 -0.00000000000E+00 -0.67550737667E+02  0.67550737667E+02  0.00000000000E+00 0. -1.
          6    1    1    2  501    0 -0.45207276668E+02 -0.11338427334E+03  0.85974084733E+03  0.88542815398E+03  0.17300000000E+03 0. -1.
         -6    1    1    2    0  503  0.45207276668E+02  0.11338427334E+03  0.15015071354E+03  0.25956488222E+03  0.17300000000E+03 0. -1.
<mgrwt>
<rscale>  2 0.21172787E+03</rscale>
<asrwt>0</asrwt>
<pdfrwt beam="1">  1       21 0.16576034E+00 0.21172787E+03</pdfrwt>
<pdfrwt beam="2">  1       21 0.10392422E-01 0.21172787E+03</pdfrwt>
<totfact> 0.17102674E+04</totfact>
</mgrwt>
</event>
<event>
 4    1  0.4090208E+000  0.2232636E+03  0.7546771E-02  0.1131473E+00
         21   -1    0    0  503  502  0.00000000000E+00  0.00000000000E+00  0.26287501773E+03  0.26287501773E+03  0.00000000000E+00 0. -1.
         21   -1    0    0  501  503 -0.00000000000E+00 -0.00000000000E+00 -0.23527453249E+03  0.23527453249E+03  0.00000000000E+00 0. -1.
          6    1    1    2  501    0 -0.14104791929E+03  0.48063939858E+01 -0.95918192192E+02  0.24299571303E+03  0.17300000000E+03 0.  1.
         -6    1    1    2    0  502  0.14104791929E+03 -0.48063939858E+01  0.12351867744E+03  0.25515383719E+03  0.17300000000E+03 0.  1.
<mgrwt>
<rscale>  2 0.22326356E+03</rscale>
<asrwt>0</asrwt>
<pdfrwt beam="1">  1       21 0.40442310E-01 0.22326356E+03</pdfrwt>
<pdfrwt beam="2">  1       21 0.36196082E-01 0.22326356E+03</pdfrwt>
<totfact> 0.42718558E+04</totfact>
</mgrwt>
</event>
<event>
 4    1  0.4090208E+000  0.2718090E+03  0.7546771E-02  0.1100249E+00
         21   -1    0    0  503  502  0.00000000000E+00  0.00000000000E+00  0.37896073958E+03  0.37896073958E+03  0.00000000000E+00 0. -1.
         21   -1    0    0  501  503 -0.00000000000E+00 -0.00000000000E+00 -0.23550409462E+03  0.23550409462E+03  0.00000000000E+00 0. -1.
          6    1    1    2  501    0 -0.17249613452E+03  0.11914776075E+03 -0.55757241899E+02  0.27746887274E+03  0.17300000000E+03 0. -1.
         -6    1    1    2    0  502  0.17249613452E+03 -0.11914776075E+03  0.19921388686E+03  0.33699596145E+03  0.17300000000E+03 0. -1.
<mgrwt>
<rscale>  2 0.27180895E+03</rscale>
<asrwt>0</asrwt>
<pdfrwt beam="1">  1       21 0.58301652E-01 0.27180895E+03</pdfrwt>
<pdfrwt beam="2">  1       21 0.36231399E-01 0.27180895E+03</pdfrwt>
<totfact> 0.19419844E+04</totfact>
</mgrwt>
</event>
<event>
 4    1  0.4090208E+000  0.2078749E+03  0.7546771E-02  0.1143260E+00
         21   -1    0    0  503  502  0.00000000000E+00  0.00000000000E+00  0.13068007422E+04  0.13068007422E+04  0.00000000000E+00 0. -1.
         21   -1    0    0  501  503 -0.00000000000E+00 -0.00000000000E+00 -0.44292291622E+02  0.44292291622E+02  0.00000000000E+00 0.  1.
          6    1    1    2  501    0 -0.83110779331E+02 -0.79847287352E+02  0.97134107579E+03  0.99333553065E+03  0.17300000000E+03 0. -1.
         -6    1    1    2    0  502  0.83110779331E+02  0.79847287352E+02  0.29116737482E+03  0.35775750321E+03  0.17300000000E+03 0. -1.
<mgrwt>
<rscale>  2 0.20787494E+03</rscale>
<asrwt>0</asrwt>
<pdfrwt beam="1">  1       21 0.20104624E+00 0.20787494E+03</pdfrwt>
<pdfrwt beam="2">  1       21 0.68141997E-02 0.20787494E+03</pdfrwt>
<totfact> 0.20712246E+04</totfact>
</mgrwt>
</event>
<event>
 4    1  0.4090208E+000  0.1878872E+03  0.7546771E-02  0.1160381E+00
         21   -1    0    0  503  502  0.00000000000E+00  0.00000000000E+00  0.24410704792E+03  0.24410704792E+03  0.00000000000E+00 0. -1.
         21   -1    0    0  501  503 -0.00000000000E+00 -0.00000000000E+00 -0.15216461629E+03  0.15216461629E+03  0.00000000000E+00 0. -1.
          6    1    1    2  501    0 -0.73294250883E+02  0.73091917248E+00  0.18381775005E+01  0.18789614246E+03  0.17300000000E+03 0. -1.
         -6    1    1    2    0  502  0.73294250883E+02 -0.73091917248E+00  0.90104254128E+02  0.20837552176E+03  0.17300000000E+03 0. -1.
<mgrwt>
<rscale>  2 0.18788715E+03</rscale>
<asrwt>0</asrwt>
<pdfrwt beam="1">  1       21 0.37554931E-01 0.18788715E+03</pdfrwt>
<pdfrwt beam="2">  1       21 0.23409941E-01 0.18788715E+03</pdfrwt>
<totfact> 0.11757012E+05</totfact>
</mgrwt>
</event>
<event>
 4    1  0.4090208E+000  0.2060928E+03  0.7546771E-02  0.1144698E+00
         21   -1    0    0  503  502  0.00000000000E+00  0.00000000000E+00  0.14950068832E+03  0.14950068832E+03  0.00000000000E+00 0.  1.
         21   -1    0    0  501  503 -0.00000000000E+00 -0.00000000000E+00 -0.58923920709E+03  0.58923920709E+03  0.00000000000E+00 0. -1.
          6    1    1    2  501    0 -0.50733290577E+00 -0.11200437619E+03 -0.48567205708E+03  0.52759035690E+03  0.17300000000E+03 0. -1.
         -6    1    1    2    0  502  0.50733290577E+00  0.11200437619E+03  0.45933538308E+02  0.21114953851E+03  0.17300000000E+03 0.  1.
<mgrwt>
<rscale>  2 0.20609279E+03</rscale>
<asrwt>0</asrwt>
<pdfrwt beam="1">  1       21 0.23000106E-01 0.20609279E+03</pdfrwt>
<pdfrwt beam="2">  1       21 0.90652186E-01 0.20609279E+03</pdfrwt>
<totfact> 0.18183719E+04</totfact>
</mgrwt>
</event>
<event>
 4    1  0.4090208E+000  0.1892861E+03  0.7546771E-02  0.1159107E+00
         21   -1    0    0  501  502  0.00000000000E+00  0.00000000000E+00  0.53507683463E+03  0.53507683463E+03  0.00000000000E+00 0.  1.
         21   -1    0    0  502  503 -0.00000000000E+00 -0.00000000000E+00 -0.11703630302E+03  0.11703630302E+03  0.00000000000E+00 0.  1.
          6    1    1    2  501    0  0.53357773268E+02  0.55255680056E+02  0.42229762559E+03  0.46277913385E+03  0.17300000000E+03 0.  1.
         -6    1    1    2    0  503 -0.53357773268E+02 -0.55255680056E+02 -0.42570939856E+01  0.18933400380E+03  0.17300000000E+03 0.  1.
<mgrwt>
<rscale>  2 0.18928614E+03</rscale>
<asrwt>0</asrwt>
<pdfrwt beam="1">  1       21 0.82319512E-01 0.18928614E+03</pdfrwt>
<pdfrwt beam="2">  1       21 0.18005585E-01 0.18928614E+03</pdfrwt>
<totfact> 0.36235658E+04</totfact>
</mgrwt>
</event>
<event>
 4    1  0.4090208E+000  0.2002697E+03  0.7546771E-02  0.1149512E+00
         21   -1    0    0  501  502  0.00000000000E+00  0.00000000000E+00  0.62431222680E+03  0.62431222680E+03  0.00000000000E+00 0. -1.
         21   -1    0    0  502  503 -0.00000000000E+00 -0.00000000000E+00 -0.71978453490E+02  0.71978453490E+02  0.00000000000E+00 0. -1.
          6    1    1    2  501    0 -0.97165012063E+02 -0.27164331227E+02  0.16203921008E+03  0.25761336546E+03  0.17300000000E+03 0. -1.
         -6    1    1    2    0  503  0.97165012063E+02  0.27164331227E+02  0.39029456322E+03  0.43867731483E+03  0.17300000000E+03 0. -1.
<mgrwt>
<rscale>  2 0.20026967E+03</rscale>
<asrwt>0</asrwt>
<pdfrwt beam="1">  1       21 0.96048031E-01 0.20026967E+03</pdfrwt>
<pdfrwt beam="2">  1       21 0.11073609E-01 0.20026967E+03</pdfrwt>
<totfact> 0.60917496E+04</totfact>
</mgrwt>
</event>
<event>
 4    1  0.4090208E+000  0.2385584E+03  0.7546771E-02  0.1120757E+00
         21   -1    0    0  501  502  0.00000000000E+00  0.00000000000E+00  0.25859523646E+03  0.25859523646E+03  0.00000000000E+00 0.  1.
         21   -1    0    0  502  503 -0.00000000000E+00 -0.00000000000E+00 -0.28394940645E+03  0.28394940645E+03  0.00000000000E+00 0.  1.
          6    1    1    2  501    0  0.61228745780E+02  0.15242094178E+03  0.11598531433E+03  0.26525967644E+03  0.17300000000E+03 0.  1.
         -6    1    1    2    0  503 -0.61228745780E+02 -0.15242094178E+03 -0.14133948433E+03  0.27728496647E+03  0.17300000000E+03 0.  1.
<mgrwt>
<rscale>  2 0.23855838E+03</rscale>
<asrwt>0</asrwt>
<pdfrwt beam="1">  1       21 0.39783882E-01 0.23855838E+03</pdfrwt>
<pdfrwt beam="2">  1       21 0.43684524E-01 0.23855838E+03</pdfrwt>
<totfact> 0.29953152E+04</totfact>
</mgrwt>
</event>
<event>
 4    1  0.4090208E+000  0.1813521E+03  0.7546771E-02  0.1166501E+00
         21   -1    0    0  503  502  0.00000000000E+00  0.00000000000E+00  0.12617525598E+04  0.12617525598E+04  0.00000000000E+00 0. -1.
         21   -1    0    0  501  503 -0.00000000000E+00 -0.00000000000E+00 -0.34889025243E+02  0.34889025243E+02  0.00000000000E+00 0. -1.
          6    1    1    2  501    0  0.53069244548E+02 -0.11968149197E+02  0.28740040221E+03  0.33983462522E+03  0.17300000000E+03 0.  1.
         -6    1    1    2    0  502 -0.53069244548E+02  0.11968149197E+02  0.93946313231E+03  0.95680695978E+03  0.17300000000E+03 0.  1.
<mgrwt>
<rscale>  2 0.18135209E+03</rscale>
<asrwt>0</asrwt>
<pdfrwt beam="1">  1       21 0.19411574E+00 0.18135209E+03</pdfrwt>
<pdfrwt beam="2">  1       21 0.53675433E-02 0.18135209E+03</pdfrwt>
<totfact> 0.35224449E+04</totfact>
</mgrwt>
</event>
<event>
 4    1  0.4090208E+000  0.2062637E+03  0.7546771E-02  0.1144559E+00
         21   -1    0    0  503  502  0.00000000000E+00  0.00000000000E+00  0.62076054318E+03  0.62076054318E+03  0.00000000000E+00 0. -1.
         21   -1    0    0  501  503 -0.00000000000E+00 -0.00000000000E+00 -0.79244801821E+02  0.79244801821E+02  0.00000000000E+00 0.  1.
          6    1    1    2  501    0  0.48219412616E+01  0.11221614659E+03  0.14209667390E+03  0.25047191341E+03  0.17300000000E+03 0.  1.
         -6    1    1    2    0  502 -0.48219412616E+01 -0.11221614659E+03  0.39941906746E+03  0.44953343160E+03  0.17300000000E+03 0. -1.
<mgrwt>
<rscale>  2 0.20626370E+03</rscale>
<asrwt>0</asrwt>
<pdfrwt beam="1">  1       21 0.95501619E-01 0.20626370E+03</pdfrwt>
<pdfrwt beam="2">  1       21 0.12191508E-01 0.20626370E+03</pdfrwt>
<totfact> 0.51836395E+04</totfact>
</mgrwt>
</event>
<event>
 4    1  0.4090208E+000  0.2171000E+03  0.7546771E-02  0.1136064E+00
         21   -1    0    0  501  502  0.00000000000E+00  0.00000000000E+00  0.45824756883E+03  0.45824756883E+03  0.00000000000E+00 0.  1.
         21   -1    0    0  502  503 -0.00000000000E+00 -0.00000000000E+00 -0.12440137408E+03  0.12440137408E+03  0.00000000000E+00 0. -1.
          6    1    1    2  501    0 -0.12544597772E+03  0.38297959341E+02  0.28816849389E+03  0.36079565947E+03  0.17300000000E+03 0.  1.
         -6    1    1    2    0  503  0.12544597772E+03 -0.38297959341E+02  0.45677700858E+02  0.22185328344E+03  0.17300000000E+03 0. -1.
<mgrwt>
<rscale>  2 0.21710004E+03</rscale>
<asrwt>0</asrwt>
<pdfrwt beam="1">  1       21 0.70499625E-01 0.21710004E+03</pdfrwt>
<pdfrwt beam="2">  1       21 0.19138673E-01 0.21710004E+03</pdfrwt>
<totfact> 0.45155624E+04</totfact>
</mgrwt>
</event>
<event>
 4    1  0.4090208E+000  0.2011793E+03  0.7546771E-02  0.1148748E+00
         21   -1    0    0  501  502  0.00000000000E+00  0.00000000000E+00  0.80200803019E+02  0.80200803019E+02  0.00000000000E+00 0. -1.
         21   -1    0    0  502  503 -0.00000000000E+00 -0.00000000000E+00 -0.54831291452E+03  0.54831291452E+03  0.00000000000E+00 0. -1.
          6    1    1    2  501    0 -0.65494996128E+02  0.79085479828E+02 -0.14537292798E+03  0.24820635734E+03  0.17300000000E+03 0. -1.
         -6    1    1    2    0  503  0.65494996128E+02 -0.79085479828E+02 -0.32273918352E+03  0.38030736020E+03  0.17300000000E+03 0. -1.
<mgrwt>
<rscale>  2 0.20117929E+03</rscale>
<asrwt>0</asrwt>
<pdfrwt beam="1">  1       21 0.12338585E-01 0.20117929E+03</pdfrwt>
<pdfrwt beam="2">  1       21 0.84355834E-01 0.20117929E+03</pdfrwt>
<totfact> 0.67801031E+04</totfact>
</mgrwt>
</event>
<event>
 4    1  0.4090208E+000  0.1815287E+03  0.7546771E-02  0.1166332E+00
         21   -1    0    0  503  502  0.00000000000E+00  0.00000000000E+00  0.77691477431E+03  0.77691477431E+03  0.00000000000E+00 0. -1.
         21   -1    0    0  501  503 -0.00000000000E+00 -0.00000000000E+00 -0.53845820854E+02  0.53845820854E+02  0.00000000000E+00 0. -1.
          6    1    1    2  501    0 -0.45373735564E+02  0.31062692962E+02  0.17014729790E+03  0.24880267232E+03  0.17300000000E+03 0. -1.
         -6    1    1    2    0  502  0.45373735564E+02 -0.31062692962E+02  0.55292165556E+03  0.58195792284E+03  0.17300000000E+03 0. -1.
<mgrwt>
<rscale>  2 0.18152869E+03</rscale>
<asrwt>0</asrwt>
<pdfrwt beam="1">  1       21 0.11952534E+00 0.18152869E+03</pdfrwt>
<pdfrwt beam="2">  1       21 0.82839730E-02 0.18152869E+03</pdfrwt>
<totfact> 0.60556413E+04</totfact>
</mgrwt>
</event>
<event>
 4    1  0.4090208E+000  0.1840497E+03  0.7546771E-02  0.1163940E+00
         21   -1    0    0  503  502  0.00000000000E+00  0.00000000000E+00  0.22601162480E+02  0.22601162480E+02  0.00000000000E+00 0.  1.
         21   -1    0    0  501  503 -0.00000000000E+00 -0.00000000000E+00 -0.19906731008E+04  0.19906731008E+04  0.00000000000E+00 0.  1.
          6    1    1    2  501    0  0.60709869823E+02  0.16112398774E+02 -0.14844227748E+04  0.14957891804E+04  0.17300000000E+03 0.  1.
         -6    1    1    2    0  502 -0.60709869823E+02 -0.16112398774E+02 -0.48364916353E+03  0.51748508294E+03  0.17300000000E+03 0.  1.
<mgrwt>
<rscale>  2 0.18404972E+03</rscale>
<asrwt>0</asrwt>
<pdfrwt beam="1">  1       21 0.34771005E-02 0.18404972E+03</pdfrwt>
<pdfrwt beam="2">  1       21 0.30625753E+00 0.18404972E+03</pdfrwt>
<totfact> 0.15701917E+04</totfact>
</mgrwt>
</event>
<event>
 4    1  0.4090208E+000  0.2278615E+03  0.7546771E-02  0.1128154E+00
         21   -1    0    0  501  502  0.00000000000E+00  0.00000000000E+00  0.37320691942E+03  0.37320691942E+03  0.00000000000E+00 0. -1.
         21   -1    0    0  502  503 -0.00000000000E+00 -0.00000000000E+00 -0.14476728226E+03  0.14476728226E+03  0.00000000000E+00 0.  1.
          6    1    1    2  501    0 -0.10498321869E+03  0.10473951540E+03  0.16536823665E+03  0.28154483832E+03  0.17300000000E+03 0. -1.
         -6    1    1    2    0  503  0.10498321869E+03 -0.10473951540E+03  0.63071400509E+02  0.23642936335E+03  0.17300000000E+03 0.  1.
<mgrwt>
<rscale>  2 0.22786145E+03</rscale>
<asrwt>0</asrwt>
<pdfrwt beam="1">  1       21 0.57416449E-01 0.22786145E+03</pdfrwt>
<pdfrwt beam="2">  1       21 0.22271890E-01 0.22786145E+03</pdfrwt>
<totfact> 0.52831942E+04</totfact>
</mgrwt>
</event>
<event>
 4    1  0.4090208E+000  0.2013161E+03  0.7546771E-02  0.1148633E+00
         21   -1    0    0  501  502  0.00000000000E+00  0.00000000000E+00  0.30788386263E+02  0.30788386263E+02  0.00000000000E+00 0.  1.
         21   -1    0    0  502  503 -0.00000000000E+00 -0.00000000000E+00 -0.21738995972E+04  0.21738995972E+04  0.00000000000E+00 0.  1.
          6    1    1    2  501    0 -0.91829659009E+02  0.46545575440E+02 -0.37920197957E+03  0.42932775146E+03  0.17300000000E+03 0.  1.
         -6    1    1    2    0  503  0.91829659009E+02 -0.46545575440E+02 -0.17639092313E+04  0.17753602320E+04  0.17300000000E+03 0.  1.
<mgrwt>
<rscale>  2 0.20131611E+03</rscale>
<asrwt>0</asrwt>
<pdfrwt beam="1">  1       21 0.47366744E-02 0.20131611E+03</pdfrwt>
<pdfrwt beam="2">  1       21 0.33444612E+00 0.20131611E+03</pdfrwt>
<totfact> 0.62950533E+03</totfact>
</mgrwt>
</event>
<event>
 4    1  0.4090208E+000  0.1770328E+03  0.7546771E-02  0.1170706E+00
         21   -1    0    0  501  502  0.00000000000E+00  0.00000000000E+00  0.34244011812E+03  0.34244011812E+03  0.00000000000E+00 0. -1.
         21   -1    0    0  502  503 -0.00000000000E+00 -0.00000000000E+00 -0.19057161326E+03  0.19057161326E+03  0.00000000000E+00 0. -1.
          6    1    1    2  501    0  0.63546825621E+01 -0.37030002558E+02  0.26806874973E+03  0.32124983682E+03  0.17300000000E+03 0. -1.
         -6    1    1    2    0  503 -0.63546825621E+01  0.37030002558E+02 -0.11620024486E+03  0.21176189456E+03  0.17300000000E+03 0. -1.
<mgrwt>
<rscale>  2 0.17703277E+03</rscale>
<asrwt>0</asrwt>
<pdfrwt beam="1">  1       21 0.52683095E-01 0.17703277E+03</pdfrwt>
<pdfrwt beam="2">  1       21 0.29318710E-01 0.17703277E+03</pdfrwt>
<totfact> 0.38365277E+04</totfact>
</mgrwt>
</event>
<event>
 4    1  0.4090208E+000  0.2195156E+03  0.7546771E-02  0.1134245E+00
         21   -1    0    0  501  502  0.00000000000E+00  0.00000000000E+00  0.12103299555E+04  0.12103299555E+04  0.00000000000E+00 0. -1.
         21   -1    0    0  502  503 -0.00000000000E+00 -0.00000000000E+00 -0.10079538459E+03  0.10079538459E+03  0.00000000000E+00 0. -1.
          6    1    1    2  501    0 -0.10373023608E+03  0.86591818811E+02  0.10646794728E+04  0.10870738175E+04  0.17300000000E+03 0. -1.
         -6    1    1    2    0  503  0.10373023608E+03 -0.86591818811E+02  0.44855098189E+02  0.22405152264E+03  0.17300000000E+03 0. -1.
<mgrwt>
<rscale>  2 0.21951561E+03</rscale>
<asrwt>0</asrwt>
<pdfrwt beam="1">  1       21 0.18620460E+00 0.21951561E+03</pdfrwt>
<pdfrwt beam="2">  1       21 0.15506983E-01 0.21951561E+03</pdfrwt>
<totfact> 0.59651031E+03</totfact>
</mgrwt>
</event>
<event>
 4    1  0.4090208E+000  0.1956242E+03  0.7546771E-02  0.1153484E+00
         21   -1    0    0  503  502  0.00000000000E+00  0.00000000000E+00  0.36036752069E+03  0.36036752069E+03  0.00000000000E+00 0. -1.
         21   -1    0    0  501  503 -0.00000000000E+00 -0.00000000000E+00 -0.10712729755E+03  0.10712729755E+03  0.00000000000E+00 0. -1.
          6    1    1    2  501    0  0.85464625020E+02 -0.32181398659E+02  0.10480174409E+03  0.22192847973E+03  0.17300000000E+03 0. -1.
         -6    1    1    2    0  502 -0.85464625020E+02  0.32181398659E+02  0.14843847905E+03  0.24556633851E+03  0.17300000000E+03 0. -1.
<mgrwt>
<rscale>  2 0.19562424E+03</rscale>
<asrwt>0</asrwt>
<pdfrwt beam="1">  1       21 0.55441156E-01 0.19562424E+03</pdfrwt>
<pdfrwt beam="2">  1       21 0.16481123E-01 0.19562424E+03</pdfrwt>
<totfact> 0.10116660E+05</totfact>
</mgrwt>
</event>
<event>
 4    1  0.4090208E+000  0.1925539E+03  0.7546771E-02  0.1156178E+00
         21   -1    0    0  501  502  0.00000000000E+00  0.00000000000E+00  0.29373201509E+03  0.29373201509E+03  0.00000000000E+00 0.  1.
         21   -1    0    0  502  503 -0.00000000000E+00 -0.00000000000E+00 -0.12880835751E+03  0.12880835751E+03  0.00000000000E+00 0.  1.
          6    1    1    2  501    0  0.60323075751E+02  0.59237903800E+02  0.52555436555E+02  0.19959728612E+03  0.17300000000E+03 0.  1.
         -6    1    1    2    0  503 -0.60323075751E+02 -0.59237903800E+02  0.11236822103E+03  0.22294308648E+03  0.17300000000E+03 0.  1.
<mgrwt>
<rscale>  2 0.19255390E+03</rscale>
<asrwt>0</asrwt>
<pdfrwt beam="1">  1       21 0.45189541E-01 0.19255390E+03</pdfrwt>
<pdfrwt beam="2">  1       21 0.19816670E-01 0.19255390E+03</pdfrwt>
<totfact> 0.11033374E+05</totfact>
</mgrwt>
</event>
<event>
 4    1  0.4090208E+000  0.2396201E+03  0.7546771E-02  0.1120046E+00
         21   -1    0    0  503  502  0.00000000000E+00  0.00000000000E+00  0.25820236560E+03  0.25820236560E+03  0.00000000000E+00 0. -1.
         21   -1    0    0  501  503 -0.00000000000E+00 -0.00000000000E+00 -0.25116597757E+03  0.25116597757E+03  0.00000000000E+00 0.  1.
          6    1    1    2  501    0  0.16314529833E+03 -0.29536738015E+02  0.89746154353E+02  0.25587532019E+03  0.17300000000E+03 0.  1.
         -6    1    1    2    0  502 -0.16314529833E+03  0.29536738015E+02 -0.82709766321E+02  0.25349302299E+03  0.17300000000E+03 0.  1.
<mgrwt>
<rscale>  2 0.23962013E+03</rscale>
<asrwt>0</asrwt>
<pdfrwt beam="1">  1       21 0.39723441E-01 0.23962013E+03</pdfrwt>
<pdfrwt beam="2">  1       21 0.38640920E-01 0.23962013E+03</pdfrwt>
<totfact> 0.38564900E+04</totfact>
</mgrwt>
</event>
<event>
 4    1  0.4090208E+000  0.1780628E+03  0.7546771E-02  0.1169691E+00
         21   -1    0    0  501  502  0.00000000000E+00  0.00000000000E+00  0.83286387144E+03  0.83286387144E+03  0.00000000000E+00 0.  1.
         21   -1    0    0  502  503 -0.00000000000E+00 -0.00000000000E+00 -0.77118587776E+02  0.77118587776E+02  0.00000000000E+00 0.  1.
          6    1    1    2  501    0 -0.41922659737E+02 -0.44546062286E+01  0.70163870878E+03  0.72388067427E+03  0.17300000000E+03 0.  1.
         -6    1    1    2    0  503  0.41922659737E+02  0.44546062286E+01  0.54106574883E+02  0.18610178495E+03  0.17300000000E+03 0.  1.
<mgrwt>
<rscale>  2 0.17806278E+03</rscale>
<asrwt>0</asrwt>
<pdfrwt beam="1">  1       21 0.12813290E+00 0.17806278E+03</pdfrwt>
<pdfrwt beam="2">  1       21 0.11864399E-01 0.17806278E+03</pdfrwt>
<totfact> 0.27087380E+04</totfact>
</mgrwt>
</event>
<event>
 4    1  0.4090208E+000  0.2966172E+03  0.7546771E-02  0.1086944E+00
         21   -1    0    0  501  502  0.00000000000E+00  0.00000000000E+00  0.22372515990E+03  0.22372515990E+03  0.00000000000E+00 0. -1.
         21   -1    0    0  502  503 -0.00000000000E+00 -0.00000000000E+00 -0.40574462294E+03  0.40574462294E+03  0.00000000000E+00 0.  1.
          6    1    1    2  501    0  0.23295541319E+03 -0.61518634229E+02 -0.35797347742E+02  0.29876950480E+03  0.17300000000E+03 0.  1.
         -6    1    1    2    0  503 -0.23295541319E+03  0.61518634229E+02 -0.14622211530E+03  0.33070027804E+03  0.17300000000E+03 0. -1.
<mgrwt>
<rscale>  2 0.29661721E+03</rscale>
<asrwt>0</asrwt>
<pdfrwt beam="1">  1       21 0.34419256E-01 0.29661721E+03</pdfrwt>
<pdfrwt beam="2">  1       21 0.62422249E-01 0.29661721E+03</pdfrwt>
<totfact> 0.18364402E+04</totfact>
</mgrwt>
</event>
<event>
 4    1  0.4090208E+000  0.1802566E+03  0.7546771E-02  0.1167555E+00
         21   -1    0    0  501  502  0.00000000000E+00  0.00000000000E+00  0.19115953197E+03  0.19115953197E+03  0.00000000000E+00 0.  1.
         21   -1    0    0  502  503 -0.00000000000E+00 -0.00000000000E+00 -0.49622884306E+03  0.49622884306E+03  0.00000000000E+00 0. -1.
          6    1    1    2  501    0  0.47737835134E+02  0.16868456422E+02  0.12614716601E+03  0.22001262059E+03  0.17300000000E+03 0.  1.
         -6    1    1    2    0  503 -0.47737835134E+02 -0.16868456422E+02 -0.43121647710E+03  0.46737575445E+03  0.17300000000E+03 0. -1.
<mgrwt>
<rscale>  2 0.18025661E+03</rscale>
<asrwt>0</asrwt>
<pdfrwt beam="1">  1       21 0.29409159E-01 0.18025661E+03</pdfrwt>
<pdfrwt beam="2">  1       21 0.76342898E-01 0.18025661E+03</pdfrwt>
<totfact> 0.17057804E+04</totfact>
</mgrwt>
</event>
<event>
 4    1  0.4090208E+000  0.1929010E+03  0.7546771E-02  0.1155871E+00
         21   -1    0    0  501  502  0.00000000000E+00  0.00000000000E+00  0.37636766837E+02  0.37636766837E+02  0.00000000000E+00 0.  1.
         21   -1    0    0  502  503 -0.00000000000E+00 -0.00000000000E+00 -0.10156483214E+04  0.10156483214E+04  0.00000000000E+00 0. -1.
          6    1    1    2  501    0 -0.63089532579E+02  0.57458759861E+02 -0.40319255770E+03  0.44696200822E+03  0.17300000000E+03 0.  1.
         -6    1    1    2    0  503  0.63089532579E+02 -0.57458759861E+02 -0.57481899683E+03  0.60632307998E+03  0.17300000000E+03 0. -1.
<mgrwt>
<rscale>  2 0.19290101E+03</rscale>
<asrwt>0</asrwt>
<pdfrwt beam="1">  1       21 0.57902730E-02 0.19290101E+03</pdfrwt>
<pdfrwt beam="2">  1       21 0.15625355E+00 0.19290101E+03</pdfrwt>
<totfact> 0.56203804E+04</totfact>
</mgrwt>
</event>
<event>
 4    1  0.4090208E+000  0.1735494E+03  0.7546771E-02  0.1174196E+00
         21   -1    0    0  503  502  0.00000000000E+00  0.00000000000E+00  0.37228112319E+03  0.37228112319E+03  0.00000000000E+00 0. -1.
         21   -1    0    0  501  503 -0.00000000000E+00 -0.00000000000E+00 -0.13284957858E+03  0.13284957858E+03  0.00000000000E+00 0. -1.
          6    1    1    2  501    0 -0.13231747060E+02 -0.39113064028E+01 -0.38214030921E+02  0.17770675172E+03  0.17300000000E+03 0. -1.
         -6    1    1    2    0  502  0.13231747060E+02  0.39113064028E+01  0.27764557554E+03  0.32742395004E+03  0.17300000000E+03 0. -1.
<mgrwt>
<rscale>  2 0.17354935E+03</rscale>
<asrwt>0</asrwt>
<pdfrwt beam="1">  1       21 0.57274019E-01 0.17354935E+03</pdfrwt>
<pdfrwt beam="2">  1       21 0.20438397E-01 0.17354935E+03</pdfrwt>
<totfact> 0.63986423E+04</totfact>
</mgrwt>
</event>
<event>
 4    1  0.4090208E+000  0.2366308E+03  0.7546771E-02  0.1122058E+00
         21   -1    0    0  503  502  0.00000000000E+00  0.00000000000E+00  0.80437372231E+02  0.80437372231E+02  0.00000000000E+00 0.  1.
         21   -1    0    0  501  503 -0.00000000000E+00 -0.00000000000E+00 -0.74436004514E+03  0.74436004514E+03  0.00000000000E+00 0. -1.
          6    1    1    2  501    0  0.11979602375E+03  0.10823146092E+03 -0.43694592346E+03  0.49690630552E+03  0.17300000000E+03 0. -1.
         -6    1    1    2    0  502 -0.11979602375E+03 -0.10823146092E+03 -0.22697674946E+03  0.32789111185E+03  0.17300000000E+03 0.  1.
<mgrwt>
<rscale>  2 0.23663080E+03</rscale>
<asrwt>0</asrwt>
<pdfrwt beam="1">  1       21 0.12374980E-01 0.23663080E+03</pdfrwt>
<pdfrwt beam="2">  1       21 0.11451693E+00 0.23663080E+03</pdfrwt>
<totfact> 0.32120418E+04</totfact>
</mgrwt>
</event>
<event>
 4    1  0.4090208E+000  0.1887828E+03  0.7546771E-02  0.1159564E+00
         21   -1    0    0  503  502  0.00000000000E+00  0.00000000000E+00  0.29494856792E+02  0.29494856792E+02  0.00000000000E+00 0.  1.
         21   -1    0    0  501  503 -0.00000000000E+00 -0.00000000000E+00 -0.16729390882E+04  0.16729390882E+04  0.00000000000E+00 0.  1.
          6    1    1    2  501    0  0.66377823288E+02  0.36109816740E+02 -0.12703159978E+04  0.12842669771E+04  0.17300000000E+03 0. -1.
         -6    1    1    2    0  502 -0.66377823288E+02 -0.36109816740E+02 -0.37312823357E+03  0.41816696782E+03  0.17300000000E+03 0. -1.
<mgrwt>
<rscale>  2 0.18878277E+03</rscale>
<asrwt>0</asrwt>
<pdfrwt beam="1">  1       21 0.45376695E-02 0.18878277E+03</pdfrwt>
<pdfrwt beam="2">  1       21 0.25737529E+00 0.18878277E+03</pdfrwt>
<totfact> 0.19145819E+04</totfact>
</mgrwt>
</event>
<event>
 4    1  0.4090208E+000  0.1860965E+03  0.7546771E-02  0.1162030E+00
         21   -1    0    0  503  502  0.00000000000E+00  0.00000000000E+00  0.10716334577E+04  0.10716334577E+04  0.00000000000E+00 0. -1.
         21   -1    0    0  501  503 -0.00000000000E+00 -0.00000000000E+00 -0.50655272108E+02  0.50655272108E+02  0.00000000000E+00 0. -1.
          6    1    1    2  501    0 -0.57030625889E+02  0.38084124532E+02  0.17285800180E+03  0.25399169596E+03  0.17300000000E+03 0. -1.
         -6    1    1    2    0  502  0.57030625889E+02 -0.38084124532E+02  0.84812018378E+03  0.86829703383E+03  0.17300000000E+03 0. -1.
<mgrwt>
<rscale>  2 0.18609646E+03</rscale>
<asrwt>0</asrwt>
<pdfrwt beam="1">  1       21 0.16486667E+00 0.18609646E+03</pdfrwt>
<pdfrwt beam="2">  1       21 0.77931196E-02 0.18609646E+03</pdfrwt>
<totfact> 0.29270666E+04</totfact>
</mgrwt>
</event>
<event>
 4    1  0.4090208E+000  0.1738183E+03  0.7546771E-02  0.1173924E+00
         21   -1    0    0  503  502  0.00000000000E+00  0.00000000000E+00  0.18815160032E+03  0.18815160032E+03  0.00000000000E+00 0. -1.
         21   -1    0    0  501  503 -0.00000000000E+00 -0.00000000000E+00 -0.10912573429E+04  0.10912573429E+04  0.00000000000E+00 0. -1.
          6    1    1    2  501    0 -0.16456838700E+02  0.36002046330E+01 -0.10423197048E+04  0.10567133746E+04  0.17300000000E+03 0. -1.
         -6    1    1    2    0  502  0.16456838700E+02 -0.36002046330E+01  0.13921396222E+03  0.22269556864E+03  0.17300000000E+03 0. -1.
<mgrwt>
<rscale>  2 0.17381826E+03</rscale>
<asrwt>0</asrwt>
<pdfrwt beam="1">  1       21 0.28946400E-01 0.17381826E+03</pdfrwt>
<pdfrwt beam="2">  1       21 0.16788575E+00 0.17381826E+03</pdfrwt>
<totfact> 0.25703523E+03</totfact>
</mgrwt>
</event>
<event>
 4    1  0.4090208E+000  0.2034738E+03  0.7546771E-02  0.1146841E+00
         21   -1    0    0  501  502  0.00000000000E+00  0.00000000000E+00  0.58454885184E+03  0.58454885184E+03  0.00000000000E+00 0. -1.
         21   -1    0    0  502  503 -0.00000000000E+00 -0.00000000000E+00 -0.97053456958E+02  0.97053456958E+02  0.00000000000E+00 0.  1.
          6    1    1    2  501    0  0.10517266827E+03  0.20280186801E+02  0.42090910565E+03  0.46751048261E+03  0.17300000000E+03 0. -1.
         -6    1    1    2    0  503 -0.10517266827E+03 -0.20280186801E+02  0.66586289230E+02  0.21409182619E+03  0.17300000000E+03 0.  1.
<mgrwt>
<rscale>  2 0.20347377E+03</rscale>
<asrwt>0</asrwt>
<pdfrwt beam="1">  1       21 0.89930590E-01 0.20347377E+03</pdfrwt>
<pdfrwt beam="2">  1       21 0.14931301E-01 0.20347377E+03</pdfrwt>
<totfact> 0.41395581E+04</totfact>
</mgrwt>
</event>
<event>
 4    1  0.4090208E+000  0.1824064E+03  0.7546771E-02  0.1165494E+00
         21   -1    0    0  501  502  0.00000000000E+00  0.00000000000E+00  0.33753277336E+02  0.33753277336E+02  0.00000000000E+00 0. -1.
         21   -1    0    0  502  503 -0.00000000000E+00 -0.00000000000E+00 -0.11140792055E+04  0.11140792055E+04  0.00000000000E+00 0. -1.
          6    1    1    2  501    0 -0.29653360673E+02  0.49636253181E+02 -0.34537417986E+03  0.39058341432E+03  0.17300000000E+03 0. -1.
         -6    1    1    2    0  503  0.29653360673E+02 -0.49636253181E+02 -0.73495174827E+03  0.75724906848E+03  0.17300000000E+03 0. -1.
<mgrwt>
<rscale>  2 0.18240636E+03</rscale>
<asrwt>0</asrwt>
<pdfrwt beam="1">  1       21 0.51928125E-02 0.18240636E+03</pdfrwt>
<pdfrwt beam="2">  1       21 0.17139678E+00 0.18240636E+03</pdfrwt>
<totfact> 0.52946795E+04</totfact>
</mgrwt>
</event>
<event>
 4    1  0.4090208E+000  0.2033361E+03  0.7546771E-02  0.1146955E+00
         21   -1    0    0  503  502  0.00000000000E+00  0.00000000000E+00  0.69252409905E+02  0.69252409905E+02  0.00000000000E+00 0. -1.
         21   -1    0    0  501  503 -0.00000000000E+00 -0.00000000000E+00 -0.61320853955E+03  0.61320853955E+03  0.00000000000E+00 0.  1.
          6    1    1    2  501    0  0.10660492109E+03 -0.72069522974E+01 -0.32740940883E+03  0.38541207863E+03  0.17300000000E+03 0.  1.
         -6    1    1    2    0  502 -0.10660492109E+03  0.72069522974E+01 -0.21654672081E+03  0.29704887082E+03  0.17300000000E+03 0. -1.
<mgrwt>
<rscale>  2 0.20333605E+03</rscale>
<asrwt>0</asrwt>
<pdfrwt beam="1">  1       21 0.10654217E-01 0.20333605E+03</pdfrwt>
<pdfrwt beam="2">  1       21 0.94339778E-01 0.20333605E+03</pdfrwt>
<totfact> 0.67951976E+04</totfact>
</mgrwt>
</event>
<event>
 4    1  0.4090208E+000  0.1753108E+03  0.7546771E-02  0.1172420E+00
         21   -1    0    0  503  502  0.00000000000E+00  0.00000000000E+00  0.35296879701E+03  0.35296879701E+03  0.00000000000E+00 0.  1.
         21   -1    0    0  501  503 -0.00000000000E+00 -0.00000000000E+00 -0.21435228620E+03  0.21435228620E+03  0.00000000000E+00 0.  1.
          6    1    1    2  501    0  0.26835287283E+02  0.92060213311E+01 -0.14927382152E+03  0.23025324593E+03  0.17300000000E+03 0.  1.
         -6    1    1    2    0  502 -0.26835287283E+02 -0.92060213311E+01  0.28789033233E+03  0.33706783727E+03  0.17300000000E+03 0.  1.
<mgrwt>
<rscale>  2 0.17531082E+03</rscale>
<asrwt>0</asrwt>
<pdfrwt beam="1">  1       21 0.54302892E-01 0.17531082E+03</pdfrwt>
<pdfrwt beam="2">  1       21 0.32977275E-01 0.17531082E+03</pdfrwt>
<totfact> 0.28640933E+04</totfact>
</mgrwt>
</event>
<event>
 4    1  0.4090208E+000  0.1886370E+03  0.7546771E-02  0.1159696E+00
         21   -1    0    0  501  502  0.00000000000E+00  0.00000000000E+00  0.21352678631E+02  0.21352678631E+02  0.00000000000E+00 0.  1.
         21   -1    0    0  502  503 -0.00000000000E+00 -0.00000000000E+00 -0.19531858382E+04  0.19531858382E+04  0.00000000000E+00 0.  1.
          6    1    1    2  501    0 -0.63691046208E+02 -0.39979492411E+02 -0.58766683126E+03  0.61720030277E+03  0.17300000000E+03 0.  1.
         -6    1    1    2    0  503  0.63691046208E+02  0.39979492411E+02 -0.13441663283E+04  0.13573382141E+04  0.17300000000E+03 0.  1.
<mgrwt>
<rscale>  2 0.18863698E+03</rscale>
<asrwt>0</asrwt>
<pdfrwt beam="1">  1       21 0.32850259E-02 0.18863698E+03</pdfrwt>
<pdfrwt beam="2">  1       21 0.30049027E+00 0.18863698E+03</pdfrwt>
<totfact> 0.18536226E+04</totfact>
</mgrwt>
</event>
<event>
 4    1  0.4090208E+000  0.1838253E+03  0.7546771E-02  0.1164151E+00
         21   -1    0    0  503  502  0.00000000000E+00  0.00000000000E+00  0.57998223606E+02  0.57998223606E+02  0.00000000000E+00 0. -1.
         21   -1    0    0  501  503 -0.00000000000E+00 -0.00000000000E+00 -0.16361326165E+04  0.16361326165E+04  0.00000000000E+00 0. -1.
          6    1    1    2  501    0 -0.40221246367E+02 -0.47381499709E+02 -0.14687787028E+04  0.14802373569E+04  0.17300000000E+03 0. -1.
         -6    1    1    2    0  502  0.40221246367E+02  0.47381499709E+02 -0.10935569011E+03  0.21389348315E+03  0.17300000000E+03 0. -1.
<mgrwt>
<rscale>  2 0.18382534E+03</rscale>
<asrwt>0</asrwt>
<pdfrwt beam="1">  1       21 0.89228029E-02 0.18382534E+03</pdfrwt>
<pdfrwt beam="2">  1       21 0.25171273E+00 0.18382534E+03</pdfrwt>
<totfact> 0.65019300E+03</totfact>
</mgrwt>
</event>
<event>
 4    1  0.4090208E+000  0.2714343E+03  0.7546771E-02  0.1100462E+00
         21   -1    0    0  501  502  0.00000000000E+00  0.00000000000E+00  0.59119395769E+03  0.59119395769E+03  0.00000000000E+00 0. -1.
         21   -1    0    0  502  503 -0.00000000000E+00 -0.00000000000E+00 -0.13937471105E+03  0.13937471105E+03  0.00000000000E+00 0. -1.
          6    1    1    2  501    0  0.16362822404E+03 -0.13028195158E+03  0.34474748461E+03  0.43877945571E+03  0.17300000000E+03 0. -1.
         -6    1    1    2    0  503 -0.16362822404E+03  0.13028195158E+03  0.10707176203E+03  0.29178921302E+03  0.17300000000E+03 0. -1.
<mgrwt>
<rscale>  2 0.27143431E+03</rscale>
<asrwt>0</asrwt>
<pdfrwt beam="1">  1       21 0.90952916E-01 0.27143431E+03</pdfrwt>
<pdfrwt beam="2">  1       21 0.21442263E-01 0.27143431E+03</pdfrwt>
<totfact> 0.19914525E+04</totfact>
</mgrwt>
</event>
<event>
 4    1  0.4090208E+000  0.1966545E+03  0.7546771E-02  0.1152593E+00
         21   -1    0    0  501  502  0.00000000000E+00  0.00000000000E+00  0.65771272422E+03  0.65771272422E+03  0.00000000000E+00 0.  1.
         21   -1    0    0  502  503 -0.00000000000E+00 -0.00000000000E+00 -0.60048255632E+02  0.60048255632E+02  0.00000000000E+00 0.  1.
          6    1    1    2  501    0 -0.32491325480E+02 -0.87683077036E+02  0.35059096440E+03  0.40197889565E+03  0.17300000000E+03 0.  1.
         -6    1    1    2    0  503  0.32491325480E+02  0.87683077036E+02  0.24707350419E+03  0.31578208420E+03  0.17300000000E+03 0.  1.
<mgrwt>
<rscale>  2 0.19665454E+03</rscale>
<asrwt>0</asrwt>
<pdfrwt beam="1">  1       21 0.10118657E+00 0.19665454E+03</pdfrwt>
<pdfrwt beam="2">  1       21 0.92381936E-02 0.19665454E+03</pdfrwt>
<totfact> 0.74339760E+04</totfact>
</mgrwt>
</event>
<event>
 4    1  0.4090208E+000  0.1806097E+03  0.7546771E-02  0.1167214E+00
         21   -1    0    0  503  502  0.00000000000E+00  0.00000000000E+00  0.45322214390E+03  0.45322214390E+03  0.00000000000E+00 0. -1.
         21   -1    0    0  501  503 -0.00000000000E+00 -0.00000000000E+00 -0.74317252702E+02  0.74317252702E+02  0.00000000000E+00 0. -1.
          6    1    1    2  501    0  0.41066874299E+02  0.31691987696E+02  0.14260787966E+03  0.23012361372E+03  0.17300000000E+03 0. -1.
         -6    1    1    2    0  502 -0.41066874299E+02 -0.31691987696E+02  0.23629701154E+03  0.29741578289E+03  0.17300000000E+03 0. -1.
<mgrwt>
<rscale>  2 0.18060972E+03</rscale>
<asrwt>0</asrwt>
<pdfrwt beam="1">  1       21 0.69726482E-01 0.18060972E+03</pdfrwt>
<pdfrwt beam="2">  1       21 0.11433424E-01 0.18060972E+03</pdfrwt>
<totfact> 0.12009464E+05</totfact>
</mgrwt>
</event>
<event>
 4    1  0.4090208E+000  0.2481069E+03  0.7546771E-02  0.1114507E+00
         21   -1    0    0  501  502  0.00000000000E+00  0.00000000000E+00  0.28437495664E+04  0.28437495664E+04  0.00000000000E+00 0.  1.
         21   -1    0    0  502  503 -0.00000000000E+00 -0.00000000000E+00 -0.83410447327E+02  0.83410447327E+02  0.00000000000E+00 0. -1.
          6    1    1    2  501    0  0.30672667412E+02 -0.17517763576E+03  0.26395995264E+04  0.26512341798E+04  0.17300000000E+03 0.  1.
         -6    1    1    2    0  503 -0.30672667412E+02  0.17517763576E+03  0.12073959277E+03  0.27592583398E+03  0.17300000000E+03 0. -1.
<mgrwt>
<rscale>  2 0.24810687E+03</rscale>
<asrwt>0</asrwt>
<pdfrwt beam="1">  1       21 0.43749986E+00 0.24810687E+03</pdfrwt>
<pdfrwt beam="2">  1       21 0.12832379E-01 0.24810687E+03</pdfrwt>
<totfact> 0.24023671E+02</totfact>
</mgrwt>
</event>
<event>
 4    1  0.4090208E+000  0.1880835E+03  0.7546771E-02  0.1160201E+00
         21   -1    0    0  503  502  0.00000000000E+00  0.00000000000E+00  0.15917057505E+03  0.15917057505E+03  0.00000000000E+00 0. -1.
         21   -1    0    0  501  503 -0.00000000000E+00 -0.00000000000E+00 -0.24388871605E+03  0.24388871605E+03  0.00000000000E+00 0. -1.
          6    1    1    2  501    0 -0.29839060215E+02 -0.67498327445E+02  0.17671937758E+02  0.18891186068E+03  0.17300000000E+03 0. -1.
         -6    1    1    2    0  502  0.29839060215E+02  0.67498327445E+02 -0.10239007876E+03  0.21414743041E+03  0.17300000000E+03 0. -1.
<mgrwt>
<rscale>  2 0.18808348E+03</rscale>
<asrwt>0</asrwt>
<pdfrwt beam="1">  1       21 0.24487781E-01 0.18808348E+03</pdfrwt>
<pdfrwt beam="2">  1       21 0.37521341E-01 0.18808348E+03</pdfrwt>
<totfact> 0.10812094E+05</totfact>
</mgrwt>
</event>
<event>
 4    1  0.4090208E+000  0.1946306E+03  0.7546771E-02  0.1154350E+00
         21   -1    0    0  501  502  0.00000000000E+00  0.00000000000E+00  0.55071882537E+02  0.55071882537E+02  0.00000000000E+00 0.  1.
         21   -1    0    0  502  503 -0.00000000000E+00 -0.00000000000E+00 -0.68927404292E+03  0.68927404292E+03  0.00000000000E+00 0.  1.
          6    1    1    2  501    0  0.63826680358E+02  0.62275485226E+02 -0.33402978197E+03  0.38659665859E+03  0.17300000000E+03 0.  1.
         -6    1    1    2    0  503 -0.63826680358E+02 -0.62275485226E+02 -0.30017237841E+03  0.35774926687E+03  0.17300000000E+03 0.  1.
<mgrwt>
<rscale>  2 0.19463063E+03</rscale>
<asrwt>0</asrwt>
<pdfrwt beam="1">  1       21 0.84725973E-02 0.19463063E+03</pdfrwt>
<pdfrwt beam="2">  1       21 0.10604216E+00 0.19463063E+03</pdfrwt>
<totfact> 0.77395888E+04</totfact>
</mgrwt>
</event>
<event>
 4    1  0.4090208E+000  0.1928787E+03  0.7546771E-02  0.1155890E+00
         21   -1    0    0  503  502  0.00000000000E+00  0.00000000000E+00  0.33754747193E+03  0.33754747193E+03  0.00000000000E+00 0. -1.
         21   -1    0    0  501  503 -0.00000000000E+00 -0.00000000000E+00 -0.12205057450E+03  0.12205057450E+03  0.00000000000E+00 0. -1.
          6    1    1    2  501    0  0.37007798088E+02 -0.76835071032E+02  0.36182741445E+02  0.19624320635E+03  0.17300000000E+03 0.  1.
         -6    1    1    2    0  502 -0.37007798088E+02  0.76835071032E+02  0.17931415598E+03  0.26335484009E+03  0.17300000000E+03 0.  1.
<mgrwt>
<rscale>  2 0.19287873E+03</rscale>
<asrwt>0</asrwt>
<pdfrwt beam="1">  1       21 0.51930380E-01 0.19287873E+03</pdfrwt>
<pdfrwt beam="2">  1       21 0.18777012E-01 0.19287873E+03</pdfrwt>
<totfact> 0.91389213E+04</totfact>
</mgrwt>
</event>
<event>
 4    1  0.4090208E+000  0.1805096E+03  0.7546771E-02  0.1167311E+00
         21   -1    0    0  501  502  0.00000000000E+00  0.00000000000E+00  0.59856802864E+02  0.59856802864E+02  0.00000000000E+00 0. -1.
         21   -1    0    0  502  503 -0.00000000000E+00 -0.00000000000E+00 -0.71080808060E+03  0.71080808060E+03  0.00000000000E+00 0. -1.
          6    1    1    2  501    0  0.23336150348E+02  0.45936325291E+02 -0.13901068940E+03  0.22783260009E+03  0.17300000000E+03 0. -1.
         -6    1    1    2    0  503 -0.23336150348E+02 -0.45936325291E+02 -0.51194058833E+03  0.54283228337E+03  0.17300000000E+03 0. -1.
<mgrwt>
<rscale>  2 0.18050962E+03</rscale>
<asrwt>0</asrwt>
<pdfrwt beam="1">  1       21 0.92087386E-02 0.18050962E+03</pdfrwt>
<pdfrwt beam="2">  1       21 0.10935509E+00 0.18050962E+03</pdfrwt>
<totfact> 0.62520701E+04</totfact>
</mgrwt>
</event>
<event>
 4    1  0.4090208E+000  0.2004427E+03  0.7546771E-02  0.1149366E+00
         21   -1    0    0  501  502  0.00000000000E+00  0.00000000000E+00  0.15834077750E+04  0.15834077750E+04  0.00000000000E+00 0. -1.
         21   -1    0    0  502  503 -0.00000000000E+00 -0.00000000000E+00 -0.26689859916E+02  0.26689859916E+02  0.00000000000E+00 0. -1.
          6    1    1    2  501    0  0.75570002452E+02  0.67360601837E+02  0.59960088323E+03  0.63221712657E+03  0.17300000000E+03 0. -1.
         -6    1    1    2    0  503 -0.75570002452E+02 -0.67360601837E+02  0.95711703190E+03  0.97788050840E+03  0.17300000000E+03 0. -1.
<mgrwt>
<rscale>  2 0.20044270E+03</rscale>
<asrwt>0</asrwt>
<pdfrwt beam="1">  1       21 0.24360112E+00 0.20044270E+03</pdfrwt>
<pdfrwt beam="2">  1       21 0.41061335E-02 0.20044270E+03</pdfrwt>
<totfact> 0.27027155E+04</totfact>
</mgrwt>
</event>
<event>
 4    1  0.4090208E+000  0.1816932E+03  0.7546771E-02  0.1166174E+00
         21   -1    0    0  501  502  0.00000000000E+00  0.00000000000E+00  0.20127410271E+03  0.20127410271E+03  0.00000000000E+00 0.  1.
         21   -1    0    0  502  503 -0.00000000000E+00 -0.00000000000E+00 -0.16573870140E+03  0.16573870140E+03  0.00000000000E+00 0.  1.
          6    1    1    2  501    0  0.28165229106E+02 -0.47855301702E+02  0.36470038911E+02  0.18531722470E+03  0.17300000000E+03 0. -1.
         -6    1    1    2    0  503 -0.28165229106E+02  0.47855301702E+02 -0.93463760096E+00  0.18169557942E+03  0.17300000000E+03 0. -1.
<mgrwt>
<rscale>  2 0.18169318E+03</rscale>
<asrwt>0</asrwt>
<pdfrwt beam="1">  1       21 0.30965247E-01 0.18169318E+03</pdfrwt>
<pdfrwt beam="2">  1       21 0.25498262E-01 0.18169318E+03</pdfrwt>
<totfact> 0.14663116E+05</totfact>
</mgrwt>
</event>
<event>
 4    1  0.4090208E+000  0.1977970E+03  0.7546771E-02  0.1151611E+00
         21   -1    0    0  503  502  0.00000000000E+00  0.00000000000E+00  0.68179064548E+03  0.68179064548E+03  0.00000000000E+00 0.  1.
         21   -1    0    0  501  503 -0.00000000000E+00 -0.00000000000E+00 -0.65990165660E+02  0.65990165660E+02  0.00000000000E+00 0.  1.
          6    1    1    2  501    0  0.62818139107E+02 -0.72446898287E+02  0.44292613493E+03  0.48508476855E+03  0.17300000000E+03 0.  1.
         -6    1    1    2    0  502 -0.62818139107E+02  0.72446898287E+02  0.17287434489E+03  0.26269604259E+03  0.17300000000E+03 0.  1.
<mgrwt>
<rscale>  2 0.19779705E+03</rscale>
<asrwt>0</asrwt>
<pdfrwt beam="1">  1       21 0.10489086E+00 0.19779705E+03</pdfrwt>
<pdfrwt beam="2">  1       21 0.10152334E-01 0.19779705E+03</pdfrwt>
<totfact> 0.57718077E+04</totfact>
</mgrwt>
</event>
<event>
 4    1  0.4090208E+000  0.2521166E+03  0.7546771E-02  0.1111974E+00
         21   -1    0    0  503  502  0.00000000000E+00  0.00000000000E+00  0.22280313262E+04  0.22280313262E+04  0.00000000000E+00 0. -1.
         21   -1    0    0  501  503 -0.00000000000E+00 -0.00000000000E+00 -0.36927639815E+02  0.36927639815E+02  0.00000000000E+00 0. -1.
          6    1    1    2  501    0  0.65689589029E+02 -0.17122694235E+03  0.55546030261E+03  0.60999912760E+03  0.17300000000E+03 0. -1.
         -6    1    1    2    0  502 -0.65689589029E+02  0.17122694235E+03  0.16356433838E+04  0.16549598384E+04  0.17300000000E+03 0. -1.
<mgrwt>
<rscale>  2 0.25211662E+03</rscale>
<asrwt>0</asrwt>
<pdfrwt beam="1">  1       21 0.34277394E+00 0.25211662E+03</pdfrwt>
<pdfrwt beam="2">  1       21 0.56811771E-02 0.25211662E+03</pdfrwt>
<totfact> 0.39050412E+03</totfact>
</mgrwt>
</event>
<event>
 4    1  0.4090208E+000  0.1940475E+03  0.7546771E-02  0.1154861E+00
         21   -1    0    0  503  502  0.00000000000E+00  0.00000000000E+00  0.26830165570E+03  0.26830165570E+03  0.00000000000E+00 0.  1.
         21   -1    0    0  501  503 -0.00000000000E+00 -0.00000000000E+00 -0.45352330641E+03  0.45352330641E+03  0.00000000000E+00 0.  1.
          6    1    1    2  501    0 -0.77599347505E+02  0.41276853847E+02 -0.39252628859E+03  0.43787135625E+03  0.17300000000E+03 0.  1.
         -6    1    1    2    0  502  0.77599347505E+02 -0.41276853847E+02  0.20730463788E+03  0.28395360586E+03  0.17300000000E+03 0.  1.
<mgrwt>
<rscale>  2 0.19404751E+03</rscale>
<asrwt>0</asrwt>
<pdfrwt beam="1">  1       21 0.41277178E-01 0.19404751E+03</pdfrwt>
<pdfrwt beam="2">  1       21 0.69772816E-01 0.19404751E+03</pdfrwt>
<totfact> 0.10538643E+04</totfact>
</mgrwt>
</event>
<event>
 4    1  0.4090208E+000  0.1904569E+03  0.7546771E-02  0.1158050E+00
         21   -1    0    0  503  502  0.00000000000E+00  0.00000000000E+00  0.54543455448E+03  0.54543455448E+03  0.00000000000E+00 0.  1.
         21   -1    0    0  501  503 -0.00000000000E+00 -0.00000000000E+00 -0.17695160147E+03  0.17695160147E+03  0.00000000000E+00 0.  1.
          6    1    1    2  501    0  0.47562864178E+01 -0.79512225328E+02 -0.10111613521E+03  0.21563461929E+03  0.17300000000E+03 0.  1.
         -6    1    1    2    0  502 -0.47562864178E+01  0.79512225328E+02  0.46959908823E+03  0.50675153665E+03  0.17300000000E+03 0.  1.
<mgrwt>
<rscale>  2 0.19045686E+03</rscale>
<asrwt>0</asrwt>
<pdfrwt beam="1">  1       21 0.83913008E-01 0.19045686E+03</pdfrwt>
<pdfrwt beam="2">  1       21 0.27223324E-01 0.19045686E+03</pdfrwt>
<totfact> 0.15896335E+04</totfact>
</mgrwt>
</event>
<event>
 4    1  0.4090208E+000  0.3541038E+03  0.7546771E-02  0.1060943E+00
         21   -1    0    0  501  502  0.00000000000E+00  0.00000000000E+00  0.22513004480E+03  0.22513004480E+03  0.00000000000E+00 0. -1.
         21   -1    0    0  502  503 -0.00000000000E+00 -0.00000000000E+00 -0.61934690784E+03  0.61934690784E+03  0.00000000000E+00 0.  1.
          6    1    1    2  501    0  0.23913914032E+03 -0.19563481016E+03 -0.63103467106E+02  0.35968257525E+03  0.17300000000E+03 0. -1.
         -6    1    1    2    0  503 -0.23913914032E+03  0.19563481016E+03 -0.33111339594E+03  0.48479437739E+03  0.17300000000E+03 0.  1.
<mgrwt>
<rscale>  2 0.35410381E+03</rscale>
<asrwt>0</asrwt>
<pdfrwt beam="1">  1       21 0.34635392E-01 0.35410381E+03</pdfrwt>
<pdfrwt beam="2">  1       21 0.95284139E-01 0.35410381E+03</pdfrwt>
<totfact> 0.67573934E+03</totfact>
</mgrwt>
</event>
<event>
 4    1  0.4090208E+000  0.1776396E+03  0.7546771E-02  0.1170107E+00
         21   -1    0    0  501  502  0.00000000000E+00  0.00000000000E+00  0.44220834878E+02  0.44220834878E+02  0.00000000000E+00 0.  1.
         21   -1    0    0  502  503 -0.00000000000E+00 -0.00000000000E+00 -0.10861624061E+04  0.10861624061E+04  0.00000000000E+00 0. -1.
          6    1    1    2  501    0 -0.21398599001E+02  0.34189466143E+02 -0.18995396593E+03  0.26007369880E+03  0.17300000000E+03 0.  1.
         -6    1    1    2    0  503  0.21398599001E+02 -0.34189466143E+02 -0.85198760528E+03  0.87030954216E+03  0.17300000000E+03 0. -1.
<mgrwt>
<rscale>  2 0.17763958E+03</rscale>
<asrwt>0</asrwt>
<pdfrwt beam="1">  1       21 0.68032059E-02 0.17763958E+03</pdfrwt>
<pdfrwt beam="2">  1       21 0.16710189E+00 0.17763958E+03</pdfrwt>
<totfact> 0.35884220E+04</totfact>
</mgrwt>
</event>
<event>
 4    1  0.4090208E+000  0.2038136E+03  0.7546771E-02  0.1146561E+00
         21   -1    0    0  501  502  0.00000000000E+00  0.00000000000E+00  0.47114426008E+03  0.47114426008E+03  0.00000000000E+00 0.  1.
         21   -1    0    0  502  503 -0.00000000000E+00 -0.00000000000E+00 -0.96260342283E+02  0.96260342283E+02  0.00000000000E+00 0.  1.
          6    1    1    2  501    0 -0.16109974348E+01  0.10774222526E+03  0.10518577188E+03  0.22935568234E+03  0.17300000000E+03 0.  1.
         -6    1    1    2    0  503  0.16109974348E+01 -0.10774222526E+03  0.26969814591E+03  0.33804892002E+03  0.17300000000E+03 0.  1.
<mgrwt>
<rscale>  2 0.20381360E+03</rscale>
<asrwt>0</asrwt>
<pdfrwt beam="1">  1       21 0.72483731E-01 0.20381360E+03</pdfrwt>
<pdfrwt beam="2">  1       21 0.14809284E-01 0.20381360E+03</pdfrwt>
<totfact> 0.68525671E+04</totfact>
</mgrwt>
</event>
<event>
 4    1  0.4090208E+000  0.1950883E+03  0.7546771E-02  0.1153950E+00
         21   -1    0    0  501  502  0.00000000000E+00  0.00000000000E+00  0.12539970570E+04  0.12539970570E+04  0.00000000000E+00 0. -1.
         21   -1    0    0  502  503 -0.00000000000E+00 -0.00000000000E+00 -0.76072730847E+02  0.76072730847E+02  0.00000000000E+00 0. -1.
          6    1    1    2  501    0 -0.21512073592E+02 -0.87565372407E+02  0.11045391652E+04  0.11216355162E+04  0.17300000000E+03 0. -1.
         -6    1    1    2    0  503  0.21512073592E+02  0.87565372407E+02  0.73385160986E+02  0.20843427167E+03  0.17300000000E+03 0. -1.
<mgrwt>
<rscale>  2 0.19508835E+03</rscale>
<asrwt>0</asrwt>
<pdfrwt beam="1">  1       21 0.19292261E+00 0.19508835E+03</pdfrwt>
<pdfrwt beam="2">  1       21 0.11703498E-01 0.19508835E+03</pdfrwt>
<totfact> 0.91389881E+03</totfact>
</mgrwt>
</event>
<event>
 4    1  0.4090208E+000  0.3337899E+03  0.7546771E-02  0.1069472E+00
         21   -1    0    0  501  502  0.00000000000E+00  0.00000000000E+00  0.65934422769E+03  0.65934422769E+03  0.00000000000E+00 0.  1.
         21   -1    0    0  502  503 -0.00000000000E+00 -0.00000000000E+00 -0.36131355646E+03  0.36131355646E+03  0.00000000000E+00 0. -1.
          6    1    1    2  501    0  0.23201211592E+03  0.16630418729E+03  0.52135220579E+03  0.61905074681E+03  0.17300000000E+03 0.  1.
         -6    1    1    2    0  503 -0.23201211592E+03 -0.16630418729E+03 -0.22332153456E+03  0.40160703734E+03  0.17300000000E+03 0. -1.
<mgrwt>
<rscale>  2 0.33378991E+03</rscale>
<asrwt>0</asrwt>
<pdfrwt beam="1">  1       21 0.10143757E+00 0.33378991E+03</pdfrwt>
<pdfrwt beam="2">  1       21 0.55586701E-01 0.33378991E+03</pdfrwt>
<totfact> 0.21981123E+03</totfact>
</mgrwt>
</event>
<event>
 4    1  0.4090208E+000  0.2217705E+03  0.7546771E-02  0.1132570E+00
         21   -1    0    0  503  502  0.00000000000E+00  0.00000000000E+00  0.72725095641E+03  0.72725095641E+03  0.00000000000E+00 0. -1.
         21   -1    0    0  501  503 -0.00000000000E+00 -0.00000000000E+00 -0.83010589511E+02  0.83010589511E+02  0.00000000000E+00 0.  1.
          6    1    1    2  501    0  0.59193448639E+02  0.12549609622E+03  0.49652193417E+03  0.54379790882E+03  0.17300000000E+03 0. -1.
         -6    1    1    2    0  502 -0.59193448639E+02 -0.12549609622E+03  0.14771843273E+03  0.26646363710E+03  0.17300000000E+03 0.  1.
<mgrwt>
<rscale>  2 0.22177045E+03</rscale>
<asrwt>0</asrwt>
<pdfrwt beam="1">  1       21 0.11188476E+00 0.22177045E+03</pdfrwt>
<pdfrwt beam="2">  1       21 0.12770860E-01 0.22177045E+03</pdfrwt>
<totfact> 0.32366943E+04</totfact>
</mgrwt>
</event>
<event>
 4    1  0.4090208E+000  0.1853703E+03  0.7546771E-02  0.1162705E+00
         21   -1    0    0  503  502  0.00000000000E+00  0.00000000000E+00  0.95748174138E+02  0.95748174138E+02  0.00000000000E+00 0. -1.
         21   -1    0    0  501  503 -0.00000000000E+00 -0.00000000000E+00 -0.60932096362E+03  0.60932096362E+03  0.00000000000E+00 0. -1.
          6    1    1    2  501    0  0.48331632965E+02 -0.45795232889E+02 -0.48279809458E+03  0.51716162873E+03  0.17300000000E+03 0. -1.
         -6    1    1    2    0  502 -0.48331632965E+02  0.45795232889E+02 -0.30774694894E+02  0.18790750902E+03  0.17300000000E+03 0. -1.
<mgrwt>
<rscale>  2 0.18537031E+03</rscale>
<asrwt>0</asrwt>
<pdfrwt beam="1">  1       21 0.14730488E-01 0.18537031E+03</pdfrwt>
<pdfrwt beam="2">  1       21 0.93741686E-01 0.18537031E+03</pdfrwt>
<totfact> 0.38894904E+04</totfact>
</mgrwt>
</event>
<event>
 4    1  0.4090208E+000  0.2262583E+03  0.7546771E-02  0.1129301E+00
         21   -1    0    0  503  502  0.00000000000E+00  0.00000000000E+00  0.65640976429E+03  0.65640976429E+03  0.00000000000E+00 0. -1.
         21   -1    0    0  501  503 -0.00000000000E+00 -0.00000000000E+00 -0.78863903815E+02  0.78863903815E+02  0.00000000000E+00 0.  1.
          6    1    1    2  501    0  0.40609562910E+02 -0.14005235452E+03  0.32749319295E+03  0.39805098924E+03  0.17300000000E+03 0.  1.
         -6    1    1    2    0  502 -0.40609562910E+02  0.14005235452E+03  0.25005266752E+03  0.33722267887E+03  0.17300000000E+03 0. -1.
<mgrwt>
<rscale>  2 0.22625826E+03</rscale>
<asrwt>0</asrwt>
<pdfrwt beam="1">  1       21 0.10098611E+00 0.22625826E+03</pdfrwt>
<pdfrwt beam="2">  1       21 0.12132909E-01 0.22625826E+03</pdfrwt>
<totfact> 0.45370317E+04</totfact>
</mgrwt>
</event>
<event>
 4    1  0.4090208E+000  0.2812433E+03  0.7546771E-02  0.1095012E+00
         21   -1    0    0  503  502  0.00000000000E+00  0.00000000000E+00  0.37172673951E+03  0.37172673951E+03  0.00000000000E+00 0. -1.
         21   -1    0    0  501  503 -0.00000000000E+00 -0.00000000000E+00 -0.33045335559E+03  0.33045335559E+03  0.00000000000E+00 0. -1.
          6    1    1    2  501    0  0.13896154779E+03 -0.17279602445E+03 -0.18886800128E+03  0.33877558906E+03  0.17300000000E+03 0. -1.
         -6    1    1    2    0  502 -0.13896154779E+03  0.17279602445E+03  0.23014138519E+03  0.36340450604E+03  0.17300000000E+03 0. -1.
<mgrwt>
<rscale>  2 0.28124327E+03</rscale>
<asrwt>0</asrwt>
<pdfrwt beam="1">  1       21 0.57188729E-01 0.28124327E+03</pdfrwt>
<pdfrwt beam="2">  1       21 0.50838978E-01 0.28124327E+03</pdfrwt>
<totfact> 0.10035074E+04</totfact>
</mgrwt>
</event>
<event>
 4    1  0.4090208E+000  0.2039584E+03  0.7546771E-02  0.1146442E+00
         21   -1    0    0  503  502  0.00000000000E+00  0.00000000000E+00  0.43773068099E+02  0.43773068099E+02  0.00000000000E+00 0.  1.
         21   -1    0    0  501  503 -0.00000000000E+00 -0.00000000000E+00 -0.98293368547E+03  0.98293368547E+03  0.00000000000E+00 0.  1.
          6    1    1    2  501    0  0.92075913398E+02  0.56498161276E+02 -0.56307003452E+03  0.59887133829E+03  0.17300000000E+03 0. -1.
         -6    1    1    2    0  502 -0.92075913398E+02 -0.56498161276E+02 -0.37609058286E+03  0.42783541528E+03  0.17300000000E+03 0. -1.
<mgrwt>
<rscale>  2 0.20395837E+03</rscale>
<asrwt>0</asrwt>
<pdfrwt beam="1">  1       21 0.67343180E-02 0.20395837E+03</pdfrwt>
<pdfrwt beam="2">  1       21 0.15122057E+00 0.20395837E+03</pdfrwt>
<totfact> 0.47006317E+04</totfact>
</mgrwt>
</event>
<event>
 4    1  0.4090208E+000  0.1958514E+03  0.7546771E-02  0.1153287E+00
         21   -1    0    0  501  502  0.00000000000E+00  0.00000000000E+00  0.80730541449E+03  0.80730541449E+03  0.00000000000E+00 0.  1.
         21   -1    0    0  502  503 -0.00000000000E+00 -0.00000000000E+00 -0.64335851109E+02  0.64335851109E+02  0.00000000000E+00 0.  1.
          6    1    1    2  501    0  0.21804096769E+02  0.89181512339E+02  0.59434211379E+03  0.62577976078E+03  0.17300000000E+03 0.  1.
         -6    1    1    2    0  503 -0.21804096769E+02 -0.89181512339E+02  0.14862744959E+03  0.24586150482E+03  0.17300000000E+03 0.  1.
<mgrwt>
<rscale>  2 0.19585137E+03</rscale>
<asrwt>0</asrwt>
<pdfrwt beam="1">  1       21 0.12420083E+00 0.19585137E+03</pdfrwt>
<pdfrwt beam="2">  1       21 0.98978238E-02 0.19585137E+03</pdfrwt>
<totfact> 0.39982895E+04</totfact>
</mgrwt>
</event>
<event>
 4    1  0.4090208E+000  0.3750059E+03  0.7546771E-02  0.1052795E+00
         21   -1    0    0  503  502  0.00000000000E+00  0.00000000000E+00  0.40830424024E+03  0.40830424024E+03  0.00000000000E+00 0.  1.
         21   -1    0    0  501  503 -0.00000000000E+00 -0.00000000000E+00 -0.36372119851E+03  0.36372119851E+03  0.00000000000E+00 0. -1.
          6    1    1    2  501    0 -0.24643765192E+03 -0.22353734054E+03 -0.66623120259E+02  0.38087806324E+03  0.17300000000E+03 0.  1.
         -6    1    1    2    0  502  0.24643765192E+03  0.22353734054E+03  0.11120616199E+03  0.39114737551E+03  0.17300000000E+03 0. -1.
<mgrwt>
<rscale>  2 0.37500595E+03</rscale>
<asrwt>0</asrwt>
<pdfrwt beam="1">  1       21 0.62816037E-01 0.37500595E+03</pdfrwt>
<pdfrwt beam="2">  1       21 0.55957108E-01 0.37500595E+03</pdfrwt>
<totfact> 0.64057986E+03</totfact>
</mgrwt>
</event>
<event>
 4    1  0.4090208E+000  0.1954010E+03  0.7546771E-02  0.1153678E+00
         21   -1    0    0  501  502  0.00000000000E+00  0.00000000000E+00  0.24490012211E+03  0.24490012211E+03  0.00000000000E+00 0.  1.
         21   -1    0    0  502  503 -0.00000000000E+00 -0.00000000000E+00 -0.24943838833E+03  0.24943838833E+03  0.00000000000E+00 0. -1.
          6    1    1    2  501    0  0.88021559023E+02  0.22467173397E+02  0.14908427362E+03  0.24577975786E+03  0.17300000000E+03 0.  1.
         -6    1    1    2    0  503 -0.88021559023E+02 -0.22467173397E+02 -0.15362253985E+03  0.24855875258E+03  0.17300000000E+03 0. -1.
<mgrwt>
<rscale>  2 0.19540105E+03</rscale>
<asrwt>0</asrwt>
<pdfrwt beam="1">  1       21 0.37676942E-01 0.19540105E+03</pdfrwt>
<pdfrwt beam="2">  1       21 0.38375137E-01 0.19540105E+03</pdfrwt>
<totfact> 0.44428282E+04</totfact>
</mgrwt>
</event>
<event>
 4    1  0.4090208E+000  0.1791243E+03  0.7546771E-02  0.1168653E+00
         21   -1    0    0  503  502  0.00000000000E+00  0.00000000000E+00  0.48246655041E+02  0.48246655041E+02  0.00000000000E+00 0. -1.
         21   -1    0    0  501  503 -0.00000000000E+00 -0.00000000000E+00 -0.88195310010E+03  0.88195310010E+03  0.00000000000E+00 0. -1.
          6    1    1    2  501    0 -0.27090337233E+02  0.37717512352E+02 -0.64751513080E+03  0.67183431122E+03  0.17300000000E+03 0. -1.
         -6    1    1    2    0  502  0.27090337233E+02 -0.37717512352E+02 -0.18619131426E+03  0.25836544392E+03  0.17300000000E+03 0. -1.
<mgrwt>
<rscale>  2 0.17912425E+03</rscale>
<asrwt>0</asrwt>
<pdfrwt beam="1">  1       21 0.74225621E-02 0.17912425E+03</pdfrwt>
<pdfrwt beam="2">  1       21 0.13568510E+00 0.17912425E+03</pdfrwt>
<totfact> 0.53388357E+04</totfact>
</mgrwt>
</event>
<event>
 4    1  0.4090208E+000  0.3559687E+03  0.7546771E-02  0.1060192E+00
         21   -1    0    0  501  502  0.00000000000E+00  0.00000000000E+00  0.14155901851E+03  0.14155901851E+03  0.00000000000E+00 0. -1.
         21   -1    0    0  502  503 -0.00000000000E+00 -0.00000000000E+00 -0.11517654195E+04  0.11517654195E+04  0.00000000000E+00 0.  1.
          6    1    1    2  501    0  0.18369205989E+03 -0.25108153554E+03 -0.19985448070E+03  0.40823464308E+03  0.17300000000E+03 0. -1.
         -6    1    1    2    0  503 -0.18369205989E+03  0.25108153554E+03 -0.81035192025E+03  0.88508979489E+03  0.17300000000E+03 0.  1.
<mgrwt>
<rscale>  2 0.35596869E+03</rscale>
<asrwt>0</asrwt>
<pdfrwt beam="1">  1       21 0.21778311E-01 0.35596869E+03</pdfrwt>
<pdfrwt beam="2">  1       21 0.17719468E+00 0.35596869E+03</pdfrwt>
<totfact> 0.33480248E+03</totfact>
</mgrwt>
</event>
<event>
 4    1  0.4090208E+000  0.2759992E+03  0.7546771E-02  0.1097894E+00
         21   -1    0    0  503  502  0.00000000000E+00  0.00000000000E+00  0.53671133677E+03  0.53671133677E+03  0.00000000000E+00 0.  1.
         21   -1    0    0  501  503 -0.00000000000E+00 -0.00000000000E+00 -0.27207193447E+03  0.27207193447E+03  0.00000000000E+00 0.  1.
          6    1    1    2  501    0 -0.88124773646E+02 -0.19616472664E+03 -0.14736486351E+03  0.31287693859E+03  0.17300000000E+03 0.  1.
         -6    1    1    2    0  502  0.88124773646E+02  0.19616472664E+03  0.41200426581E+03  0.49590633264E+03  0.17300000000E+03 0.  1.
<mgrwt>
<rscale>  2 0.27599923E+03</rscale>
<asrwt>0</asrwt>
<pdfrwt beam="1">  1       21 0.82570975E-01 0.27599923E+03</pdfrwt>
<pdfrwt beam="2">  1       21 0.41857221E-01 0.27599923E+03</pdfrwt>
<totfact> 0.66696096E+03</totfact>
</mgrwt>
</event>
<event>
 4    1  0.4090208E+000  0.1820816E+03  0.7546771E-02  0.1165804E+00
         21   -1    0    0  501  502  0.00000000000E+00  0.00000000000E+00  0.14357366856E+03  0.14357366856E+03  0.00000000000E+00 0. -1.
         21   -1    0    0  502  503 -0.00000000000E+00 -0.00000000000E+00 -0.30475739220E+03  0.30475739220E+03  0.00000000000E+00 0. -1.
          6    1    1    2  501    0  0.32487077369E+02 -0.46575702543E+02  0.29749044256E+02  0.18449583165E+03  0.17300000000E+03 0. -1.
         -6    1    1    2    0  503 -0.32487077369E+02  0.46575702543E+02 -0.19093276790E+03  0.26383522911E+03  0.17300000000E+03 0. -1.
<mgrwt>
<rscale>  2 0.18208159E+03</rscale>
<asrwt>0</asrwt>
<pdfrwt beam="1">  1       21 0.22088257E-01 0.18208159E+03</pdfrwt>
<pdfrwt beam="2">  1       21 0.46885752E-01 0.18208159E+03</pdfrwt>
<totfact> 0.83776503E+04</totfact>
</mgrwt>
</event>
<event>
 4    1  0.4090208E+000  0.4444287E+03  0.7546771E-02  0.1029397E+00
         21   -1    0    0  503  502  0.00000000000E+00  0.00000000000E+00  0.86461038266E+03  0.86461038266E+03  0.00000000000E+00 0. -1.
         21   -1    0    0  501  503 -0.00000000000E+00 -0.00000000000E+00 -0.18204280147E+04  0.18204280147E+04  0.00000000000E+00 0.  1.
          6    1    1    2  501    0  0.21476379038E+03  0.34851740988E+03 -0.17333686263E+04  0.17894366894E+04  0.17300000000E+03 0.  1.
         -6    1    1    2    0  502 -0.21476379038E+03 -0.34851740988E+03  0.77755099426E+03  0.89560170797E+03  0.17300000000E+03 0. -1.
<mgrwt>
<rscale>  2 0.44442870E+03</rscale>
<asrwt>0</asrwt>
<pdfrwt beam="1">  1       21 0.13301698E+00 0.44442870E+03</pdfrwt>
<pdfrwt beam="2">  1       21 0.28006585E+00 0.44442870E+03</pdfrwt>
<totfact> 0.13525489E+01</totfact>
</mgrwt>
</event>
<event>
 4    1  0.4090208E+000  0.2390179E+03  0.7546771E-02  0.1120449E+00
         21   -1    0    0  501  502  0.00000000000E+00  0.00000000000E+00  0.29837286482E+03  0.29837286482E+03  0.00000000000E+00 0.  1.
         21   -1    0    0  502  503 -0.00000000000E+00 -0.00000000000E+00 -0.19652359871E+03  0.19652359871E+03  0.00000000000E+00 0. -1.
          6    1    1    2  501    0  0.13182732263E+03 -0.99106459708E+02  0.90604090355E+02  0.25561422992E+03  0.17300000000E+03 0.  1.
         -6    1    1    2    0  503 -0.13182732263E+03  0.99106459708E+02  0.11245175757E+02  0.23928223362E+03  0.17300000000E+03 0. -1.
<mgrwt>
<rscale>  2 0.23901785E+03</rscale>
<asrwt>0</asrwt>
<pdfrwt beam="1">  1       21 0.45903518E-01 0.23901785E+03</pdfrwt>
<pdfrwt beam="2">  1       21 0.30234400E-01 0.23901785E+03</pdfrwt>
<totfact> 0.46730451E+04</totfact>
</mgrwt>
</event>
<event>
 4    1  0.4090208E+000  0.3694826E+03  0.7546771E-02  0.1054891E+00
         21   -1    0    0  503  502  0.00000000000E+00  0.00000000000E+00  0.21854374940E+03  0.21854374940E+03  0.00000000000E+00 0. -1.
         21   -1    0    0  501  503 -0.00000000000E+00 -0.00000000000E+00 -0.13289649067E+04  0.13289649067E+04  0.00000000000E+00 0.  1.
          6    1    1    2  501    0 -0.29070264410E+03  0.14859473030E+03 -0.11184901954E+04  0.11779379179E+04  0.17300000000E+03 0.  1.
         -6    1    1    2    0  502  0.29070264410E+03 -0.14859473030E+03  0.80690381130E+01  0.36957073820E+03  0.17300000000E+03 0. -1.
<mgrwt>
<rscale>  2 0.36948264E+03</rscale>
<asrwt>0</asrwt>
<pdfrwt beam="1">  1       21 0.33622115E-01 0.36948264E+03</pdfrwt>
<pdfrwt beam="2">  1       21 0.20445614E+00 0.36948264E+03</pdfrwt>
<totfact> 0.92918952E+02</totfact>
</mgrwt>
</event>
<event>
 4    1  0.4090208E+000  0.2170571E+03  0.7546771E-02  0.1136096E+00
         21   -1    0    0  501  502  0.00000000000E+00  0.00000000000E+00  0.16123455066E+03  0.16123455066E+03  0.00000000000E+00 0.  1.
         21   -1    0    0  502  503 -0.00000000000E+00 -0.00000000000E+00 -0.31835119384E+03  0.31835119384E+03  0.00000000000E+00 0.  1.
          6    1    1    2  501    0 -0.11041841415E+03 -0.70658021958E+02 -0.98396295518E+01  0.21728000497E+03  0.17300000000E+03 0.  1.
         -6    1    1    2    0  503  0.11041841415E+03  0.70658021958E+02 -0.14727701363E+03  0.26230573954E+03  0.17300000000E+03 0.  1.
<mgrwt>
<rscale>  2 0.21705709E+03</rscale>
<asrwt>0</asrwt>
<pdfrwt beam="1">  1       21 0.24805315E-01 0.21705709E+03</pdfrwt>
<pdfrwt beam="2">  1       21 0.48977107E-01 0.21705709E+03</pdfrwt>
<totfact> 0.60483954E+04</totfact>
</mgrwt>
</event>
<event>
 4    1  0.4090208E+000  0.2764660E+03  0.7546771E-02  0.1097635E+00
         21   -1    0    0  501  502  0.00000000000E+00  0.00000000000E+00  0.10747982862E+03  0.10747982862E+03  0.00000000000E+00 0. -1.
         21   -1    0    0  502  503 -0.00000000000E+00 -0.00000000000E+00 -0.99644161161E+03  0.99644161161E+03  0.00000000000E+00 0. -1.
          6    1    1    2  501    0 -0.17856319766E+03 -0.12091163150E+03 -0.14913379329E+03  0.31412469895E+03  0.17300000000E+03 0. -1.
         -6    1    1    2    0  503  0.17856319766E+03  0.12091163150E+03 -0.73982798970E+03  0.78979674128E+03  0.17300000000E+03 0. -1.
<mgrwt>
<rscale>  2 0.27646598E+03</rscale>
<asrwt>0</asrwt>
<pdfrwt beam="1">  1       21 0.16535359E-01 0.27646598E+03</pdfrwt>
<pdfrwt beam="2">  1       21 0.15329870E+00 0.27646598E+03</pdfrwt>
<totfact> 0.87628312E+03</totfact>
</mgrwt>
</event>
<event>
 4    1  0.4090208E+000  0.1851982E+03  0.7546771E-02  0.1162865E+00
         21   -1    0    0  501  502  0.00000000000E+00  0.00000000000E+00  0.15489257735E+04  0.15489257735E+04  0.00000000000E+00 0. -1.
         21   -1    0    0  502  503 -0.00000000000E+00 -0.00000000000E+00 -0.24154179264E+02  0.24154179264E+02  0.00000000000E+00 0. -1.
          6    1    1    2  501    0 -0.37057494494E+02  0.54736870478E+02  0.53544434207E+03  0.56656775971E+03  0.17300000000E+03 0. -1.
         -6    1    1    2    0  503  0.37057494494E+02 -0.54736870478E+02  0.98932725220E+03  0.10065121931E+04  0.17300000000E+03 0. -1.
<mgrwt>
<rscale>  2 0.18519823E+03</rscale>
<asrwt>0</asrwt>
<pdfrwt beam="1">  1       21 0.23829620E+00 0.18519823E+03</pdfrwt>
<pdfrwt beam="2">  1       21 0.37160288E-02 0.18519823E+03</pdfrwt>
<totfact> 0.34772041E+04</totfact>
</mgrwt>
</event>
<event>
 4    1  0.4090208E+000  0.2407346E+03  0.7546771E-02  0.1119304E+00
         21   -1    0    0  503  502  0.00000000000E+00  0.00000000000E+00  0.27178713092E+03  0.27178713092E+03  0.00000000000E+00 0.  1.
         21   -1    0    0  501  503 -0.00000000000E+00 -0.00000000000E+00 -0.55217061458E+03  0.55217061458E+03  0.00000000000E+00 0. -1.
          6    1    1    2  501    0 -0.13134859412E+03 -0.10378670134E+03 -0.46296696794E+03  0.52181562449E+03  0.17300000000E+03 0. -1.
         -6    1    1    2    0  502  0.13134859412E+03  0.10378670134E+03  0.18258348429E+03  0.30214212101E+03  0.17300000000E+03 0.  1.
<mgrwt>
<rscale>  2 0.24073457E+03</rscale>
<asrwt>0</asrwt>
<pdfrwt beam="1">  1       21 0.41813405E-01 0.24073457E+03</pdfrwt>
<pdfrwt beam="2">  1       21 0.84949324E-01 0.24073457E+03</pdfrwt>
<totfact> 0.63897469E+03</totfact>
</mgrwt>
</event>
<event>
 4    1  0.4090208E+000  0.2822962E+03  0.7546771E-02  0.1094441E+00
         21   -1    0    0  501  502  0.00000000000E+00  0.00000000000E+00  0.13419504758E+04  0.13419504758E+04  0.00000000000E+00 0. -1.
         21   -1    0    0  502  503 -0.00000000000E+00 -0.00000000000E+00 -0.78438617353E+02  0.78438617353E+02  0.00000000000E+00 0.  1.
          6    1    1    2  501    0  0.22286488187E+03  0.96641893682E+01  0.98178650867E+03  0.10215654168E+04  0.17300000000E+03 0.  1.
         -6    1    1    2    0  503 -0.22286488187E+03 -0.96641893682E+01  0.28172534973E+03  0.39882367634E+03  0.17300000000E+03 0. -1.
<mgrwt>
<rscale>  2 0.28229621E+03</rscale>
<asrwt>0</asrwt>
<pdfrwt beam="1">  1       21 0.20645390E+00 0.28229621E+03</pdfrwt>
<pdfrwt beam="2">  1       21 0.12067481E-01 0.28229621E+03</pdfrwt>
<totfact> 0.66302213E+03</totfact>
</mgrwt>
</event>
<event>
 4    1  0.4090208E+000  0.1965832E+03  0.7546771E-02  0.1152654E+00
         21   -1    0    0  501  502  0.00000000000E+00  0.00000000000E+00  0.12991045586E+03  0.12991045586E+03  0.00000000000E+00 0.  1.
         21   -1    0    0  502  503 -0.00000000000E+00 -0.00000000000E+00 -0.39967589122E+03  0.39967589122E+03  0.00000000000E+00 0.  1.
          6    1    1    2  501    0  0.36959622373E+02  0.85731758988E+02 -0.98201893391E+00  0.19658563667E+03  0.17300000000E+03 0.  1.
         -6    1    1    2    0  503 -0.36959622373E+02 -0.85731758988E+02 -0.26878341643E+03  0.33300071041E+03  0.17300000000E+03 0.  1.
<mgrwt>
<rscale>  2 0.19658318E+03</rscale>
<asrwt>0</asrwt>
<pdfrwt beam="1">  1       21 0.19986224E-01 0.19658318E+03</pdfrwt>
<pdfrwt beam="2">  1       21 0.61488598E-01 0.19658318E+03</pdfrwt>
<totfact> 0.56708726E+04</totfact>
</mgrwt>
</event>
<event>
 4    1  0.4090208E+000  0.2470794E+03  0.7546771E-02  0.1115165E+00
         21   -1    0    0  501  502  0.00000000000E+00  0.00000000000E+00  0.14488950026E+03  0.14488950026E+03  0.00000000000E+00 0.  1.
         21   -1    0    0  502  503 -0.00000000000E+00 -0.00000000000E+00 -0.75067846297E+03  0.75067846297E+03  0.00000000000E+00 0.  1.
          6    1    1    2  501    0  0.12711095619E+02  0.17594786886E+03 -0.63016791630E+01  0.24715973715E+03  0.17300000000E+03 0.  1.
         -6    1    1    2    0  503 -0.12711095619E+02 -0.17594786886E+03 -0.59948728355E+03  0.64840822608E+03  0.17300000000E+03 0.  1.
<mgrwt>
<rscale>  2 0.24707939E+03</rscale>
<asrwt>0</asrwt>
<pdfrwt beam="1">  1       21 0.22290692E-01 0.24707939E+03</pdfrwt>
<pdfrwt beam="2">  1       21 0.11548900E+00 0.24707939E+03</pdfrwt>
<totfact> 0.10547971E+04</totfact>
</mgrwt>
</event>
<event>
 4    1  0.4090208E+000  0.1859262E+03  0.7546771E-02  0.1162188E+00
         21   -1    0    0  501  502  0.00000000000E+00  0.00000000000E+00  0.45400626115E+02  0.45400626115E+02  0.00000000000E+00 0. -1.
         21   -1    0    0  502  503 -0.00000000000E+00 -0.00000000000E+00 -0.26822157436E+04  0.26822157436E+04  0.00000000000E+00 0. -1.
          6    1    1    2  501    0  0.60264423403E+02  0.31744950225E+02 -0.16429535708E+03  0.24811591435E+03  0.17300000000E+03 0. -1.
         -6    1    1    2    0  503 -0.60264423403E+02 -0.31744950225E+02 -0.24725197604E+04  0.24795004553E+04  0.17300000000E+03 0. -1.
<mgrwt>
<rscale>  2 0.18592618E+03</rscale>
<asrwt>0</asrwt>
<pdfrwt beam="1">  1       21 0.69847094E-02 0.18592618E+03</pdfrwt>
<pdfrwt beam="2">  1       21 0.41264871E+00 0.18592618E+03</pdfrwt>
<totfact> 0.11140365E+03</totfact>
</mgrwt>
</event>
<event>
 4    1  0.4090208E+000  0.1799260E+03  0.7546771E-02  0.1167875E+00
         21   -1    0    0  501  502  0.00000000000E+00  0.00000000000E+00  0.11689919679E+03  0.11689919679E+03  0.00000000000E+00 0.  1.
         21   -1    0    0  502  503 -0.00000000000E+00 -0.00000000000E+00 -0.36016934846E+03  0.36016934846E+03  0.00000000000E+00 0.  1.
          6    1    1    2  501    0 -0.31684543907E+02  0.37953287420E+02 -0.23630547099E+03  0.29700780793E+03  0.17300000000E+03 0.  1.
         -6    1    1    2    0  503  0.31684543907E+02 -0.37953287420E+02 -0.69646806753E+01  0.18006073732E+03  0.17300000000E+03 0.  1.
<mgrwt>
<rscale>  2 0.17992599E+03</rscale>
<asrwt>0</asrwt>
<pdfrwt beam="1">  1       21 0.17984492E-01 0.17992599E+03</pdfrwt>
<pdfrwt beam="2">  1       21 0.55410668E-01 0.17992599E+03</pdfrwt>
<totfact> 0.86782548E+04</totfact>
</mgrwt>
</event>
<event>
 4    1  0.4090208E+000  0.1739509E+03  0.7546771E-02  0.1173789E+00
         21   -1    0    0  501  502  0.00000000000E+00  0.00000000000E+00  0.99948900426E+03  0.99948900426E+03  0.00000000000E+00 0. -1.
         21   -1    0    0  502  503 -0.00000000000E+00 -0.00000000000E+00 -0.34179986721E+02  0.34179986721E+02  0.00000000000E+00 0. -1.
          6    1    1    2  501    0  0.13349988042E+02  0.12317025221E+02  0.65736082783E+03  0.67998690374E+03  0.17300000000E+03 0. -1.
         -6    1    1    2    0  503 -0.13349988042E+02 -0.12317025221E+02  0.30794818971E+03  0.35368208724E+03  0.17300000000E+03 0. -1.
<mgrwt>
<rscale>  2 0.17395095E+03</rscale>
<asrwt>0</asrwt>
<pdfrwt beam="1">  1       21 0.15376752E+00 0.17395095E+03</pdfrwt>
<pdfrwt beam="2">  1       21 0.52584602E-02 0.17395095E+03</pdfrwt>
<totfact> 0.69820719E+04</totfact>
</mgrwt>
</event>
<event>
 4    1  0.4090208E+000  0.1758997E+03  0.7546771E-02  0.1171831E+00
         21   -1    0    0  503  502  0.00000000000E+00  0.00000000000E+00  0.20543855114E+03  0.20543855114E+03  0.00000000000E+00 0.  1.
         21   -1    0    0  501  503 -0.00000000000E+00 -0.00000000000E+00 -0.27740976443E+03  0.27740976443E+03  0.00000000000E+00 0.  1.
          6    1    1    2  501    0 -0.11840365722E+01  0.31785048356E+02 -0.19920903123E+03  0.26575351242E+03  0.17300000000E+03 0.  1.
         -6    1    1    2    0  502  0.11840365722E+01 -0.31785048356E+02  0.12723781794E+03  0.21709480315E+03  0.17300000000E+03 0.  1.
<mgrwt>
<rscale>  2 0.17589966E+03</rscale>
<asrwt>0</asrwt>
<pdfrwt beam="1">  1       21 0.31605931E-01 0.17589966E+03</pdfrwt>
<pdfrwt beam="2">  1       21 0.42678425E-01 0.17589966E+03</pdfrwt>
<totfact> 0.51224468E+04</totfact>
</mgrwt>
</event>
<event>
 4    1  0.4090208E+000  0.1883504E+03  0.7546771E-02  0.1159958E+00
         21   -1    0    0  501  502  0.00000000000E+00  0.00000000000E+00  0.32553055640E+03  0.32553055640E+03  0.00000000000E+00 0.  1.
         21   -1    0    0  502  503 -0.00000000000E+00 -0.00000000000E+00 -0.27452793822E+03  0.27452793822E+03  0.00000000000E+00 0.  1.
          6    1    1    2  501    0 -0.58674267423E+02 -0.45871509870E+02  0.25848956996E+03  0.31983233554E+03  0.17300000000E+03 0.  1.
         -6    1    1    2    0  503  0.58674267423E+02  0.45871509870E+02 -0.20748695178E+03  0.28022615909E+03  0.17300000000E+03 0.  1.
<mgrwt>
<rscale>  2 0.18835038E+03</rscale>
<asrwt>0</asrwt>
<pdfrwt beam="1">  1       21 0.50081624E-01 0.18835038E+03</pdfrwt>
<pdfrwt beam="2">  1       21 0.42235067E-01 0.18835038E+03</pdfrwt>
<totfact> 0.20538002E+04</totfact>
</mgrwt>
</event>
<event>
 4    1  0.4090208E+000  0.2158551E+03  0.7546771E-02  0.1137011E+00
         21   -1    0    0  501  502  0.00000000000E+00  0.00000000000E+00  0.15565982903E+03  0.15565982903E+03  0.00000000000E+00 0.  1.
         21   -1    0    0  502  503 -0.00000000000E+00 -0.00000000000E+00 -0.30679047652E+03  0.30679047652E+03  0.00000000000E+00 0. -1.
          6    1    1    2  501    0 -0.10844509443E+03  0.70029238517E+02 -0.39504198125E+02  0.21944022972E+03  0.17300000000E+03 0.  1.
         -6    1    1    2    0  503  0.10844509443E+03 -0.70029238517E+02 -0.11162644936E+03  0.24301007582E+03  0.17300000000E+03 0.  1.
<mgrwt>
<rscale>  2 0.21585512E+03</rscale>
<asrwt>0</asrwt>
<pdfrwt beam="1">  1       21 0.23947666E-01 0.21585512E+03</pdfrwt>
<pdfrwt beam="2">  1       21 0.47198534E-01 0.21585512E+03</pdfrwt>
<totfact> 0.69894658E+04</totfact>
</mgrwt>
</event>
<event>
 4    1  0.4090208E+000  0.1943632E+03  0.7546771E-02  0.1154584E+00
         21   -1    0    0  503  502  0.00000000000E+00  0.00000000000E+00  0.85142679250E+02  0.85142679250E+02  0.00000000000E+00 0.  1.
         21   -1    0    0  501  503 -0.00000000000E+00 -0.00000000000E+00 -0.69127779996E+03  0.69127779996E+03  0.00000000000E+00 0. -1.
          6    1    1    2  501    0  0.73228589317E+01  0.88285955738E+02 -0.53539713062E+03  0.56958504345E+03  0.17300000000E+03 0. -1.
         -6    1    1    2    0  502 -0.73228589317E+01 -0.88285955738E+02 -0.70737990085E+02  0.20683543576E+03  0.17300000000E+03 0.  1.
<mgrwt>
<rscale>  2 0.19436315E+03</rscale>
<asrwt>0</asrwt>
<pdfrwt beam="1">  1       21 0.13098873E-01 0.19436315E+03</pdfrwt>
<pdfrwt beam="2">  1       21 0.10635044E+00 0.19436315E+03</pdfrwt>
<totfact> 0.35493765E+04</totfact>
</mgrwt>
</event>
<event>
 4    1  0.4090208E+000  0.2962218E+03  0.7546771E-02  0.1087145E+00
         21   -1    0    0  501  502  0.00000000000E+00  0.00000000000E+00  0.22519036770E+03  0.22519036770E+03  0.00000000000E+00 0. -1.
         21   -1    0    0  502  503 -0.00000000000E+00 -0.00000000000E+00 -0.39048361536E+03  0.39048361536E+03  0.00000000000E+00 0. -1.
          6    1    1    2  501    0  0.19784309257E+03 -0.13666179958E+03 -0.96797443093E+02  0.31163613675E+03  0.17300000000E+03 0. -1.
         -6    1    1    2    0  503 -0.19784309257E+03  0.13666179958E+03 -0.68495804571E+02  0.30403784630E+03  0.17300000000E+03 0. -1.
<mgrwt>
<rscale>  2 0.29622177E+03</rscale>
<asrwt>0</asrwt>
<pdfrwt beam="1">  1       21 0.34644672E-01 0.29622177E+03</pdfrwt>
<pdfrwt beam="2">  1       21 0.60074402E-01 0.29622177E+03</pdfrwt>
<totfact> 0.19707681E+04</totfact>
</mgrwt>
</event>
<event>
 4    1  0.4090208E+000  0.2881503E+03  0.7546771E-02  0.1091319E+00
         21   -1    0    0  501  502  0.00000000000E+00  0.00000000000E+00  0.91422874105E+03  0.91422874105E+03  0.00000000000E+00 0. -1.
         21   -1    0    0  502  503 -0.00000000000E+00 -0.00000000000E+00 -0.13138734638E+03  0.13138734638E+03  0.00000000000E+00 0. -1.
          6    1    1    2  501    0 -0.12940255681E+03  0.19067400782E+03  0.68192446684E+03  0.74030505701E+03  0.17300000000E+03 0. -1.
         -6    1    1    2    0  503  0.12940255681E+03 -0.19067400782E+03  0.10091692783E+03  0.30531103041E+03  0.17300000000E+03 0. -1.
<mgrwt>
<rscale>  2 0.28815031E+03</rscale>
<asrwt>0</asrwt>
<pdfrwt beam="1">  1       21 0.14065057E+00 0.28815031E+03</pdfrwt>
<pdfrwt beam="2">  1       21 0.20213438E-01 0.28815031E+03</pdfrwt>
<totfact> 0.75198090E+03</totfact>
</mgrwt>
</event>
<event>
 4    1  0.4090208E+000  0.1859323E+03  0.7546771E-02  0.1162182E+00
         21   -1    0    0  503  502  0.00000000000E+00  0.00000000000E+00  0.10959165970E+03  0.10959165970E+03  0.00000000000E+00 0.  1.
         21   -1    0    0  501  503 -0.00000000000E+00 -0.00000000000E+00 -0.49398084864E+03  0.49398084864E+03  0.00000000000E+00 0.  1.
          6    1    1    2  501    0 -0.66404871237E+02 -0.15238476543E+02 -0.37362062606E+03  0.41732863586E+03  0.17300000000E+03 0.  1.
         -6    1    1    2    0  502  0.66404871237E+02  0.15238476543E+02 -0.10768562890E+02  0.18624387248E+03  0.17300000000E+03 0.  1.
<mgrwt>
<rscale>  2 0.18593229E+03</rscale>
<asrwt>0</asrwt>
<pdfrwt beam="1">  1       21 0.16860255E-01 0.18593229E+03</pdfrwt>
<pdfrwt beam="2">  1       21 0.75997053E-01 0.18593229E+03</pdfrwt>
<totfact> 0.49052877E+04</totfact>
</mgrwt>
</event>
<event>
 4    1  0.4090208E+000  0.1806262E+03  0.7546771E-02  0.1167198E+00
         21   -1    0    0  501  502  0.00000000000E+00  0.00000000000E+00  0.19389973098E+03  0.19389973098E+03  0.00000000000E+00 0. -1.
         21   -1    0    0  502  503 -0.00000000000E+00 -0.00000000000E+00 -0.18294999072E+03  0.18294999072E+03  0.00000000000E+00 0. -1.
          6    1    1    2  501    0 -0.32869156076E+02 -0.40204917548E+02  0.58865353748E+02  0.18997617400E+03  0.17300000000E+03 0. -1.
         -6    1    1    2    0  503  0.32869156076E+02  0.40204917548E+02 -0.47915613486E+02  0.18687354771E+03  0.17300000000E+03 0. -1.
<mgrwt>
<rscale>  2 0.18062618E+03</rscale>
<asrwt>0</asrwt>
<pdfrwt beam="1">  1       21 0.29830728E-01 0.18062618E+03</pdfrwt>
<pdfrwt beam="2">  1       21 0.28146152E-01 0.18062618E+03</pdfrwt>
<totfact> 0.13048462E+05</totfact>
</mgrwt>
</event>
<event>
 4    1  0.4090208E+000  0.2251149E+03  0.7546771E-02  0.1130126E+00
         21   -1    0    0  501  502  0.00000000000E+00  0.00000000000E+00  0.31624836904E+03  0.31624836904E+03  0.00000000000E+00 0.  1.
         21   -1    0    0  502  503 -0.00000000000E+00 -0.00000000000E+00 -0.16363187295E+03  0.16363187295E+03  0.00000000000E+00 0. -1.
          6    1    1    2  501    0 -0.97596334909E+02 -0.10593714906E+03  0.41780451882E+02  0.22895923283E+03  0.17300000000E+03 0. -1.
         -6    1    1    2    0  503  0.97596334909E+02  0.10593714906E+03  0.11083604421E+03  0.25092100916E+03  0.17300000000E+03 0.  1.
<mgrwt>
<rscale>  2 0.22511491E+03</rscale>
<asrwt>0</asrwt>
<pdfrwt beam="1">  1       21 0.48653595E-01 0.22511491E+03</pdfrwt>
<pdfrwt beam="2">  1       21 0.25174134E-01 0.22511491E+03</pdfrwt>
<totfact> 0.59411428E+04</totfact>
</mgrwt>
</event>
<event>
 4    1  0.4090208E+000  0.2073538E+03  0.7546771E-02  0.1143679E+00
         21   -1    0    0  501  502  0.00000000000E+00  0.00000000000E+00  0.20045949589E+03  0.20045949589E+03  0.00000000000E+00 0.  1.
         21   -1    0    0  502  503 -0.00000000000E+00 -0.00000000000E+00 -0.24230142469E+03  0.24230142469E+03  0.00000000000E+00 0.  1.
          6    1    1    2  501    0  0.95683710848E+02 -0.62539852392E+02  0.54087449598E+02  0.21429199206E+03  0.17300000000E+03 0.  1.
         -6    1    1    2    0  503 -0.95683710848E+02  0.62539852392E+02 -0.95929378392E+02  0.22846892852E+03  0.17300000000E+03 0.  1.
<mgrwt>
<rscale>  2 0.20735382E+03</rscale>
<asrwt>0</asrwt>
<pdfrwt beam="1">  1       21 0.30839923E-01 0.20735382E+03</pdfrwt>
<pdfrwt beam="2">  1       21 0.37277142E-01 0.20735382E+03</pdfrwt>
<totfact> 0.69622121E+04</totfact>
</mgrwt>
</event>
<event>
 4    1  0.4090208E+000  0.2091002E+03  0.7546771E-02  0.1142280E+00
         21   -1    0    0  503  502  0.00000000000E+00  0.00000000000E+00  0.53939382404E+02  0.53939382404E+02  0.00000000000E+00 0.  1.
         21   -1    0    0  501  503 -0.00000000000E+00 -0.00000000000E+00 -0.99806131561E+03  0.99806131561E+03  0.00000000000E+00 0.  1.
          6    1    1    2  501    0  0.23388497901E+02  0.11509513184E+03 -0.24409458079E+03  0.32141106947E+03  0.17300000000E+03 0.  1.
         -6    1    1    2    0  502 -0.23388497901E+02 -0.11509513184E+03 -0.70002735242E+03  0.73058962855E+03  0.17300000000E+03 0.  1.
<mgrwt>
<rscale>  2 0.20910024E+03</rscale>
<asrwt>0</asrwt>
<pdfrwt beam="1">  1       21 0.82983665E-02 0.20910024E+03</pdfrwt>
<pdfrwt beam="2">  1       21 0.15354790E+00 0.20910024E+03</pdfrwt>
<totfact> 0.31315476E+04</totfact>
</mgrwt>
</event>
<event>
 4    1  0.4090208E+000  0.1778459E+03  0.7546771E-02  0.1169904E+00
         21   -1    0    0  503  502  0.00000000000E+00  0.00000000000E+00  0.10963280596E+03  0.10963280596E+03  0.00000000000E+00 0.  1.
         21   -1    0    0  501  503 -0.00000000000E+00 -0.00000000000E+00 -0.99013106904E+03  0.99013106904E+03  0.00000000000E+00 0. -1.
          6    1    1    2  501    0 -0.33462040287E+02 -0.24092872067E+02 -0.90313849898E+03  0.92048265762E+03  0.17300000000E+03 0. -1.
         -6    1    1    2    0  502  0.33462040287E+02  0.24092872067E+02  0.22640235905E+02  0.17928121738E+03  0.17300000000E+03 0.  1.
<mgrwt>
<rscale>  2 0.17784593E+03</rscale>
<asrwt>0</asrwt>
<pdfrwt beam="1">  1       21 0.16866586E-01 0.17784593E+03</pdfrwt>
<pdfrwt beam="2">  1       21 0.15232786E+00 0.17784593E+03</pdfrwt>
<totfact> 0.91907302E+03</totfact>
</mgrwt>
</event>
<event>
 4    1  0.4090208E+000  0.2629364E+03  0.7546771E-02  0.1105392E+00
         21   -1    0    0  503  502  0.00000000000E+00  0.00000000000E+00  0.17447067468E+04  0.17447067468E+04  0.00000000000E+00 0. -1.
         21   -1    0    0  501  503 -0.00000000000E+00 -0.00000000000E+00 -0.11595116766E+03  0.11595116766E+03  0.00000000000E+00 0. -1.
          6    1    1    2  501    0  0.17781009149E+03 -0.87121297479E+02  0.59575539680E+02  0.26960117588E+03  0.17300000000E+03 0. -1.
         -6    1    1    2    0  502 -0.17781009149E+03  0.87121297479E+02  0.15691800395E+04  0.15910567386E+04  0.17300000000E+03 0. -1.
<mgrwt>
<rscale>  2 0.26293640E+03</rscale>
<asrwt>0</asrwt>
<pdfrwt beam="1">  1       21 0.26841640E+00 0.26293640E+03</pdfrwt>
<pdfrwt beam="2">  1       21 0.17838642E-01 0.26293640E+03</pdfrwt>
<totfact> 0.13756130E+03</totfact>
</mgrwt>
</event>
<event>
 4    1  0.4090208E+000  0.1887244E+03  0.7546771E-02  0.1159617E+00
         21   -1    0    0  501  502  0.00000000000E+00  0.00000000000E+00  0.80052152601E+03  0.80052152601E+03  0.00000000000E+00 0. -1.
         21   -1    0    0  502  503 -0.00000000000E+00 -0.00000000000E+00 -0.48334713326E+02  0.48334713326E+02  0.00000000000E+00 0. -1.
          6    1    1    2  501    0  0.47334468535E+02 -0.58714168964E+02  0.49576370698E+03  0.53047012990E+03  0.17300000000E+03 0. -1.
         -6    1    1    2    0  503 -0.47334468535E+02  0.58714168964E+02  0.25642310570E+03  0.31838610945E+03  0.17300000000E+03 0. -1.
<mgrwt>
<rscale>  2 0.18872442E+03</rscale>
<asrwt>0</asrwt>
<pdfrwt beam="1">  1       21 0.12315715E+00 0.18872442E+03</pdfrwt>
<pdfrwt beam="2">  1       21 0.74361103E-02 0.18872442E+03</pdfrwt>
<totfact> 0.67579302E+04</totfact>
</mgrwt>
</event>
<event>
 4    1  0.4090208E+000  0.2868365E+03  0.7546771E-02  0.1092013E+00
         21   -1    0    0  503  502  0.00000000000E+00  0.00000000000E+00  0.10035156852E+03  0.10035156852E+03  0.00000000000E+00 0. -1.
         21   -1    0    0  501  503 -0.00000000000E+00 -0.00000000000E+00 -0.15010760040E+04  0.15010760040E+04  0.00000000000E+00 0.  1.
          6    1    1    2  501    0  0.21920583094E+03  0.65535897316E+02 -0.12397678605E+04  0.12725169932E+04  0.17300000000E+03 0.  1.
         -6    1    1    2    0  502 -0.21920583094E+03 -0.65535897316E+02 -0.16095657504E+03  0.32891057934E+03  0.17300000000E+03 0. -1.
<mgrwt>
<rscale>  2 0.28683645E+03</rscale>
<asrwt>0</asrwt>
<pdfrwt beam="1">  1       21 0.15438703E-01 0.28683645E+03</pdfrwt>
<pdfrwt beam="2">  1       21 0.23093477E+00 0.28683645E+03</pdfrwt>
<totfact> 0.29605209E+03</totfact>
</mgrwt>
</event>
<event>
 4    1  0.4090208E+000  0.2343044E+03  0.7546771E-02  0.1123646E+00
         21   -1    0    0  503  502  0.00000000000E+00  0.00000000000E+00  0.50623432325E+03  0.50623432325E+03  0.00000000000E+00 0.  1.
         21   -1    0    0  501  503 -0.00000000000E+00 -0.00000000000E+00 -0.13184717181E+03  0.13184717181E+03  0.00000000000E+00 0. -1.
          6    1    1    2  501    0  0.69111221703E+02 -0.14210279158E+03  0.52781237689E+02  0.24017581767E+03  0.17300000000E+03 0. -1.
         -6    1    1    2    0  502 -0.69111221703E+02  0.14210279158E+03  0.32160591375E+03  0.39790567739E+03  0.17300000000E+03 0.  1.
<mgrwt>
<rscale>  2 0.23430443E+03</rscale>
<asrwt>0</asrwt>
<pdfrwt beam="1">  1       21 0.77882203E-01 0.23430443E+03</pdfrwt>
<pdfrwt beam="2">  1       21 0.20284180E-01 0.23430443E+03</pdfrwt>
<totfact> 0.32146691E+04</totfact>
</mgrwt>
</event>
<event>
 4    1  0.4090208E+000  0.2007021E+03  0.7546771E-02  0.1149148E+00
         21   -1    0    0  503  502  0.00000000000E+00  0.00000000000E+00  0.39397273369E+02  0.39397273369E+02  0.00000000000E+00 0.  1.
         21   -1    0    0  501  503 -0.00000000000E+00 -0.00000000000E+00 -0.10957866159E+04  0.10957866159E+04  0.00000000000E+00 0.  1.
          6    1    1    2  501    0  0.17711804328E+02 -0.10019284869E+03 -0.67504190371E+03  0.70424632530E+03  0.17300000000E+03 0.  1.
         -6    1    1    2    0  502 -0.17711804328E+02  0.10019284869E+03 -0.38134743883E+03  0.43093756398E+03  0.17300000000E+03 0.  1.
<mgrwt>
<rscale>  2 0.20070206E+03</rscale>
<asrwt>0</asrwt>
<pdfrwt beam="1">  1       21 0.60611198E-02 0.20070206E+03</pdfrwt>
<pdfrwt beam="2">  1       21 0.16858253E+00 0.20070206E+03</pdfrwt>
<totfact> 0.42102637E+04</totfact>
</mgrwt>
</event>
<event>
 4    1  0.4090208E+000  0.2001247E+03  0.7546771E-02  0.1149634E+00
         21   -1    0    0  503  502  0.00000000000E+00  0.00000000000E+00  0.67639848255E+02  0.67639848255E+02  0.00000000000E+00 0.  1.
         21   -1    0    0  501  503 -0.00000000000E+00 -0.00000000000E+00 -0.11084036033E+04  0.11084036033E+04  0.00000000000E+00 0.  1.
          6    1    1    2  501    0  0.60014278090E+01 -0.10042343839E+03 -0.92170569452E+03  0.94318146261E+03  0.17300000000E+03 0. -1.
         -6    1    1    2    0  502 -0.60014278090E+01  0.10042343839E+03 -0.11905806052E+03  0.23286198893E+03  0.17300000000E+03 0. -1.
<mgrwt>
<rscale>  2 0.20012467E+03</rscale>
<asrwt>0</asrwt>
<pdfrwt beam="1">  1       21 0.10406131E-01 0.20012467E+03</pdfrwt>
<pdfrwt beam="2">  1       21 0.17052362E+00 0.20012467E+03</pdfrwt>
<totfact> 0.15913820E+04</totfact>
</mgrwt>
</event>
<event>
 4    1  0.4090208E+000  0.2870191E+03  0.7546771E-02  0.1091916E+00
         21   -1    0    0  501  502  0.00000000000E+00  0.00000000000E+00  0.42895477282E+03  0.42895477282E+03  0.00000000000E+00 0. -1.
         21   -1    0    0  502  503 -0.00000000000E+00 -0.00000000000E+00 -0.21588722109E+03  0.21588722109E+03  0.00000000000E+00 0.  1.
          6    1    1    2  501    0 -0.19741948209E+03 -0.11608842051E+03 -0.60691807343E+00  0.28701975826E+03  0.17300000000E+03 0. -1.
         -6    1    1    2    0  503  0.19741948209E+03  0.11608842051E+03  0.21367446980E+03  0.35782223566E+03  0.17300000000E+03 0.  1.
<mgrwt>
<rscale>  2 0.28701912E+03</rscale>
<asrwt>0</asrwt>
<pdfrwt beam="1">  1       21 0.65993042E-01 0.28701912E+03</pdfrwt>
<pdfrwt beam="2">  1       21 0.33213419E-01 0.28701912E+03</pdfrwt>
<totfact> 0.17523011E+04</totfact>
</mgrwt>
</event>
<event>
 4    1  0.4090208E+000  0.1936671E+03  0.7546771E-02  0.1155195E+00
         21   -1    0    0  503  502  0.00000000000E+00  0.00000000000E+00  0.84079893113E+03  0.84079893113E+03  0.00000000000E+00 0.  1.
         21   -1    0    0  501  503 -0.00000000000E+00 -0.00000000000E+00 -0.87200329874E+02  0.87200329874E+02  0.00000000000E+00 0.  1.
          6    1    1    2  501    0  0.62897833760E+02  0.60181489428E+02  0.52518908694E+02  0.20066186716E+03  0.17300000000E+03 0.  1.
         -6    1    1    2    0  502 -0.62897833760E+02 -0.60181489428E+02  0.70107969256E+03  0.72733739384E+03  0.17300000000E+03 0.  1.
<mgrwt>
<rscale>  2 0.19366711E+03</rscale>
<asrwt>0</asrwt>
<pdfrwt beam="1">  1       21 0.12935368E+00 0.19366711E+03</pdfrwt>
<pdfrwt beam="2">  1       21 0.13415436E-01 0.19366711E+03</pdfrwt>
<totfact> 0.21010397E+04</totfact>
</mgrwt>
</event>
<event>
 4    1  0.4090208E+000  0.1735638E+03  0.7546771E-02  0.1174182E+00
         21   -1    0    0  503  502  0.00000000000E+00  0.00000000000E+00  0.69029796030E+03  0.69029796030E+03  0.00000000000E+00 0. -1.
         21   -1    0    0  501  503 -0.00000000000E+00 -0.00000000000E+00 -0.53239638688E+02  0.53239638688E+02  0.00000000000E+00 0. -1.
          6    1    1    2  501    0 -0.12707815890E+02  0.58220284448E+01  0.16066265765E+03  0.23650977604E+03  0.17300000000E+03 0. -1.
         -6    1    1    2    0  502  0.12707815890E+02 -0.58220284448E+01  0.47639566396E+03  0.50702782294E+03  0.17300000000E+03 0. -1.
<mgrwt>
<rscale>  2 0.17356378E+03</rscale>
<asrwt>0</asrwt>
<pdfrwt beam="1">  1       21 0.10619968E+00 0.17356378E+03</pdfrwt>
<pdfrwt beam="2">  1       21 0.81907141E-02 0.17356378E+03</pdfrwt>
<totfact> 0.82585337E+04</totfact>
</mgrwt>
</event>
<event>
 4    1  0.4090208E+000  0.2062810E+03  0.7546771E-02  0.1144545E+00
         21   -1    0    0  503  502  0.00000000000E+00  0.00000000000E+00  0.57835510757E+03  0.57835510757E+03  0.00000000000E+00 0.  1.
         21   -1    0    0  501  503 -0.00000000000E+00 -0.00000000000E+00 -0.16447851766E+03  0.16447851766E+03  0.00000000000E+00 0. -1.
          6    1    1    2  501    0 -0.25273866525E+02 -0.10947188837E+03 -0.69182966747E+02  0.21757331077E+03  0.17300000000E+03 0. -1.
         -6    1    1    2    0  502  0.25273866525E+02  0.10947188837E+03  0.48305955665E+03  0.52526031446E+03  0.17300000000E+03 0.  1.
<mgrwt>
<rscale>  2 0.20628103E+03</rscale>
<asrwt>0</asrwt>
<pdfrwt beam="1">  1       21 0.88977708E-01 0.20628103E+03</pdfrwt>
<pdfrwt beam="2">  1       21 0.25304388E-01 0.20628103E+03</pdfrwt>
<totfact> 0.15826892E+04</totfact>
</mgrwt>
</event>
<event>
 4    1  0.4090208E+000  0.2858640E+03  0.7546771E-02  0.1092529E+00
         21   -1    0    0  501  502  0.00000000000E+00  0.00000000000E+00  0.14838325948E+04  0.14838325948E+04  0.00000000000E+00 0.  1.
         21   -1    0    0  502  503 -0.00000000000E+00 -0.00000000000E+00 -0.96716227735E+02  0.96716227735E+02  0.00000000000E+00 0.  1.
          6    1    1    2  501    0 -0.19429847128E+03 -0.11847912624E+03  0.12121237152E+04  0.12453762886E+04  0.17300000000E+03 0.  1.
         -6    1    1    2    0  503  0.19429847128E+03  0.11847912624E+03  0.17499265188E+03  0.33517253394E+03  0.17300000000E+03 0.  1.
<mgrwt>
<rscale>  2 0.28586395E+03</rscale>
<asrwt>0</asrwt>
<pdfrwt beam="1">  1       21 0.22828192E+00 0.28586395E+03</pdfrwt>
<pdfrwt beam="2">  1       21 0.14879421E-01 0.28586395E+03</pdfrwt>
<totfact> 0.32922079E+03</totfact>
</mgrwt>
</event>
<event>
 4    1  0.4090208E+000  0.1936310E+03  0.7546771E-02  0.1155227E+00
         21   -1    0    0  501  502  0.00000000000E+00  0.00000000000E+00  0.72491340471E+03  0.72491340471E+03  0.00000000000E+00 0.  1.
         21   -1    0    0  502  503 -0.00000000000E+00 -0.00000000000E+00 -0.66710749367E+02  0.66710749367E+02  0.00000000000E+00 0.  1.
          6    1    1    2  501    0 -0.83968290153E+02  0.22655858746E+02  0.51672775239E+03  0.55181566830E+03  0.17300000000E+03 0. -1.
         -6    1    1    2    0  503  0.83968290153E+02 -0.22655858746E+02  0.14147490295E+03  0.23980848578E+03  0.17300000000E+03 0. -1.
<mgrwt>
<rscale>  2 0.19363099E+03</rscale>
<asrwt>0</asrwt>
<pdfrwt beam="1">  1       21 0.11152513E+00 0.19363099E+03</pdfrwt>
<pdfrwt beam="2">  1       21 0.10263193E-01 0.19363099E+03</pdfrwt>
<totfact> 0.48933706E+04</totfact>
</mgrwt>
</event>
<event>
 4    1  0.4090208E+000  0.1780936E+03  0.7546771E-02  0.1169661E+00
         21   -1    0    0  503  502  0.00000000000E+00  0.00000000000E+00  0.87718526846E+03  0.87718526846E+03  0.00000000000E+00 0. -1.
         21   -1    0    0  501  503 -0.00000000000E+00 -0.00000000000E+00 -0.61139522696E+02  0.61139522696E+02  0.00000000000E+00 0. -1.
          6    1    1    2  501    0  0.43081848982E+01 -0.42068603915E+02  0.10812664548E+03  0.20834754463E+03  0.17300000000E+03 0. -1.
         -6    1    1    2    0  502 -0.43081848982E+01  0.42068603915E+02  0.70791910029E+03  0.72997724652E+03  0.17300000000E+03 0. -1.
<mgrwt>
<rscale>  2 0.17809359E+03</rscale>
<asrwt>0</asrwt>
<pdfrwt beam="1">  1       21 0.13495157E+00 0.17809359E+03</pdfrwt>
<pdfrwt beam="2">  1       21 0.94060811E-02 0.17809359E+03</pdfrwt>
<totfact> 0.35845975E+04</totfact>
</mgrwt>
</event>
<event>
 4    1  0.4090208E+000  0.2450428E+03  0.7546771E-02  0.1116478E+00
         21   -1    0    0  503  502  0.00000000000E+00  0.00000000000E+00  0.27570279873E+03  0.27570279873E+03  0.00000000000E+00 0. -1.
         21   -1    0    0  501  503 -0.00000000000E+00 -0.00000000000E+00 -0.23751727472E+03  0.23751727472E+03  0.00000000000E+00 0. -1.
          6    1    1    2  501    0  0.92920563280E+02  0.14656995294E+03 -0.54856330165E+02  0.25110794321E+03  0.17300000000E+03 0. -1.
         -6    1    1    2    0  502 -0.92920563280E+02 -0.14656995294E+03  0.93041854175E+02  0.26211213023E+03  0.17300000000E+03 0. -1.
<mgrwt>
<rscale>  2 0.24504282E+03</rscale>
<asrwt>0</asrwt>
<pdfrwt beam="1">  1       21 0.42415815E-01 0.24504282E+03</pdfrwt>
<pdfrwt beam="2">  1       21 0.36541119E-01 0.24504282E+03</pdfrwt>
<totfact> 0.37667333E+04</totfact>
</mgrwt>
</event>
<event>
 4    1  0.4090208E+000  0.1768700E+03  0.7546771E-02  0.1170867E+00
         21   -1    0    0  501  502  0.00000000000E+00  0.00000000000E+00  0.18006010319E+04  0.18006010319E+04  0.00000000000E+00 0.  1.
         21   -1    0    0  502  503 -0.00000000000E+00 -0.00000000000E+00 -0.21581392458E+02  0.21581392458E+02  0.00000000000E+00 0.  1.
          6    1    1    2  501    0  0.23084336684E+02 -0.28655008869E+02  0.12918071585E+04  0.13038591684E+04  0.17300000000E+03 0.  1.
         -6    1    1    2    0  503 -0.23084336684E+02  0.28655008869E+02  0.48721248091E+03  0.51832325598E+03  0.17300000000E+03 0.  1.
<mgrwt>
<rscale>  2 0.17687000E+03</rscale>
<asrwt>0</asrwt>
<pdfrwt beam="1">  1       21 0.27701542E+00 0.17687000E+03</pdfrwt>
<pdfrwt beam="2">  1       21 0.33202156E-02 0.17687000E+03</pdfrwt>
<totfact> 0.25132839E+04</totfact>
</mgrwt>
</event>
<event>
 4    1  0.4090208E+000  0.2626194E+03  0.7546771E-02  0.1105580E+00
         21   -1    0    0  501  502  0.00000000000E+00  0.00000000000E+00  0.13982220496E+04  0.13982220496E+04  0.00000000000E+00 0. -1.
         21   -1    0    0  502  503 -0.00000000000E+00 -0.00000000000E+00 -0.52950399444E+02  0.52950399444E+02  0.00000000000E+00 0.  1.
          6    1    1    2  501    0  0.15544587556E+03  0.12196946285E+03  0.86246409840E+03  0.90156158476E+03  0.17300000000E+03 0. -1.
         -6    1    1    2    0  503 -0.15544587556E+03 -0.12196946285E+03  0.48280755172E+03  0.54961086425E+03  0.17300000000E+03 0. -1.
<mgrwt>
<rscale>  2 0.26261944E+03</rscale>
<asrwt>0</asrwt>
<pdfrwt beam="1">  1       21 0.21511106E+00 0.26261944E+03</pdfrwt>
<pdfrwt beam="2">  1       21 0.81462164E-02 0.26261944E+03</pdfrwt>
<totfact> 0.11901356E+04</totfact>
</mgrwt>
</event>
<event>
 4    1  0.4090208E+000  0.1872429E+03  0.7546771E-02  0.1160972E+00
         21   -1    0    0  503  502  0.00000000000E+00  0.00000000000E+00  0.23003554801E+04  0.23003554801E+04  0.00000000000E+00 0. -1.
         21   -1    0    0  501  503 -0.00000000000E+00 -0.00000000000E+00 -0.19338936796E+02  0.19338936796E+02  0.00000000000E+00 0.  1.
          6    1    1    2  501    0 -0.69740052505E+02  0.16346581582E+02  0.16744123613E+04  0.16848491449E+04  0.17300000000E+03 0. -1.
         -6    1    1    2    0  502  0.69740052505E+02 -0.16346581582E+02  0.60660418199E+03  0.63484527191E+03  0.17300000000E+03 0.  1.
<mgrwt>
<rscale>  2 0.18724285E+03</rscale>
<asrwt>0</asrwt>
<pdfrwt beam="1">  1       21 0.35390063E+00 0.18724285E+03</pdfrwt>
<pdfrwt beam="2">  1       21 0.29752229E-02 0.18724285E+03</pdfrwt>
<totfact> 0.10707837E+04</totfact>
</mgrwt>
</event>
<event>
 4    1  0.4090208E+000  0.3114830E+03  0.7546771E-02  0.1079637E+00
         21   -1    0    0  503  502  0.00000000000E+00  0.00000000000E+00  0.21915301387E+04  0.21915301387E+04  0.00000000000E+00 0. -1.
         21   -1    0    0  501  503 -0.00000000000E+00 -0.00000000000E+00 -0.49168438502E+02  0.49168438502E+02  0.00000000000E+00 0. -1.
          6    1    1    2  501    0  0.95498232210E+02 -0.24077527572E+03  0.71760195514E+03  0.78228780623E+03  0.17300000000E+03 0. -1.
         -6    1    1    2    0  502 -0.95498232210E+02  0.24077527572E+03  0.14247597451E+04  0.14584107710E+04  0.17300000000E+03 0. -1.
<mgrwt>
<rscale>  2 0.31148298E+03</rscale>
<asrwt>0</asrwt>
<pdfrwt beam="1">  1       21 0.33715841E+00 0.31148298E+03</pdfrwt>
<pdfrwt beam="2">  1       21 0.75643768E-02 0.31148298E+03</pdfrwt>
<totfact> 0.24363220E+03</totfact>
</mgrwt>
</event>
<event>
 4    1  0.4090208E+000  0.1815667E+03  0.7546771E-02  0.1166295E+00
         21   -1    0    0  503  502  0.00000000000E+00  0.00000000000E+00  0.40232677514E+03  0.40232677514E+03  0.00000000000E+00 0.  1.
         21   -1    0    0  501  503 -0.00000000000E+00 -0.00000000000E+00 -0.10298338716E+03  0.10298338716E+03  0.00000000000E+00 0. -1.
          6    1    1    2  501    0  0.38765070508E+02 -0.39175597335E+02  0.35460848200E+02  0.18499710774E+03  0.17300000000E+03 0. -1.
         -6    1    1    2    0  502 -0.38765070508E+02  0.39175597335E+02  0.26388253978E+03  0.32031305455E+03  0.17300000000E+03 0.  1.
<mgrwt>
<rscale>  2 0.18156668E+03</rscale>
<asrwt>0</asrwt>
<pdfrwt beam="1">  1       21 0.61896426E-01 0.18156668E+03</pdfrwt>
<pdfrwt beam="2">  1       21 0.15843598E-01 0.18156668E+03</pdfrwt>
<totfact> 0.86412546E+04</totfact>
</mgrwt>
</event>
<event>
 4    1  0.4090208E+000  0.2116444E+03  0.7546771E-02  0.1140270E+00
         21   -1    0    0  503  502  0.00000000000E+00  0.00000000000E+00  0.45284682325E+03  0.45284682325E+03  0.00000000000E+00 0. -1.
         21   -1    0    0  501  503 -0.00000000000E+00 -0.00000000000E+00 -0.14073566172E+03  0.14073566172E+03  0.00000000000E+00 0. -1.
          6    1    1    2  501    0  0.11439466391E+03  0.42168772129E+02 -0.57317244992E+01  0.21172198077E+03  0.17300000000E+03 0. -1.
         -6    1    1    2    0  502 -0.11439466391E+03 -0.42168772129E+02  0.31784288602E+03  0.38186050420E+03  0.17300000000E+03 0. -1.
<mgrwt>
<rscale>  2 0.21164438E+03</rscale>
<asrwt>0</asrwt>
<pdfrwt beam="1">  1       21 0.69668741E-01 0.21164438E+03</pdfrwt>
<pdfrwt beam="2">  1       21 0.21651641E-01 0.21164438E+03</pdfrwt>
<totfact> 0.36876923E+04</totfact>
</mgrwt>
</event>
<event>
 4    1  0.4090208E+000  0.2017543E+03  0.7546771E-02  0.1148267E+00
         21   -1    0    0  503  502  0.00000000000E+00  0.00000000000E+00  0.17089808907E+03  0.17089808907E+03  0.00000000000E+00 0. -1.
         21   -1    0    0  501  503 -0.00000000000E+00 -0.00000000000E+00 -0.67592003183E+03  0.67592003183E+03  0.00000000000E+00 0. -1.
          6    1    1    2  501    0 -0.98020214527E+02 -0.34173705150E+02 -0.59324833338E+03  0.62661662094E+03  0.17300000000E+03 0. -1.
         -6    1    1    2    0  502  0.98020214527E+02  0.34173705150E+02  0.88226390623E+02  0.22020149995E+03  0.17300000000E+03 0. -1.
<mgrwt>
<rscale>  2 0.20175432E+03</rscale>
<asrwt>0</asrwt>
<pdfrwt beam="1">  1       21 0.26292014E-01 0.20175432E+03</pdfrwt>
<pdfrwt beam="2">  1       21 0.10398770E+00 0.20175432E+03</pdfrwt>
<totfact> 0.10219241E+04</totfact>
</mgrwt>
</event>
<event>
 4    1  0.4090208E+000  0.2617644E+03  0.7546771E-02  0.1106088E+00
         21   -1    0    0  503  502  0.00000000000E+00  0.00000000000E+00  0.55628197230E+02  0.55628197230E+02  0.00000000000E+00 0. -1.
         21   -1    0    0  501  503 -0.00000000000E+00 -0.00000000000E+00 -0.13564318985E+04  0.13564318985E+04  0.00000000000E+00 0.  1.
          6    1    1    2  501    0  0.11945889093E+03  0.15595244983E+03 -0.86444844245E+03  0.90321188150E+03  0.17300000000E+03 0. -1.
         -6    1    1    2    0  502 -0.11945889093E+03 -0.15595244983E+03 -0.43635525886E+03  0.50884821427E+03  0.17300000000E+03 0.  1.
<mgrwt>
<rscale>  2 0.26176438E+03</rscale>
<asrwt>0</asrwt>
<pdfrwt beam="1">  1       21 0.85581840E-02 0.26176438E+03</pdfrwt>
<pdfrwt beam="2">  1       21 0.20868183E+00 0.26176438E+03</pdfrwt>
<totfact> 0.11993154E+04</totfact>
</mgrwt>
</event>
<event>
 4    1  0.4090208E+000  0.1764450E+03  0.7546771E-02  0.1171289E+00
         21   -1    0    0  501  502  0.00000000000E+00  0.00000000000E+00  0.46168396700E+03  0.46168396700E+03  0.00000000000E+00 0.  1.
         21   -1    0    0  502  503 -0.00000000000E+00 -0.00000000000E+00 -0.68636955188E+02  0.68636955188E+02  0.00000000000E+00 0.  1.
          6    1    1    2  501    0 -0.27944188129E+02  0.20565808036E+02  0.23163891580E+03  0.29118622464E+03  0.17300000000E+03 0.  1.
         -6    1    1    2    0  503  0.27944188129E+02 -0.20565808036E+02  0.16140809601E+03  0.23913469754E+03  0.17300000000E+03 0.  1.
<mgrwt>
<rscale>  2 0.17644498E+03</rscale>
<asrwt>0</asrwt>
<pdfrwt beam="1">  1       21 0.71028301E-01 0.17644498E+03</pdfrwt>
<pdfrwt beam="2">  1       21 0.10559532E-01 0.17644498E+03</pdfrwt>
<totfact> 0.13297784E+05</totfact>
</mgrwt>
</event>
<event>
 4    1  0.4090208E+000  0.2159814E+03  0.7546771E-02  0.1136915E+00
         21   -1    0    0  503  502  0.00000000000E+00  0.00000000000E+00  0.23759413276E+03  0.23759413276E+03  0.00000000000E+00 0. -1.
         21   -1    0    0  501  503 -0.00000000000E+00 -0.00000000000E+00 -0.23527831986E+03  0.23527831986E+03  0.00000000000E+00 0.  1.
          6    1    1    2  501    0 -0.11494373714E+03 -0.59218967157E+02 -0.95034720646E+02  0.23596513918E+03  0.17300000000E+03 0.  1.
         -6    1    1    2    0  502  0.11494373714E+03  0.59218967157E+02  0.97350533550E+02  0.23690731344E+03  0.17300000000E+03 0. -1.
<mgrwt>
<rscale>  2 0.21598136E+03</rscale>
<asrwt>0</asrwt>
<pdfrwt beam="1">  1       21 0.36552944E-01 0.21598136E+03</pdfrwt>
<pdfrwt beam="2">  1       21 0.36196665E-01 0.21598136E+03</pdfrwt>
<totfact> 0.52546737E+04</totfact>
</mgrwt>
</event>
<event>
 4    1  0.4090208E+000  0.1995371E+03  0.7546771E-02  0.1150130E+00
         21   -1    0    0  501  502  0.00000000000E+00  0.00000000000E+00  0.15231793531E+04  0.15231793531E+04  0.00000000000E+00 0.  1.
         21   -1    0    0  502  503 -0.00000000000E+00 -0.00000000000E+00 -0.29440799527E+02  0.29440799527E+02  0.00000000000E+00 0.  1.
          6    1    1    2  501    0 -0.73240742750E+02  0.67244552862E+02  0.10068299518E+04  0.10264119973E+04  0.17300000000E+03 0.  1.
         -6    1    1    2    0  503  0.73240742750E+02 -0.67244552862E+02  0.48690860178E+03  0.52620815536E+03  0.17300000000E+03 0.  1.
<mgrwt>
<rscale>  2 0.19953705E+03</rscale>
<asrwt>0</asrwt>
<pdfrwt beam="1">  1       21 0.23433522E+00 0.19953705E+03</pdfrwt>
<pdfrwt beam="2">  1       21 0.45293550E-02 0.19953705E+03</pdfrwt>
<totfact> 0.26040452E+04</totfact>
</mgrwt>
</event>
<event>
 4    1  0.4090208E+000  0.1791748E+03  0.7546771E-02  0.1168604E+00
         21   -1    0    0  501  502  0.00000000000E+00  0.00000000000E+00  0.11109145044E+03  0.11109145044E+03  0.00000000000E+00 0. -1.
         21   -1    0    0  502  503 -0.00000000000E+00 -0.00000000000E+00 -0.41794393584E+03  0.41794393584E+03  0.00000000000E+00 0. -1.
          6    1    1    2  501    0 -0.34236594951E+02 -0.31661509216E+02 -0.64916791761E+01  0.17929232415E+03  0.17300000000E+03 0. -1.
         -6    1    1    2    0  503  0.34236594951E+02  0.31661509216E+02 -0.30036080622E+03  0.34974306214E+03  0.17300000000E+03 0. -1.
<mgrwt>
<rscale>  2 0.17917476E+03</rscale>
<asrwt>0</asrwt>
<pdfrwt beam="1">  1       21 0.17090992E-01 0.17917476E+03</pdfrwt>
<pdfrwt beam="2">  1       21 0.64299068E-01 0.17917476E+03</pdfrwt>
<totfact> 0.69339043E+04</totfact>
</mgrwt>
</event>
<event>
 4    1  0.4090208E+000  0.1798794E+03  0.7546771E-02  0.1167920E+00
         21   -1    0    0  501  502  0.00000000000E+00  0.00000000000E+00  0.42753314042E+03  0.42753314042E+03  0.00000000000E+00 0. -1.
         21   -1    0    0  502  503 -0.00000000000E+00 -0.00000000000E+00 -0.75832901359E+02  0.75832901359E+02  0.00000000000E+00 0.  1.
          6    1    1    2  501    0  0.45619766995E+02  0.18612398973E+02  0.18707546216E+03  0.25952613178E+03  0.17300000000E+03 0. -1.
         -6    1    1    2    0  503 -0.45619766995E+02 -0.18612398973E+02  0.16462477690E+03  0.24383990999E+03  0.17300000000E+03 0. -1.
<mgrwt>
<rscale>  2 0.17987936E+03</rscale>
<asrwt>0</asrwt>
<pdfrwt beam="1">  1       21 0.65774328E-01 0.17987936E+03</pdfrwt>
<pdfrwt beam="2">  1       21 0.11666600E-01 0.17987936E+03</pdfrwt>
<totfact> 0.13166428E+05</totfact>
</mgrwt>
</event>
<event>
 4    1  0.4090208E+000  0.2065161E+03  0.7546771E-02  0.1144355E+00
         21   -1    0    0  501  502  0.00000000000E+00  0.00000000000E+00  0.69637231088E+03  0.69637231088E+03  0.00000000000E+00 0.  1.
         21   -1    0    0  502  503 -0.00000000000E+00 -0.00000000000E+00 -0.16078206961E+03  0.16078206961E+03  0.00000000000E+00 0.  1.
          6    1    1    2  501    0  0.11221871305E+03  0.11263625157E+02  0.60500785468E+03  0.63928351538E+03  0.17300000000E+03 0.  1.
         -6    1    1    2    0  503 -0.11221871305E+03 -0.11263625157E+02 -0.69417613415E+02  0.21787086511E+03  0.17300000000E+03 0.  1.
<mgrwt>
<rscale>  2 0.20651612E+03</rscale>
<asrwt>0</asrwt>
<pdfrwt beam="1">  1       21 0.10713420E+00 0.20651612E+03</pdfrwt>
<pdfrwt beam="2">  1       21 0.24735703E-01 0.20651612E+03</pdfrwt>
<totfact> 0.10655829E+04</totfact>
</mgrwt>
</event>
<event>
 4    1  0.4090208E+000  0.2520976E+03  0.7546771E-02  0.1111986E+00
         21   -1    0    0  501  502  0.00000000000E+00  0.00000000000E+00  0.89168287315E+02  0.89168287315E+02  0.00000000000E+00 0. -1.
         21   -1    0    0  502  503 -0.00000000000E+00 -0.00000000000E+00 -0.74456302697E+03  0.74456302697E+03  0.00000000000E+00 0. -1.
          6    1    1    2  501    0 -0.22160572175E+02  0.18202508351E+03 -0.24150660267E+03  0.34911124462E+03  0.17300000000E+03 0. -1.
         -6    1    1    2    0  503  0.22160572175E+02 -0.18202508351E+03 -0.41388813698E+03  0.48462006966E+03  0.17300000000E+03 0. -1.
<mgrwt>
<rscale>  2 0.25209764E+03</rscale>
<asrwt>0</asrwt>
<pdfrwt beam="1">  1       21 0.13718198E-01 0.25209764E+03</pdfrwt>
<pdfrwt beam="2">  1       21 0.11454816E+00 0.25209764E+03</pdfrwt>
<totfact> 0.26438189E+04</totfact>
</mgrwt>
</event>
<event>
 4    1  0.4090208E+000  0.1844757E+03  0.7546771E-02  0.1163540E+00
         21   -1    0    0  501  502  0.00000000000E+00  0.00000000000E+00  0.28235307417E+03  0.28235307417E+03  0.00000000000E+00 0. -1.
         21   -1    0    0  502  503 -0.00000000000E+00 -0.00000000000E+00 -0.19195494669E+03  0.19195494669E+03  0.00000000000E+00 0. -1.
          6    1    1    2  501    0 -0.19916434754E+02  0.60873772667E+02  0.18986414002E+03  0.26472565466E+03  0.17300000000E+03 0. -1.
         -6    1    1    2    0  503  0.19916434754E+02 -0.60873772667E+02 -0.99466012532E+02  0.20958236620E+03  0.17300000000E+03 0. -1.
<mgrwt>
<rscale>  2 0.18447569E+03</rscale>
<asrwt>0</asrwt>
<pdfrwt beam="1">  1       21 0.43438934E-01 0.18447569E+03</pdfrwt>
<pdfrwt beam="2">  1       21 0.29531530E-01 0.18447569E+03</pdfrwt>
<totfact> 0.56180056E+04</totfact>
</mgrwt>
</event>
<event>
 4    1  0.4090208E+000  0.2009906E+03  0.7546771E-02  0.1148906E+00
         21   -1    0    0  501  502  0.00000000000E+00  0.00000000000E+00  0.32782805244E+03  0.32782805244E+03  0.00000000000E+00 0. -1.
         21   -1    0    0  502  503 -0.00000000000E+00 -0.00000000000E+00 -0.21675711286E+03  0.21675711286E+03  0.00000000000E+00 0. -1.
          6    1    1    2  501    0 -0.42698366582E+02  0.92978954059E+02  0.23440035211E+03  0.30877299344E+03  0.17300000000E+03 0. -1.
         -6    1    1    2    0  503  0.42698366582E+02 -0.92978954059E+02 -0.12332941253E+03  0.23581217187E+03  0.17300000000E+03 0. -1.
<mgrwt>
<rscale>  2 0.20099064E+03</rscale>
<asrwt>0</asrwt>
<pdfrwt beam="1">  1       21 0.50435085E-01 0.20099064E+03</pdfrwt>
<pdfrwt beam="2">  1       21 0.33347248E-01 0.20099064E+03</pdfrwt>
<totfact> 0.32260624E+04</totfact>
</mgrwt>
</event>
<event>
 4    1  0.4090208E+000  0.1768655E+03  0.7546771E-02  0.1170872E+00
         21   -1    0    0  501  502  0.00000000000E+00  0.00000000000E+00  0.76716098283E+03  0.76716098283E+03  0.00000000000E+00 0.  1.
         21   -1    0    0  502  503 -0.00000000000E+00 -0.00000000000E+00 -0.53376682252E+02  0.53376682252E+02  0.00000000000E+00 0. -1.
          6    1    1    2  501    0 -0.36203354141E+02 -0.64590871780E+01  0.15755065567E+03  0.23686200996E+03  0.17300000000E+03 0. -1.
         -6    1    1    2    0  503  0.36203354141E+02  0.64590871780E+01  0.55623364491E+03  0.58367565513E+03  0.17300000000E+03 0.  1.
<mgrwt>
<rscale>  2 0.17686549E+03</rscale>
<asrwt>0</asrwt>
<pdfrwt beam="1">  1       21 0.11802476E+00 0.17686549E+03</pdfrwt>
<pdfrwt beam="2">  1       21 0.82117978E-02 0.17686549E+03</pdfrwt>
<totfact> 0.63579073E+04</totfact>
</mgrwt>
</event>
<event>
 4    1  0.4090208E+000  0.3718833E+03  0.7546771E-02  0.1053975E+00
         21   -1    0    0  503  502  0.00000000000E+00  0.00000000000E+00  0.68622562006E+03  0.68622562006E+03  0.00000000000E+00 0. -1.
         21   -1    0    0  501  503 -0.00000000000E+00 -0.00000000000E+00 -0.21129511285E+03  0.21129511285E+03  0.00000000000E+00 0.  1.
          6    1    1    2  501    0  0.56890314757E+02  0.32424012753E+03  0.14100692678E+03  0.39771864630E+03  0.17300000000E+03 0.  1.
         -6    1    1    2    0  502 -0.56890314757E+02 -0.32424012753E+03  0.33392358042E+03  0.49980208661E+03  0.17300000000E+03 0. -1.
<mgrwt>
<rscale>  2 0.37188327E+03</rscale>
<asrwt>0</asrwt>
<pdfrwt beam="1">  1       21 0.10557317E+00 0.37188327E+03</pdfrwt>
<pdfrwt beam="2">  1       21 0.32506941E-01 0.37188327E+03</pdfrwt>
<totfact> 0.59452241E+03</totfact>
</mgrwt>
</event>
<event>
 4    1  0.4090208E+000  0.1886888E+03  0.7546771E-02  0.1159649E+00
         21   -1    0    0  503  502  0.00000000000E+00  0.00000000000E+00  0.32645458674E+03  0.32645458674E+03  0.00000000000E+00 0. -1.
         21   -1    0    0  501  503 -0.00000000000E+00 -0.00000000000E+00 -0.15862599769E+03  0.15862599769E+03  0.00000000000E+00 0. -1.
          6    1    1    2  501    0 -0.62439850418E+02 -0.42139551585E+02 -0.51662100944E+02  0.19563345675E+03  0.17300000000E+03 0. -1.
         -6    1    1    2    0  502  0.62439850418E+02  0.42139551585E+02  0.21949068999E+03  0.28944712767E+03  0.17300000000E+03 0. -1.
<mgrwt>
<rscale>  2 0.18868884E+03</rscale>
<asrwt>0</asrwt>
<pdfrwt beam="1">  1       21 0.50223782E-01 0.18868884E+03</pdfrwt>
<pdfrwt beam="2">  1       21 0.24404000E-01 0.18868884E+03</pdfrwt>
<totfact> 0.59979056E+04</totfact>
</mgrwt>
</event>
<event>
 4    1  0.4090208E+000  0.3181002E+03  0.7546771E-02  0.1076527E+00
         21   -1    0    0  501  502  0.00000000000E+00  0.00000000000E+00  0.72797485520E+03  0.72797485520E+03  0.00000000000E+00 0. -1.
         21   -1    0    0  502  503 -0.00000000000E+00 -0.00000000000E+00 -0.31610025656E+03  0.31610025656E+03  0.00000000000E+00 0.  1.
          6    1    1    2  501    0  0.17703806230E+03 -0.19979058975E+03  0.59668837412E+03  0.67618397723E+03  0.17300000000E+03 0. -1.
         -6    1    1    2    0  503 -0.17703806230E+03  0.19979058975E+03 -0.18481377548E+03  0.36789113453E+03  0.17300000000E+03 0.  1.
<mgrwt>
<rscale>  2 0.31810023E+03</rscale>
<asrwt>0</asrwt>
<pdfrwt beam="1">  1       21 0.11199613E+00 0.31810023E+03</pdfrwt>
<pdfrwt beam="2">  1       21 0.48630809E-01 0.31810023E+03</pdfrwt>
<totfact> 0.23114605E+03</totfact>
</mgrwt>
</event>
<event>
 4    1  0.4090208E+000  0.1844584E+03  0.7546771E-02  0.1163557E+00
         21   -1    0    0  501  502  0.00000000000E+00  0.00000000000E+00  0.15442800486E+04  0.15442800486E+04  0.00000000000E+00 0.  1.
         21   -1    0    0  502  503 -0.00000000000E+00 -0.00000000000E+00 -0.43751078882E+02  0.43751078882E+02  0.00000000000E+00 0.  1.
          6    1    1    2  501    0  0.27118666121E+02  0.57969595197E+02  0.13096958346E+04  0.13226216674E+04  0.17300000000E+03 0.  1.
         -6    1    1    2    0  503 -0.27118666121E+02 -0.57969595197E+02  0.19083313512E+03  0.26540946004E+03  0.17300000000E+03 0.  1.
<mgrwt>
<rscale>  2 0.18445839E+03</rscale>
<asrwt>0</asrwt>
<pdfrwt beam="1">  1       21 0.23758150E+00 0.18445839E+03</pdfrwt>
<pdfrwt beam="2">  1       21 0.67309364E-02 0.18445839E+03</pdfrwt>
<totfact> 0.12842023E+04</totfact>
</mgrwt>
</event>
<event>
 4    1  0.4090208E+000  0.2001823E+03  0.7546771E-02  0.1149585E+00
         21   -1    0    0  503  502  0.00000000000E+00  0.00000000000E+00  0.12751284198E+04  0.12751284198E+04  0.00000000000E+00 0. -1.
         21   -1    0    0  501  503 -0.00000000000E+00 -0.00000000000E+00 -0.34225690805E+02  0.34225690805E+02  0.00000000000E+00 0.  1.
          6    1    1    2  501    0  0.35258874865E+02 -0.94343971056E+02  0.43322881969E+03  0.47724226902E+03  0.17300000000E+03 0.  1.
         -6    1    1    2    0  502 -0.35258874865E+02  0.94343971056E+02  0.80767390930E+03  0.83211184158E+03  0.17300000000E+03 0.  1.
<mgrwt>
<rscale>  2 0.20018235E+03</rscale>
<asrwt>0</asrwt>
<pdfrwt beam="1">  1       21 0.19617357E+00 0.20018235E+03</pdfrwt>
<pdfrwt beam="2">  1       21 0.52654919E-02 0.20018235E+03</pdfrwt>
<totfact> 0.34834141E+04</totfact>
</mgrwt>
</event>
<event>
 4    1  0.4090208E+000  0.2621837E+03  0.7546771E-02  0.1105838E+00
         21   -1    0    0  501  502  0.00000000000E+00  0.00000000000E+00  0.17903907238E+03  0.17903907238E+03  0.00000000000E+00 0. -1.
         21   -1    0    0  502  503 -0.00000000000E+00 -0.00000000000E+00 -0.46082972702E+03  0.46082972702E+03  0.00000000000E+00 0.  1.
          6    1    1    2  501    0  0.30278854118E+02 -0.19466506865E+03 -0.10210767687E+02  0.26238246461E+03  0.17300000000E+03 0. -1.
         -6    1    1    2    0  503 -0.30278854118E+02  0.19466506865E+03 -0.27157988695E+03  0.37748633479E+03  0.17300000000E+03 0.  1.
<mgrwt>
<rscale>  2 0.26218371E+03</rscale>
<asrwt>0</asrwt>
<pdfrwt beam="1">  1       21 0.27544472E-01 0.26218371E+03</pdfrwt>
<pdfrwt beam="2">  1       21 0.70896882E-01 0.26218371E+03</pdfrwt>
<totfact> 0.21842659E+04</totfact>
</mgrwt>
</event>
<event>
 4    1  0.4090208E+000  0.1774221E+03  0.7546771E-02  0.1170322E+00
         21   -1    0    0  501  502  0.00000000000E+00  0.00000000000E+00  0.71671602762E+03  0.71671602762E+03  0.00000000000E+00 0. -1.
         21   -1    0    0  502  503 -0.00000000000E+00 -0.00000000000E+00 -0.64269951198E+02  0.64269951198E+02  0.00000000000E+00 0. -1.
          6    1    1    2  501    0 -0.12113902670E+02  0.37454676269E+02  0.10649548572E+03  0.20692966895E+03  0.17300000000E+03 0. -1.
         -6    1    1    2    0  503  0.12113902670E+02 -0.37454676269E+02  0.54595059071E+03  0.57405630987E+03  0.17300000000E+03 0. -1.
<mgrwt>
<rscale>  2 0.17742209E+03</rscale>
<asrwt>0</asrwt>
<pdfrwt beam="1">  1       21 0.11026400E+00 0.17742209E+03</pdfrwt>
<pdfrwt beam="2">  1       21 0.98876853E-02 0.17742209E+03</pdfrwt>
<totfact> 0.54163543E+04</totfact>
</mgrwt>
</event>
<event>
 4    1  0.4090208E+000  0.2026050E+03  0.7546771E-02  0.1147560E+00
         21   -1    0    0  501  502  0.00000000000E+00  0.00000000000E+00  0.14625108989E+03  0.14625108989E+03  0.00000000000E+00 0. -1.
         21   -1    0    0  502  503 -0.00000000000E+00 -0.00000000000E+00 -0.44716288863E+03  0.44716288863E+03  0.00000000000E+00 0. -1.
          6    1    1    2  501    0  0.53662686414E+02 -0.90775088870E+02  0.30589803203E+02  0.20490128534E+03  0.17300000000E+03 0. -1.
         -6    1    1    2    0  503 -0.53662686414E+02  0.90775088870E+02 -0.33150160194E+03  0.38851269318E+03  0.17300000000E+03 0. -1.
<mgrwt>
<rscale>  2 0.20260504E+03</rscale>
<asrwt>0</asrwt>
<pdfrwt beam="1">  1       21 0.22500168E-01 0.20260504E+03</pdfrwt>
<pdfrwt beam="2">  1       21 0.68794290E-01 0.20260504E+03</pdfrwt>
<totfact> 0.35428604E+04</totfact>
</mgrwt>
</event>
<event>
 4    1  0.4090208E+000  0.1981769E+03  0.7546771E-02  0.1151286E+00
         21   -1    0    0  501  502  0.00000000000E+00  0.00000000000E+00  0.60364025911E+02  0.60364025911E+02  0.00000000000E+00 0.  1.
         21   -1    0    0  502  503 -0.00000000000E+00 -0.00000000000E+00 -0.72918518774E+03  0.72918518774E+03  0.00000000000E+00 0.  1.
          6    1    1    2  501    0  0.96078628332E+02  0.10675930914E+02 -0.20482886443E+03  0.28500691575E+03  0.17300000000E+03 0.  1.
         -6    1    1    2    0  503 -0.96078628332E+02 -0.10675930914E+02 -0.46399229740E+03  0.50454229790E+03  0.17300000000E+03 0.  1.
<mgrwt>
<rscale>  2 0.19817689E+03</rscale>
<asrwt>0</asrwt>
<pdfrwt beam="1">  1       21 0.92867731E-02 0.19817689E+03</pdfrwt>
<pdfrwt beam="2">  1       21 0.11218234E+00 0.19817689E+03</pdfrwt>
<totfact> 0.57408655E+04</totfact>
</mgrwt>
</event>
<event>
 4    1  0.4090208E+000  0.3255435E+03  0.7546771E-02  0.1073126E+00
         21   -1    0    0  501  502  0.00000000000E+00  0.00000000000E+00  0.33838303814E+03  0.33838303814E+03  0.00000000000E+00 0.  1.
         21   -1    0    0  502  503 -0.00000000000E+00 -0.00000000000E+00 -0.31322279075E+03  0.31322279075E+03  0.00000000000E+00 0.  1.
          6    1    1    2  501    0  0.21008787940E+03 -0.17864110221E+03  0.15856567996E+02  0.32592942674E+03  0.17300000000E+03 0.  1.
         -6    1    1    2    0  503 -0.21008787940E+03  0.17864110221E+03  0.93036793937E+01  0.32567640215E+03  0.17300000000E+03 0.  1.
<mgrwt>
<rscale>  2 0.32554348E+03</rscale>
<asrwt>0</asrwt>
<pdfrwt beam="1">  1       21 0.52058929E-01 0.32554348E+03</pdfrwt>
<pdfrwt beam="2">  1       21 0.48188122E-01 0.32554348E+03</pdfrwt>
<totfact> 0.13468807E+04</totfact>
</mgrwt>
</event>
<event>
 4    1  0.4090208E+000  0.1780999E+03  0.7546771E-02  0.1169655E+00
         21   -1    0    0  501  502  0.00000000000E+00  0.00000000000E+00  0.39705337663E+02  0.39705337663E+02  0.00000000000E+00 0.  1.
         21   -1    0    0  502  503 -0.00000000000E+00 -0.00000000000E+00 -0.92593090643E+03  0.92593090643E+03  0.00000000000E+00 0.  1.
          6    1    1    2  501    0  0.40884531794E+02 -0.10910658155E+02 -0.26426139680E+03  0.31867487074E+03  0.17300000000E+03 0. -1.
         -6    1    1    2    0  503 -0.40884531794E+02  0.10910658155E+02 -0.62196417196E+03  0.64696137335E+03  0.17300000000E+03 0. -1.
<mgrwt>
<rscale>  2 0.17809994E+03</rscale>
<asrwt>0</asrwt>
<pdfrwt beam="1">  1       21 0.61085139E-02 0.17809994E+03</pdfrwt>
<pdfrwt beam="2">  1       21 0.14245090E+00 0.17809994E+03</pdfrwt>
<totfact> 0.65910333E+04</totfact>
</mgrwt>
</event>
<event>
 4    1  0.4090208E+000  0.2469934E+03  0.7546771E-02  0.1115220E+00
         21   -1    0    0  503  502  0.00000000000E+00  0.00000000000E+00  0.14647512837E+04  0.14647512837E+04  0.00000000000E+00 0. -1.
         21   -1    0    0  501  503 -0.00000000000E+00 -0.00000000000E+00 -0.42250759816E+02  0.42250759816E+02  0.00000000000E+00 0.  1.
          6    1    1    2  501    0  0.17130994821E+03  0.41589161340E+02  0.62134259182E+03  0.66863470827E+03  0.17300000000E+03 0. -1.
         -6    1    1    2    0  502 -0.17130994821E+03 -0.41589161340E+02  0.80115793208E+03  0.83836733526E+03  0.17300000000E+03 0.  1.
<mgrwt>
<rscale>  2 0.24699343E+03</rscale>
<asrwt>0</asrwt>
<pdfrwt beam="1">  1       21 0.22534631E+00 0.24699343E+03</pdfrwt>
<pdfrwt beam="2">  1       21 0.65001180E-02 0.24699343E+03</pdfrwt>
<totfact> 0.15385541E+04</totfact>
</mgrwt>
</event>
<event>
 4    1  0.4090208E+000  0.2492172E+03  0.7546771E-02  0.1113801E+00
         21   -1    0    0  501  502  0.00000000000E+00  0.00000000000E+00  0.20717006785E+04  0.20717006785E+04  0.00000000000E+00 0.  1.
         21   -1    0    0  502  503 -0.00000000000E+00 -0.00000000000E+00 -0.13384337120E+03  0.13384337120E+03  0.00000000000E+00 0. -1.
          6    1    1    2  501    0  0.27105773742E+02 -0.17732875384E+03  0.19403751677E+04  0.19563141367E+04  0.17300000000E+03 0.  1.
         -6    1    1    2    0  503 -0.27105773742E+02  0.17732875384E+03 -0.25178604493E+01  0.24922991299E+03  0.17300000000E+03 0. -1.
<mgrwt>
<rscale>  2 0.24921719E+03</rscale>
<asrwt>0</asrwt>
<pdfrwt beam="1">  1       21 0.31872316E+00 0.24921719E+03</pdfrwt>
<pdfrwt beam="2">  1       21 0.20591289E-01 0.24921719E+03</pdfrwt>
<totfact> 0.54093983E+02</totfact>
</mgrwt>
</event>
<event>
 4    1  0.4090208E+000  0.2290759E+03  0.7546771E-02  0.1127292E+00
         21   -1    0    0  501  502  0.00000000000E+00  0.00000000000E+00  0.21560024515E+03  0.21560024515E+03  0.00000000000E+00 0.  1.
         21   -1    0    0  502  503 -0.00000000000E+00 -0.00000000000E+00 -0.24539544549E+03  0.24539544549E+03  0.00000000000E+00 0. -1.
          6    1    1    2  501    0 -0.14532724698E+03  0.37772730525E+02  0.59192325780E+01  0.22915240606E+03  0.17300000000E+03 0.  1.
         -6    1    1    2    0  503  0.14532724698E+03 -0.37772730525E+02 -0.35714432923E+02  0.23184328458E+03  0.17300000000E+03 0. -1.
<mgrwt>
<rscale>  2 0.22907594E+03</rscale>
<asrwt>0</asrwt>
<pdfrwt beam="1">  1       21 0.33169268E-01 0.22907594E+03</pdfrwt>
<pdfrwt beam="2">  1       21 0.37753146E-01 0.22907594E+03</pdfrwt>
<totfact> 0.58263908E+04</totfact>
</mgrwt>
</event>
<event>
 4    1  0.4090208E+000  0.1792734E+03  0.7546771E-02  0.1168508E+00
         21   -1    0    0  503  502  0.00000000000E+00  0.00000000000E+00  0.20731606199E+03  0.20731606199E+03  0.00000000000E+00 0. -1.
         21   -1    0    0  501  503 -0.00000000000E+00 -0.00000000000E+00 -0.18720598535E+03  0.18720598535E+03  0.00000000000E+00 0. -1.
          6    1    1    2  501    0 -0.42812598642E+02  0.19417440136E+02 -0.71732690196E+02  0.19309203616E+03  0.17300000000E+03 0. -1.
         -6    1    1    2    0  502  0.42812598642E+02 -0.19417440136E+02  0.91842766844E+02  0.20143001118E+03  0.17300000000E+03 0. -1.
<mgrwt>
<rscale>  2 0.17927341E+03</rscale>
<asrwt>0</asrwt>
<pdfrwt beam="1">  1       21 0.31894779E-01 0.17927341E+03</pdfrwt>
<pdfrwt beam="2">  1       21 0.28800921E-01 0.17927341E+03</pdfrwt>
<totfact> 0.10958190E+05</totfact>
</mgrwt>
</event>
<event>
 4    1  0.4090208E+000  0.2352696E+03  0.7546771E-02  0.1122985E+00
         21   -1    0    0  503  502  0.00000000000E+00  0.00000000000E+00  0.40216768728E+02  0.40216768728E+02  0.00000000000E+00 0. -1.
         21   -1    0    0  501  503 -0.00000000000E+00 -0.00000000000E+00 -0.14698530533E+04  0.14698530533E+04  0.00000000000E+00 0. -1.
          6    1    1    2  501    0  0.26776357652E+02 -0.15718076881E+03 -0.90526621778E+03  0.93533881159E+03  0.17300000000E+03 0. -1.
         -6    1    1    2    0  502 -0.26776357652E+02  0.15718076881E+03 -0.52437006683E+03  0.57473101048E+03  0.17300000000E+03 0. -1.
<mgrwt>
<rscale>  2 0.23526956E+03</rscale>
<asrwt>0</asrwt>
<pdfrwt beam="1">  1       21 0.61871964E-02 0.23526956E+03</pdfrwt>
<pdfrwt beam="2">  1       21 0.22613120E+00 0.23526956E+03</pdfrwt>
<totfact> 0.16700956E+04</totfact>
</mgrwt>
</event>
<event>
 4    1  0.4090208E+000  0.2092774E+03  0.7546771E-02  0.1142139E+00
         21   -1    0    0  501  502  0.00000000000E+00  0.00000000000E+00  0.16596935591E+03  0.16596935591E+03  0.00000000000E+00 0. -1.
         21   -1    0    0  502  503 -0.00000000000E+00 -0.00000000000E+00 -0.52106420252E+03  0.52106420252E+03  0.00000000000E+00 0. -1.
          6    1    1    2  501    0  0.11113031698E+03  0.38962665673E+02  0.63786945225E+02  0.21878256569E+03  0.17300000000E+03 0. -1.
         -6    1    1    2    0  503 -0.11113031698E+03 -0.38962665673E+02 -0.41888179183E+03  0.46825099274E+03  0.17300000000E+03 0. -1.
<mgrwt>
<rscale>  2 0.20927742E+03</rscale>
<asrwt>0</asrwt>
<pdfrwt beam="1">  1       21 0.25533748E-01 0.20927742E+03</pdfrwt>
<pdfrwt beam="2">  1       21 0.80163721E-01 0.20927742E+03</pdfrwt>
<totfact> 0.19716240E+04</totfact>
</mgrwt>
</event>
<event>
 4    1  0.4090208E+000  0.2066919E+03  0.7546771E-02  0.1144213E+00
         21   -1    0    0  501  502  0.00000000000E+00  0.00000000000E+00  0.99362824270E+03  0.99362824270E+03  0.00000000000E+00 0.  1.
         21   -1    0    0  502  503 -0.00000000000E+00 -0.00000000000E+00 -0.43027413066E+02  0.43027413066E+02  0.00000000000E+00 0. -1.
          6    1    1    2  501    0  0.97363753318E+02  0.57557240208E+02  0.46118276565E+03  0.50538211256E+03  0.17300000000E+03 0. -1.
         -6    1    1    2    0  503 -0.97363753318E+02 -0.57557240208E+02  0.48941806399E+03  0.53127354321E+03  0.17300000000E+03 0. -1.
<mgrwt>
<rscale>  2 0.20669189E+03</rscale>
<asrwt>0</asrwt>
<pdfrwt beam="1">  1       21 0.15286587E+00 0.20669189E+03</pdfrwt>
<pdfrwt beam="2">  1       21 0.66196027E-02 0.20669189E+03</pdfrwt>
<totfact> 0.46979408E+04</totfact>
</mgrwt>
</event>
<event>
 4    1  0.4090208E+000  0.2021837E+03  0.7546771E-02  0.1147910E+00
         21   -1    0    0  503  502  0.00000000000E+00  0.00000000000E+00  0.30269915652E+02  0.30269915652E+02  0.00000000000E+00 0. -1.
         21   -1    0    0  501  503 -0.00000000000E+00 -0.00000000000E+00 -0.14325977296E+04  0.14325977296E+04  0.00000000000E+00 0. -1.
          6    1    1    2  501    0 -0.10335876481E+03  0.16315895716E+02 -0.52602196601E+03  0.56354001761E+03  0.17300000000E+03 0. -1.
         -6    1    1    2    0  502  0.10335876481E+03 -0.16315895716E+02 -0.87630584790E+03  0.89932762760E+03  0.17300000000E+03 0. -1.
<mgrwt>
<rscale>  2 0.20218369E+03</rscale>
<asrwt>0</asrwt>
<pdfrwt beam="1">  1       21 0.46569106E-02 0.20218369E+03</pdfrwt>
<pdfrwt beam="2">  1       21 0.22039962E+00 0.20218369E+03</pdfrwt>
<totfact> 0.30130228E+04</totfact>
</mgrwt>
</event>
<event>
 4    1  0.4090208E+000  0.1961792E+03  0.7546771E-02  0.1153003E+00
         21   -1    0    0  503  502  0.00000000000E+00  0.00000000000E+00  0.64130985192E+02  0.64130985192E+02  0.00000000000E+00 0. -1.
         21   -1    0    0  501  503 -0.00000000000E+00 -0.00000000000E+00 -0.20409381910E+04  0.20409381910E+04  0.00000000000E+00 0. -1.
          6    1    1    2  501    0 -0.92481965222E+02  0.20904205202E+01 -0.18727574082E+04  0.18830046718E+04  0.17300000000E+03 0. -1.
         -6    1    1    2    0  502  0.92481965222E+02 -0.20904205202E+01 -0.10404979754E+03  0.22206450441E+03  0.17300000000E+03 0. -1.
<mgrwt>
<rscale>  2 0.19617921E+03</rscale>
<asrwt>0</asrwt>
<pdfrwt beam="1">  1       21 0.98663065E-02 0.19617921E+03</pdfrwt>
<pdfrwt beam="2">  1       21 0.31399045E+00 0.19617921E+03</pdfrwt>
<totfact> 0.23453426E+03</totfact>
</mgrwt>
</event>
<event>
 4    1  0.4090208E+000  0.1754135E+03  0.7546771E-02  0.1172317E+00
         21   -1    0    0  503  502  0.00000000000E+00  0.00000000000E+00  0.25884441133E+03  0.25884441133E+03  0.00000000000E+00 0. -1.
         21   -1    0    0  501  503 -0.00000000000E+00 -0.00000000000E+00 -0.12933614381E+03  0.12933614381E+03  0.00000000000E+00 0. -1.
          6    1    1    2  501    0  0.13727036429E+01 -0.28965926044E+02  0.95526092578E+01  0.17567345141E+03  0.17300000000E+03 0. -1.
         -6    1    1    2    0  502 -0.13727036429E+01  0.28965926044E+02  0.11995565827E+03  0.21250710373E+03  0.17300000000E+03 0. -1.
<mgrwt>
<rscale>  2 0.17541354E+03</rscale>
<asrwt>0</asrwt>
<pdfrwt beam="1">  1       21 0.39822217E-01 0.17541354E+03</pdfrwt>
<pdfrwt beam="2">  1       21 0.19897868E-01 0.17541354E+03</pdfrwt>
<totfact> 0.14245851E+05</totfact>
</mgrwt>
</event>
<event>
 4    1  0.4090208E+000  0.2081305E+03  0.7546771E-02  0.1143055E+00
         21   -1    0    0  503  502  0.00000000000E+00  0.00000000000E+00  0.70347181164E+03  0.70347181164E+03  0.00000000000E+00 0.  1.
         21   -1    0    0  501  503 -0.00000000000E+00 -0.00000000000E+00 -0.11069122299E+03  0.11069122299E+03  0.00000000000E+00 0.  1.
          6    1    1    2  501    0  0.84812761794E+02  0.78715423646E+02  0.25231049298E+02  0.20965430673E+03  0.17300000000E+03 0.  1.
         -6    1    1    2    0  502 -0.84812761794E+02 -0.78715423646E+02  0.56754953936E+03  0.60450872790E+03  0.17300000000E+03 0.  1.
<mgrwt>
<rscale>  2 0.20813054E+03</rscale>
<asrwt>0</asrwt>
<pdfrwt beam="1">  1       21 0.10822643E+00 0.20813054E+03</pdfrwt>
<pdfrwt beam="2">  1       21 0.17029419E-01 0.20813054E+03</pdfrwt>
<totfact> 0.20922932E+04</totfact>
</mgrwt>
</event>
<event>
 4    1  0.4090208E+000  0.2244625E+03  0.7546771E-02  0.1130599E+00
         21   -1    0    0  503  502  0.00000000000E+00  0.00000000000E+00  0.15244411458E+03  0.15244411458E+03  0.00000000000E+00 0.  1.
         21   -1    0    0  501  503 -0.00000000000E+00 -0.00000000000E+00 -0.71716481395E+03  0.71716481395E+03  0.00000000000E+00 0.  1.
          6    1    1    2  501    0  0.13530030189E+03 -0.46349295269E+02 -0.60162397697E+03  0.64213303802E+03  0.17300000000E+03 0.  1.
         -6    1    1    2    0  502 -0.13530030189E+03  0.46349295269E+02  0.36903277601E+02  0.22747589050E+03  0.17300000000E+03 0.  1.
<mgrwt>
<rscale>  2 0.22446253E+03</rscale>
<asrwt>0</asrwt>
<pdfrwt beam="1">  1       21 0.23452940E-01 0.22446253E+03</pdfrwt>
<pdfrwt beam="2">  1       21 0.11033305E+00 0.22446253E+03</pdfrwt>
<totfact> 0.10854267E+04</totfact>
</mgrwt>
</event>
<event>
 4    1  0.4090208E+000  0.1843411E+03  0.7546771E-02  0.1163667E+00
         21   -1    0    0  503  502  0.00000000000E+00  0.00000000000E+00  0.52061023477E+02  0.52061023477E+02  0.00000000000E+00 0. -1.
         21   -1    0    0  501  503 -0.00000000000E+00 -0.00000000000E+00 -0.14015660737E+04  0.14015660737E+04  0.00000000000E+00 0. -1.
          6    1    1    2  501    0 -0.62593033224E+01  0.63351870207E+02 -0.12060166135E+04  0.12200236515E+04  0.17300000000E+03 0. -1.
         -6    1    1    2    0  502  0.62593033224E+01 -0.63351870207E+02 -0.14348843677E+03  0.23360344566E+03  0.17300000000E+03 0. -1.
<mgrwt>
<rscale>  2 0.18434109E+03</rscale>
<asrwt>0</asrwt>
<pdfrwt beam="1">  1       21 0.80093890E-02 0.18434109E+03</pdfrwt>
<pdfrwt beam="2">  1       21 0.21562553E+00 0.18434109E+03</pdfrwt>
<totfact> 0.12910583E+04</totfact>
</mgrwt>
</event>
<event>
 4    1  0.4090208E+000  0.1906018E+03  0.7546771E-02  0.1157920E+00
         21   -1    0    0  503  502  0.00000000000E+00  0.00000000000E+00  0.36473648063E+03  0.36473648063E+03  0.00000000000E+00 0. -1.
         21   -1    0    0  501  503 -0.00000000000E+00 -0.00000000000E+00 -0.15522327266E+03  0.15522327266E+03  0.00000000000E+00 0. -1.
          6    1    1    2  501    0 -0.26291297677E+02  0.75556755489E+02 -0.50867063683E+02  0.19727268894E+03  0.17300000000E+03 0. -1.
         -6    1    1    2    0  502  0.26291297677E+02 -0.75556755489E+02  0.26038027165E+03  0.32268706435E+03  0.17300000000E+03 0. -1.
<mgrwt>
<rscale>  2 0.19060182E+03</rscale>
<asrwt>0</asrwt>
<pdfrwt beam="1">  1       21 0.56113304E-01 0.19060182E+03</pdfrwt>
<pdfrwt beam="2">  1       21 0.23880504E-01 0.19060182E+03</pdfrwt>
<totfact> 0.49459397E+04</totfact>
</mgrwt>
</event>
<event>
 4    1  0.4090208E+000  0.2275844E+03  0.7546771E-02  0.1128352E+00
         21   -1    0    0  503  502  0.00000000000E+00  0.00000000000E+00  0.25912325123E+03  0.25912325123E+03  0.00000000000E+00 0.  1.
         21   -1    0    0  501  503 -0.00000000000E+00 -0.00000000000E+00 -0.26298835889E+03  0.26298835889E+03  0.00000000000E+00 0.  1.
          6    1    1    2  501    0 -0.11525824983E+03  0.92634790476E+02  0.12594483349E+03  0.26010914948E+03  0.17300000000E+03 0.  1.
         -6    1    1    2    0  502  0.11525824983E+03 -0.92634790476E+02 -0.12980994115E+03  0.26200246064E+03  0.17300000000E+03 0.  1.
<mgrwt>
<rscale>  2 0.22758442E+03</rscale>
<asrwt>0</asrwt>
<pdfrwt beam="1">  1       21 0.39865115E-01 0.22758442E+03</pdfrwt>
<pdfrwt beam="2">  1       21 0.40459748E-01 0.22758442E+03</pdfrwt>
<totfact> 0.35070402E+04</totfact>
</mgrwt>
</event>
<event>
 4    1  0.4090208E+000  0.1909318E+03  0.7546771E-02  0.1157624E+00
         21   -1    0    0  503  502  0.00000000000E+00  0.00000000000E+00  0.68966832278E+02  0.68966832278E+02  0.00000000000E+00 0.  1.
         21   -1    0    0  501  503 -0.00000000000E+00 -0.00000000000E+00 -0.52860216610E+03  0.52860216610E+03  0.00000000000E+00 0. -1.
          6    1    1    2  501    0 -0.42214446204E+02 -0.68875893360E+02 -0.22819989605E+03  0.29754014975E+03  0.17300000000E+03 0. -1.
         -6    1    1    2    0  502  0.42214446204E+02  0.68875893360E+02 -0.23143543777E+03  0.30002884863E+03  0.17300000000E+03 0. -1.
<mgrwt>
<rscale>  2 0.19093179E+03</rscale>
<asrwt>0</asrwt>
<pdfrwt beam="1">  1       21 0.10610282E-01 0.19093179E+03</pdfrwt>
<pdfrwt beam="2">  1       21 0.81323410E-01 0.19093179E+03</pdfrwt>
<totfact> 0.96898750E+04</totfact>
</mgrwt>
</event>
<event>
 4    1  0.4090208E+000  0.1936015E+03  0.7546771E-02  0.1155253E+00
         21   -1    0    0  501  502  0.00000000000E+00  0.00000000000E+00  0.20598173993E+02  0.20598173993E+02  0.00000000000E+00 0.  1.
         21   -1    0    0  502  503 -0.00000000000E+00 -0.00000000000E+00 -0.19049472819E+04  0.19049472819E+04  0.00000000000E+00 0.  1.
          6    1    1    2  501    0 -0.25797136466E+02  0.82988322434E+02 -0.11458971451E+04  0.11621367480E+04  0.17300000000E+03 0.  1.
         -6    1    1    2    0  503  0.25797136466E+02 -0.82988322434E+02 -0.73845196284E+03  0.76340870793E+03  0.17300000000E+03 0.  1.
<mgrwt>
<rscale>  2 0.19360153E+03</rscale>
<asrwt>0</asrwt>
<pdfrwt beam="1">  1       21 0.31689497E-02 0.19360153E+03</pdfrwt>
<pdfrwt beam="2">  1       21 0.29306883E+00 0.19360153E+03</pdfrwt>
<totfact> 0.21601303E+04</totfact>
</mgrwt>
</event>
<event>
 4    1  0.4090208E+000  0.2408379E+03  0.7546771E-02  0.1119236E+00
         21   -1    0    0  503  502  0.00000000000E+00  0.00000000000E+00  0.31978157944E+03  0.31978157944E+03  0.00000000000E+00 0.  1.
         21   -1    0    0  501  503 -0.00000000000E+00 -0.00000000000E+00 -0.30998236296E+03  0.30998236296E+03  0.00000000000E+00 0.  1.
          6    1    1    2  501    0 -0.24451731188E+02  0.16575882498E+03 -0.19791492188E+03  0.31172614828E+03  0.17300000000E+03 0.  1.
         -6    1    1    2    0  502  0.24451731188E+02 -0.16575882498E+03  0.20771413836E+03  0.31803779412E+03  0.17300000000E+03 0.  1.
<mgrwt>
<rscale>  2 0.24083786E+03</rscale>
<asrwt>0</asrwt>
<pdfrwt beam="1">  1       21 0.49197166E-01 0.24083786E+03</pdfrwt>
<pdfrwt beam="2">  1       21 0.47689594E-01 0.24083786E+03</pdfrwt>
<totfact> 0.16111133E+04</totfact>
</mgrwt>
</event>
<event>
 4    1  0.4090208E+000  0.2332923E+03  0.7546771E-02  0.1124344E+00
         21   -1    0    0  503  502  0.00000000000E+00  0.00000000000E+00  0.58421056533E+03  0.58421056533E+03  0.00000000000E+00 0.  1.
         21   -1    0    0  501  503 -0.00000000000E+00 -0.00000000000E+00 -0.12893546594E+03  0.12893546594E+03  0.00000000000E+00 0. -1.
          6    1    1    2  501    0  0.12741448511E+03 -0.90894819998E+02  0.39813070481E+02  0.23666516410E+03  0.17300000000E+03 0. -1.
         -6    1    1    2    0  502 -0.12741448511E+03  0.90894819998E+02  0.41546202891E+03  0.47648086717E+03  0.17300000000E+03 0.  1.
<mgrwt>
<rscale>  2 0.23329235E+03</rscale>
<asrwt>0</asrwt>
<pdfrwt beam="1">  1       21 0.89878547E-01 0.23329235E+03</pdfrwt>
<pdfrwt beam="2">  1       21 0.19836226E-01 0.23329235E+03</pdfrwt>
<totfact> 0.24148667E+04</totfact>
</mgrwt>
</event>
<event>
 4    1  0.4090208E+000  0.2210199E+03  0.7546771E-02  0.1133125E+00
         21   -1    0    0  501  502  0.00000000000E+00  0.00000000000E+00  0.47650960687E+03  0.47650960687E+03  0.00000000000E+00 0.  1.
         21   -1    0    0  502  503 -0.00000000000E+00 -0.00000000000E+00 -0.70022523325E+03  0.70022523325E+03  0.00000000000E+00 0.  1.
          6    1    1    2  501    0  0.10839246165E+03 -0.84686828007E+02  0.43173634000E+03  0.48502170246E+03  0.17300000000E+03 0.  1.
         -6    1    1    2    0  503 -0.10839246165E+03  0.84686828007E+02 -0.65545196638E+03  0.69171313766E+03  0.17300000000E+03 0.  1.
<mgrwt>
<rscale>  2 0.22101987E+03</rscale>
<asrwt>0</asrwt>
<pdfrwt beam="1">  1       21 0.73309170E-01 0.22101987E+03</pdfrwt>
<pdfrwt beam="2">  1       21 0.10772696E+00 0.22101987E+03</pdfrwt>
<totfact> 0.11184753E+03</totfact>
</mgrwt>
</event>
<event>
 4    1  0.4090208E+000  0.1926680E+03  0.7546771E-02  0.1156077E+00
         21   -1    0    0  501  502  0.00000000000E+00  0.00000000000E+00  0.64136935281E+02  0.64136935281E+02  0.00000000000E+00 0.  1.
         21   -1    0    0  502  503 -0.00000000000E+00 -0.00000000000E+00 -0.61681996366E+03  0.61681996366E+03  0.00000000000E+00 0.  1.
          6    1    1    2  501    0  0.86522050873E+01 -0.84362845998E+02 -0.36089869329E+03  0.40910734198E+03  0.17300000000E+03 0.  1.
         -6    1    1    2    0  503 -0.86522050873E+01  0.84362845998E+02 -0.19178433508E+03  0.27184955696E+03  0.17300000000E+03 0.  1.
<mgrwt>
<rscale>  2 0.19266798E+03</rscale>
<asrwt>0</asrwt>
<pdfrwt beam="1">  1       21 0.98672211E-02 0.19266798E+03</pdfrwt>
<pdfrwt beam="2">  1       21 0.94895376E-01 0.19266798E+03</pdfrwt>
<totfact> 0.77166420E+04</totfact>
</mgrwt>
</event>
<event>
 4    1  0.4090208E+000  0.2474960E+03  0.7546771E-02  0.1114898E+00
         21   -1    0    0  503  502  0.00000000000E+00  0.00000000000E+00  0.84141144563E+02  0.84141144563E+02  0.00000000000E+00 0.  1.
         21   -1    0    0  501  503 -0.00000000000E+00 -0.00000000000E+00 -0.85249010445E+03  0.85249010445E+03  0.00000000000E+00 0. -1.
          6    1    1    2  501    0 -0.20612020959E+02  0.17578518646E+03 -0.56314069415E+03  0.61512740843E+03  0.17300000000E+03 0. -1.
         -6    1    1    2    0  502  0.20612020959E+02 -0.17578518646E+03 -0.20520826573E+03  0.32150384058E+03  0.17300000000E+03 0.  1.
<mgrwt>
<rscale>  2 0.24749603E+03</rscale>
<asrwt>0</asrwt>
<pdfrwt beam="1">  1       21 0.12944791E-01 0.24749603E+03</pdfrwt>
<pdfrwt beam="2">  1       21 0.13115233E+00 0.24749603E+03</pdfrwt>
<totfact> 0.20965572E+04</totfact>
</mgrwt>
</event>
<event>
 4    1  0.4090208E+000  0.1946341E+03  0.7546771E-02  0.1154347E+00
         21   -1    0    0  501  502  0.00000000000E+00  0.00000000000E+00  0.49337343829E+02  0.49337343829E+02  0.00000000000E+00 0.  1.
         21   -1    0    0  502  503 -0.00000000000E+00 -0.00000000000E+00 -0.11009962440E+04  0.11009962440E+04  0.00000000000E+00 0.  1.
          6    1    1    2  501    0 -0.43286425630E+02  0.77972511399E+02 -0.20943060434E+03  0.28590838605E+03  0.17300000000E+03 0.  1.
         -6    1    1    2    0  503  0.43286425630E+02 -0.77972511399E+02 -0.84222829585E+03  0.86442520180E+03  0.17300000000E+03 0.  1.
<mgrwt>
<rscale>  2 0.19463409E+03</rscale>
<asrwt>0</asrwt>
<pdfrwt beam="1">  1       21 0.75903615E-02 0.19463409E+03</pdfrwt>
<pdfrwt beam="2">  1       21 0.16938402E+00 0.19463409E+03</pdfrwt>
<totfact> 0.28300338E+04</totfact>
</mgrwt>
</event>
<event>
 4    1  0.4090208E+000  0.1812571E+03  0.7546771E-02  0.1166592E+00
         21   -1    0    0  503  502  0.00000000000E+00  0.00000000000E+00  0.19586279878E+03  0.19586279878E+03  0.00000000000E+00 0. -1.
         21   -1    0    0  501  503 -0.00000000000E+00 -0.00000000000E+00 -0.17044952448E+03  0.17044952448E+03  0.00000000000E+00 0. -1.
          6    1    1    2  501    0 -0.29542621223E+02 -0.45302901743E+02 -0.10383787040E+02  0.18155424095E+03  0.17300000000E+03 0. -1.
         -6    1    1    2    0  502  0.29542621223E+02  0.45302901743E+02  0.35797061338E+02  0.18475808230E+03  0.17300000000E+03 0. -1.
<mgrwt>
<rscale>  2 0.18125705E+03</rscale>
<asrwt>0</asrwt>
<pdfrwt beam="1">  1       21 0.30132738E-01 0.18125705E+03</pdfrwt>
<pdfrwt beam="2">  1       21 0.26223004E-01 0.18125705E+03</pdfrwt>
<totfact> 0.14658324E+05</totfact>
</mgrwt>
</event>
<event>
 4    1  0.4090208E+000  0.2220167E+03  0.7546771E-02  0.1132388E+00
         21   -1    0    0  501  502  0.00000000000E+00  0.00000000000E+00  0.36862689493E+03  0.36862689493E+03  0.00000000000E+00 0. -1.
         21   -1    0    0  502  503 -0.00000000000E+00 -0.00000000000E+00 -0.14421029560E+03  0.14421029560E+03  0.00000000000E+00 0. -1.
          6    1    1    2  501    0 -0.10709723923E+03  0.88840256383E+02  0.18137907525E+03  0.28668759782E+03  0.17300000000E+03 0. -1.
         -6    1    1    2    0  503  0.10709723923E+03 -0.88840256383E+02  0.43037524075E+02  0.22614959271E+03  0.17300000000E+03 0. -1.
<mgrwt>
<rscale>  2 0.22201669E+03</rscale>
<asrwt>0</asrwt>
<pdfrwt beam="1">  1       21 0.56711830E-01 0.22201669E+03</pdfrwt>
<pdfrwt beam="2">  1       21 0.22186199E-01 0.22201669E+03</pdfrwt>
<totfact> 0.54780513E+04</totfact>
</mgrwt>
</event>
<event>
 4    1  0.4090208E+000  0.2003910E+03  0.7546771E-02  0.1149410E+00
         21   -1    0    0  501  502  0.00000000000E+00  0.00000000000E+00  0.30339621449E+03  0.30339621449E+03  0.00000000000E+00 0. -1.
         21   -1    0    0  502  503 -0.00000000000E+00 -0.00000000000E+00 -0.14964743894E+03  0.14964743894E+03  0.00000000000E+00 0. -1.
          6    1    1    2  501    0  0.95414391476E+02  0.33520926511E+02  0.15387260349E+03  0.25265260086E+03  0.17300000000E+03 0. -1.
         -6    1    1    2    0  503 -0.95414391476E+02 -0.33520926511E+02 -0.12382794628E+00  0.20039105257E+03  0.17300000000E+03 0. -1.
<mgrwt>
<rscale>  2 0.20039101E+03</rscale>
<asrwt>0</asrwt>
<pdfrwt beam="1">  1       21 0.46676340E-01 0.20039101E+03</pdfrwt>
<pdfrwt beam="2">  1       21 0.23022683E-01 0.20039101E+03</pdfrwt>
<totfact> 0.77595699E+04</totfact>
</mgrwt>
</event>
<event>
 4    1  0.4090208E+000  0.1901323E+03  0.7546771E-02  0.1158342E+00
         21   -1    0    0  501  502  0.00000000000E+00  0.00000000000E+00  0.64721524457E+03  0.64721524457E+03  0.00000000000E+00 0. -1.
         21   -1    0    0  502  503 -0.00000000000E+00 -0.00000000000E+00 -0.58715614705E+02  0.58715614705E+02  0.00000000000E+00 0. -1.
          6    1    1    2  501    0 -0.30703744063E+02 -0.72653717662E+02  0.37215677171E+03  0.41791260488E+03  0.17300000000E+03 0. -1.
         -6    1    1    2    0  503  0.30703744063E+02  0.72653717662E+02  0.21634285816E+03  0.28801825440E+03  0.17300000000E+03 0. -1.
<mgrwt>
<rscale>  2 0.19013228E+03</rscale>
<asrwt>0</asrwt>
<pdfrwt beam="1">  1       21 0.99571571E-01 0.19013228E+03</pdfrwt>
<pdfrwt beam="2">  1       21 0.90331719E-02 0.19013228E+03</pdfrwt>
<totfact> 0.80582686E+04</totfact>
</mgrwt>
</event>
<event>
 4    1  0.4090208E+000  0.1747675E+03  0.7546771E-02  0.1172965E+00
         21   -1    0    0  503  502  0.00000000000E+00  0.00000000000E+00  0.14117195789E+03  0.14117195789E+03  0.00000000000E+00 0. -1.
         21   -1    0    0  501  503 -0.00000000000E+00 -0.00000000000E+00 -0.56755094956E+03  0.56755094956E+03  0.00000000000E+00 0. -1.
          6    1    1    2  501    0  0.91022024050E+01 -0.23061536057E+02 -0.49194081580E+03  0.52206268856E+03  0.17300000000E+03 0. -1.
         -6    1    1    2    0  502 -0.91022024050E+01  0.23061536057E+02  0.65561824135E+02  0.18666021889E+03  0.17300000000E+03 0. -1.
<mgrwt>
<rscale>  2 0.17476752E+03</rscale>
<asrwt>0</asrwt>
<pdfrwt beam="1">  1       21 0.21718763E-01 0.17476752E+03</pdfrwt>
<pdfrwt beam="2">  1       21 0.87315529E-01 0.17476752E+03</pdfrwt>
<totfact> 0.22521393E+04</totfact>
</mgrwt>
</event>
<event>
 4    1  0.4090208E+000  0.1911402E+03  0.7546771E-02  0.1157437E+00
         21   -1    0    0  503  502  0.00000000000E+00  0.00000000000E+00  0.75837427515E+03  0.75837427515E+03  0.00000000000E+00 0. -1.
         21   -1    0    0  501  503 -0.00000000000E+00 -0.00000000000E+00 -0.50422129987E+02  0.50422129987E+02  0.00000000000E+00 0. -1.
          6    1    1    2  501    0 -0.68987243531E+02  0.42968965389E+02  0.26860188139E+03  0.32966883754E+03  0.17300000000E+03 0. -1.
         -6    1    1    2    0  502  0.68987243531E+02 -0.42968965389E+02  0.43935026377E+03  0.47912756759E+03  0.17300000000E+03 0. -1.
<mgrwt>
<rscale>  2 0.19114019E+03</rscale>
<asrwt>0</asrwt>
<pdfrwt beam="1">  1       21 0.11667296E+00 0.19114019E+03</pdfrwt>
<pdfrwt beam="2">  1       21 0.77572513E-02 0.19114019E+03</pdfrwt>
<totfact> 0.71706979E+04</totfact>
</mgrwt>
</event>
<event>
 4    1  0.4090208E+000  0.2714347E+03  0.7546771E-02  0.1100461E+00
         21   -1    0    0  503  502  0.00000000000E+00  0.00000000000E+00  0.21533085663E+03  0.21533085663E+03  0.00000000000E+00 0. -1.
         21   -1    0    0  501  503 -0.00000000000E+00 -0.00000000000E+00 -0.51079228104E+03  0.51079228104E+03  0.00000000000E+00 0. -1.
          6    1    1    2  501    0  0.18215234097E+03 -0.10280237538E+03 -0.35633982286E+03  0.44794516747E+03  0.17300000000E+03 0. -1.
         -6    1    1    2    0  502 -0.18215234097E+03  0.10280237538E+03  0.60878398446E+02  0.27817797020E+03  0.17300000000E+03 0. -1.
<mgrwt>
<rscale>  2 0.27143471E+03</rscale>
<asrwt>0</asrwt>
<pdfrwt beam="1">  1       21 0.33127824E-01 0.27143471E+03</pdfrwt>
<pdfrwt beam="2">  1       21 0.78583428E-01 0.27143471E+03</pdfrwt>
<totfact> 0.12001343E+04</totfact>
</mgrwt>
</event>
<event>
 4    1  0.4090208E+000  0.1730663E+03  0.7546771E-02  0.1174687E+00
         21   -1    0    0  503  502  0.00000000000E+00  0.00000000000E+00  0.14085991051E+03  0.14085991051E+03  0.00000000000E+00 0. -1.
         21   -1    0    0  501  503 -0.00000000000E+00 -0.00000000000E+00 -0.34328390299E+03  0.34328390299E+03  0.00000000000E+00 0. -1.
          6    1    1    2  501    0  0.36632227561E+01 -0.30861636126E+01  0.48125283487E+02  0.17963292159E+03  0.17300000000E+03 0. -1.
         -6    1    1    2    0  502 -0.36632227561E+01  0.30861636126E+01 -0.25054927596E+03  0.30451089191E+03  0.17300000000E+03 0. -1.
<mgrwt>
<rscale>  2 0.17306630E+03</rscale>
<asrwt>0</asrwt>
<pdfrwt beam="1">  1       21 0.21670756E-01 0.17306630E+03</pdfrwt>
<pdfrwt beam="2">  1       21 0.52812907E-01 0.17306630E+03</pdfrwt>
<totfact> 0.68059402E+04</totfact>
</mgrwt>
</event>
<event>
 4    1  0.4090208E+000  0.2215195E+03  0.7546771E-02  0.1132755E+00
         21   -1    0    0  503  502  0.00000000000E+00  0.00000000000E+00  0.66384269705E+03  0.66384269705E+03  0.00000000000E+00 0. -1.
         21   -1    0    0  501  503 -0.00000000000E+00 -0.00000000000E+00 -0.10614016599E+03  0.10614016599E+03  0.00000000000E+00 0.  1.
          6    1    1    2  501    0 -0.12731429985E+03 -0.54156766669E+02  0.66732650226E+02  0.23135283212E+03  0.17300000000E+03 0.  1.
         -6    1    1    2    0  502  0.12731429985E+03  0.54156766669E+02  0.49096988083E+03  0.53863003092E+03  0.17300000000E+03 0. -1.
<mgrwt>
<rscale>  2 0.22151949E+03</rscale>
<asrwt>0</asrwt>
<pdfrwt beam="1">  1       21 0.10212964E+00 0.22151949E+03</pdfrwt>
<pdfrwt beam="2">  1       21 0.16329257E-01 0.22151949E+03</pdfrwt>
<totfact> 0.25795996E+04</totfact>
</mgrwt>
</event>
<event>
 4    1  0.4090208E+000  0.1946514E+03  0.7546771E-02  0.1154332E+00
         21   -1    0    0  501  502  0.00000000000E+00  0.00000000000E+00  0.33406574333E+03  0.33406574333E+03  0.00000000000E+00 0. -1.
         21   -1    0    0  502  503 -0.00000000000E+00 -0.00000000000E+00 -0.14804614344E+03  0.14804614344E+03  0.00000000000E+00 0.  1.
          6    1    1    2  501    0 -0.89175130104E+02  0.28197680957E+01  0.20959200777E+03  0.28603839714E+03  0.17300000000E+03 0. -1.
         -6    1    1    2    0  503  0.89175130104E+02 -0.28197680957E+01 -0.23572407876E+02  0.19607348963E+03  0.17300000000E+03 0.  1.
<mgrwt>
<rscale>  2 0.19465137E+03</rscale>
<asrwt>0</asrwt>
<pdfrwt beam="1">  1       21 0.51394730E-01 0.19465137E+03</pdfrwt>
<pdfrwt beam="2">  1       21 0.22776330E-01 0.19465137E+03</pdfrwt>
<totfact> 0.64986739E+04</totfact>
</mgrwt>
</event>
<event>
 4    1  0.4090208E+000  0.1877095E+03  0.7546771E-02  0.1160544E+00
         21   -1    0    0  503  502  0.00000000000E+00  0.00000000000E+00  0.22047945951E+03  0.22047945951E+03  0.00000000000E+00 0. -1.
         21   -1    0    0  501  503 -0.00000000000E+00 -0.00000000000E+00 -0.17184366362E+03  0.17184366362E+03  0.00000000000E+00 0. -1.
          6    1    1    2  501    0 -0.12969764546E+02  0.71677467117E+02  0.76226801322E+02  0.20259664194E+03  0.17300000000E+03 0. -1.
         -6    1    1    2    0  502  0.12969764546E+02 -0.71677467117E+02 -0.27591005435E+02  0.18972648119E+03  0.17300000000E+03 0. -1.
<mgrwt>
<rscale>  2 0.18770955E+03</rscale>
<asrwt>0</asrwt>
<pdfrwt beam="1">  1       21 0.33919917E-01 0.18770955E+03</pdfrwt>
<pdfrwt beam="2">  1       21 0.26437487E-01 0.18770955E+03</pdfrwt>
<totfact> 0.11415869E+05</totfact>
</mgrwt>
</event>
<event>
 4    1  0.4090208E+000  0.2480331E+03  0.7546771E-02  0.1114554E+00
         21   -1    0    0  501  502  0.00000000000E+00  0.00000000000E+00  0.69958892808E+03  0.69958892808E+03  0.00000000000E+00 0.  1.
         21   -1    0    0  502  503 -0.00000000000E+00 -0.00000000000E+00 -0.87996618251E+02  0.87996618251E+02  0.00000000000E+00 0.  1.
          6    1    1    2  501    0  0.14331708068E+03 -0.10512676803E+03  0.31596333169E+03  0.40168800074E+03  0.17300000000E+03 0.  1.
         -6    1    1    2    0  503 -0.14331708068E+03  0.10512676803E+03  0.29562897814E+03  0.38589754559E+03  0.17300000000E+03 0.  1.
<mgrwt>
<rscale>  2 0.24803311E+03</rscale>
<asrwt>0</asrwt>
<pdfrwt beam="1">  1       21 0.10762906E+00 0.24803311E+03</pdfrwt>
<pdfrwt beam="2">  1       21 0.13537942E-01 0.24803311E+03</pdfrwt>
<totfact> 0.31595275E+04</totfact>
</mgrwt>
</event>
<event>
 4    1  0.4090208E+000  0.2395830E+03  0.7546771E-02  0.1120071E+00
         21   -1    0    0  501  502  0.00000000000E+00  0.00000000000E+00  0.58194871268E+03  0.58194871268E+03  0.00000000000E+00 0. -1.
         21   -1    0    0  502  503 -0.00000000000E+00 -0.00000000000E+00 -0.12897641035E+03  0.12897641035E+03  0.00000000000E+00 0. -1.
          6    1    1    2  501    0 -0.14599757397E+03  0.78458470968E+02  0.54076089667E+02  0.24560994838E+03  0.17300000000E+03 0. -1.
         -6    1    1    2    0  503  0.14599757397E+03 -0.78458470968E+02  0.39889621267E+03  0.46531517464E+03  0.17300000000E+03 0. -1.
<mgrwt>
<rscale>  2 0.23958302E+03</rscale>
<asrwt>0</asrwt>
<pdfrwt beam="1">  1       21 0.89530570E-01 0.23958302E+03</pdfrwt>
<pdfrwt beam="2">  1       21 0.19842525E-01 0.23958302E+03</pdfrwt>
<totfact> 0.24276810E+04</totfact>
</mgrwt>
</event>
<event>
 4    1  0.4090208E+000  0.2244263E+03  0.7546771E-02  0.1130625E+00
         21   -1    0    0  503  502  0.00000000000E+00  0.00000000000E+00  0.42615995293E+03  0.42615995293E+03  0.00000000000E+00 0.  1.
         21   -1    0    0  501  503 -0.00000000000E+00 -0.00000000000E+00 -0.11828257807E+03  0.11828257807E+03  0.00000000000E+00 0.  1.
          6    1    1    2  501    0  0.10935137327E+03  0.92089368095E+02  0.16161891238E+03  0.27656436392E+03  0.17300000000E+03 0.  1.
         -6    1    1    2    0  502 -0.10935137327E+03 -0.92089368095E+02  0.14625846248E+03  0.26787816708E+03  0.17300000000E+03 0.  1.
<mgrwt>
<rscale>  2 0.22442632E+03</rscale>
<asrwt>0</asrwt>
<pdfrwt beam="1">  1       21 0.65563069E-01 0.22442632E+03</pdfrwt>
<pdfrwt beam="2">  1       21 0.18197320E-01 0.22442632E+03</pdfrwt>
<totfact> 0.58003359E+04</totfact>
</mgrwt>
</event>
<event>
 4    1  0.4090208E+000  0.1885546E+03  0.7546771E-02  0.1159771E+00
         21   -1    0    0  501  502  0.00000000000E+00  0.00000000000E+00  0.32673864695E+02  0.32673864695E+02  0.00000000000E+00 0.  1.
         21   -1    0    0  502  503 -0.00000000000E+00 -0.00000000000E+00 -0.13639541483E+04  0.13639541483E+04  0.00000000000E+00 0.  1.
          6    1    1    2  501    0  0.44979247787E+01 -0.74857359211E+02 -0.97967685761E+03  0.99765705575E+03  0.17300000000E+03 0.  1.
         -6    1    1    2    0  503 -0.44979247787E+01  0.74857359211E+02 -0.35160342603E+03  0.39897095728E+03  0.17300000000E+03 0.  1.
<mgrwt>
<rscale>  2 0.18855465E+03</rscale>
<asrwt>0</asrwt>
<pdfrwt beam="1">  1       21 0.50267505E-02 0.18855465E+03</pdfrwt>
<pdfrwt beam="2">  1       21 0.20983901E+00 0.18855465E+03</pdfrwt>
<totfact> 0.31097528E+04</totfact>
</mgrwt>
</event>
<event>
 4    1  0.4090208E+000  0.1777789E+03  0.7546771E-02  0.1169970E+00
         21   -1    0    0  501  502  0.00000000000E+00  0.00000000000E+00  0.61112274542E+02  0.61112274542E+02  0.00000000000E+00 0.  1.
         21   -1    0    0  502  503 -0.00000000000E+00 -0.00000000000E+00 -0.52059733390E+03  0.52059733390E+03  0.00000000000E+00 0.  1.
          6    1    1    2  501    0 -0.25622261639E+02 -0.31934703230E+02 -0.25334823248E+03  0.30950065018E+03  0.17300000000E+03 0.  1.
         -6    1    1    2    0  503  0.25622261639E+02  0.31934703230E+02 -0.20613682687E+03  0.27220895826E+03  0.17300000000E+03 0.  1.
<mgrwt>
<rscale>  2 0.17777887E+03</rscale>
<asrwt>0</asrwt>
<pdfrwt beam="1">  1       21 0.94018888E-02 0.17777887E+03</pdfrwt>
<pdfrwt beam="2">  1       21 0.80091894E-01 0.17777887E+03</pdfrwt>
<totfact> 0.12477991E+05</totfact>
</mgrwt>
</event>
<event>
 4    1  0.4090208E+000  0.1735123E+03  0.7546771E-02  0.1174234E+00
         21   -1    0    0  501  502  0.00000000000E+00  0.00000000000E+00  0.61613045186E+03  0.61613045186E+03  0.00000000000E+00 0. -1.
         21   -1    0    0  502  503 -0.00000000000E+00 -0.00000000000E+00 -0.53303547898E+02  0.53303547898E+02  0.00000000000E+00 0. -1.
          6    1    1    2  501    0  0.84831477654E+01  0.10273655343E+02  0.37801319259E+03  0.41593327056E+03  0.17300000000E+03 0. -1.
         -6    1    1    2    0  503 -0.84831477654E+01 -0.10273655343E+02  0.18481371137E+03  0.25350072919E+03  0.17300000000E+03 0. -1.
<mgrwt>
<rscale>  2 0.17351228E+03</rscale>
<asrwt>0</asrwt>
<pdfrwt beam="1">  1       21 0.94789295E-01 0.17351228E+03</pdfrwt>
<pdfrwt beam="2">  1       21 0.82005463E-02 0.17351228E+03</pdfrwt>
<totfact> 0.10785189E+05</totfact>
</mgrwt>
</event>
<event>
 4    1  0.4090208E+000  0.1761656E+03  0.7546771E-02  0.1171566E+00
         21   -1    0    0  503  502  0.00000000000E+00  0.00000000000E+00  0.13905485196E+04  0.13905485196E+04  0.00000000000E+00 0. -1.
         21   -1    0    0  501  503 -0.00000000000E+00 -0.00000000000E+00 -0.77829912370E+02  0.77829912370E+02  0.00000000000E+00 0. -1.
          6    1    1    2  501    0 -0.11216063814E+02 -0.31297146593E+02  0.36307913760E+02  0.17986821863E+03  0.17300000000E+03 0. -1.
         -6    1    1    2    0  502  0.11216063814E+02  0.31297146593E+02  0.12764106935E+04  0.12885102134E+04  0.17300000000E+03 0. -1.
<mgrwt>
<rscale>  2 0.17616558E+03</rscale>
<asrwt>0</asrwt>
<pdfrwt beam="1">  1       21 0.21393052E+00 0.17616558E+03</pdfrwt>
<pdfrwt beam="2">  1       21 0.11973834E-01 0.17616558E+03</pdfrwt>
<totfact> 0.65629508E+03</totfact>
</mgrwt>
</event>
<event>
 4    1  0.4090208E+000  0.3565406E+03  0.7546771E-02  0.1059962E+00
         21   -1    0    0  501  502  0.00000000000E+00  0.00000000000E+00  0.60900797514E+03  0.60900797514E+03  0.00000000000E+00 0. -1.
         21   -1    0    0  502  503 -0.00000000000E+00 -0.00000000000E+00 -0.61605426626E+03  0.61605426626E+03  0.00000000000E+00 0. -1.
          6    1    1    2  501    0  0.86116745737E+02  0.29962658868E+03  0.49454209274E+03  0.60966635796E+03  0.17300000000E+03 0. -1.
         -6    1    1    2    0  503 -0.86116745737E+02 -0.29962658868E+03 -0.50158838386E+03  0.61539588345E+03  0.17300000000E+03 0. -1.
<mgrwt>
<rscale>  2 0.35654058E+03</rscale>
<asrwt>0</asrwt>
<pdfrwt beam="1">  1       21 0.93693535E-01 0.35654058E+03</pdfrwt>
<pdfrwt beam="2">  1       21 0.94777579E-01 0.35654058E+03</pdfrwt>
<totfact> 0.78786239E+02</totfact>
</mgrwt>
</event>
<event>
 4    1  0.4090208E+000  0.1829985E+03  0.7546771E-02  0.1164932E+00
         21   -1    0    0  503  502  0.00000000000E+00  0.00000000000E+00  0.54922675052E+02  0.54922675052E+02  0.00000000000E+00 0. -1.
         21   -1    0    0  501  503 -0.00000000000E+00 -0.00000000000E+00 -0.20607572721E+04  0.20607572721E+04  0.00000000000E+00 0. -1.
          6    1    1    2  501    0  0.23593958782E+02 -0.54797671792E+02 -0.18905700338E+04  0.18994060946E+04  0.17300000000E+03 0. -1.
         -6    1    1    2    0  502 -0.23593958782E+02  0.54797671792E+02 -0.11526456321E+03  0.21627385246E+03  0.17300000000E+03 0. -1.
<mgrwt>
<rscale>  2 0.18299852E+03</rscale>
<asrwt>0</asrwt>
<pdfrwt beam="1">  1       21 0.84496435E-02 0.18299852E+03</pdfrwt>
<pdfrwt beam="2">  1       21 0.31703954E+00 0.18299852E+03</pdfrwt>
<totfact> 0.30073612E+03</totfact>
</mgrwt>
</event>
<event>
 4    1  0.4090208E+000  0.1890758E+03  0.7546771E-02  0.1159298E+00
         21   -1    0    0  501  502  0.00000000000E+00  0.00000000000E+00  0.32992156710E+03  0.32992156710E+03  0.00000000000E+00 0.  1.
         21   -1    0    0  502  503 -0.00000000000E+00 -0.00000000000E+00 -0.10836341060E+03  0.10836341060E+03  0.00000000000E+00 0. -1.
          6    1    1    2  501    0  0.73865133693E+02 -0.19094848613E+02  0.10924367860E+03  0.21836632646E+03  0.17300000000E+03 0. -1.
         -6    1    1    2    0  503 -0.73865133693E+02  0.19094848613E+02  0.11231447790E+03  0.21991865124E+03  0.17300000000E+03 0.  1.
<mgrwt>
<rscale>  2 0.18907583E+03</rscale>
<asrwt>0</asrwt>
<pdfrwt beam="1">  1       21 0.50757164E-01 0.18907583E+03</pdfrwt>
<pdfrwt beam="2">  1       21 0.16671294E-01 0.18907583E+03</pdfrwt>
<totfact> 0.11956585E+05</totfact>
</mgrwt>
</event>
<event>
 4    1  0.4090208E+000  0.2390478E+03  0.7546771E-02  0.1120429E+00
         21   -1    0    0  503  502  0.00000000000E+00  0.00000000000E+00  0.48448875990E+03  0.48448875990E+03  0.00000000000E+00 0. -1.
         21   -1    0    0  501  503 -0.00000000000E+00 -0.00000000000E+00 -0.16512188936E+03  0.16512188936E+03  0.00000000000E+00 0.  1.
          6    1    1    2  501    0  0.96153382425E+02  0.13404994590E+03 -0.13927685814E+02  0.23945321334E+03  0.17300000000E+03 0.  1.
         -6    1    1    2    0  502 -0.96153382425E+02 -0.13404994590E+03  0.33329455635E+03  0.41015743592E+03  0.17300000000E+03 0. -1.
<mgrwt>
<rscale>  2 0.23904782E+03</rscale>
<asrwt>0</asrwt>
<pdfrwt beam="1">  1       21 0.74536732E-01 0.23904782E+03</pdfrwt>
<pdfrwt beam="2">  1       21 0.25403368E-01 0.23904782E+03</pdfrwt>
<totfact> 0.23087212E+04</totfact>
</mgrwt>
</event>
<event>
 4    1  0.4090208E+000  0.1971762E+03  0.7546771E-02  0.1152144E+00
         21   -1    0    0  503  502  0.00000000000E+00  0.00000000000E+00  0.14328133543E+03  0.14328133543E+03  0.00000000000E+00 0.  1.
         21   -1    0    0  501  503 -0.00000000000E+00 -0.00000000000E+00 -0.31437884934E+03  0.31437884934E+03  0.00000000000E+00 0. -1.
          6    1    1    2  501    0  0.94180988057E+02  0.89106984909E+01 -0.17021282684E+03  0.26048198686E+03  0.17300000000E+03 0. -1.
         -6    1    1    2    0  502 -0.94180988057E+02 -0.89106984909E+01 -0.88468707080E+00  0.19717819791E+03  0.17300000000E+03 0. -1.
<mgrwt>
<rscale>  2 0.19717621E+03</rscale>
<asrwt>0</asrwt>
<pdfrwt beam="1">  1       21 0.22043282E-01 0.19717621E+03</pdfrwt>
<pdfrwt beam="2">  1       21 0.48365977E-01 0.19717621E+03</pdfrwt>
<totfact> 0.78372327E+04</totfact>
</mgrwt>
</event>
<event>
 4    1  0.4090208E+000  0.1912817E+03  0.7546771E-02  0.1157310E+00
         21   -1    0    0  501  502  0.00000000000E+00  0.00000000000E+00  0.40727634861E+03  0.40727634861E+03  0.00000000000E+00 0.  1.
         21   -1    0    0  502  503 -0.00000000000E+00 -0.00000000000E+00 -0.12933564159E+03  0.12933564159E+03  0.00000000000E+00 0.  1.
          6    1    1    2  501    0  0.45470060349E+02  0.67765598332E+02  0.28724244429E+03  0.34510422268E+03  0.17300000000E+03 0. -1.
         -6    1    1    2    0  503 -0.45470060349E+02 -0.67765598332E+02 -0.93017372690E+01  0.19150776752E+03  0.17300000000E+03 0. -1.
<mgrwt>
<rscale>  2 0.19128174E+03</rscale>
<asrwt>0</asrwt>
<pdfrwt beam="1">  1       21 0.62657899E-01 0.19128174E+03</pdfrwt>
<pdfrwt beam="2">  1       21 0.19897791E-01 0.19128174E+03</pdfrwt>
<totfact> 0.55039526E+04</totfact>
</mgrwt>
</event>
<event>
 4    1  0.4090208E+000  0.2077376E+03  0.7546771E-02  0.1143370E+00
         21   -1    0    0  503  502  0.00000000000E+00  0.00000000000E+00  0.33995014797E+03  0.33995014797E+03  0.00000000000E+00 0. -1.
         21   -1    0    0  501  503 -0.00000000000E+00 -0.00000000000E+00 -0.18392029588E+03  0.18392029588E+03  0.00000000000E+00 0. -1.
          6    1    1    2  501    0  0.10527890506E+03  0.46284585958E+02 -0.67773500484E+02  0.21851351930E+03  0.17300000000E+03 0. -1.
         -6    1    1    2    0  502 -0.10527890506E+03 -0.46284585958E+02  0.22380335257E+03  0.30535692455E+03  0.17300000000E+03 0. -1.
<mgrwt>
<rscale>  2 0.20773760E+03</rscale>
<asrwt>0</asrwt>
<pdfrwt beam="1">  1       21 0.52300023E-01 0.20773760E+03</pdfrwt>
<pdfrwt beam="2">  1       21 0.28295430E-01 0.20773760E+03</pdfrwt>
<totfact> 0.41088661E+04</totfact>
</mgrwt>
</event>
<event>
 4    1  0.4090208E+000  0.2136439E+03  0.7546771E-02  0.1138712E+00
         21   -1    0    0  501  502  0.00000000000E+00  0.00000000000E+00  0.78161933344E+03  0.78161933344E+03  0.00000000000E+00 0. -1.
         21   -1    0    0  502  503 -0.00000000000E+00 -0.00000000000E+00 -0.65243079562E+02  0.65243079562E+02  0.00000000000E+00 0. -1.
          6    1    1    2  501    0 -0.72644413846E+02  0.10216421068E+03  0.49535725728E+03  0.53946505832E+03  0.17300000000E+03 0. -1.
         -6    1    1    2    0  503  0.72644413846E+02 -0.10216421068E+03  0.22101899659E+03  0.30739735468E+03  0.17300000000E+03 0. -1.
<mgrwt>
<rscale>  2 0.21364395E+03</rscale>
<asrwt>0</asrwt>
<pdfrwt beam="1">  1       21 0.12024912E+00 0.21364395E+03</pdfrwt>
<pdfrwt beam="2">  1       21 0.10037397E-01 0.21364395E+03</pdfrwt>
<totfact> 0.41872793E+04</totfact>
</mgrwt>
</event>
<event>
 4    1  0.4090208E+000  0.1884173E+03  0.7546771E-02  0.1159897E+00
         21   -1    0    0  503  502  0.00000000000E+00  0.00000000000E+00  0.27326676430E+03  0.27326676430E+03  0.00000000000E+00 0. -1.
         21   -1    0    0  501  503 -0.00000000000E+00 -0.00000000000E+00 -0.83361511850E+03  0.83361511850E+03  0.00000000000E+00 0. -1.
          6    1    1    2  501    0  0.24529852897E+02  0.70500924269E+02 -0.78866451863E+03  0.81085930774E+03  0.17300000000E+03 0. -1.
         -6    1    1    2    0  502 -0.24529852897E+02 -0.70500924269E+02  0.22831616443E+03  0.29602257506E+03  0.17300000000E+03 0. -1.
<mgrwt>
<rscale>  2 0.18841734E+03</rscale>
<asrwt>0</asrwt>
<pdfrwt beam="1">  1       21 0.42041041E-01 0.18841734E+03</pdfrwt>
<pdfrwt beam="2">  1       21 0.12824848E+00 0.18841734E+03</pdfrwt>
<totfact> 0.24451220E+03</totfact>
</mgrwt>
</event>
<event>
 4    1  0.4090208E+000  0.1865526E+03  0.7546771E-02  0.1161608E+00
         21   -1    0    0  503  502  0.00000000000E+00  0.00000000000E+00  0.15575576246E+04  0.15575576246E+04  0.00000000000E+00 0. -1.
         21   -1    0    0  501  503 -0.00000000000E+00 -0.00000000000E+00 -0.29122971244E+02  0.29122971244E+02  0.00000000000E+00 0. -1.
          6    1    1    2  501    0 -0.97983967928E+01 -0.69114801725E+02  0.38145626693E+03  0.42463013079E+03  0.17300000000E+03 0.  1.
         -6    1    1    2    0  502  0.97983967928E+01  0.69114801725E+02  0.11469783864E+04  0.11620504650E+04  0.17300000000E+03 0.  1.
<mgrwt>
<rscale>  2 0.18655258E+03</rscale>
<asrwt>0</asrwt>
<pdfrwt beam="1">  1       21 0.23962418E+00 0.18655258E+03</pdfrwt>
<pdfrwt beam="2">  1       21 0.44804583E-02 0.18655258E+03</pdfrwt>
<totfact> 0.24924039E+04</totfact>
</mgrwt>
</event>
<event>
 4    1  0.4090208E+000  0.1828946E+03  0.7546771E-02  0.1165031E+00
         21   -1    0    0  503  502  0.00000000000E+00  0.00000000000E+00  0.15674154350E+04  0.15674154350E+04  0.00000000000E+00 0. -1.
         21   -1    0    0  501  503 -0.00000000000E+00 -0.00000000000E+00 -0.27879431997E+02  0.27879431997E+02  0.00000000000E+00 0. -1.
          6    1    1    2  501    0 -0.53832004188E+02 -0.24971202199E+02  0.38348919219E+03  0.42486986966E+03  0.17300000000E+03 0. -1.
         -6    1    1    2    0  502  0.53832004188E+02  0.24971202199E+02  0.11560468108E+04  0.11704249974E+04  0.17300000000E+03 0. -1.
<mgrwt>
<rscale>  2 0.18289463E+03</rscale>
<asrwt>0</asrwt>
<pdfrwt beam="1">  1       21 0.24114077E+00 0.18289463E+03</pdfrwt>
<pdfrwt beam="2">  1       21 0.42891446E-02 0.18289463E+03</pdfrwt>
<totfact> 0.26354901E+04</totfact>
</mgrwt>
</event>
<event>
 4    1  0.4090208E+000  0.3331317E+03  0.7546771E-02  0.1069760E+00
         21   -1    0    0  503  502  0.00000000000E+00  0.00000000000E+00  0.13455815067E+03  0.13455815067E+03  0.00000000000E+00 0. -1.
         21   -1    0    0  501  503 -0.00000000000E+00 -0.00000000000E+00 -0.13468365921E+04  0.13468365921E+04  0.00000000000E+00 0.  1.
          6    1    1    2  501    0  0.27229500539E+03 -0.83085097422E+02 -0.10673028263E+04  0.11180840873E+04  0.17300000000E+03 0.  1.
         -6    1    1    2    0  502 -0.27229500539E+03  0.83085097422E+02 -0.14497561518E+03  0.36331065546E+03  0.17300000000E+03 0. -1.
<mgrwt>
<rscale>  2 0.33313166E+03</rscale>
<asrwt>0</asrwt>
<pdfrwt beam="1">  1       21 0.20701254E-01 0.33313166E+03</pdfrwt>
<pdfrwt beam="2">  1       21 0.20720562E+00 0.33313166E+03</pdfrwt>
<totfact> 0.23434605E+03</totfact>
</mgrwt>
</event>
<event>
 4    1  0.4090208E+000  0.2258263E+03  0.7546771E-02  0.1129612E+00
         21   -1    0    0  503  502  0.00000000000E+00  0.00000000000E+00  0.60406899199E+03  0.60406899199E+03  0.00000000000E+00 0.  1.
         21   -1    0    0  501  503 -0.00000000000E+00 -0.00000000000E+00 -0.14755471374E+03  0.14755471374E+03  0.00000000000E+00 0.  1.
          6    1    1    2  501    0 -0.13903832851E+03  0.41675465366E+02 -0.17562551094E+02  0.22650815528E+03  0.17300000000E+03 0.  1.
         -6    1    1    2    0  502  0.13903832851E+03 -0.41675465366E+02  0.47407682934E+03  0.52511555045E+03  0.17300000000E+03 0.  1.
<mgrwt>
<rscale>  2 0.22582626E+03</rscale>
<asrwt>0</asrwt>
<pdfrwt beam="1">  1       21 0.92933690E-01 0.22582626E+03</pdfrwt>
<pdfrwt beam="2">  1       21 0.22700725E-01 0.22582626E+03</pdfrwt>
<totfact> 0.17388645E+04</totfact>
</mgrwt>
</event>
<event>
 4    1  0.4090208E+000  0.1985592E+03  0.7546771E-02  0.1150960E+00
         21   -1    0    0  501  502  0.00000000000E+00  0.00000000000E+00  0.22649840018E+03  0.22649840018E+03  0.00000000000E+00 0. -1.
         21   -1    0    0  502  503 -0.00000000000E+00 -0.00000000000E+00 -0.18200470698E+03  0.18200470698E+03  0.00000000000E+00 0. -1.
          6    1    1    2  501    0 -0.37879966049E+02 -0.89787953386E+02 -0.20409840622E+02  0.19960543579E+03  0.17300000000E+03 0. -1.
         -6    1    1    2    0  503  0.37879966049E+02  0.89787953386E+02  0.64903533827E+02  0.20889767137E+03  0.17300000000E+03 0. -1.
<mgrwt>
<rscale>  2 0.19855923E+03</rscale>
<asrwt>0</asrwt>
<pdfrwt beam="1">  1       21 0.34845908E-01 0.19855923E+03</pdfrwt>
<pdfrwt beam="2">  1       21 0.28000724E-01 0.19855923E+03</pdfrwt>
<totfact> 0.96484093E+04</totfact>
</mgrwt>
</event>
<event>
 4    1  0.4090208E+000  0.1809138E+03  0.7546771E-02  0.1166922E+00
         21   -1    0    0  501  502  0.00000000000E+00  0.00000000000E+00  0.13890213099E+03  0.13890213099E+03  0.00000000000E+00 0.  1.
         21   -1    0    0  502  503 -0.00000000000E+00 -0.00000000000E+00 -0.14069630624E+04  0.14069630624E+04  0.00000000000E+00 0.  1.
          6    1    1    2  501    0  0.33135024890E+02  0.41265851604E+02  0.71214650579E+02  0.19442563319E+03  0.17300000000E+03 0.  1.
         -6    1    1    2    0  503 -0.33135024890E+02 -0.41265851604E+02 -0.13392755819E+04  0.13514395602E+04  0.17300000000E+03 0.  1.
<mgrwt>
<rscale>  2 0.18091379E+03</rscale>
<asrwt>0</asrwt>
<pdfrwt beam="1">  1       21 0.21369560E-01 0.18091379E+03</pdfrwt>
<pdfrwt beam="2">  1       21 0.21645584E+00 0.18091379E+03</pdfrwt>
<totfact> 0.21846602E+03</totfact>
</mgrwt>
</event>
<event>
 4    1  0.4090208E+000  0.2050916E+03  0.7546771E-02  0.1145513E+00
         21   -1    0    0  503  502  0.00000000000E+00  0.00000000000E+00  0.27898712184E+02  0.27898712184E+02  0.00000000000E+00 0. -1.
         21   -1    0    0  501  503 -0.00000000000E+00 -0.00000000000E+00 -0.15318411050E+04  0.15318411050E+04  0.00000000000E+00 0. -1.
          6    1    1    2  501    0  0.86087828081E+02 -0.68720143608E+02 -0.84989668789E+03  0.87429225798E+03  0.17300000000E+03 0.  1.
         -6    1    1    2    0  502 -0.86087828081E+02  0.68720143608E+02 -0.65404570489E+03  0.68544755917E+03  0.17300000000E+03 0.  1.
<mgrwt>
<rscale>  2 0.20509162E+03</rscale>
<asrwt>0</asrwt>
<pdfrwt beam="1">  1       21 0.42921083E-02 0.20509162E+03</pdfrwt>
<pdfrwt beam="2">  1       21 0.23566793E+00 0.20509162E+03</pdfrwt>
<totfact> 0.27871742E+04</totfact>
</mgrwt>
</event>
<event>
 4    1  0.4090208E+000  0.1875481E+03  0.7546771E-02  0.1160692E+00
         21   -1    0    0  501  502  0.00000000000E+00  0.00000000000E+00  0.24757237643E+03  0.24757237643E+03  0.00000000000E+00 0.  1.
         21   -1    0    0  502  503 -0.00000000000E+00 -0.00000000000E+00 -0.19319689948E+03  0.19319689948E+03  0.00000000000E+00 0.  1.
          6    1    1    2  501    0  0.59999372991E+02  0.40563027160E+02  0.14055227294E+03  0.23436984738E+03  0.17300000000E+03 0.  1.
         -6    1    1    2    0  503 -0.59999372991E+02 -0.40563027160E+02 -0.86176795984E+02  0.20639942853E+03  0.17300000000E+03 0.  1.
<mgrwt>
<rscale>  2 0.18754808E+03</rscale>
<asrwt>0</asrwt>
<pdfrwt beam="1">  1       21 0.38088058E-01 0.18754808E+03</pdfrwt>
<pdfrwt beam="2">  1       21 0.29722600E-01 0.18754808E+03</pdfrwt>
<totfact> 0.72286723E+04</totfact>
</mgrwt>
</event>
<event>
 4    1  0.4090208E+000  0.2537285E+03  0.7546771E-02  0.1110971E+00
         21   -1    0    0  503  502  0.00000000000E+00  0.00000000000E+00  0.14695459396E+04  0.14695459396E+04  0.00000000000E+00 0. -1.
         21   -1    0    0  501  503 -0.00000000000E+00 -0.00000000000E+00 -0.55568328979E+02  0.55568328979E+02  0.00000000000E+00 0. -1.
          6    1    1    2  501    0 -0.14815396960E+02  0.18501264686E+03  0.35618475545E+03  0.43731653925E+03  0.17300000000E+03 0. -1.
         -6    1    1    2    0  502  0.14815396960E+02 -0.18501264686E+03  0.10577928552E+04  0.10877977294E+04  0.17300000000E+03 0. -1.
<mgrwt>
<rscale>  2 0.25372855E+03</rscale>
<asrwt>0</asrwt>
<pdfrwt beam="1">  1       21 0.22608396E+00 0.25372855E+03</pdfrwt>
<pdfrwt beam="2">  1       21 0.85489748E-02 0.25372855E+03</pdfrwt>
<totfact> 0.93988661E+03</totfact>
</mgrwt>
</event>
<event>
 4    1  0.4090208E+000  0.1810303E+03  0.7546771E-02  0.1166810E+00
         21   -1    0    0  503  502  0.00000000000E+00  0.00000000000E+00  0.15329998570E+03  0.15329998570E+03  0.00000000000E+00 0. -1.
         21   -1    0    0  501  503 -0.00000000000E+00 -0.00000000000E+00 -0.21639259462E+03  0.21639259462E+03  0.00000000000E+00 0. -1.
          6    1    1    2  501    0  0.14201293117E+02  0.51393665886E+02 -0.11223271226E+02  0.18137791331E+03  0.17300000000E+03 0. -1.
         -6    1    1    2    0  502 -0.14201293117E+02 -0.51393665886E+02 -0.51869337698E+02  0.18831466701E+03  0.17300000000E+03 0. -1.
<mgrwt>
<rscale>  2 0.18103034E+03</rscale>
<asrwt>0</asrwt>
<pdfrwt beam="1">  1       21 0.23584613E-01 0.18103034E+03</pdfrwt>
<pdfrwt beam="2">  1       21 0.33291168E-01 0.18103034E+03</pdfrwt>
<totfact> 0.14759969E+05</totfact>
</mgrwt>
</event>
<event>
 4    1  0.4090208E+000  0.1835120E+03  0.7546771E-02  0.1164447E+00
         21   -1    0    0  503  502  0.00000000000E+00  0.00000000000E+00  0.34356075507E+02  0.34356075507E+02  0.00000000000E+00 0. -1.
         21   -1    0    0  501  503 -0.00000000000E+00 -0.00000000000E+00 -0.98256508437E+03  0.98256508437E+03  0.00000000000E+00 0. -1.
          6    1    1    2  501    0 -0.17238009724E+02  0.58740913174E+02 -0.44928454421E+03  0.48531767485E+03  0.17300000000E+03 0. -1.
         -6    1    1    2    0  502  0.17238009724E+02 -0.58740913174E+02 -0.49892446465E+03  0.53160348502E+03  0.17300000000E+03 0. -1.
<mgrwt>
<rscale>  2 0.18351197E+03</rscale>
<asrwt>0</asrwt>
<pdfrwt beam="1">  1       21 0.52855501E-02 0.18351197E+03</pdfrwt>
<pdfrwt beam="2">  1       21 0.15116386E+00 0.18351197E+03</pdfrwt>
<totfact> 0.72030693E+04</totfact>
</mgrwt>
</event>
<event>
 4    1  0.4090208E+000  0.2490277E+03  0.7546771E-02  0.1113921E+00
         21   -1    0    0  501  502  0.00000000000E+00  0.00000000000E+00  0.14963437693E+03  0.14963437693E+03  0.00000000000E+00 0.  1.
         21   -1    0    0  502  503 -0.00000000000E+00 -0.00000000000E+00 -0.44252012613E+03  0.44252012613E+03  0.00000000000E+00 0. -1.
          6    1    1    2  501    0  0.17901874942E+03 -0.61708554313E+01 -0.71863031102E+02  0.25918928863E+03  0.17300000000E+03 0. -1.
         -6    1    1    2    0  503 -0.17901874942E+03  0.61708554313E+01 -0.22102271810E+03  0.33296521442E+03  0.17300000000E+03 0. -1.
<mgrwt>
<rscale>  2 0.24902769E+03</rscale>
<asrwt>0</asrwt>
<pdfrwt beam="1">  1       21 0.23020674E-01 0.24902769E+03</pdfrwt>
<pdfrwt beam="2">  1       21 0.68080019E-01 0.24902769E+03</pdfrwt>
<totfact> 0.33945817E+04</totfact>
</mgrwt>
</event>
<event>
 4    1  0.4090208E+000  0.1847611E+03  0.7546771E-02  0.1163273E+00
         21   -1    0    0  503  502  0.00000000000E+00  0.00000000000E+00  0.40883707124E+03  0.40883707124E+03  0.00000000000E+00 0. -1.
         21   -1    0    0  501  503 -0.00000000000E+00 -0.00000000000E+00 -0.11835941944E+03  0.11835941944E+03  0.00000000000E+00 0. -1.
          6    1    1    2  501    0  0.56614514288E+02 -0.31661390262E+02  0.21781738820E+01  0.18477389237E+03  0.17300000000E+03 0. -1.
         -6    1    1    2    0  502 -0.56614514288E+02  0.31661390262E+02  0.28829947791E+03  0.34242259830E+03  0.17300000000E+03 0. -1.
<mgrwt>
<rscale>  2 0.18476105E+03</rscale>
<asrwt>0</asrwt>
<pdfrwt beam="1">  1       21 0.62898010E-01 0.18476105E+03</pdfrwt>
<pdfrwt beam="2">  1       21 0.18209142E-01 0.18476105E+03</pdfrwt>
<totfact> 0.64549774E+04</totfact>
</mgrwt>
</event>
<event>
 4    1  0.4090208E+000  0.2120837E+03  0.7546771E-02  0.1139926E+00
         21   -1    0    0  503  502  0.00000000000E+00  0.00000000000E+00  0.16049596972E+03  0.16049596972E+03  0.00000000000E+00 0.  1.
         21   -1    0    0  501  503 -0.00000000000E+00 -0.00000000000E+00 -0.31995161571E+03  0.31995161571E+03  0.00000000000E+00 0.  1.
          6    1    1    2  501    0 -0.42998498791E+02  0.11489827273E+03  0.48898951217E+01  0.21214003641E+03  0.17300000000E+03 0. -1.
         -6    1    1    2    0  502  0.42998498791E+02 -0.11489827273E+03 -0.16434554112E+03  0.26830754902E+03  0.17300000000E+03 0. -1.
<mgrwt>
<rscale>  2 0.21208367E+03</rscale>
<asrwt>0</asrwt>
<pdfrwt beam="1">  1       21 0.24691687E-01 0.21208367E+03</pdfrwt>
<pdfrwt beam="2">  1       21 0.49223326E-01 0.21208367E+03</pdfrwt>
<totfact> 0.60514433E+04</totfact>
</mgrwt>
</event>
<event>
 4    1  0.4090208E+000  0.4064187E+03  0.7546771E-02  0.1041579E+00
         21   -1    0    0  503  502  0.00000000000E+00  0.00000000000E+00  0.11636306959E+04  0.11636306959E+04  0.00000000000E+00 0.  1.
         21   -1    0    0  501  503 -0.00000000000E+00 -0.00000000000E+00 -0.14197576170E+03  0.14197576170E+03  0.00000000000E+00 0. -1.
          6    1    1    2  501    0  0.19506791944E+03 -0.31176225291E+03  0.50186230093E+03  0.64578786349E+03  0.17300000000E+03 0. -1.
         -6    1    1    2    0  502 -0.19506791944E+03  0.31176225291E+03  0.51979263323E+03  0.65981859408E+03  0.17300000000E+03 0.  1.
<mgrwt>
<rscale>  2 0.40641874E+03</rscale>
<asrwt>0</asrwt>
<pdfrwt beam="1">  1       21 0.17902010E+00 0.40641874E+03</pdfrwt>
<pdfrwt beam="2">  1       21 0.21842426E-01 0.40641874E+03</pdfrwt>
<totfact> 0.31563544E+03</totfact>
</mgrwt>
</event>
<event>
 4    1  0.4090208E+000  0.2430186E+03  0.7546771E-02  0.1117798E+00
         21   -1    0    0  501  502  0.00000000000E+00  0.00000000000E+00  0.41192962074E+02  0.41192962074E+02  0.00000000000E+00 0. -1.
         21   -1    0    0  502  503 -0.00000000000E+00 -0.00000000000E+00 -0.23575846121E+04  0.23575846121E+04  0.00000000000E+00 0.  1.
          6    1    1    2  501    0 -0.14961052967E+03 -0.82132438100E+02 -0.40737392992E+03  0.47435384130E+03  0.17300000000E+03 0. -1.
         -6    1    1    2    0  503  0.14961052967E+03  0.82132438100E+02 -0.19090177202E+04  0.19244237329E+04  0.17300000000E+03 0.  1.
<mgrwt>
<rscale>  2 0.24301862E+03</rscale>
<asrwt>0</asrwt>
<pdfrwt beam="1">  1       21 0.63373802E-02 0.24301862E+03</pdfrwt>
<pdfrwt beam="2">  1       21 0.36270524E+00 0.24301862E+03</pdfrwt>
<totfact> 0.24804285E+03</totfact>
</mgrwt>
</event>
<event>
 4    1  0.4090208E+000  0.1744265E+03  0.7546771E-02  0.1173309E+00
         21   -1    0    0  503  502  0.00000000000E+00  0.00000000000E+00  0.90081640034E+02  0.90081640034E+02  0.00000000000E+00 0. -1.
         21   -1    0    0  501  503 -0.00000000000E+00 -0.00000000000E+00 -0.63540806558E+03  0.63540806558E+03  0.00000000000E+00 0. -1.
          6    1    1    2  501    0 -0.21165250082E+02  0.69020249158E+01 -0.52094079982E+03  0.54936683798E+03  0.17300000000E+03 0. -1.
         -6    1    1    2    0  502  0.21165250082E+02 -0.69020249158E+01 -0.24385625722E+02  0.17612286763E+03  0.17300000000E+03 0. -1.
<mgrwt>
<rscale>  2 0.17442651E+03</rscale>
<asrwt>0</asrwt>
<pdfrwt beam="1">  1       21 0.13858714E-01 0.17442651E+03</pdfrwt>
<pdfrwt beam="2">  1       21 0.97755086E-01 0.17442651E+03</pdfrwt>
<totfact> 0.39612075E+04</totfact>
</mgrwt>
</event>
<event>
 4    1  0.4090208E+000  0.2832912E+03  0.7546771E-02  0.1093905E+00
         21   -1    0    0  503  502  0.00000000000E+00  0.00000000000E+00  0.11326913774E+03  0.11326913774E+03  0.00000000000E+00 0.  1.
         21   -1    0    0  501  503 -0.00000000000E+00 -0.00000000000E+00 -0.76160620010E+03  0.76160620010E+03  0.00000000000E+00 0. -1.
          6    1    1    2  501    0 -0.22422734606E+03 -0.68555900888E+01 -0.43965349067E+03  0.52301920968E+03  0.17300000000E+03 0.  1.
         -6    1    1    2    0  502  0.22422734606E+03  0.68555900888E+01 -0.20868357169E+03  0.35185612817E+03  0.17300000000E+03 0. -1.
<mgrwt>
<rscale>  2 0.28329120E+03</rscale>
<asrwt>0</asrwt>
<pdfrwt beam="1">  1       21 0.17426021E-01 0.28329120E+03</pdfrwt>
<pdfrwt beam="2">  1       21 0.11717019E+00 0.28329120E+03</pdfrwt>
<totfact> 0.15865867E+04</totfact>
</mgrwt>
</event>
<event>
 4    1  0.4090208E+000  0.1792373E+03  0.7546771E-02  0.1168543E+00
         21   -1    0    0  501  502  0.00000000000E+00  0.00000000000E+00  0.73299634186E+03  0.73299634186E+03  0.00000000000E+00 0.  1.
         21   -1    0    0  502  503 -0.00000000000E+00 -0.00000000000E+00 -0.67360348113E+02  0.67360348113E+02  0.00000000000E+00 0.  1.
          6    1    1    2  501    0 -0.11051089776E+02 -0.45550936743E+02  0.56934509181E+03  0.59689182268E+03  0.17300000000E+03 0.  1.
         -6    1    1    2    0  503  0.11051089776E+02  0.45550936743E+02  0.96290901937E+02  0.20346486728E+03  0.17300000000E+03 0.  1.
<mgrwt>
<rscale>  2 0.17923731E+03</rscale>
<asrwt>0</asrwt>
<pdfrwt beam="1">  1       21 0.11276866E+00 0.17923731E+03</pdfrwt>
<pdfrwt beam="2">  1       21 0.10363131E-01 0.17923731E+03</pdfrwt>
<totfact> 0.47173379E+04</totfact>
</mgrwt>
</event>
<event>
 4    1  0.4090208E+000  0.1920360E+03  0.7546771E-02  0.1156638E+00
         21   -1    0    0  503  502  0.00000000000E+00  0.00000000000E+00  0.53854987586E+03  0.53854987586E+03  0.00000000000E+00 0. -1.
         21   -1    0    0  501  503 -0.00000000000E+00 -0.00000000000E+00 -0.10197587113E+03  0.10197587113E+03  0.00000000000E+00 0.  1.
          6    1    1    2  501    0 -0.83312012064E+02 -0.28193595659E+01  0.40184709257E+03  0.44537503966E+03  0.17300000000E+03 0. -1.
         -6    1    1    2    0  502  0.83312012064E+02  0.28193595659E+01  0.34726912155E+02  0.19515070733E+03  0.17300000000E+03 0.  1.
<mgrwt>
<rscale>  2 0.19203604E+03</rscale>
<asrwt>0</asrwt>
<pdfrwt beam="1">  1       21 0.82853825E-01 0.19203604E+03</pdfrwt>
<pdfrwt beam="2">  1       21 0.15688596E-01 0.19203604E+03</pdfrwt>
<totfact> 0.45928974E+04</totfact>
</mgrwt>
</event>
<event>
 4    1  0.4090208E+000  0.1746732E+03  0.7546771E-02  0.1173060E+00
         21   -1    0    0  501  502  0.00000000000E+00  0.00000000000E+00  0.15240543996E+03  0.15240543996E+03  0.00000000000E+00 0. -1.
         21   -1    0    0  502  503 -0.00000000000E+00 -0.00000000000E+00 -0.24291215866E+03  0.24291215866E+03  0.00000000000E+00 0. -1.
          6    1    1    2  501    0 -0.21358008510E+02 -0.11206128640E+02  0.37635255074E+02  0.17868171219E+03  0.17300000000E+03 0. -1.
         -6    1    1    2    0  503  0.21358008510E+02  0.11206128640E+02 -0.12814197378E+03  0.21663588643E+03  0.17300000000E+03 0. -1.
<mgrwt>
<rscale>  2 0.17467324E+03</rscale>
<asrwt>0</asrwt>
<pdfrwt beam="1">  1       21 0.23446991E-01 0.17467324E+03</pdfrwt>
<pdfrwt beam="2">  1       21 0.37371102E-01 0.17467324E+03</pdfrwt>
<totfact> 0.11893436E+05</totfact>
</mgrwt>
</event>
<event>
 4    1  0.4090208E+000  0.1959954E+03  0.7546771E-02  0.1153162E+00
         21   -1    0    0  501  502  0.00000000000E+00  0.00000000000E+00  0.71957750851E+03  0.71957750851E+03  0.00000000000E+00 0.  1.
         21   -1    0    0  502  503 -0.00000000000E+00 -0.00000000000E+00 -0.13845347997E+03  0.13845347997E+03  0.00000000000E+00 0. -1.
          6    1    1    2  501    0 -0.83887379176E+02 -0.38053848033E+02  0.62684662929E+03  0.65677308440E+03  0.17300000000E+03 0.  1.
         -6    1    1    2    0  503  0.83887379176E+02  0.38053848033E+02 -0.45722600759E+02  0.20125790408E+03  0.17300000000E+03 0. -1.
<mgrwt>
<rscale>  2 0.19599538E+03</rscale>
<asrwt>0</asrwt>
<pdfrwt beam="1">  1       21 0.11070423E+00 0.19599538E+03</pdfrwt>
<pdfrwt beam="2">  1       21 0.21300536E-01 0.19599538E+03</pdfrwt>
<totfact> 0.13162122E+04</totfact>
</mgrwt>
</event>
<event>
 4    1  0.4090208E+000  0.1753960E+03  0.7546771E-02  0.1172335E+00
         21   -1    0    0  503  502  0.00000000000E+00  0.00000000000E+00  0.30058242508E+03  0.30058242508E+03  0.00000000000E+00 0.  1.
         21   -1    0    0  501  503 -0.00000000000E+00 -0.00000000000E+00 -0.42131409697E+03  0.42131409697E+03  0.00000000000E+00 0.  1.
          6    1    1    2  501    0 -0.10189205218E+02 -0.27035919250E+02 -0.37442739698E+03  0.41347265501E+03  0.17300000000E+03 0.  1.
         -6    1    1    2    0  502  0.10189205218E+02  0.27035919250E+02  0.25369572509E+03  0.30842386704E+03  0.17300000000E+03 0.  1.
<mgrwt>
<rscale>  2 0.17539601E+03</rscale>
<asrwt>0</asrwt>
<pdfrwt beam="1">  1       21 0.46243450E-01 0.17539601E+03</pdfrwt>
<pdfrwt beam="2">  1       21 0.64817553E-01 0.17539601E+03</pdfrwt>
<totfact> 0.99443185E+03</totfact>
</mgrwt>
</event>
<event>
 4    1  0.4090208E+000  0.2563012E+03  0.7546771E-02  0.1109386E+00
         21   -1    0    0  503  502  0.00000000000E+00  0.00000000000E+00  0.10214027587E+04  0.10214027587E+04  0.00000000000E+00 0.  1.
         21   -1    0    0  501  503 -0.00000000000E+00 -0.00000000000E+00 -0.77809389487E+02  0.77809389487E+02  0.00000000000E+00 0. -1.
          6    1    1    2  501    0  0.15857603415E+03 -0.10302879795E+03  0.24290423647E+03  0.35311862016E+03  0.17300000000E+03 0. -1.
         -6    1    1    2    0  502 -0.15857603415E+03  0.10302879795E+03  0.70068913276E+03  0.74609352803E+03  0.17300000000E+03 0.  1.
<mgrwt>
<rscale>  2 0.25630117E+03</rscale>
<asrwt>0</asrwt>
<pdfrwt beam="1">  1       21 0.15713888E+00 0.25630117E+03</pdfrwt>
<pdfrwt beam="2">  1       21 0.11970676E-01 0.25630117E+03</pdfrwt>
<totfact> 0.14949303E+04</totfact>
</mgrwt>
</event>
<event>
 4    1  0.4090208E+000  0.1959891E+03  0.7546771E-02  0.1153168E+00
         21   -1    0    0  503  502  0.00000000000E+00  0.00000000000E+00  0.18908062423E+03  0.18908062423E+03  0.00000000000E+00 0.  1.
         21   -1    0    0  501  503 -0.00000000000E+00 -0.00000000000E+00 -0.27891555905E+03  0.27891555905E+03  0.00000000000E+00 0.  1.
          6    1    1    2  501    0  0.77616824161E+02  0.49581969152E+02 -0.16687584683E+03  0.25740880193E+03  0.17300000000E+03 0.  1.
         -6    1    1    2    0  502 -0.77616824161E+02 -0.49581969152E+02  0.77040912010E+02  0.21058738134E+03  0.17300000000E+03 0.  1.
<mgrwt>
<rscale>  2 0.19598914E+03</rscale>
<asrwt>0</asrwt>
<pdfrwt beam="1">  1       21 0.29089327E-01 0.19598914E+03</pdfrwt>
<pdfrwt beam="2">  1       21 0.42910086E-01 0.19598914E+03</pdfrwt>
<totfact> 0.59008370E+04</totfact>
</mgrwt>
</event>
<event>
 4    1  0.4090208E+000  0.1736756E+03  0.7546771E-02  0.1174068E+00
         21   -1    0    0  501  502  0.00000000000E+00  0.00000000000E+00  0.30984707855E+02  0.30984707855E+02  0.00000000000E+00 0.  1.
         21   -1    0    0  502  503 -0.00000000000E+00 -0.00000000000E+00 -0.11217637230E+04  0.11217637230E+04  0.00000000000E+00 0.  1.
          6    1    1    2  501    0  0.47387455334E+01  0.14551730552E+02 -0.75494083664E+03  0.77466049041E+03  0.17300000000E+03 0.  1.
         -6    1    1    2    0  503 -0.47387455334E+01 -0.14551730552E+02 -0.33583817851E+03  0.37808794045E+03  0.17300000000E+03 0.  1.
<mgrwt>
<rscale>  2 0.17367558E+03</rscale>
<asrwt>0</asrwt>
<pdfrwt beam="1">  1       21 0.47668787E-02 0.17367558E+03</pdfrwt>
<pdfrwt beam="2">  1       21 0.17257902E+00 0.17367558E+03</pdfrwt>
<totfact> 0.60366963E+04</totfact>
</mgrwt>
</event>
<event>
 4    1  0.4090208E+000  0.2181428E+03  0.7546771E-02  0.1135275E+00
         21   -1    0    0  503  502  0.00000000000E+00  0.00000000000E+00  0.78701339390E+03  0.78701339390E+03  0.00000000000E+00 0. -1.
         21   -1    0    0  501  503 -0.00000000000E+00 -0.00000000000E+00 -0.10748234779E+03  0.10748234779E+03  0.00000000000E+00 0. -1.
          6    1    1    2  501    0 -0.98011146587E+02 -0.89727814525E+02  0.63557474102E+03  0.67196838986E+03  0.17300000000E+03 0. -1.
         -6    1    1    2    0  502  0.98011146587E+02  0.89727814525E+02  0.43956305095E+02  0.22252735183E+03  0.17300000000E+03 0. -1.
<mgrwt>
<rscale>  2 0.21814276E+03</rscale>
<asrwt>0</asrwt>
<pdfrwt beam="1">  1       21 0.12107898E+00 0.21814276E+03</pdfrwt>
<pdfrwt beam="2">  1       21 0.16535746E-01 0.21814276E+03</pdfrwt>
<totfact> 0.16678563E+04</totfact>
</mgrwt>
</event>
<event>
 4    1  0.4090208E+000  0.1832938E+03  0.7546771E-02  0.1164653E+00
         21   -1    0    0  503  502  0.00000000000E+00  0.00000000000E+00  0.17771890306E+03  0.17771890306E+03  0.00000000000E+00 0.  1.
         21   -1    0    0  501  503 -0.00000000000E+00 -0.00000000000E+00 -0.43396332352E+03  0.43396332352E+03  0.00000000000E+00 0.  1.
          6    1    1    2  501    0 -0.50070176338E+02  0.34067651330E+02 -0.35788579681E+03  0.40209311233E+03  0.17300000000E+03 0.  1.
         -6    1    1    2    0  502  0.50070176338E+02 -0.34067651330E+02  0.10164137635E+03  0.20958911425E+03  0.17300000000E+03 0.  1.
<mgrwt>
<rscale>  2 0.18329383E+03</rscale>
<asrwt>0</asrwt>
<pdfrwt beam="1">  1       21 0.27341370E-01 0.18329383E+03</pdfrwt>
<pdfrwt beam="2">  1       21 0.66763588E-01 0.18329383E+03</pdfrwt>
<totfact> 0.26363623E+04</totfact>
</mgrwt>
</event>
<event>
 4    1  0.4090208E+000  0.1903608E+03  0.7546771E-02  0.1158136E+00
         21   -1    0    0  501  502  0.00000000000E+00  0.00000000000E+00  0.18354156781E+03  0.18354156781E+03  0.00000000000E+00 0.  1.
         21   -1    0    0  502  503 -0.00000000000E+00 -0.00000000000E+00 -0.20511485527E+03  0.20511485527E+03  0.00000000000E+00 0.  1.
          6    1    1    2  501    0  0.34047664514E+02 -0.71756358391E+02  0.26819752783E+02  0.19224078019E+03  0.17300000000E+03 0.  1.
         -6    1    1    2    0  503 -0.34047664514E+02  0.71756358391E+02 -0.48393040248E+02  0.19641564289E+03  0.17300000000E+03 0.  1.
<mgrwt>
<rscale>  2 0.19036076E+03</rscale>
<asrwt>0</asrwt>
<pdfrwt beam="1">  1       21 0.28237164E-01 0.19036076E+03</pdfrwt>
<pdfrwt beam="2">  1       21 0.31556131E-01 0.19036076E+03</pdfrwt>
<totfact> 0.11580453E+05</totfact>
</mgrwt>
</event>
<event>
 4    1  0.4090208E+000  0.2058898E+03  0.7546771E-02  0.1144863E+00
         21   -1    0    0  501  502  0.00000000000E+00  0.00000000000E+00  0.76607841784E+02  0.76607841784E+02  0.00000000000E+00 0. -1.
         21   -1    0    0  502  503 -0.00000000000E+00 -0.00000000000E+00 -0.60374925172E+03  0.60374925172E+03  0.00000000000E+00 0. -1.
          6    1    1    2  501    0 -0.78919384449E+02  0.78951563761E+02 -0.36186068685E+03  0.41633373073E+03  0.17300000000E+03 0. -1.
         -6    1    1    2    0  503  0.78919384449E+02 -0.78951563761E+02 -0.16528072309E+03  0.26402336277E+03  0.17300000000E+03 0. -1.
<mgrwt>
<rscale>  2 0.20588982E+03</rscale>
<asrwt>0</asrwt>
<pdfrwt beam="1">  1       21 0.11785822E-01 0.20588982E+03</pdfrwt>
<pdfrwt beam="2">  1       21 0.92884498E-01 0.20588982E+03</pdfrwt>
<totfact> 0.58789776E+04</totfact>
</mgrwt>
</event>
<event>
 4    1  0.4090208E+000  0.2004068E+03  0.7546771E-02  0.1149396E+00
         21   -1    0    0  501  502  0.00000000000E+00  0.00000000000E+00  0.10753567041E+04  0.10753567041E+04  0.00000000000E+00 0. -1.
         21   -1    0    0  502  503 -0.00000000000E+00 -0.00000000000E+00 -0.46758351847E+02  0.46758351847E+02  0.00000000000E+00 0.  1.
          6    1    1    2  501    0  0.31350024720E+02 -0.96182420256E+02  0.76599201547E+03  0.79177436797E+03  0.17300000000E+03 0. -1.
         -6    1    1    2    0  503 -0.31350024720E+02  0.96182420256E+02  0.26260633681E+03  0.33034068800E+03  0.17300000000E+03 0.  1.
<mgrwt>
<rscale>  2 0.20040679E+03</rscale>
<asrwt>0</asrwt>
<pdfrwt beam="1">  1       21 0.16543947E+00 0.20040679E+03</pdfrwt>
<pdfrwt beam="2">  1       21 0.71935934E-02 0.20040679E+03</pdfrwt>
<totfact> 0.33006878E+04</totfact>
</mgrwt>
</event>
<event>
 4    1  0.4090208E+000  0.1833743E+03  0.7546771E-02  0.1164577E+00
         21   -1    0    0  503  502  0.00000000000E+00  0.00000000000E+00  0.50873174224E+03  0.50873174224E+03  0.00000000000E+00 0.  1.
         21   -1    0    0  501  503 -0.00000000000E+00 -0.00000000000E+00 -0.67978243167E+02  0.67978243167E+02  0.00000000000E+00 0.  1.
          6    1    1    2  501    0  0.22119150402E+02  0.56638154515E+02  0.17241969025E+03  0.25170356960E+03  0.17300000000E+03 0.  1.
         -6    1    1    2    0  502 -0.22119150402E+02 -0.56638154515E+02  0.26833380882E+03  0.32500641581E+03  0.17300000000E+03 0.  1.
<mgrwt>
<rscale>  2 0.18337431E+03</rscale>
<asrwt>0</asrwt>
<pdfrwt beam="1">  1       21 0.78266419E-01 0.18337431E+03</pdfrwt>
<pdfrwt beam="2">  1       21 0.10458192E-01 0.18337431E+03</pdfrwt>
<totfact> 0.10870418E+05</totfact>
</mgrwt>
</event>
<event>
 4    1  0.4090208E+000  0.2110370E+03  0.7546771E-02  0.1140747E+00
         21   -1    0    0  503  502  0.00000000000E+00  0.00000000000E+00  0.17374951759E+04  0.17374951759E+04  0.00000000000E+00 0. -1.
         21   -1    0    0  501  503 -0.00000000000E+00 -0.00000000000E+00 -0.29756459688E+02  0.29756459688E+02  0.00000000000E+00 0.  1.
          6    1    1    2  501    0 -0.93184785388E+02 -0.76968787095E+02  0.52492132368E+03  0.56575524255E+03  0.17300000000E+03 0. -1.
         -6    1    1    2    0  502  0.93184785388E+02  0.76968787095E+02  0.11828173925E+04  0.12014963930E+04  0.17300000000E+03 0. -1.
<mgrwt>
<rscale>  2 0.21103696E+03</rscale>
<asrwt>0</asrwt>
<pdfrwt beam="1">  1       21 0.26730687E+00 0.21103696E+03</pdfrwt>
<pdfrwt beam="2">  1       21 0.45779182E-02 0.21103696E+03</pdfrwt>
<totfact> 0.16181427E+04</totfact>
</mgrwt>
</event>
<event>
 4    1  0.4090208E+000  0.2735346E+03  0.7546771E-02  0.1099274E+00
         21   -1    0    0  503  502  0.00000000000E+00  0.00000000000E+00  0.61748811430E+03  0.61748811430E+03  0.00000000000E+00 0.  1.
         21   -1    0    0  501  503 -0.00000000000E+00 -0.00000000000E+00 -0.15691119027E+03  0.15691119027E+03  0.00000000000E+00 0. -1.
          6    1    1    2  501    0 -0.18784168712E+03  0.98018627898E+02  0.45492973507E+02  0.27729183449E+03  0.17300000000E+03 0. -1.
         -6    1    1    2    0  502  0.18784168712E+03 -0.98018627898E+02  0.41508395052E+03  0.49710747009E+03  0.17300000000E+03 0.  1.
<mgrwt>
<rscale>  2 0.27353455E+03</rscale>
<asrwt>0</asrwt>
<pdfrwt beam="1">  1       21 0.94998170E-01 0.27353455E+03</pdfrwt>
<pdfrwt beam="2">  1       21 0.24140183E-01 0.27353455E+03</pdfrwt>
<totfact> 0.14326273E+04</totfact>
</mgrwt>
</event>
<event>
 4    1  0.4090208E+000  0.2268460E+03  0.7546771E-02  0.1128880E+00
         21   -1    0    0  503  502  0.00000000000E+00  0.00000000000E+00  0.31682229869E+03  0.31682229869E+03  0.00000000000E+00 0. -1.
         21   -1    0    0  501  503 -0.00000000000E+00 -0.00000000000E+00 -0.27124470489E+03  0.27124470489E+03  0.00000000000E+00 0. -1.
          6    1    1    2  501    0  0.13847753004E+03  0.48518987572E+02 -0.16345192045E+03  0.27959908580E+03  0.17300000000E+03 0. -1.
         -6    1    1    2    0  502 -0.13847753004E+03 -0.48518987572E+02  0.20902951425E+03  0.30846791779E+03  0.17300000000E+03 0. -1.
<mgrwt>
<rscale>  2 0.22684602E+03</rscale>
<asrwt>0</asrwt>
<pdfrwt beam="1">  1       21 0.48741892E-01 0.22684602E+03</pdfrwt>
<pdfrwt beam="2">  1       21 0.41729954E-01 0.22684602E+03</pdfrwt>
<totfact> 0.21788307E+04</totfact>
</mgrwt>
</event>
<event>
 4    1  0.4090208E+000  0.1776163E+03  0.7546771E-02  0.1170130E+00
         21   -1    0    0  503  502  0.00000000000E+00  0.00000000000E+00  0.52369790236E+02  0.52369790236E+02  0.00000000000E+00 0.  1.
         21   -1    0    0  501  503 -0.00000000000E+00 -0.00000000000E+00 -0.65840628140E+03  0.65840628140E+03  0.00000000000E+00 0.  1.
          6    1    1    2  501    0  0.27366403693E+01  0.40138071693E+02 -0.19936694521E+03  0.26701073544E+03  0.17300000000E+03 0.  1.
         -6    1    1    2    0  502 -0.27366403693E+01 -0.40138071693E+02 -0.40666954595E+03  0.44376533619E+03  0.17300000000E+03 0.  1.
<mgrwt>
<rscale>  2 0.17761631E+03</rscale>
<asrwt>0</asrwt>
<pdfrwt beam="1">  1       21 0.80568913E-02 0.17761631E+03</pdfrwt>
<pdfrwt beam="2">  1       21 0.10129327E+00 0.17761631E+03</pdfrwt>
<totfact> 0.94976764E+04</totfact>
</mgrwt>
</event>
<event>
 4    1  0.4090208E+000  0.1818449E+03  0.7546771E-02  0.1166029E+00
         21   -1    0    0  503  502  0.00000000000E+00  0.00000000000E+00  0.52988396360E+03  0.52988396360E+03  0.00000000000E+00 0.  1.
         21   -1    0    0  501  503 -0.00000000000E+00 -0.00000000000E+00 -0.24079243148E+03  0.24079243148E+03  0.00000000000E+00 0.  1.
          6    1    1    2  501    0 -0.56006841833E+02  0.13382668276E+01 -0.18712136219E+03  0.26092520284E+03  0.17300000000E+03 0.  1.
         -6    1    1    2    0  502  0.56006841833E+02 -0.13382668276E+01  0.47621289431E+03  0.50975119225E+03  0.17300000000E+03 0.  1.
<mgrwt>
<rscale>  2 0.18184487E+03</rscale>
<asrwt>0</asrwt>
<pdfrwt beam="1">  1       21 0.81520610E-01 0.18184487E+03</pdfrwt>
<pdfrwt beam="2">  1       21 0.37044989E-01 0.18184487E+03</pdfrwt>
<totfact> 0.93332970E+03</totfact>
</mgrwt>
</event>
<event>
 4    1  0.4090208E+000  0.1840313E+03  0.7546771E-02  0.1163958E+00
         21   -1    0    0  503  502  0.00000000000E+00  0.00000000000E+00  0.92685511480E+02  0.92685511480E+02  0.00000000000E+00 0.  1.
         21   -1    0    0  501  503 -0.00000000000E+00 -0.00000000000E+00 -0.49034035245E+03  0.49034035245E+03  0.00000000000E+00 0. -1.
          6    1    1    2  501    0 -0.60301420098E+02 -0.17385112890E+02 -0.34597607402E+03  0.39187618862E+03  0.17300000000E+03 0. -1.
         -6    1    1    2    0  502  0.60301420098E+02  0.17385112890E+02 -0.51678766950E+02  0.19114967531E+03  0.17300000000E+03 0.  1.
<mgrwt>
<rscale>  2 0.18403126E+03</rscale>
<asrwt>0</asrwt>
<pdfrwt beam="1">  1       21 0.14259310E-01 0.18403126E+03</pdfrwt>
<pdfrwt beam="2">  1       21 0.75436976E-01 0.18403126E+03</pdfrwt>
<totfact> 0.67756302E+04</totfact>
</mgrwt>
</event>
<event>
 4    1  0.4090208E+000  0.2074774E+03  0.7546771E-02  0.1143579E+00
         21   -1    0    0  501  502  0.00000000000E+00  0.00000000000E+00  0.31244045186E+03  0.31244045186E+03  0.00000000000E+00 0.  1.
         21   -1    0    0  502  503 -0.00000000000E+00 -0.00000000000E+00 -0.13931831765E+03  0.13931831765E+03  0.00000000000E+00 0.  1.
          6    1    1    2  501    0  0.76370368638E+02 -0.85354884166E+02  0.62797198362E+02  0.21677264029E+03  0.17300000000E+03 0.  1.
         -6    1    1    2    0  503 -0.76370368638E+02  0.85354884166E+02  0.11032493585E+03  0.23498612922E+03  0.17300000000E+03 0.  1.
<mgrwt>
<rscale>  2 0.20747744E+03</rscale>
<asrwt>0</asrwt>
<pdfrwt beam="1">  1       21 0.48067762E-01 0.20747744E+03</pdfrwt>
<pdfrwt beam="2">  1       21 0.21433587E-01 0.20747744E+03</pdfrwt>
<totfact> 0.83325253E+04</totfact>
</mgrwt>
</event>
<event>
 4    1  0.4090208E+000  0.4466010E+03  0.7546771E-02  0.1028741E+00
         21   -1    0    0  501  502  0.00000000000E+00  0.00000000000E+00  0.83157143154E+03  0.83157143154E+03  0.00000000000E+00 0.  1.
         21   -1    0    0  502  503 -0.00000000000E+00 -0.00000000000E+00 -0.44754047487E+03  0.44754047487E+03  0.00000000000E+00 0.  1.
          6    1    1    2  501    0 -0.39200023924E+03 -0.12593350378E+03  0.62769850626E+03  0.77036215490E+03  0.17300000000E+03 0.  1.
         -6    1    1    2    0  503  0.39200023924E+03  0.12593350378E+03 -0.24366754958E+03  0.50874975151E+03  0.17300000000E+03 0.  1.
<mgrwt>
<rscale>  2 0.44660098E+03</rscale>
<asrwt>0</asrwt>
<pdfrwt beam="1">  1       21 0.12793407E+00 0.44660098E+03</pdfrwt>
<pdfrwt beam="2">  1       21 0.68852381E-01 0.44660098E+03</pdfrwt>
<totfact> 0.72953043E+02</totfact>
</mgrwt>
</event>
<event>
 4    1  0.4090208E+000  0.3086359E+03  0.7546771E-02  0.1081002E+00
         21   -1    0    0  503  502  0.00000000000E+00  0.00000000000E+00  0.38064274166E+03  0.38064274166E+03  0.00000000000E+00 0.  1.
         21   -1    0    0  501  503 -0.00000000000E+00 -0.00000000000E+00 -0.30569491064E+03  0.30569491064E+03  0.00000000000E+00 0. -1.
          6    1    1    2  501    0  0.25405426478E+03 -0.27992226614E+02  0.18362148747E+03  0.35912808977E+03  0.17300000000E+03 0.  1.
         -6    1    1    2    0  502 -0.25405426478E+03  0.27992226614E+02 -0.10867365645E+03  0.32720956253E+03  0.17300000000E+03 0. -1.
<mgrwt>
<rscale>  2 0.30863593E+03</rscale>
<asrwt>0</asrwt>
<pdfrwt beam="1">  1       21 0.58560422E-01 0.30863593E+03</pdfrwt>
<pdfrwt beam="2">  1       21 0.47029986E-01 0.30863593E+03</pdfrwt>
<totfact> 0.11090331E+04</totfact>
</mgrwt>
</event>
<event>
 4    1  0.4090208E+000  0.3316878E+03  0.7546771E-02  0.1070393E+00
         21   -1    0    0  503  502  0.00000000000E+00  0.00000000000E+00  0.51985804044E+03  0.51985804044E+03  0.00000000000E+00 0.  1.
         21   -1    0    0  501  503 -0.00000000000E+00 -0.00000000000E+00 -0.25728740789E+03  0.25728740789E+03  0.00000000000E+00 0. -1.
          6    1    1    2  501    0  0.69575668845E+02 -0.27431189263E+03 -0.32406024890E+02  0.33326706795E+03  0.17300000000E+03 0. -1.
         -6    1    1    2    0  502 -0.69575668845E+02  0.27431189263E+03  0.29497665744E+03  0.44387838038E+03  0.17300000000E+03 0.  1.
<mgrwt>
<rscale>  2 0.33168779E+03</rscale>
<asrwt>0</asrwt>
<pdfrwt beam="1">  1       21 0.79978160E-01 0.33168779E+03</pdfrwt>
<pdfrwt beam="2">  1       21 0.39582678E-01 0.33168779E+03</pdfrwt>
<totfact> 0.78357898E+03</totfact>
</mgrwt>
</event>
<event>
 4    1  0.4090208E+000  0.3132284E+03  0.7546771E-02  0.1078809E+00
         21   -1    0    0  503  502  0.00000000000E+00  0.00000000000E+00  0.21270864780E+03  0.21270864780E+03  0.00000000000E+00 0. -1.
         21   -1    0    0  501  503 -0.00000000000E+00 -0.00000000000E+00 -0.54460702091E+03  0.54460702091E+03  0.00000000000E+00 0. -1.
          6    1    1    2  501    0 -0.25630910583E+03 -0.49886594294E+02 -0.17808488896E+02  0.31373423832E+03  0.17300000000E+03 0. -1.
         -6    1    1    2    0  502  0.25630910583E+03  0.49886594294E+02 -0.31408988421E+03  0.44358143039E+03  0.17300000000E+03 0. -1.
<mgrwt>
<rscale>  2 0.31322840E+03</rscale>
<asrwt>0</asrwt>
<pdfrwt beam="1">  1       21 0.32724407E-01 0.31322840E+03</pdfrwt>
<pdfrwt beam="2">  1       21 0.83785696E-01 0.31322840E+03</pdfrwt>
<totfact> 0.10415166E+04</totfact>
</mgrwt>
</event>
<event>
 4    1  0.4090208E+000  0.3279848E+03  0.7546771E-02  0.1072032E+00
         21   -1    0    0  501  502  0.00000000000E+00  0.00000000000E+00  0.47827533429E+03  0.47827533429E+03  0.00000000000E+00 0.  1.
         21   -1    0    0  502  503 -0.00000000000E+00 -0.00000000000E+00 -0.22844303519E+03  0.22844303519E+03  0.00000000000E+00 0. -1.
          6    1    1    2  501    0  0.23360078195E+03 -0.15190680758E+03  0.16879399290E+03  0.36887045904E+03  0.17300000000E+03 0.  1.
         -6    1    1    2    0  503 -0.23360078195E+03  0.15190680758E+03  0.81038306201E+02  0.33784791044E+03  0.17300000000E+03 0. -1.
<mgrwt>
<rscale>  2 0.32798476E+03</rscale>
<asrwt>0</asrwt>
<pdfrwt beam="1">  1       21 0.73580821E-01 0.32798476E+03</pdfrwt>
<pdfrwt beam="2">  1       21 0.35145082E-01 0.32798476E+03</pdfrwt>
<totfact> 0.12070629E+04</totfact>
</mgrwt>
</event>
<event>
 4    1  0.4090208E+000  0.1770356E+03  0.7546771E-02  0.1170703E+00
         21   -1    0    0  501  502  0.00000000000E+00  0.00000000000E+00  0.24166735923E+04  0.24166735923E+04  0.00000000000E+00 0.  1.
         21   -1    0    0  502  503 -0.00000000000E+00 -0.00000000000E+00 -0.16205116385E+02  0.16205116385E+02  0.00000000000E+00 0. -1.
          6    1    1    2  501    0  0.10578992092E+01 -0.37569948562E+02  0.17438381196E+04  0.17528014741E+04  0.17300000000E+03 0.  1.
         -6    1    1    2    0  503 -0.10578992092E+01  0.37569948562E+02  0.65663035630E+03  0.68007723459E+03  0.17300000000E+03 0. -1.
<mgrwt>
<rscale>  2 0.17703565E+03</rscale>
<asrwt>0</asrwt>
<pdfrwt beam="1">  1       21 0.37179565E+00 0.17703565E+03</pdfrwt>
<pdfrwt beam="2">  1       21 0.24930968E-02 0.17703565E+03</pdfrwt>
<totfact> 0.11354991E+04</totfact>
</mgrwt>
</event>
<event>
 4    1  0.4090208E+000  0.1901204E+03  0.7546771E-02  0.1158353E+00
         21   -1    0    0  501  502  0.00000000000E+00  0.00000000000E+00  0.50830509566E+02  0.50830509566E+02  0.00000000000E+00 0. -1.
         21   -1    0    0  502  503 -0.00000000000E+00 -0.00000000000E+00 -0.94678712096E+03  0.94678712096E+03  0.00000000000E+00 0.  1.
          6    1    1    2  501    0 -0.55331719896E+02  0.56171034829E+02 -0.19910857031E+03  0.27529984953E+03  0.17300000000E+03 0. -1.
         -6    1    1    2    0  503  0.55331719896E+02 -0.56171034829E+02 -0.69684804108E+03  0.72231778099E+03  0.17300000000E+03 0.  1.
<mgrwt>
<rscale>  2 0.19012045E+03</rscale>
<asrwt>0</asrwt>
<pdfrwt beam="1">  1       21 0.78200792E-02 0.19012045E+03</pdfrwt>
<pdfrwt beam="2">  1       21 0.14565954E+00 0.19012045E+03</pdfrwt>
<totfact> 0.40362358E+04</totfact>
</mgrwt>
</event>
<event>
 4    1  0.4090208E+000  0.2867744E+03  0.7546771E-02  0.1092045E+00
         21   -1    0    0  501  502  0.00000000000E+00  0.00000000000E+00  0.12521891123E+03  0.12521891123E+03  0.00000000000E+00 0. -1.
         21   -1    0    0  502  503 -0.00000000000E+00 -0.00000000000E+00 -0.82942686990E+03  0.82942686990E+03  0.00000000000E+00 0.  1.
          6    1    1    2  501    0 -0.13790495080E+03 -0.18246310624E+03 -0.13432307296E+03  0.31667372566E+03  0.17300000000E+03 0. -1.
         -6    1    1    2    0  503  0.13790495080E+03  0.18246310624E+03 -0.56988488571E+03  0.63797205547E+03  0.17300000000E+03 0.  1.
<mgrwt>
<rscale>  2 0.28677441E+03</rscale>
<asrwt>0</asrwt>
<pdfrwt beam="1">  1       21 0.19264449E-01 0.28677441E+03</pdfrwt>
<pdfrwt beam="2">  1       21 0.12760413E+00 0.28677441E+03</pdfrwt>
<totfact> 0.10591548E+04</totfact>
</mgrwt>
</event>
<event>
 4    1  0.4090208E+000  0.1842827E+03  0.7546771E-02  0.1163721E+00
         21   -1    0    0  501  502  0.00000000000E+00  0.00000000000E+00  0.86593854978E+02  0.86593854978E+02  0.00000000000E+00 0.  1.
         21   -1    0    0  502  503 -0.00000000000E+00 -0.00000000000E+00 -0.11704765941E+04  0.11704765941E+04  0.00000000000E+00 0.  1.
          6    1    1    2  501    0  0.44024631345E+02  0.45748624467E+02 -0.29408526584E+02  0.18661448562E+03  0.17300000000E+03 0.  1.
         -6    1    1    2    0  503 -0.44024631345E+02 -0.45748624467E+02 -0.10544742126E+04  0.10704559635E+04  0.17300000000E+03 0.  1.
<mgrwt>
<rscale>  2 0.18428268E+03</rscale>
<asrwt>0</asrwt>
<pdfrwt beam="1">  1       21 0.13322131E-01 0.18428268E+03</pdfrwt>
<pdfrwt beam="2">  1       21 0.18007333E+00 0.18428268E+03</pdfrwt>
<totfact> 0.89013368E+03</totfact>
</mgrwt>
</event>
<event>
 4    1  0.4090208E+000  0.3359534E+03  0.7546771E-02  0.1068533E+00
         21   -1    0    0  501  502  0.00000000000E+00  0.00000000000E+00  0.15180136957E+03  0.15180136957E+03  0.00000000000E+00 0. -1.
         21   -1    0    0  502  503 -0.00000000000E+00 -0.00000000000E+00 -0.77023395726E+03  0.77023395726E+03  0.00000000000E+00 0. -1.
          6    1    1    2  501    0  0.12097722245E+03 -0.26134307055E+03 -0.22333115380E+03  0.40341231158E+03  0.17300000000E+03 0. -1.
         -6    1    1    2    0  503 -0.12097722245E+03  0.26134307055E+03 -0.39510143389E+03  0.51862301525E+03  0.17300000000E+03 0. -1.
<mgrwt>
<rscale>  2 0.33595340E+03</rscale>
<asrwt>0</asrwt>
<pdfrwt beam="1">  1       21 0.23354057E-01 0.33595340E+03</pdfrwt>
<pdfrwt beam="2">  1       21 0.11849753E+00 0.33595340E+03</pdfrwt>
<totfact> 0.86648925E+03</totfact>
</mgrwt>
</event>
<event>
 4    1  0.4090208E+000  0.2011372E+03  0.7546771E-02  0.1148783E+00
         21   -1    0    0  503  502  0.00000000000E+00  0.00000000000E+00  0.66197711822E+02  0.66197711822E+02  0.00000000000E+00 0. -1.
         21   -1    0    0  501  503 -0.00000000000E+00 -0.00000000000E+00 -0.70130952300E+03  0.70130952300E+03  0.00000000000E+00 0. -1.
          6    1    1    2  501    0  0.17025471665E+01  0.10258793101E+03 -0.45515747972E+03  0.49761884370E+03  0.17300000000E+03 0. -1.
         -6    1    1    2    0  502 -0.17025471665E+01 -0.10258793101E+03 -0.17995433146E+03  0.26988839113E+03  0.17300000000E+03 0. -1.
<mgrwt>
<rscale>  2 0.20113722E+03</rscale>
<asrwt>0</asrwt>
<pdfrwt beam="1">  1       21 0.10184264E-01 0.20113722E+03</pdfrwt>
<pdfrwt beam="2">  1       21 0.10789377E+00 0.20113722E+03</pdfrwt>
<totfact> 0.53533426E+04</totfact>
</mgrwt>
</event>
<event>
 4    1  0.4090208E+000  0.2940405E+03  0.7546771E-02  0.1088258E+00
         21   -1    0    0  501  502  0.00000000000E+00  0.00000000000E+00  0.66774018586E+02  0.66774018586E+02  0.00000000000E+00 0. -1.
         21   -1    0    0  502  503 -0.00000000000E+00 -0.00000000000E+00 -0.14838748074E+04  0.14838748074E+04  0.00000000000E+00 0.  1.
          6    1    1    2  501    0 -0.10584099306E+03  0.21290495116E+03 -0.43180060221E+03  0.52240941235E+03  0.17300000000E+03 0. -1.
         -6    1    1    2    0  503  0.10584099306E+03 -0.21290495116E+03 -0.98530018663E+03  0.10282394137E+04  0.17300000000E+03 0.  1.
<mgrwt>
<rscale>  2 0.29404053E+03</rscale>
<asrwt>0</asrwt>
<pdfrwt beam="1">  1       21 0.10272926E-01 0.29404053E+03</pdfrwt>
<pdfrwt beam="2">  1       21 0.22828844E+00 0.29404053E+03</pdfrwt>
<totfact> 0.64034521E+03</totfact>
</mgrwt>
</event>
<event>
 4    1  0.4090208E+000  0.1816430E+03  0.7546771E-02  0.1166222E+00
         21   -1    0    0  501  502  0.00000000000E+00  0.00000000000E+00  0.49520390861E+03  0.49520390861E+03  0.00000000000E+00 0.  1.
         21   -1    0    0  502  503 -0.00000000000E+00 -0.00000000000E+00 -0.67383504850E+02  0.67383504850E+02  0.00000000000E+00 0.  1.
          6    1    1    2  501    0  0.98703184752E+01  0.54477122080E+02  0.24370607959E+03  0.30395202458E+03  0.17300000000E+03 0.  1.
         -6    1    1    2    0  503 -0.98703184752E+01 -0.54477122080E+02  0.18411432417E+03  0.25863538888E+03  0.17300000000E+03 0.  1.
<mgrwt>
<rscale>  2 0.18164300E+03</rscale>
<asrwt>0</asrwt>
<pdfrwt beam="1">  1       21 0.76185214E-01 0.18164300E+03</pdfrwt>
<pdfrwt beam="2">  1       21 0.10366693E-01 0.18164300E+03</pdfrwt>
<totfact> 0.11735979E+05</totfact>
</mgrwt>
</event>
<event>
 4    1  0.4090208E+000  0.2172520E+03  0.7546771E-02  0.1135949E+00
         21   -1    0    0  501  502  0.00000000000E+00  0.00000000000E+00  0.20134938278E+04  0.20134938278E+04  0.00000000000E+00 0. -1.
         21   -1    0    0  502  503 -0.00000000000E+00 -0.00000000000E+00 -0.23490029573E+02  0.23490029573E+02  0.00000000000E+00 0.  1.
          6    1    1    2  501    0 -0.10392620849E+03  0.80428656766E+02  0.94849817327E+03  0.97306074340E+03  0.17300000000E+03 0.  1.
         -6    1    1    2    0  503  0.10392620849E+03 -0.80428656766E+02  0.10415056250E+04  0.10639231140E+04  0.17300000000E+03 0.  1.
<mgrwt>
<rscale>  2 0.21725199E+03</rscale>
<asrwt>0</asrwt>
<pdfrwt beam="1">  1       21 0.30976815E+00 0.21725199E+03</pdfrwt>
<pdfrwt beam="2">  1       21 0.36138523E-02 0.21725199E+03</pdfrwt>
<totfact> 0.13581787E+04</totfact>
</mgrwt>
</event>
<event>
 4    1  0.4090208E+000  0.2627964E+03  0.7546771E-02  0.1105475E+00
         21   -1    0    0  501  502  0.00000000000E+00  0.00000000000E+00  0.51684243208E+03  0.51684243208E+03  0.00000000000E+00 0. -1.
         21   -1    0    0  502  503 -0.00000000000E+00 -0.00000000000E+00 -0.15561938815E+03  0.15561938815E+03  0.00000000000E+00 0.  1.
          6    1    1    2  501    0  0.17869991369E+03 -0.84848630427E+02  0.30702201777E+03  0.40413422106E+03  0.17300000000E+03 0. -1.
         -6    1    1    2    0  503 -0.17869991369E+03  0.84848630427E+02  0.54201026153E+02  0.26832759916E+03  0.17300000000E+03 0.  1.
<mgrwt>
<rscale>  2 0.26279640E+03</rscale>
<asrwt>0</asrwt>
<pdfrwt beam="1">  1       21 0.79514219E-01 0.26279640E+03</pdfrwt>
<pdfrwt beam="2">  1       21 0.23941445E-01 0.26279640E+03</pdfrwt>
<totfact> 0.22102437E+04</totfact>
</mgrwt>
</event>
<event>
 4    1  0.4090208E+000  0.1977993E+03  0.7546771E-02  0.1151609E+00
         21   -1    0    0  501  502  0.00000000000E+00  0.00000000000E+00  0.55203527173E+03  0.55203527173E+03  0.00000000000E+00 0.  1.
         21   -1    0    0  502  503 -0.00000000000E+00 -0.00000000000E+00 -0.72058018438E+02  0.72058018438E+02  0.00000000000E+00 0.  1.
          6    1    1    2  501    0  0.86695680026E+02 -0.40980831524E+02  0.19997727188E+03  0.28127473892E+03  0.17300000000E+03 0.  1.
         -6    1    1    2    0  503 -0.86695680026E+02  0.40980831524E+02  0.27999998141E+03  0.34281855125E+03  0.17300000000E+03 0.  1.
<mgrwt>
<rscale>  2 0.19779932E+03</rscale>
<asrwt>0</asrwt>
<pdfrwt beam="1">  1       21 0.84928501E-01 0.19779932E+03</pdfrwt>
<pdfrwt beam="2">  1       21 0.11085849E-01 0.19779932E+03</pdfrwt>
<totfact> 0.80963533E+04</totfact>
</mgrwt>
</event>
<event>
 4    1  0.4090208E+000  0.3336648E+03  0.7546771E-02  0.1069527E+00
         21   -1    0    0  503  502  0.00000000000E+00  0.00000000000E+00  0.74514724014E+03  0.74514724014E+03  0.00000000000E+00 0.  1.
         21   -1    0    0  501  503 -0.00000000000E+00 -0.00000000000E+00 -0.17485057017E+03  0.17485057017E+03  0.00000000000E+00 0. -1.
          6    1    1    2  501    0  0.75744366116E+02 -0.27507447093E+03  0.10968359843E+03  0.35123021698E+03  0.17300000000E+03 0. -1.
         -6    1    1    2    0  502 -0.75744366116E+02  0.27507447093E+03  0.46061307153E+03  0.56876759333E+03  0.17300000000E+03 0.  1.
<mgrwt>
<rscale>  2 0.33366476E+03</rscale>
<asrwt>0</asrwt>
<pdfrwt beam="1">  1       21 0.11463804E+00 0.33366476E+03</pdfrwt>
<pdfrwt beam="2">  1       21 0.26900088E-01 0.33366476E+03</pdfrwt>
<totfact> 0.71650331E+03</totfact>
</mgrwt>
</event>
<event>
 4    1  0.4090208E+000  0.2907118E+03  0.7546771E-02  0.1089978E+00
         21   -1    0    0  503  502  0.00000000000E+00  0.00000000000E+00  0.78982952383E+02  0.78982952383E+02  0.00000000000E+00 0.  1.
         21   -1    0    0  501  503 -0.00000000000E+00 -0.00000000000E+00 -0.10806340617E+04  0.10806340617E+04  0.00000000000E+00 0.  1.
          6    1    1    2  501    0  0.18458119479E+03 -0.14322748219E+03 -0.55828858752E+03  0.62944378309E+03  0.17300000000E+03 0.  1.
         -6    1    1    2    0  502 -0.18458119479E+03  0.14322748219E+03 -0.44336252181E+03  0.53017323100E+03  0.17300000000E+03 0.  1.
<mgrwt>
<rscale>  2 0.29071176E+03</rscale>
<asrwt>0</asrwt>
<pdfrwt beam="1">  1       21 0.12151225E-01 0.29071176E+03</pdfrwt>
<pdfrwt beam="2">  1       21 0.16625138E+00 0.29071176E+03</pdfrwt>
<totfact> 0.12237215E+04</totfact>
</mgrwt>
</event>
<event>
 4    1  0.4090208E+000  0.1971275E+03  0.7546771E-02  0.1152185E+00
         21   -1    0    0  501  502  0.00000000000E+00  0.00000000000E+00  0.50243470249E+02  0.50243470249E+02  0.00000000000E+00 0. -1.
         21   -1    0    0  502  503 -0.00000000000E+00 -0.00000000000E+00 -0.13469787734E+04  0.13469787734E+04  0.00000000000E+00 0. -1.
          6    1    1    2  501    0  0.61754517854E+02 -0.71530668834E+02 -0.19249405174E+03  0.27552353259E+03  0.17300000000E+03 0. -1.
         -6    1    1    2    0  503 -0.61754517854E+02  0.71530668834E+02 -0.11042412514E+04  0.11216987111E+04  0.17300000000E+03 0. -1.
<mgrwt>
<rscale>  2 0.19712751E+03</rscale>
<asrwt>0</asrwt>
<pdfrwt beam="1">  1       21 0.77297657E-02 0.19712751E+03</pdfrwt>
<pdfrwt beam="2">  1       21 0.20722747E+00 0.19712751E+03</pdfrwt>
<totfact> 0.15331838E+04</totfact>
</mgrwt>
</event>
<event>
 4    1  0.4090208E+000  0.2444196E+03  0.7546771E-02  0.1116883E+00
         21   -1    0    0  501  502  0.00000000000E+00  0.00000000000E+00  0.10832415357E+03  0.10832415357E+03  0.00000000000E+00 0.  1.
         21   -1    0    0  502  503 -0.00000000000E+00 -0.00000000000E+00 -0.62959082347E+03  0.62959082347E+03  0.00000000000E+00 0.  1.
          6    1    1    2  501    0 -0.16087511491E+03 -0.62698747378E+02 -0.13069332225E+03  0.27716724193E+03  0.17300000000E+03 0.  1.
         -6    1    1    2    0  503  0.16087511491E+03  0.62698747378E+02 -0.39057334764E+03  0.46074773511E+03  0.17300000000E+03 0.  1.
<mgrwt>
<rscale>  2 0.24441959E+03</rscale>
<asrwt>0</asrwt>
<pdfrwt beam="1">  1       21 0.16665255E-01 0.24441959E+03</pdfrwt>
<pdfrwt beam="2">  1       21 0.96860126E-01 0.24441959E+03</pdfrwt>
<totfact> 0.27862478E+04</totfact>
</mgrwt>
</event>
<event>
 4    1  0.4090208E+000  0.1762652E+03  0.7546771E-02  0.1171467E+00
         21   -1    0    0  503  502  0.00000000000E+00  0.00000000000E+00  0.88447064950E+03  0.88447064950E+03  0.00000000000E+00 0.  1.
         21   -1    0    0  501  503 -0.00000000000E+00 -0.00000000000E+00 -0.40261416221E+02  0.40261416221E+02  0.00000000000E+00 0.  1.
          6    1    1    2  501    0  0.32477210577E+02 -0.92553512093E+01  0.25700092030E+03  0.31163906008E+03  0.17300000000E+03 0.  1.
         -6    1    1    2    0  502 -0.32477210577E+02  0.92553512093E+01  0.58720831298E+03  0.61309300564E+03  0.17300000000E+03 0.  1.
<mgrwt>
<rscale>  2 0.17626523E+03</rscale>
<asrwt>0</asrwt>
<pdfrwt beam="1">  1       21 0.13607239E+00 0.17626523E+03</pdfrwt>
<pdfrwt beam="2">  1       21 0.61940647E-02 0.17626523E+03</pdfrwt>
<totfact> 0.72473551E+04</totfact>
</mgrwt>
</event>
<event>
 4    1  0.4090208E+000  0.2068629E+03  0.7546771E-02  0.1144075E+00
         21   -1    0    0  503  502  0.00000000000E+00  0.00000000000E+00  0.14352760960E+03  0.14352760960E+03  0.00000000000E+00 0. -1.
         21   -1    0    0  501  503 -0.00000000000E+00 -0.00000000000E+00 -0.42546301035E+03  0.42546301035E+03  0.00000000000E+00 0. -1.
          6    1    1    2  501    0 -0.10166504923E+03  0.50274191086E+02 -0.29659518852E+03  0.36160888039E+03  0.17300000000E+03 0. -1.
         -6    1    1    2    0  502  0.10166504923E+03 -0.50274191086E+02  0.14659787780E+02  0.20738173956E+03  0.17300000000E+03 0. -1.
<mgrwt>
<rscale>  2 0.20686294E+03</rscale>
<asrwt>0</asrwt>
<pdfrwt beam="1">  1       21 0.22081171E-01 0.20686294E+03</pdfrwt>
<pdfrwt beam="2">  1       21 0.65455847E-01 0.20686294E+03</pdfrwt>
<totfact> 0.40848902E+04</totfact>
</mgrwt>
</event>
<event>
 4    1  0.4090208E+000  0.1940671E+03  0.7546771E-02  0.1154843E+00
         21   -1    0    0  503  502  0.00000000000E+00  0.00000000000E+00  0.57306146559E+02  0.57306146559E+02  0.00000000000E+00 0.  1.
         21   -1    0    0  501  503 -0.00000000000E+00 -0.00000000000E+00 -0.73276226972E+03  0.73276226972E+03  0.00000000000E+00 0.  1.
          6    1    1    2  501    0 -0.68506439329E+02  0.55135413875E+02 -0.46457595442E+03  0.50348074791E+03  0.17300000000E+03 0.  1.
         -6    1    1    2    0  502  0.68506439329E+02 -0.55135413875E+02 -0.21088016874E+03  0.28658766837E+03  0.17300000000E+03 0.  1.
<mgrwt>
<rscale>  2 0.19406712E+03</rscale>
<asrwt>0</asrwt>
<pdfrwt beam="1">  1       21 0.88163312E-02 0.19406712E+03</pdfrwt>
<pdfrwt beam="2">  1       21 0.11273264E+00 0.19406712E+03</pdfrwt>
<totfact> 0.62282755E+04</totfact>
</mgrwt>
</event>
<event>
 4    1  0.4090208E+000  0.1887100E+03  0.7546771E-02  0.1159630E+00
         21   -1    0    0  503  502  0.00000000000E+00  0.00000000000E+00  0.49067321292E+03  0.49067321292E+03  0.00000000000E+00 0.  1.
         21   -1    0    0  501  503 -0.00000000000E+00 -0.00000000000E+00 -0.13340193988E+03  0.13340193988E+03  0.00000000000E+00 0. -1.
          6    1    1    2  501    0  0.69390933965E+02  0.29450707779E+02 -0.32065905744E+02  0.19141491117E+03  0.17300000000E+03 0. -1.
         -6    1    1    2    0  502 -0.69390933965E+02 -0.29450707779E+02  0.38933717879E+03  0.43266024163E+03  0.17300000000E+03 0.  1.
<mgrwt>
<rscale>  2 0.18870995E+03</rscale>
<asrwt>0</asrwt>
<pdfrwt beam="1">  1       21 0.75488186E-01 0.18870995E+03</pdfrwt>
<pdfrwt beam="2">  1       21 0.20523376E-01 0.18870995E+03</pdfrwt>
<totfact> 0.34538243E+04</totfact>
</mgrwt>
</event>
<event>
 4    1  0.4090208E+000  0.2087725E+03  0.7546771E-02  0.1142542E+00
         21   -1    0    0  503  502  0.00000000000E+00  0.00000000000E+00  0.35367837179E+03  0.35367837179E+03  0.00000000000E+00 0. -1.
         21   -1    0    0  501  503 -0.00000000000E+00 -0.00000000000E+00 -0.14805282569E+03  0.14805282569E+03  0.00000000000E+00 0. -1.
          6    1    1    2  501    0  0.47927802587E+02  0.10658280041E+03  0.10474373325E+00  0.20877255226E+03  0.17300000000E+03 0. -1.
         -6    1    1    2    0  502 -0.47927802587E+02 -0.10658280041E+03  0.20552080237E+03  0.29295864522E+03  0.17300000000E+03 0. -1.
<mgrwt>
<rscale>  2 0.20877253E+03</rscale>
<asrwt>0</asrwt>
<pdfrwt beam="1">  1       21 0.54412057E-01 0.20877253E+03</pdfrwt>
<pdfrwt beam="2">  1       21 0.22777358E-01 0.20877253E+03</pdfrwt>
<totfact> 0.57249453E+04</totfact>
</mgrwt>
</event>
<event>
 4    1  0.4090208E+000  0.1766347E+03  0.7546771E-02  0.1171100E+00
         21   -1    0    0  503  502  0.00000000000E+00  0.00000000000E+00  0.36542322311E+03  0.36542322311E+03  0.00000000000E+00 0.  1.
         21   -1    0    0  501  503 -0.00000000000E+00 -0.00000000000E+00 -0.13294834540E+03  0.13294834540E+03  0.00000000000E+00 0.  1.
          6    1    1    2  501    0  0.19436715619E+02 -0.29883818849E+02 -0.32815620700E+02  0.17965715545E+03  0.17300000000E+03 0.  1.
         -6    1    1    2    0  502 -0.19436715619E+02  0.29883818849E+02  0.26529049842E+03  0.31871441306E+03  0.17300000000E+03 0.  1.
<mgrwt>
<rscale>  2 0.17663473E+03</rscale>
<asrwt>0</asrwt>
<pdfrwt beam="1">  1       21 0.56218957E-01 0.17663473E+03</pdfrwt>
<pdfrwt beam="2">  1       21 0.20453592E-01 0.17663473E+03</pdfrwt>
<totfact> 0.66373566E+04</totfact>
</mgrwt>
</event>
<event>
 4    1  0.4090208E+000  0.1938313E+03  0.7546771E-02  0.1155050E+00
         21   -1    0    0  503  502  0.00000000000E+00  0.00000000000E+00  0.96713555928E+03  0.96713555928E+03  0.00000000000E+00 0. -1.
         21   -1    0    0  501  503 -0.00000000000E+00 -0.00000000000E+00 -0.69131429294E+02  0.69131429294E+02  0.00000000000E+00 0.  1.
          6    1    1    2  501    0 -0.61823038870E+02  0.61802007417E+02  0.10606718443E+03  0.22095434793E+03  0.17300000000E+03 0.  1.
         -6    1    1    2    0  502  0.61823038870E+02 -0.61802007417E+02  0.79193694556E+03  0.81531264064E+03  0.17300000000E+03 0. -1.
<mgrwt>
<rscale>  2 0.19383131E+03</rscale>
<asrwt>0</asrwt>
<pdfrwt beam="1">  1       21 0.14879008E+00 0.19383131E+03</pdfrwt>
<pdfrwt beam="2">  1       21 0.10635605E-01 0.19383131E+03</pdfrwt>
<totfact> 0.22199382E+04</totfact>
</mgrwt>
</event>
<event>
 4    1  0.4090208E+000  0.2118836E+03  0.7546771E-02  0.1140083E+00
         21   -1    0    0  503  502  0.00000000000E+00  0.00000000000E+00  0.59597910172E+03  0.59597910172E+03  0.00000000000E+00 0. -1.
         21   -1    0    0  501  503 -0.00000000000E+00 -0.00000000000E+00 -0.14954033780E+03  0.14954033780E+03  0.00000000000E+00 0. -1.
          6    1    1    2  501    0  0.11454222007E+03 -0.42962218599E+02 -0.39374213504E+02  0.21551102314E+03  0.17300000000E+03 0. -1.
         -6    1    1    2    0  502 -0.11454222007E+03  0.42962218599E+02  0.48581297742E+03  0.53000841638E+03  0.17300000000E+03 0. -1.
<mgrwt>
<rscale>  2 0.21188363E+03</rscale>
<asrwt>0</asrwt>
<pdfrwt beam="1">  1       21 0.91689091E-01 0.21188363E+03</pdfrwt>
<pdfrwt beam="2">  1       21 0.23006206E-01 0.21188363E+03</pdfrwt>
<totfact> 0.17638136E+04</totfact>
</mgrwt>
</event>
<event>
 4    1  0.4090208E+000  0.2491121E+03  0.7546771E-02  0.1113867E+00
         21   -1    0    0  503  502  0.00000000000E+00  0.00000000000E+00  0.14090306222E+03  0.14090306222E+03  0.00000000000E+00 0.  1.
         21   -1    0    0  501  503 -0.00000000000E+00 -0.00000000000E+00 -0.44042384450E+03  0.44042384450E+03  0.00000000000E+00 0. -1.
          6    1    1    2  501    0 -0.50259760596E+02 -0.17205175054E+03 -0.15030762373E+03  0.29094540751E+03  0.17300000000E+03 0. -1.
         -6    1    1    2    0  502  0.50259760596E+02  0.17205175054E+03 -0.14921315855E+03  0.29038149921E+03  0.17300000000E+03 0. -1.
<mgrwt>
<rscale>  2 0.24911212E+03</rscale>
<asrwt>0</asrwt>
<pdfrwt beam="1">  1       21 0.21677394E-01 0.24911212E+03</pdfrwt>
<pdfrwt beam="2">  1       21 0.67757515E-01 0.24911212E+03</pdfrwt>
<totfact> 0.38451458E+04</totfact>
</mgrwt>
</event>
<event>
 4    1  0.4090208E+000  0.2358758E+03  0.7546771E-02  0.1122571E+00
         21   -1    0    0  503  502  0.00000000000E+00  0.00000000000E+00  0.20539267727E+04  0.20539267727E+04  0.00000000000E+00 0. -1.
         21   -1    0    0  501  503 -0.00000000000E+00 -0.00000000000E+00 -0.98072249845E+02  0.98072249845E+02  0.00000000000E+00 0.  1.
          6    1    1    2  501    0  0.93956264473E+02  0.12992539817E+03  0.62510037609E+02  0.24401822376E+03  0.17300000000E+03 0.  1.
         -6    1    1    2    0  502 -0.93956264473E+02 -0.12992539817E+03  0.18933444852E+04  0.19079807988E+04  0.17300000000E+03 0. -1.
<mgrwt>
<rscale>  2 0.23587579E+03</rscale>
<asrwt>0</asrwt>
<pdfrwt beam="1">  1       21 0.31598870E+00 0.23587579E+03</pdfrwt>
<pdfrwt beam="2">  1       21 0.15088040E-01 0.23587579E+03</pdfrwt>
<totfact> 0.10145571E+03</totfact>
</mgrwt>
</event>
<event>
 4    1  0.4090208E+000  0.3738889E+03  0.7546771E-02  0.1053216E+00
         21   -1    0    0  501  502  0.00000000000E+00  0.00000000000E+00  0.59520029600E+03  0.59520029600E+03  0.00000000000E+00 0.  1.
         21   -1    0    0  502  503 -0.00000000000E+00 -0.00000000000E+00 -0.77972274935E+03  0.77972274935E+03  0.00000000000E+00 0. -1.
          6    1    1    2  501    0 -0.30297427698E+03  0.13442652318E+03  0.48240948729E+03  0.61033746081E+03  0.17300000000E+03 0.  1.
         -6    1    1    2    0  503  0.30297427698E+03 -0.13442652318E+03 -0.66693194064E+03  0.76458558454E+03  0.17300000000E+03 0. -1.
<mgrwt>
<rscale>  2 0.37388889E+03</rscale>
<asrwt>0</asrwt>
<pdfrwt beam="1">  1       21 0.91569277E-01 0.37388889E+03</pdfrwt>
<pdfrwt beam="2">  1       21 0.11995735E+00 0.37388889E+03</pdfrwt>
<totfact> 0.46249428E+02</totfact>
</mgrwt>
</event>
<event>
 4    1  0.4090208E+000  0.2250905E+03  0.7546771E-02  0.1130144E+00
         21   -1    0    0  503  502  0.00000000000E+00  0.00000000000E+00  0.93397013068E+02  0.93397013068E+02  0.00000000000E+00 0. -1.
         21   -1    0    0  501  503 -0.00000000000E+00 -0.00000000000E+00 -0.66464207666E+03  0.66464207666E+03  0.00000000000E+00 0. -1.
          6    1    1    2  501    0 -0.14316270762E+03 -0.15529202910E+02 -0.44811809260E+03  0.50147337109E+03  0.17300000000E+03 0. -1.
         -6    1    1    2    0  502  0.14316270762E+03  0.15529202910E+02 -0.12312697099E+03  0.25656571864E+03  0.17300000000E+03 0. -1.
<mgrwt>
<rscale>  2 0.22509046E+03</rscale>
<asrwt>0</asrwt>
<pdfrwt beam="1">  1       21 0.14368771E-01 0.22509046E+03</pdfrwt>
<pdfrwt beam="2">  1       21 0.10225263E+00 0.22509046E+03</pdfrwt>
<totfact> 0.32445328E+04</totfact>
</mgrwt>
</event>
<event>
 4    1  0.4090208E+000  0.2077476E+03  0.7546771E-02  0.1143362E+00
         21   -1    0    0  501  502  0.00000000000E+00  0.00000000000E+00  0.72765595717E+03  0.72765595717E+03  0.00000000000E+00 0.  1.
         21   -1    0    0  502  503 -0.00000000000E+00 -0.00000000000E+00 -0.60653633357E+02  0.60653633357E+02  0.00000000000E+00 0.  1.
          6    1    1    2  501    0  0.41459973739E+02  0.10729004350E+03  0.39211185492E+03  0.44374631224E+03  0.17300000000E+03 0. -1.
         -6    1    1    2    0  503 -0.41459973739E+02 -0.10729004350E+03  0.27489046889E+03  0.34456327829E+03  0.17300000000E+03 0. -1.
<mgrwt>
<rscale>  2 0.20774764E+03</rscale>
<asrwt>0</asrwt>
<pdfrwt beam="1">  1       21 0.11194706E+00 0.20774764E+03</pdfrwt>
<pdfrwt beam="2">  1       21 0.93313287E-02 0.20774764E+03</pdfrwt>
<totfact> 0.56942838E+04</totfact>
</mgrwt>
</event>
<event>
 4    1  0.4090208E+000  0.2047239E+03  0.7546771E-02  0.1145814E+00
         21   -1    0    0  503  502  0.00000000000E+00  0.00000000000E+00  0.93912436995E+02  0.93912436995E+02  0.00000000000E+00 0. -1.
         21   -1    0    0  501  503 -0.00000000000E+00 -0.00000000000E+00 -0.69730451629E+03  0.69730451629E+03  0.00000000000E+00 0. -1.
          6    1    1    2  501    0  0.62378802710E+02  0.89954269694E+02 -0.53905547138E+03  0.57662178842E+03  0.17300000000E+03 0. -1.
         -6    1    1    2    0  502 -0.62378802710E+02 -0.89954269694E+02 -0.64336607919E+02  0.21459516486E+03  0.17300000000E+03 0. -1.
<mgrwt>
<rscale>  2 0.20472393E+03</rscale>
<asrwt>0</asrwt>
<pdfrwt beam="1">  1       21 0.14448067E-01 0.20472393E+03</pdfrwt>
<pdfrwt beam="2">  1       21 0.10727762E+00 0.20472393E+03</pdfrwt>
<totfact> 0.28934530E+04</totfact>
</mgrwt>
</event>
<event>
 4    1  0.4090208E+000  0.1997443E+03  0.7546771E-02  0.1149955E+00
         21   -1    0    0  503  502  0.00000000000E+00  0.00000000000E+00  0.11373947927E+02  0.11373947927E+02  0.00000000000E+00 0. -1.
         21   -1    0    0  501  503 -0.00000000000E+00 -0.00000000000E+00 -0.36830972688E+04  0.36830972688E+04  0.00000000000E+00 0. -1.
          6    1    1    2  501    0 -0.54722226449E+01 -0.99693768456E+02 -0.22388339243E+04  0.22477266589E+04  0.17300000000E+03 0. -1.
         -6    1    1    2    0  502  0.54722226449E+01  0.99693768456E+02 -0.14328893966E+04  0.14467445578E+04  0.17300000000E+03 0. -1.
<mgrwt>
<rscale>  2 0.19974432E+03</rscale>
<asrwt>0</asrwt>
<pdfrwt beam="1">  1       21 0.17498372E-02 0.19974432E+03</pdfrwt>
<pdfrwt beam="2">  1       21 0.56663065E+00 0.19974432E+03</pdfrwt>
<totfact> 0.93191633E+02</totfact>
</mgrwt>
</event>
<event>
 4    1  0.4090208E+000  0.1949949E+03  0.7546771E-02  0.1154032E+00
         21   -1    0    0  501  502  0.00000000000E+00  0.00000000000E+00  0.18077973676E+03  0.18077973676E+03  0.00000000000E+00 0.  1.
         21   -1    0    0  502  503 -0.00000000000E+00 -0.00000000000E+00 -0.43637584999E+03  0.43637584999E+03  0.00000000000E+00 0. -1.
          6    1    1    2  501    0 -0.29648290597E+02  0.84941068283E+02  0.94294849834E+02  0.21659761061E+03  0.17300000000E+03 0.  1.
         -6    1    1    2    0  503  0.29648290597E+02 -0.84941068283E+02 -0.34989096306E+03  0.40055797614E+03  0.17300000000E+03 0. -1.
<mgrwt>
<rscale>  2 0.19499489E+03</rscale>
<asrwt>0</asrwt>
<pdfrwt beam="1">  1       21 0.27812267E-01 0.19499489E+03</pdfrwt>
<pdfrwt beam="2">  1       21 0.67134746E-01 0.19499489E+03</pdfrwt>
<totfact> 0.25036705E+04</totfact>
</mgrwt>
</event>
<event>
 4    1  0.4090208E+000  0.2488168E+03  0.7546771E-02  0.1114055E+00
         21   -1    0    0  501  502  0.00000000000E+00  0.00000000000E+00  0.98979148320E+02  0.98979148320E+02  0.00000000000E+00 0. -1.
         21   -1    0    0  502  503 -0.00000000000E+00 -0.00000000000E+00 -0.12647105254E+04  0.12647105254E+04  0.00000000000E+00 0. -1.
          6    1    1    2  501    0  0.13433352553E+03  0.11804785173E+03 -0.98115857829E+02  0.26746310575E+03  0.17300000000E+03 0. -1.
         -6    1    1    2    0  503 -0.13433352553E+03 -0.11804785173E+03 -0.10676155193E+04  0.10962265680E+04  0.17300000000E+03 0. -1.
<mgrwt>
<rscale>  2 0.24881678E+03</rscale>
<asrwt>0</asrwt>
<pdfrwt beam="1">  1       21 0.15227563E-01 0.24881678E+03</pdfrwt>
<pdfrwt beam="2">  1       21 0.19457083E+00 0.24881678E+03</pdfrwt>
<totfact> 0.53073909E+03</totfact>
</mgrwt>
</event>
<event>
 4    1  0.4090208E+000  0.1820915E+03  0.7546771E-02  0.1165794E+00
         21   -1    0    0  503  502  0.00000000000E+00  0.00000000000E+00  0.16378686350E+02  0.16378686350E+02  0.00000000000E+00 0. -1.
         21   -1    0    0  501  503 -0.00000000000E+00 -0.00000000000E+00 -0.22558641367E+04  0.22558641367E+04  0.00000000000E+00 0.  1.
          6    1    1    2  501    0 -0.45027925986E+02  0.34652523584E+02 -0.75583354545E+03  0.77745846187E+03  0.17300000000E+03 0. -1.
         -6    1    1    2    0  502  0.45027925986E+02 -0.34652523584E+02 -0.14836519049E+04  0.14947843612E+04  0.17300000000E+03 0. -1.
<mgrwt>
<rscale>  2 0.18209149E+03</rscale>
<asrwt>0</asrwt>
<pdfrwt beam="1">  1       21 0.25197988E-02 0.18209149E+03</pdfrwt>
<pdfrwt beam="2">  1       21 0.34705589E+00 0.18209149E+03</pdfrwt>
<totfact> 0.15544740E+04</totfact>
</mgrwt>
</event>
<event>
 4    1  0.4090208E+000  0.1920255E+03  0.7546771E-02  0.1156647E+00
         21   -1    0    0  503  502  0.00000000000E+00  0.00000000000E+00  0.59501550207E+03  0.59501550207E+03  0.00000000000E+00 0. -1.
         21   -1    0    0  501  503 -0.00000000000E+00 -0.00000000000E+00 -0.65192968387E+02  0.65192968387E+02  0.00000000000E+00 0. -1.
          6    1    1    2  501    0 -0.48714464637E+02  0.67614408652E+02  0.33829500698E+03  0.38899526870E+03  0.17300000000E+03 0.  1.
         -6    1    1    2    0  502  0.48714464637E+02 -0.67614408652E+02  0.19152752670E+03  0.27121320175E+03  0.17300000000E+03 0.  1.
<mgrwt>
<rscale>  2 0.19202554E+03</rscale>
<asrwt>0</asrwt>
<pdfrwt beam="1">  1       21 0.91540843E-01 0.19202554E+03</pdfrwt>
<pdfrwt beam="2">  1       21 0.10029688E-01 0.19202554E+03</pdfrwt>
<totfact> 0.81557032E+04</totfact>
</mgrwt>
</event>
<event>
 4    1  0.4090208E+000  0.1752238E+03  0.7546771E-02  0.1172507E+00
         21   -1    0    0  503  502  0.00000000000E+00  0.00000000000E+00  0.61088503430E+02  0.61088503430E+02  0.00000000000E+00 0. -1.
         21   -1    0    0  501  503 -0.00000000000E+00 -0.00000000000E+00 -0.57212167496E+03  0.57212167496E+03  0.00000000000E+00 0. -1.
          6    1    1    2  501    0  0.20366081501E+02 -0.18963280184E+02 -0.14515488346E+03  0.22753752100E+03  0.17300000000E+03 0. -1.
         -6    1    1    2    0  502 -0.20366081501E+02  0.18963280184E+02 -0.36587828807E+03  0.40567265739E+03  0.17300000000E+03 0. -1.
<mgrwt>
<rscale>  2 0.17522381E+03</rscale>
<asrwt>0</asrwt>
<pdfrwt beam="1">  1       21 0.93982314E-02 0.17522381E+03</pdfrwt>
<pdfrwt beam="2">  1       21 0.88018718E-01 0.17522381E+03</pdfrwt>
<totfact> 0.10082907E+05</totfact>
</mgrwt>
</event>
<event>
 4    1  0.4090208E+000  0.2245913E+03  0.7546771E-02  0.1130506E+00
         21   -1    0    0  501  502  0.00000000000E+00  0.00000000000E+00  0.47536447794E+03  0.47536447794E+03  0.00000000000E+00 0. -1.
         21   -1    0    0  502  503 -0.00000000000E+00 -0.00000000000E+00 -0.22974677256E+03  0.22974677256E+03  0.00000000000E+00 0.  1.
          6    1    1    2  501    0 -0.11409887951E+03  0.86566199017E+02  0.38143684351E+03  0.44264582535E+03  0.17300000000E+03 0. -1.
         -6    1    1    2    0  503  0.11409887951E+03 -0.86566199017E+02 -0.13581913812E+03  0.26246542515E+03  0.17300000000E+03 0.  1.
<mgrwt>
<rscale>  2 0.22459132E+03</rscale>
<asrwt>0</asrwt>
<pdfrwt beam="1">  1       21 0.73132997E-01 0.22459132E+03</pdfrwt>
<pdfrwt beam="2">  1       21 0.35345657E-01 0.22459132E+03</pdfrwt>
<totfact> 0.12718192E+04</totfact>
</mgrwt>
</event>
<event>
 4    1  0.4090208E+000  0.1953729E+03  0.7546771E-02  0.1153703E+00
         21   -1    0    0  501  502  0.00000000000E+00  0.00000000000E+00  0.13036580135E+04  0.13036580135E+04  0.00000000000E+00 0.  1.
         21   -1    0    0  502  503 -0.00000000000E+00 -0.00000000000E+00 -0.29280077929E+02  0.29280077929E+02  0.00000000000E+00 0. -1.
          6    1    1    2  501    0  0.89590376654E+02  0.14667654117E+02  0.63990205176E+03  0.66906293539E+03  0.17300000000E+03 0. -1.
         -6    1    1    2    0  503 -0.89590376654E+02 -0.14667654117E+02  0.63447588378E+03  0.66387515601E+03  0.17300000000E+03 0. -1.
<mgrwt>
<rscale>  2 0.19537291E+03</rscale>
<asrwt>0</asrwt>
<pdfrwt beam="1">  1       21 0.20056273E+00 0.19537291E+03</pdfrwt>
<pdfrwt beam="2">  1       21 0.45046284E-02 0.19537291E+03</pdfrwt>
<totfact> 0.42650916E+04</totfact>
</mgrwt>
</event>
<event>
 4    1  0.4090208E+000  0.1859838E+03  0.7546771E-02  0.1162134E+00
         21   -1    0    0  503  502  0.00000000000E+00  0.00000000000E+00  0.29183589963E+03  0.29183589963E+03  0.00000000000E+00 0.  1.
         21   -1    0    0  501  503 -0.00000000000E+00 -0.00000000000E+00 -0.15227305080E+03  0.15227305080E+03  0.00000000000E+00 0.  1.
          6    1    1    2  501    0  0.61249141368E+02  0.30158187232E+02 -0.34755478285E+02  0.18920337430E+03  0.17300000000E+03 0.  1.
         -6    1    1    2    0  502 -0.61249141368E+02 -0.30158187232E+02  0.17431832711E+03  0.25490557613E+03  0.17300000000E+03 0.  1.
<mgrwt>
<rscale>  2 0.18598380E+03</rscale>
<asrwt>0</asrwt>
<pdfrwt beam="1">  1       21 0.44897831E-01 0.18598380E+03</pdfrwt>
<pdfrwt beam="2">  1       21 0.23426623E-01 0.18598380E+03</pdfrwt>
<totfact> 0.81824428E+04</totfact>
</mgrwt>
</event>
<event>
 4    1  0.4090208E+000  0.1983189E+03  0.7546771E-02  0.1151165E+00
         21   -1    0    0  501  502  0.00000000000E+00  0.00000000000E+00  0.45530062463E+02  0.45530062463E+02  0.00000000000E+00 0. -1.
         21   -1    0    0  502  503 -0.00000000000E+00 -0.00000000000E+00 -0.11363146727E+04  0.11363146727E+04  0.00000000000E+00 0.  1.
          6    1    1    2  501    0  0.85279682509E+02  0.46138620538E+02 -0.83475951270E+03  0.85799407959E+03  0.17300000000E+03 0.  1.
         -6    1    1    2    0  503 -0.85279682509E+02 -0.46138620538E+02 -0.25602509756E+03  0.32385065560E+03  0.17300000000E+03 0. -1.
<mgrwt>
<rscale>  2 0.19831893E+03</rscale>
<asrwt>0</asrwt>
<pdfrwt beam="1">  1       21 0.70046253E-02 0.19831893E+03</pdfrwt>
<pdfrwt beam="2">  1       21 0.17481763E+00 0.19831893E+03</pdfrwt>
<totfact> 0.29727734E+04</totfact>
</mgrwt>
</event>
<event>
 4    1  0.4090208E+000  0.2327287E+03  0.7546771E-02  0.1124734E+00
         21   -1    0    0  501  502  0.00000000000E+00  0.00000000000E+00  0.42521500103E+03  0.42521500103E+03  0.00000000000E+00 0.  1.
         21   -1    0    0  502  503 -0.00000000000E+00 -0.00000000000E+00 -0.42013144604E+03  0.42013144604E+03  0.00000000000E+00 0.  1.
          6    1    1    2  501    0 -0.68925880383E+02 -0.13958101878E+03  0.35537042903E+03  0.42479498540E+03  0.17300000000E+03 0.  1.
         -6    1    1    2    0  503  0.68925880383E+02  0.13958101878E+03 -0.35028687404E+03  0.42055146167E+03  0.17300000000E+03 0.  1.
<mgrwt>
<rscale>  2 0.23272868E+03</rscale>
<asrwt>0</asrwt>
<pdfrwt beam="1">  1       21 0.65417693E-01 0.23272868E+03</pdfrwt>
<pdfrwt beam="2">  1       21 0.64635607E-01 0.23272868E+03</pdfrwt>
<totfact> 0.46031048E+03</totfact>
</mgrwt>
</event>
<event>
 4    1  0.4090208E+000  0.2056532E+03  0.7546771E-02  0.1145055E+00
         21   -1    0    0  503  502  0.00000000000E+00  0.00000000000E+00  0.18157235120E+03  0.18157235120E+03  0.00000000000E+00 0. -1.
         21   -1    0    0  501  503 -0.00000000000E+00 -0.00000000000E+00 -0.39950311730E+03  0.39950311730E+03  0.00000000000E+00 0. -1.
          6    1    1    2  501    0  0.11117152926E+03 -0.22677206652E+01 -0.29657183109E+03  0.36089901977E+03  0.17300000000E+03 0. -1.
         -6    1    1    2    0  502 -0.11117152926E+03  0.22677206652E+01  0.78641064994E+02  0.22017644874E+03  0.17300000000E+03 0. -1.
<mgrwt>
<rscale>  2 0.20565323E+03</rscale>
<asrwt>0</asrwt>
<pdfrwt beam="1">  1       21 0.27934208E-01 0.20565323E+03</pdfrwt>
<pdfrwt beam="2">  1       21 0.61462018E-01 0.20565323E+03</pdfrwt>
<totfact> 0.29897668E+04</totfact>
</mgrwt>
</event>
<event>
 4    1  0.4090208E+000  0.1848242E+03  0.7546771E-02  0.1163214E+00
         21   -1    0    0  501  502  0.00000000000E+00  0.00000000000E+00  0.47124418466E+03  0.47124418466E+03  0.00000000000E+00 0.  1.
         21   -1    0    0  502  503 -0.00000000000E+00 -0.00000000000E+00 -0.22158304892E+03  0.22158304892E+03  0.00000000000E+00 0.  1.
          6    1    1    2  501    0  0.61250370985E+02  0.21894437538E+02  0.40898666730E+03  0.44880961261E+03  0.17300000000E+03 0.  1.
         -6    1    1    2    0  503 -0.61250370985E+02 -0.21894437538E+02 -0.15932553156E+03  0.24401762098E+03  0.17300000000E+03 0.  1.
<mgrwt>
<rscale>  2 0.18482417E+03</rscale>
<asrwt>0</asrwt>
<pdfrwt beam="1">  1       21 0.72499105E-01 0.18482417E+03</pdfrwt>
<pdfrwt beam="2">  1       21 0.34089700E-01 0.18482417E+03</pdfrwt>
<totfact> 0.14287753E+04</totfact>
</mgrwt>
</event>
<event>
 4    1  0.4090208E+000  0.1981998E+03  0.7546771E-02  0.1151267E+00
         21   -1    0    0  503  502  0.00000000000E+00  0.00000000000E+00  0.72343240541E+02  0.72343240541E+02  0.00000000000E+00 0. -1.
         21   -1    0    0  501  503 -0.00000000000E+00 -0.00000000000E+00 -0.56252978700E+03  0.56252978700E+03  0.00000000000E+00 0.  1.
          6    1    1    2  501    0  0.72507214291E+02 -0.64006832283E+02 -0.30422373245E+03  0.36309124210E+03  0.17300000000E+03 0.  1.
         -6    1    1    2    0  502 -0.72507214291E+02  0.64006832283E+02 -0.18596281400E+03  0.27178178544E+03  0.17300000000E+03 0. -1.
<mgrwt>
<rscale>  2 0.19819983E+03</rscale>
<asrwt>0</asrwt>
<pdfrwt beam="1">  1       21 0.11129730E-01 0.19819983E+03</pdfrwt>
<pdfrwt beam="2">  1       21 0.86543041E-01 0.19819983E+03</pdfrwt>
<totfact> 0.76983650E+04</totfact>
</mgrwt>
</event>
<event>
 4    1  0.4090208E+000  0.1977436E+03  0.7546771E-02  0.1151657E+00
         21   -1    0    0  501  502  0.00000000000E+00  0.00000000000E+00  0.40846157318E+03  0.40846157318E+03  0.00000000000E+00 0. -1.
         21   -1    0    0  502  503 -0.00000000000E+00 -0.00000000000E+00 -0.95972914312E+02  0.95972914312E+02  0.00000000000E+00 0. -1.
          6    1    1    2  501    0  0.37113889841E+02  0.88295475840E+02  0.16890095475E+03  0.26005780971E+03  0.17300000000E+03 0. -1.
         -6    1    1    2    0  503 -0.37113889841E+02 -0.88295475840E+02  0.14358770412E+03  0.24437667779E+03  0.17300000000E+03 0. -1.
<mgrwt>
<rscale>  2 0.19774360E+03</rscale>
<asrwt>0</asrwt>
<pdfrwt beam="1">  1       21 0.62840241E-01 0.19774360E+03</pdfrwt>
<pdfrwt beam="2">  1       21 0.14765064E-01 0.19774360E+03</pdfrwt>
<totfact> 0.94485427E+04</totfact>
</mgrwt>
</event>
<event>
 4    1  0.4090208E+000  0.1776555E+03  0.7546771E-02  0.1170092E+00
         21   -1    0    0  503  502  0.00000000000E+00  0.00000000000E+00  0.40589567231E+03  0.40589567231E+03  0.00000000000E+00 0. -1.
         21   -1    0    0  501  503 -0.00000000000E+00 -0.00000000000E+00 -0.12769790384E+03  0.12769790384E+03  0.00000000000E+00 0. -1.
          6    1    1    2  501    0 -0.13840344124E+01  0.40380192508E+02 -0.27746531951E+02  0.17980919202E+03  0.17300000000E+03 0. -1.
         -6    1    1    2    0  502  0.13840344124E+01 -0.40380192508E+02  0.30594430042E+03  0.35378438413E+03  0.17300000000E+03 0. -1.
<mgrwt>
<rscale>  2 0.17765550E+03</rscale>
<asrwt>0</asrwt>
<pdfrwt beam="1">  1       21 0.62445488E-01 0.17765550E+03</pdfrwt>
<pdfrwt beam="2">  1       21 0.19645832E-01 0.17765550E+03</pdfrwt>
<totfact> 0.57133652E+04</totfact>
</mgrwt>
</event>
<event>
 4    1  0.4090208E+000  0.1764016E+03  0.7546771E-02  0.1171332E+00
         21   -1    0    0  501  502  0.00000000000E+00  0.00000000000E+00  0.17107257496E+03  0.17107257496E+03  0.00000000000E+00 0. -1.
         21   -1    0    0  502  503 -0.00000000000E+00 -0.00000000000E+00 -0.19895803933E+03  0.19895803933E+03  0.00000000000E+00 0. -1.
          6    1    1    2  501    0 -0.34113616021E+02  0.49793452565E+01  0.40236617160E+02  0.18093235763E+03  0.17300000000E+03 0. -1.
         -6    1    1    2    0  503  0.34113616021E+02 -0.49793452565E+01 -0.68122081531E+02  0.18909825665E+03  0.17300000000E+03 0. -1.
<mgrwt>
<rscale>  2 0.17640162E+03</rscale>
<asrwt>0</asrwt>
<pdfrwt beam="1">  1       21 0.26318858E-01 0.17640162E+03</pdfrwt>
<pdfrwt beam="2">  1       21 0.30608929E-01 0.17640162E+03</pdfrwt>
<totfact> 0.14141248E+05</totfact>
</mgrwt>
</event>
<event>
 4    1  0.4090208E+000  0.2006039E+03  0.7546771E-02  0.1149230E+00
         21   -1    0    0  501  502  0.00000000000E+00  0.00000000000E+00  0.11637748956E+04  0.11637748956E+04  0.00000000000E+00 0.  1.
         21   -1    0    0  502  503 -0.00000000000E+00 -0.00000000000E+00 -0.64861299936E+02  0.64861299936E+02  0.00000000000E+00 0. -1.
          6    1    1    2  501    0 -0.68168093075E+02  0.75273123279E+02  0.96921229597E+03  0.98975472045E+03  0.17300000000E+03 0.  1.
         -6    1    1    2    0  503  0.68168093075E+02 -0.75273123279E+02  0.12970129972E+03  0.23888147511E+03  0.17300000000E+03 0. -1.
<mgrwt>
<rscale>  2 0.20060392E+03</rscale>
<asrwt>0</asrwt>
<pdfrwt beam="1">  1       21 0.17904228E+00 0.20060392E+03</pdfrwt>
<pdfrwt beam="2">  1       21 0.99786624E-02 0.20060392E+03</pdfrwt>
<totfact> 0.14955441E+04</totfact>
</mgrwt>
</event>
<event>
 4    1  0.4090208E+000  0.2141490E+03  0.7546771E-02  0.1138322E+00
         21   -1    0    0  503  502  0.00000000000E+00  0.00000000000E+00  0.98377264576E+03  0.98377264576E+03  0.00000000000E+00 0.  1.
         21   -1    0    0  501  503 -0.00000000000E+00 -0.00000000000E+00 -0.67788052058E+02  0.67788052058E+02  0.00000000000E+00 0.  1.
          6    1    1    2  501    0  0.10402771415E+03 -0.71477509192E+02  0.16415521530E+03  0.26982723054E+03  0.17300000000E+03 0.  1.
         -6    1    1    2    0  502 -0.10402771415E+03  0.71477509192E+02  0.75182937841E+03  0.78173346728E+03  0.17300000000E+03 0.  1.
<mgrwt>
<rscale>  2 0.21414901E+03</rscale>
<asrwt>0</asrwt>
<pdfrwt beam="1">  1       21 0.15134963E+00 0.21414901E+03</pdfrwt>
<pdfrwt beam="2">  1       21 0.10428932E-01 0.21414901E+03</pdfrwt>
<totfact> 0.21685627E+04</totfact>
</mgrwt>
</event>
<event>
 4    1  0.4090208E+000  0.2432732E+03  0.7546771E-02  0.1117631E+00
         21   -1    0    0  503  502  0.00000000000E+00  0.00000000000E+00  0.24273238315E+03  0.24273238315E+03  0.00000000000E+00 0.  1.
         21   -1    0    0  501  503 -0.00000000000E+00 -0.00000000000E+00 -0.34357060675E+03  0.34357060675E+03  0.00000000000E+00 0. -1.
          6    1    1    2  501    0 -0.16112823460E+03 -0.57363366262E+02 -0.20838094374E+03  0.32031934298E+03  0.17300000000E+03 0. -1.
         -6    1    1    2    0  502  0.16112823460E+03  0.57363366262E+02  0.10754272014E+03  0.26598364692E+03  0.17300000000E+03 0.  1.
<mgrwt>
<rscale>  2 0.24327323E+03</rscale>
<asrwt>0</asrwt>
<pdfrwt beam="1">  1       21 0.37343444E-01 0.24327323E+03</pdfrwt>
<pdfrwt beam="2">  1       21 0.52857016E-01 0.24327323E+03</pdfrwt>
<totfact> 0.22827229E+04</totfact>
</mgrwt>
</event>
<event>
 4    1  0.4090208E+000  0.1779806E+03  0.7546771E-02  0.1169772E+00
         21   -1    0    0  503  502  0.00000000000E+00  0.00000000000E+00  0.54651607463E+03  0.54651607463E+03  0.00000000000E+00 0.  1.
         21   -1    0    0  501  503 -0.00000000000E+00 -0.00000000000E+00 -0.60156525900E+02  0.60156525900E+02  0.00000000000E+00 0. -1.
          6    1    1    2  501    0 -0.32078575858E+02 -0.26815180378E+02  0.30111825323E+03  0.34978463568E+03  0.17300000000E+03 0. -1.
         -6    1    1    2    0  502  0.32078575858E+02  0.26815180378E+02  0.18524129550E+03  0.25688796485E+03  0.17300000000E+03 0. -1.
<mgrwt>
<rscale>  2 0.17798059E+03</rscale>
<asrwt>0</asrwt>
<pdfrwt beam="1">  1       21 0.84079393E-01 0.17798059E+03</pdfrwt>
<pdfrwt beam="2">  1       21 0.92548505E-02 0.17798059E+03</pdfrwt>
<totfact> 0.11489601E+05</totfact>
</mgrwt>
</event>
<event>
 4    1  0.4090208E+000  0.2002281E+03  0.7546771E-02  0.1149547E+00
         21   -1    0    0  501  502  0.00000000000E+00  0.00000000000E+00  0.92553762220E+02  0.92553762220E+02  0.00000000000E+00 0.  1.
         21   -1    0    0  502  503 -0.00000000000E+00 -0.00000000000E+00 -0.45012846195E+03  0.45012846195E+03  0.00000000000E+00 0.  1.
          6    1    1    2  501    0  0.70228189102E+02  0.72320707838E+02 -0.12611624948E+03  0.23663598989E+03  0.17300000000E+03 0.  1.
         -6    1    1    2    0  503 -0.70228189102E+02 -0.72320707838E+02 -0.23145845025E+03  0.30604623428E+03  0.17300000000E+03 0.  1.
<mgrwt>
<rscale>  2 0.20022808E+03</rscale>
<asrwt>0</asrwt>
<pdfrwt beam="1">  1       21 0.14239041E-01 0.20022808E+03</pdfrwt>
<pdfrwt beam="2">  1       21 0.69250531E-01 0.20022808E+03</pdfrwt>
<totfact> 0.81545583E+04</totfact>
</mgrwt>
</event>
<event>
 4    1  0.4090208E+000  0.2135255E+03  0.7546771E-02  0.1138804E+00
         21   -1    0    0  501  502  0.00000000000E+00  0.00000000000E+00  0.35741250078E+03  0.35741250078E+03  0.00000000000E+00 0. -1.
         21   -1    0    0  502  503 -0.00000000000E+00 -0.00000000000E+00 -0.12920597071E+03  0.12920597071E+03  0.00000000000E+00 0. -1.
          6    1    1    2  501    0  0.60773754489E+02  0.10941066884E+03  0.14152753528E+03  0.25617023038E+03  0.17300000000E+03 0. -1.
         -6    1    1    2    0  503 -0.60773754489E+02 -0.10941066884E+03  0.86678994788E+02  0.23044824111E+03  0.17300000000E+03 0. -1.
<mgrwt>
<rscale>  2 0.21352551E+03</rscale>
<asrwt>0</asrwt>
<pdfrwt beam="1">  1       21 0.54986538E-01 0.21352551E+03</pdfrwt>
<pdfrwt beam="2">  1       21 0.19877842E-01 0.21352551E+03</pdfrwt>
<totfact> 0.72202110E+04</totfact>
</mgrwt>
</event>
<event>
 4    1  0.4090208E+000  0.1848205E+03  0.7546771E-02  0.1163218E+00
         21   -1    0    0  501  502  0.00000000000E+00  0.00000000000E+00  0.14059639432E+03  0.14059639432E+03  0.00000000000E+00 0.  1.
         21   -1    0    0  502  503 -0.00000000000E+00 -0.00000000000E+00 -0.24296698845E+03  0.24296698845E+03  0.00000000000E+00 0.  1.
          6    1    1    2  501    0  0.43428991778E+02 -0.48409997136E+02 -0.49841418164E+02  0.19142301877E+03  0.17300000000E+03 0.  1.
         -6    1    1    2    0  503 -0.43428991778E+02  0.48409997136E+02 -0.52529175966E+02  0.19214036400E+03  0.17300000000E+03 0.  1.
<mgrwt>
<rscale>  2 0.18482047E+03</rscale>
<asrwt>0</asrwt>
<pdfrwt beam="1">  1       21 0.21630215E-01 0.18482047E+03</pdfrwt>
<pdfrwt beam="2">  1       21 0.37379537E-01 0.18482047E+03</pdfrwt>
<totfact> 0.13792063E+05</totfact>
</mgrwt>
</event>
<event>
 4    1  0.4090208E+000  0.1819615E+03  0.7546771E-02  0.1165918E+00
         21   -1    0    0  501  502  0.00000000000E+00  0.00000000000E+00  0.54888683406E+03  0.54888683406E+03  0.00000000000E+00 0.  1.
         21   -1    0    0  502  503 -0.00000000000E+00 -0.00000000000E+00 -0.89516504112E+02  0.89516504112E+02  0.00000000000E+00 0.  1.
          6    1    1    2  501    0 -0.37335051880E+02  0.42273777347E+02  0.41197555994E+03  0.45037078095E+03  0.17300000000E+03 0.  1.
         -6    1    1    2    0  503  0.37335051880E+02 -0.42273777347E+02  0.47394770011E+02  0.18803255722E+03  0.17300000000E+03 0.  1.
<mgrwt>
<rscale>  2 0.18196147E+03</rscale>
<asrwt>0</asrwt>
<pdfrwt beam="1">  1       21 0.84444126E-01 0.18196147E+03</pdfrwt>
<pdfrwt beam="2">  1       21 0.13771770E-01 0.18196147E+03</pdfrwt>
<totfact> 0.55998630E+04</totfact>
</mgrwt>
</event>
<event>
 4    1  0.4090208E+000  0.1909599E+03  0.7546771E-02  0.1157598E+00
         21   -1    0    0  501  502  0.00000000000E+00  0.00000000000E+00  0.45433907831E+02  0.45433907831E+02  0.00000000000E+00 0. -1.
         21   -1    0    0  502  503 -0.00000000000E+00 -0.00000000000E+00 -0.87429162164E+03  0.87429162164E+03  0.00000000000E+00 0. -1.
          6    1    1    2  501    0 -0.70509070261E+01 -0.80541790761E+02 -0.28275338210E+03  0.34119667413E+03  0.17300000000E+03 0. -1.
         -6    1    1    2    0  503  0.70509070261E+01  0.80541790761E+02 -0.54610433170E+03  0.57852885533E+03  0.17300000000E+03 0. -1.
<mgrwt>
<rscale>  2 0.19095993E+03</rscale>
<asrwt>0</asrwt>
<pdfrwt beam="1">  1       21 0.69898321E-02 0.19095993E+03</pdfrwt>
<pdfrwt beam="2">  1       21 0.13450640E+00 0.19095993E+03</pdfrwt>
<totfact> 0.60183375E+04</totfact>
</mgrwt>
</event>
<event>
 4    1  0.4090208E+000  0.1756532E+03  0.7546771E-02  0.1172077E+00
         21   -1    0    0  501  502  0.00000000000E+00  0.00000000000E+00  0.19153635618E+03  0.19153635618E+03  0.00000000000E+00 0. -1.
         21   -1    0    0  502  503 -0.00000000000E+00 -0.00000000000E+00 -0.54313494742E+03  0.54313494742E+03  0.00000000000E+00 0. -1.
          6    1    1    2  501    0 -0.65547155066E+01 -0.29699796428E+02  0.13228394055E+03  0.21989334490E+03  0.17300000000E+03 0. -1.
         -6    1    1    2    0  503  0.65547155066E+01  0.29699796428E+02 -0.48388253179E+03  0.51477795871E+03  0.17300000000E+03 0. -1.
<mgrwt>
<rscale>  2 0.17565319E+03</rscale>
<asrwt>0</asrwt>
<pdfrwt beam="1">  1       21 0.29467132E-01 0.17565319E+03</pdfrwt>
<pdfrwt beam="2">  1       21 0.83559222E-01 0.17565319E+03</pdfrwt>
<totfact> 0.13904488E+04</totfact>
</mgrwt>
</event>
<event>
 4    1  0.4090208E+000  0.1982389E+03  0.7546771E-02  0.1151233E+00
         21   -1    0    0  503  502  0.00000000000E+00  0.00000000000E+00  0.31742451484E+03  0.31742451484E+03  0.00000000000E+00 0.  1.
         21   -1    0    0  501  503 -0.00000000000E+00 -0.00000000000E+00 -0.17337738988E+03  0.17337738988E+03  0.00000000000E+00 0. -1.
          6    1    1    2  501    0 -0.52415396362E+02 -0.81377502029E+02  0.20324382856E+03  0.28391323580E+03  0.17300000000E+03 0.  1.
         -6    1    1    2    0  502  0.52415396362E+02  0.81377502029E+02 -0.59196703601E+02  0.20688866892E+03  0.17300000000E+03 0. -1.
<mgrwt>
<rscale>  2 0.19823893E+03</rscale>
<asrwt>0</asrwt>
<pdfrwt beam="1">  1       21 0.48834541E-01 0.19823893E+03</pdfrwt>
<pdfrwt beam="2">  1       21 0.26673445E-01 0.19823893E+03</pdfrwt>
<totfact> 0.53400801E+04</totfact>
</mgrwt>
</event>
<event>
 4    1  0.4090208E+000  0.2011756E+03  0.7546771E-02  0.1148751E+00
         21   -1    0    0  503  502  0.00000000000E+00  0.00000000000E+00  0.79886518929E+02  0.79886518929E+02  0.00000000000E+00 0. -1.
         21   -1    0    0  501  503 -0.00000000000E+00 -0.00000000000E+00 -0.74150164485E+03  0.74150164485E+03  0.00000000000E+00 0.  1.
          6    1    1    2  501    0  0.56563565281E+02  0.85692452670E+02 -0.56195677663E+03  0.59688110388E+03  0.17300000000E+03 0.  1.
         -6    1    1    2    0  502 -0.56563565281E+02 -0.85692452670E+02 -0.99658349284E+02  0.22450705990E+03  0.17300000000E+03 0. -1.
<mgrwt>
<rscale>  2 0.20117563E+03</rscale>
<asrwt>0</asrwt>
<pdfrwt beam="1">  1       21 0.12290234E-01 0.20117563E+03</pdfrwt>
<pdfrwt beam="2">  1       21 0.11407717E+00 0.20117563E+03</pdfrwt>
<totfact> 0.33451362E+04</totfact>
</mgrwt>
</event>
<event>
 4    1  0.4090208E+000  0.2384585E+03  0.7546771E-02  0.1120824E+00
         21   -1    0    0  503  502  0.00000000000E+00  0.00000000000E+00  0.28745828632E+02  0.28745828632E+02  0.00000000000E+00 0. -1.
         21   -1    0    0  501  503 -0.00000000000E+00 -0.00000000000E+00 -0.19783984788E+04  0.19783984788E+04  0.00000000000E+00 0. -1.
          6    1    1    2  501    0  0.62402678233E+02 -0.15178715040E+03 -0.96272406290E+03  0.99181654279E+03  0.17300000000E+03 0. -1.
         -6    1    1    2    0  502 -0.62402678233E+02  0.15178715040E+03 -0.98692858727E+03  0.10153277646E+04  0.17300000000E+03 0. -1.
<mgrwt>
<rscale>  2 0.23845845E+03</rscale>
<asrwt>0</asrwt>
<pdfrwt beam="1">  1       21 0.44224362E-02 0.23845845E+03</pdfrwt>
<pdfrwt beam="2">  1       21 0.30436893E+00 0.23845845E+03</pdfrwt>
<totfact> 0.10190915E+04</totfact>
</mgrwt>
</event>
<event>
 4    1  0.4090208E+000  0.1869701E+03  0.7546771E-02  0.1161223E+00
         21   -1    0    0  503  502  0.00000000000E+00  0.00000000000E+00  0.10743864896E+03  0.10743864896E+03  0.00000000000E+00 0.  1.
         21   -1    0    0  501  503 -0.00000000000E+00 -0.00000000000E+00 -0.59398389604E+03  0.59398389604E+03  0.00000000000E+00 0.  1.
          6    1    1    2  501    0 -0.69664429045E+02 -0.13254549042E+02 -0.47911554533E+03  0.51430489160E+03  0.17300000000E+03 0.  1.
         -6    1    1    2    0  502  0.69664429045E+02  0.13254549042E+02 -0.74297017521E+01  0.18711765340E+03  0.17300000000E+03 0.  1.
<mgrwt>
<rscale>  2 0.18697009E+03</rscale>
<asrwt>0</asrwt>
<pdfrwt beam="1">  1       21 0.16529023E-01 0.18697009E+03</pdfrwt>
<pdfrwt beam="2">  1       21 0.91382138E-01 0.18697009E+03</pdfrwt>
<totfact> 0.33416198E+04</totfact>
</mgrwt>
</event>
<event>
 4    1  0.4090208E+000  0.2044977E+03  0.7546771E-02  0.1145999E+00
         21   -1    0    0  503  502  0.00000000000E+00  0.00000000000E+00  0.98531797793E+03  0.98531797793E+03  0.00000000000E+00 0.  1.
         21   -1    0    0  501  503 -0.00000000000E+00 -0.00000000000E+00 -0.74787930419E+02  0.74787930419E+02  0.00000000000E+00 0.  1.
          6    1    1    2  501    0 -0.34272451187E+02  0.10351669331E+03  0.10667871914E+03  0.23065050579E+03  0.17300000000E+03 0.  1.
         -6    1    1    2    0  502  0.34272451187E+02 -0.10351669331E+03  0.80385132838E+03  0.82945540256E+03  0.17300000000E+03 0.  1.
<mgrwt>
<rscale>  2 0.20449769E+03</rscale>
<asrwt>0</asrwt>
<pdfrwt beam="1">  1       21 0.15158737E+00 0.20449769E+03</pdfrwt>
<pdfrwt beam="2">  1       21 0.11505836E-01 0.20449769E+03</pdfrwt>
<totfact> 0.18242400E+04</totfact>
</mgrwt>
</event>
<event>
 4    1  0.4090208E+000  0.1880124E+03  0.7546771E-02  0.1160266E+00
         21   -1    0    0  503  502  0.00000000000E+00  0.00000000000E+00  0.13469273171E+03  0.13469273171E+03  0.00000000000E+00 0. -1.
         21   -1    0    0  501  503 -0.00000000000E+00 -0.00000000000E+00 -0.11483722859E+04  0.11483722859E+04  0.00000000000E+00 0. -1.
          6    1    1    2  501    0 -0.32238825710E+02  0.66184031008E+02 -0.10703187966E+04  0.10867064894E+04  0.17300000000E+03 0. -1.
         -6    1    1    2    0  502  0.32238825710E+02 -0.66184031008E+02  0.56639242337E+02  0.19635852825E+03  0.17300000000E+03 0. -1.
<mgrwt>
<rscale>  2 0.18801241E+03</rscale>
<asrwt>0</asrwt>
<pdfrwt beam="1">  1       21 0.20721958E-01 0.18801241E+03</pdfrwt>
<pdfrwt beam="2">  1       21 0.17667266E+00 0.18801241E+03</pdfrwt>
<totfact> 0.41598269E+03</totfact>
</mgrwt>
</event>
<event>
 4    1  0.4090208E+000  0.2124685E+03  0.7546771E-02  0.1139626E+00
         21   -1    0    0  501  502  0.00000000000E+00  0.00000000000E+00  0.28455128116E+03  0.28455128116E+03  0.00000000000E+00 0.  1.
         21   -1    0    0  502  503 -0.00000000000E+00 -0.00000000000E+00 -0.25300355342E+03  0.25300355342E+03  0.00000000000E+00 0. -1.
          6    1    1    2  501    0 -0.11189322608E+03 -0.51901650006E+02  0.17991528297E+03  0.27841046022E+03  0.17300000000E+03 0.  1.
         -6    1    1    2    0  503  0.11189322608E+03  0.51901650006E+02 -0.14836755522E+03  0.25914437435E+03  0.17300000000E+03 0. -1.
<mgrwt>
<rscale>  2 0.21246853E+03</rscale>
<asrwt>0</asrwt>
<pdfrwt beam="1">  1       21 0.43777120E-01 0.21246853E+03</pdfrwt>
<pdfrwt beam="2">  1       21 0.38923624E-01 0.21246853E+03</pdfrwt>
<totfact> 0.31572225E+04</totfact>
</mgrwt>
</event>
<event>
 4    1  0.4090208E+000  0.2537081E+03  0.7546771E-02  0.1110984E+00
         21   -1    0    0  503  502  0.00000000000E+00  0.00000000000E+00  0.60573894868E+03  0.60573894868E+03  0.00000000000E+00 0.  1.
         21   -1    0    0  501  503 -0.00000000000E+00 -0.00000000000E+00 -0.10844923222E+03  0.10844923222E+03  0.00000000000E+00 0.  1.
          6    1    1    2  501    0 -0.12515890624E+03  0.13701844998E+03  0.19794698224E+03  0.32179312489E+03  0.17300000000E+03 0.  1.
         -6    1    1    2    0  502  0.12515890624E+03 -0.13701844998E+03  0.29934273422E+03  0.39239505601E+03  0.17300000000E+03 0.  1.
<mgrwt>
<rscale>  2 0.25370811E+03</rscale>
<asrwt>0</asrwt>
<pdfrwt beam="1">  1       21 0.93190606E-01 0.25370811E+03</pdfrwt>
<pdfrwt beam="2">  1       21 0.16684498E-01 0.25370811E+03</pdfrwt>
<totfact> 0.30324642E+04</totfact>
</mgrwt>
</event>
<event>
 4    1  0.4090208E+000  0.1803849E+03  0.7546771E-02  0.1167431E+00
         21   -1    0    0  501  502  0.00000000000E+00  0.00000000000E+00  0.21713533922E+02  0.21713533922E+02  0.00000000000E+00 0.  1.
         21   -1    0    0  502  503 -0.00000000000E+00 -0.00000000000E+00 -0.16592622515E+04  0.16592622515E+04  0.00000000000E+00 0.  1.
          6    1    1    2  501    0  0.44830244208E+02 -0.24494007093E+02 -0.55719394313E+03  0.58566526057E+03  0.17300000000E+03 0.  1.
         -6    1    1    2    0  503 -0.44830244208E+02  0.24494007093E+02 -0.10803547745E+04  0.10953105249E+04  0.17300000000E+03 0.  1.
<mgrwt>
<rscale>  2 0.18038489E+03</rscale>
<asrwt>0</asrwt>
<pdfrwt beam="1">  1       21 0.33405425E-02 0.18038489E+03</pdfrwt>
<pdfrwt beam="2">  1       21 0.25527121E+00 0.18038489E+03</pdfrwt>
<totfact> 0.33122838E+04</totfact>
</mgrwt>
</event>
<event>
 4    1  0.4090208E+000  0.1771284E+03  0.7546771E-02  0.1170611E+00
         21   -1    0    0  501  502  0.00000000000E+00  0.00000000000E+00  0.45412700002E+02  0.45412700002E+02  0.00000000000E+00 0.  1.
         21   -1    0    0  502  503 -0.00000000000E+00 -0.00000000000E+00 -0.13622988059E+04  0.13622988059E+04  0.00000000000E+00 0.  1.
          6    1    1    2  501    0  0.37863125829E+02  0.34432391968E+01 -0.16430757541E+03  0.24160184505E+03  0.17300000000E+03 0.  1.
         -6    1    1    2    0  503 -0.37863125829E+02 -0.34432391968E+01 -0.11525785305E+04  0.11661096609E+04  0.17300000000E+03 0.  1.
<mgrwt>
<rscale>  2 0.17712841E+03</rscale>
<asrwt>0</asrwt>
<pdfrwt beam="1">  1       21 0.69865683E-02 0.17712841E+03</pdfrwt>
<pdfrwt beam="2">  1       21 0.20958446E+00 0.17712841E+03</pdfrwt>
<totfact> 0.17942074E+04</totfact>
</mgrwt>
</event>
<event>
 4    1  0.4090208E+000  0.2929701E+03  0.7546771E-02  0.1088809E+00
         21   -1    0    0  501  502  0.00000000000E+00  0.00000000000E+00  0.31492543087E+03  0.31492543087E+03  0.00000000000E+00 0.  1.
         21   -1    0    0  502  503 -0.00000000000E+00 -0.00000000000E+00 -0.33121625855E+03  0.33121625855E+03  0.00000000000E+00 0. -1.
          6    1    1    2  501    0  0.39274907941E+02 -0.23315224957E+03  0.12782769285E+03  0.31964262690E+03  0.17300000000E+03 0. -1.
         -6    1    1    2    0  503 -0.39274907941E+02  0.23315224957E+03 -0.14411852053E+03  0.32649906253E+03  0.17300000000E+03 0.  1.
<mgrwt>
<rscale>  2 0.29297012E+03</rscale>
<asrwt>0</asrwt>
<pdfrwt beam="1">  1       21 0.48450066E-01 0.29297012E+03</pdfrwt>
<pdfrwt beam="2">  1       21 0.50956347E-01 0.29297012E+03</pdfrwt>
<totfact> 0.14123069E+04</totfact>
</mgrwt>
</event>
<event>
 4    1  0.4090208E+000  0.2324858E+03  0.7546771E-02  0.1124902E+00
         21   -1    0    0  503  502  0.00000000000E+00  0.00000000000E+00  0.17824050494E+03  0.17824050494E+03  0.00000000000E+00 0.  1.
         21   -1    0    0  501  503 -0.00000000000E+00 -0.00000000000E+00 -0.33017773144E+03  0.33017773144E+03  0.00000000000E+00 0.  1.
          6    1    1    2  501    0  0.13525857074E+03 -0.76326683483E+02 -0.14857888586E+03  0.27590818924E+03  0.17300000000E+03 0.  1.
         -6    1    1    2    0  502 -0.13525857074E+03  0.76326683483E+02 -0.33583406411E+01  0.23251004714E+03  0.17300000000E+03 0.  1.
<mgrwt>
<rscale>  2 0.23248579E+03</rscale>
<asrwt>0</asrwt>
<pdfrwt beam="1">  1       21 0.27421617E-01 0.23248579E+03</pdfrwt>
<pdfrwt beam="2">  1       21 0.50796573E-01 0.23248579E+03</pdfrwt>
<totfact> 0.45894463E+04</totfact>
</mgrwt>
</event>
<event>
 4    1  0.4090208E+000  0.2038650E+03  0.7546771E-02  0.1146518E+00
         21   -1    0    0  503  502  0.00000000000E+00  0.00000000000E+00  0.17107889957E+03  0.17107889957E+03  0.00000000000E+00 0. -1.
         21   -1    0    0  501  503 -0.00000000000E+00 -0.00000000000E+00 -0.27863579386E+03  0.27863579386E+03  0.00000000000E+00 0. -1.
          6    1    1    2  501    0  0.22517889586E+02  0.10547465074E+03 -0.13426641251E+03  0.24410740839E+03  0.17300000000E+03 0. -1.
         -6    1    1    2    0  502 -0.22517889586E+02 -0.10547465074E+03  0.26709518223E+02  0.20560728505E+03  0.17300000000E+03 0. -1.
<mgrwt>
<rscale>  2 0.20386505E+03</rscale>
<asrwt>0</asrwt>
<pdfrwt beam="1">  1       21 0.26319831E-01 0.20386505E+03</pdfrwt>
<pdfrwt beam="2">  1       21 0.42867045E-01 0.20386505E+03</pdfrwt>
<totfact> 0.71483260E+04</totfact>
</mgrwt>
</event>
<event>
 4    1  0.4090208E+000  0.1831212E+03  0.7546771E-02  0.1164816E+00
         21   -1    0    0  501  502  0.00000000000E+00  0.00000000000E+00  0.84221159817E+03  0.84221159817E+03  0.00000000000E+00 0.  1.
         21   -1    0    0  502  503 -0.00000000000E+00 -0.00000000000E+00 -0.82245210918E+02  0.82245210918E+02  0.00000000000E+00 0.  1.
          6    1    1    2  501    0  0.55347580958E+02 -0.23259479068E+02  0.71198056274E+03  0.73515282752E+03  0.17300000000E+03 0.  1.
         -6    1    1    2    0  503 -0.55347580958E+02  0.23259479068E+02  0.47985824510E+02  0.18930398157E+03  0.17300000000E+03 0.  1.
<mgrwt>
<rscale>  2 0.18312116E+03</rscale>
<asrwt>0</asrwt>
<pdfrwt beam="1">  1       21 0.12957101E+00 0.18312116E+03</pdfrwt>
<pdfrwt beam="2">  1       21 0.12653110E-01 0.18312116E+03</pdfrwt>
<totfact> 0.23398926E+04</totfact>
</mgrwt>
</event>
<event>
 4    1  0.4090208E+000  0.1921630E+03  0.7546771E-02  0.1156525E+00
         21   -1    0    0  503  502  0.00000000000E+00  0.00000000000E+00  0.33884336121E+03  0.33884336121E+03  0.00000000000E+00 0.  1.
         21   -1    0    0  501  503 -0.00000000000E+00 -0.00000000000E+00 -0.32084996113E+03  0.32084996113E+03  0.00000000000E+00 0.  1.
          6    1    1    2  501    0 -0.83634887419E+02  0.16858226133E+01 -0.25904190084E+03  0.32253580078E+03  0.17300000000E+03 0.  1.
         -6    1    1    2    0  502  0.83634887419E+02 -0.16858226133E+01  0.27703530092E+03  0.33715752156E+03  0.17300000000E+03 0.  1.
<mgrwt>
<rscale>  2 0.19216305E+03</rscale>
<asrwt>0</asrwt>
<pdfrwt beam="1">  1       21 0.52129748E-01 0.19216305E+03</pdfrwt>
<pdfrwt beam="2">  1       21 0.49361533E-01 0.19216305E+03</pdfrwt>
<totfact> 0.13672342E+04</totfact>
</mgrwt>
</event>
<event>
 4    1  0.4090208E+000  0.1913031E+03  0.7546771E-02  0.1157291E+00
         21   -1    0    0  503  502  0.00000000000E+00  0.00000000000E+00  0.99477281505E+02  0.99477281505E+02  0.00000000000E+00 0.  1.
         21   -1    0    0  501  503 -0.00000000000E+00 -0.00000000000E+00 -0.36829546782E+03  0.36829546782E+03  0.00000000000E+00 0.  1.
          6    1    1    2  501    0 -0.35030172482E+02 -0.73761642938E+02 -0.12666754307E+03  0.22943748478E+03  0.17300000000E+03 0. -1.
         -6    1    1    2    0  502  0.35030172482E+02  0.73761642938E+02 -0.14215064324E+03  0.23833526455E+03  0.17300000000E+03 0. -1.
<mgrwt>
<rscale>  2 0.19130314E+03</rscale>
<asrwt>0</asrwt>
<pdfrwt beam="1">  1       21 0.15304197E-01 0.19130314E+03</pdfrwt>
<pdfrwt beam="2">  1       21 0.56660842E-01 0.19130314E+03</pdfrwt>
<totfact> 0.11081162E+05</totfact>
</mgrwt>
</event>
<event>
 4    1  0.4090208E+000  0.1820733E+03  0.7546771E-02  0.1165811E+00
         21   -1    0    0  501  502  0.00000000000E+00  0.00000000000E+00  0.10093628199E+03  0.10093628199E+03  0.00000000000E+00 0.  1.
         21   -1    0    0  502  503 -0.00000000000E+00 -0.00000000000E+00 -0.34114868285E+03  0.34114868285E+03  0.00000000000E+00 0. -1.
          6    1    1    2  501    0  0.42494106965E+02  0.37628907368E+02 -0.16278325137E+03  0.24423159239E+03  0.17300000000E+03 0. -1.
         -6    1    1    2    0  503 -0.42494106965E+02 -0.37628907368E+02 -0.77429149489E+02  0.19785337244E+03  0.17300000000E+03 0.  1.
<mgrwt>
<rscale>  2 0.18207329E+03</rscale>
<asrwt>0</asrwt>
<pdfrwt beam="1">  1       21 0.15528659E-01 0.18207329E+03</pdfrwt>
<pdfrwt beam="2">  1       21 0.52484412E-01 0.18207329E+03</pdfrwt>
<totfact> 0.12725223E+05</totfact>
</mgrwt>
</event>
<event>
 4    1  0.4090208E+000  0.2066681E+03  0.7546771E-02  0.1144232E+00
         21   -1    0    0  503  502  0.00000000000E+00  0.00000000000E+00  0.15896343550E+03  0.15896343550E+03  0.00000000000E+00 0. -1.
         21   -1    0    0  501  503 -0.00000000000E+00 -0.00000000000E+00 -0.28213581545E+03  0.28213581545E+03  0.00000000000E+00 0.  1.
          6    1    1    2  501    0 -0.78263952512E+02  0.81593191068E+02 -0.10973550680E+03  0.23399482162E+03  0.17300000000E+03 0. -1.
         -6    1    1    2    0  502  0.78263952512E+02 -0.81593191068E+02 -0.13436873157E+02  0.20710442934E+03  0.17300000000E+03 0.  1.
<mgrwt>
<rscale>  2 0.20666808E+03</rscale>
<asrwt>0</asrwt>
<pdfrwt beam="1">  1       21 0.24455913E-01 0.20666808E+03</pdfrwt>
<pdfrwt beam="2">  1       21 0.43405510E-01 0.20666808E+03</pdfrwt>
<totfact> 0.80108924E+04</totfact>
</mgrwt>
</event>
<event>
 4    1  0.4090208E+000  0.1996972E+03  0.7546771E-02  0.1149995E+00
         21   -1    0    0  501  502  0.00000000000E+00  0.00000000000E+00  0.40744111424E+02  0.40744111424E+02  0.00000000000E+00 0. -1.
         21   -1    0    0  502  503 -0.00000000000E+00 -0.00000000000E+00 -0.13880212608E+04  0.13880212608E+04  0.00000000000E+00 0. -1.
          6    1    1    2  501    0 -0.11012519069E+02  0.99139878780E+02 -0.10615472329E+04  0.10801673569E+04  0.17300000000E+03 0. -1.
         -6    1    1    2    0  503  0.11012519069E+02 -0.99139878780E+02 -0.28572991641E+03  0.34859801531E+03  0.17300000000E+03 0. -1.
<mgrwt>
<rscale>  2 0.19969725E+03</rscale>
<asrwt>0</asrwt>
<pdfrwt beam="1">  1       21 0.62683241E-02 0.19969725E+03</pdfrwt>
<pdfrwt beam="2">  1       21 0.21354176E+00 0.19969725E+03</pdfrwt>
<totfact> 0.20062151E+04</totfact>
</mgrwt>
</event>
<event>
 4    1  0.4090208E+000  0.2038541E+03  0.7546771E-02  0.1146527E+00
         21   -1    0    0  501  502  0.00000000000E+00  0.00000000000E+00  0.16886666193E+03  0.16886666193E+03  0.00000000000E+00 0.  1.
         21   -1    0    0  502  503 -0.00000000000E+00 -0.00000000000E+00 -0.27024292992E+03  0.27024292992E+03  0.00000000000E+00 0. -1.
          6    1    1    2  501    0  0.74656372207E+02 -0.77806886875E+02  0.14948446126E+02  0.20440142269E+03  0.17300000000E+03 0.  1.
         -6    1    1    2    0  503 -0.74656372207E+02  0.77806886875E+02 -0.11632471411E+03  0.23470816916E+03  0.17300000000E+03 0. -1.
<mgrwt>
<rscale>  2 0.20385408E+03</rscale>
<asrwt>0</asrwt>
<pdfrwt beam="1">  1       21 0.25979487E-01 0.20385408E+03</pdfrwt>
<pdfrwt beam="2">  1       21 0.41575835E-01 0.20385408E+03</pdfrwt>
<totfact> 0.78007728E+04</totfact>
</mgrwt>
</event>
<event>
 4    1  0.4090208E+000  0.2308926E+03  0.7546771E-02  0.1126013E+00
         21   -1    0    0  501  502  0.00000000000E+00  0.00000000000E+00  0.82639531549E+02  0.82639531549E+02  0.00000000000E+00 0. -1.
         21   -1    0    0  502  503 -0.00000000000E+00 -0.00000000000E+00 -0.64710871208E+03  0.64710871208E+03  0.00000000000E+00 0. -1.
          6    1    1    2  501    0 -0.15138782339E+01  0.15290555290E+03 -0.30252435072E+03  0.38056849937E+03  0.17300000000E+03 0. -1.
         -6    1    1    2    0  503  0.15138782339E+01 -0.15290555290E+03 -0.26194482981E+03  0.34917974426E+03  0.17300000000E+03 0. -1.
<mgrwt>
<rscale>  2 0.23089262E+03</rscale>
<asrwt>0</asrwt>
<pdfrwt beam="1">  1       21 0.12713774E-01 0.23089262E+03</pdfrwt>
<pdfrwt beam="2">  1       21 0.99555188E-01 0.23089262E+03</pdfrwt>
<totfact> 0.43058686E+04</totfact>
</mgrwt>
</event>
<event>
 4    1  0.4090208E+000  0.2106413E+03  0.7546771E-02  0.1141059E+00
         21   -1    0    0  503  502  0.00000000000E+00  0.00000000000E+00  0.16523613886E+03  0.16523613886E+03  0.00000000000E+00 0.  1.
         21   -1    0    0  501  503 -0.00000000000E+00 -0.00000000000E+00 -0.31095889271E+03  0.31095889271E+03  0.00000000000E+00 0. -1.
          6    1    1    2  501    0 -0.15075206879E+02 -0.11922030093E+03 -0.16081806313E+03  0.26501356842E+03  0.17300000000E+03 0. -1.
         -6    1    1    2    0  502  0.15075206879E+02  0.11922030093E+03  0.15095309286E+02  0.21118146315E+03  0.17300000000E+03 0.  1.
<mgrwt>
<rscale>  2 0.21064126E+03</rscale>
<asrwt>0</asrwt>
<pdfrwt beam="1">  1       21 0.25420945E-01 0.21064126E+03</pdfrwt>
<pdfrwt beam="2">  1       21 0.47839829E-01 0.21064126E+03</pdfrwt>
<totfact> 0.60772667E+04</totfact>
</mgrwt>
</event>
<event>
 4    1  0.4090208E+000  0.1756643E+03  0.7546771E-02  0.1172066E+00
         21   -1    0    0  503  502  0.00000000000E+00  0.00000000000E+00  0.51012932297E+03  0.51012932297E+03  0.00000000000E+00 0.  1.
         21   -1    0    0  501  503 -0.00000000000E+00 -0.00000000000E+00 -0.61538777193E+02  0.61538777193E+02  0.00000000000E+00 0.  1.
          6    1    1    2  501    0 -0.27620919942E+02 -0.12885489626E+02  0.26160211270E+03  0.31510889615E+03  0.17300000000E+03 0.  1.
         -6    1    1    2    0  502  0.27620919942E+02  0.12885489626E+02  0.18698843308E+03  0.25655920402E+03  0.17300000000E+03 0.  1.
<mgrwt>
<rscale>  2 0.17566431E+03</rscale>
<asrwt>0</asrwt>
<pdfrwt beam="1">  1       21 0.78481431E-01 0.17566431E+03</pdfrwt>
<pdfrwt beam="2">  1       21 0.94675045E-02 0.17566431E+03</pdfrwt>
<totfact> 0.12913402E+05</totfact>
</mgrwt>
</event>
<event>
 4    1  0.4090208E+000  0.1875404E+03  0.7546771E-02  0.1160699E+00
         21   -1    0    0  501  502  0.00000000000E+00  0.00000000000E+00  0.13943086473E+03  0.13943086473E+03  0.00000000000E+00 0. -1.
         21   -1    0    0  502  503 -0.00000000000E+00 -0.00000000000E+00 -0.28910523758E+03  0.28910523758E+03  0.00000000000E+00 0. -1.
          6    1    1    2  501    0  0.26508343458E+02  0.67377241052E+02  0.16662936925E+01  0.18754775770E+03  0.17300000000E+03 0. -1.
         -6    1    1    2    0  503 -0.26508343458E+02 -0.67377241052E+02 -0.15134066654E+03  0.24098834460E+03  0.17300000000E+03 0. -1.
<mgrwt>
<rscale>  2 0.18754036E+03</rscale>
<asrwt>0</asrwt>
<pdfrwt beam="1">  1       21 0.21450902E-01 0.18754036E+03</pdfrwt>
<pdfrwt beam="2">  1       21 0.44477729E-01 0.18754036E+03</pdfrwt>
<totfact> 0.98444831E+04</totfact>
</mgrwt>
</event>
<event>
 4    1  0.4090208E+000  0.2088662E+03  0.7546771E-02  0.1142467E+00
         21   -1    0    0  503  502  0.00000000000E+00  0.00000000000E+00  0.99204887886E+03  0.99204887886E+03  0.00000000000E+00 0.  1.
         21   -1    0    0  501  503 -0.00000000000E+00 -0.00000000000E+00 -0.12572370377E+03  0.12572370377E+03  0.00000000000E+00 0.  1.
          6    1    1    2  501    0 -0.11703029956E+03 -0.79342230287E-01 -0.17504649399E+02  0.20959844957E+03  0.17300000000E+03 0.  1.
         -6    1    1    2    0  502  0.11703029956E+03  0.79342230287E-01  0.88382982449E+03  0.90817413306E+03  0.17300000000E+03 0.  1.
<mgrwt>
<rscale>  2 0.20886622E+03</rscale>
<asrwt>0</asrwt>
<pdfrwt beam="1">  1       21 0.15262290E+00 0.20886622E+03</pdfrwt>
<pdfrwt beam="2">  1       21 0.19342109E-01 0.20886622E+03</pdfrwt>
<totfact> 0.69256328E+03</totfact>
</mgrwt>
</event>
<event>
 4    1  0.4090208E+000  0.1893334E+03  0.7546771E-02  0.1159064E+00
         21   -1    0    0  503  502  0.00000000000E+00  0.00000000000E+00  0.18189216194E+04  0.18189216194E+04  0.00000000000E+00 0. -1.
         21   -1    0    0  501  503 -0.00000000000E+00 -0.00000000000E+00 -0.40310984080E+02  0.40310984080E+02  0.00000000000E+00 0. -1.
          6    1    1    2  501    0  0.48037853170E+02  0.60087590161E+02  0.22470891940E+03  0.29383882025E+03  0.17300000000E+03 0. -1.
         -6    1    1    2    0  502 -0.48037853170E+02 -0.60087590161E+02  0.15539017159E+04  0.15653937832E+04  0.17300000000E+03 0. -1.
<mgrwt>
<rscale>  2 0.18933345E+03</rscale>
<asrwt>0</asrwt>
<pdfrwt beam="1">  1       21 0.27983403E+00 0.18933345E+03</pdfrwt>
<pdfrwt beam="2">  1       21 0.62016913E-02 0.18933345E+03</pdfrwt>
<totfact> 0.83389929E+03</totfact>
</mgrwt>
</event>
<event>
 4    1  0.4090208E+000  0.2277492E+03  0.7546771E-02  0.1128234E+00
         21   -1    0    0  503  502  0.00000000000E+00  0.00000000000E+00  0.11500054685E+04  0.11500054685E+04  0.00000000000E+00 0.  1.
         21   -1    0    0  501  503 -0.00000000000E+00 -0.00000000000E+00 -0.28476420562E+03  0.28476420562E+03  0.00000000000E+00 0. -1.
          6    1    1    2  501    0  0.57341307318E+02 -0.13657483899E+03 -0.22550311848E+03  0.32050174510E+03  0.17300000000E+03 0. -1.
         -6    1    1    2    0  502 -0.57341307318E+02  0.13657483899E+03  0.10907443813E+04  0.11142679290E+04  0.17300000000E+03 0.  1.
<mgrwt>
<rscale>  2 0.22774923E+03</rscale>
<asrwt>0</asrwt>
<pdfrwt beam="1">  1       21 0.17692392E+00 0.22774923E+03</pdfrwt>
<pdfrwt beam="2">  1       21 0.43809878E-01 0.22774923E+03</pdfrwt>
<totfact> 0.92223967E+02</totfact>
</mgrwt>
</event>
<event>
 4    1  0.4090208E+000  0.1824840E+03  0.7546771E-02  0.1165420E+00
         21   -1    0    0  503  502  0.00000000000E+00  0.00000000000E+00  0.10943489788E+04  0.10943489788E+04  0.00000000000E+00 0. -1.
         21   -1    0    0  501  503 -0.00000000000E+00 -0.00000000000E+00 -0.32644459568E+02  0.32644459568E+02  0.00000000000E+00 0. -1.
          6    1    1    2  501    0 -0.42004217973E+02 -0.40087965479E+02  0.38406854365E+03  0.42521646902E+03  0.17300000000E+03 0. -1.
         -6    1    1    2    0  502  0.42004217973E+02  0.40087965479E+02  0.67763597557E+03  0.70177696934E+03  0.17300000000E+03 0. -1.
<mgrwt>
<rscale>  2 0.18248397E+03</rscale>
<asrwt>0</asrwt>
<pdfrwt beam="1">  1       21 0.16836135E+00 0.18248397E+03</pdfrwt>
<pdfrwt beam="2">  1       21 0.50222254E-02 0.18248397E+03</pdfrwt>
<totfact> 0.58844469E+04</totfact>
</mgrwt>
</event>
<event>
 4    1  0.4090208E+000  0.2982843E+03  0.7546771E-02  0.1086101E+00
         21   -1    0    0  501  502  0.00000000000E+00  0.00000000000E+00  0.94699788724E+03  0.94699788724E+03  0.00000000000E+00 0. -1.
         21   -1    0    0  502  503 -0.00000000000E+00 -0.00000000000E+00 -0.15770935451E+03  0.15770935451E+03  0.00000000000E+00 0. -1.
          6    1    1    2  501    0  0.16159095123E+03 -0.18147424120E+03  0.74584008927E+03  0.80327515491E+03  0.17300000000E+03 0. -1.
         -6    1    1    2    0  503 -0.16159095123E+03  0.18147424120E+03  0.43448443462E+02  0.30143208684E+03  0.17300000000E+03 0. -1.
<mgrwt>
<rscale>  2 0.29828432E+03</rscale>
<asrwt>0</asrwt>
<pdfrwt beam="1">  1       21 0.14569198E+00 0.29828432E+03</pdfrwt>
<pdfrwt beam="2">  1       21 0.24262978E-01 0.29828432E+03</pdfrwt>
<totfact> 0.48129710E+03</totfact>
</mgrwt>
</event>
<event>
 4    1  0.4090208E+000  0.2534505E+03  0.7546771E-02  0.1111143E+00
         21   -1    0    0  501  502  0.00000000000E+00  0.00000000000E+00  0.46773258753E+03  0.46773258753E+03  0.00000000000E+00 0.  1.
         21   -1    0    0  502  503 -0.00000000000E+00 -0.00000000000E+00 -0.13733772334E+03  0.13733772334E+03  0.00000000000E+00 0. -1.
          6    1    1    2  501    0 -0.60616000814E+02  0.17502526408E+03  0.16571234617E+03  0.30281632105E+03  0.17300000000E+03 0. -1.
         -6    1    1    2    0  503  0.60616000814E+02 -0.17502526408E+03  0.16468251803E+03  0.30225398982E+03  0.17300000000E+03 0.  1.
<mgrwt>
<rscale>  2 0.25345047E+03</rscale>
<asrwt>0</asrwt>
<pdfrwt beam="1">  1       21 0.71958859E-01 0.25345047E+03</pdfrwt>
<pdfrwt beam="2">  1       21 0.21128881E-01 0.25345047E+03</pdfrwt>
<totfact> 0.35252216E+04</totfact>
</mgrwt>
</event>
<event>
 4    1  0.4090208E+000  0.2458424E+03  0.7546771E-02  0.1115961E+00
         21   -1    0    0  503  502  0.00000000000E+00  0.00000000000E+00  0.59059061204E+03  0.59059061204E+03  0.00000000000E+00 0. -1.
         21   -1    0    0  501  503 -0.00000000000E+00 -0.00000000000E+00 -0.11528077679E+03  0.11528077679E+03  0.00000000000E+00 0.  1.
          6    1    1    2  501    0  0.17271269541E+03  0.26072945138E+02  0.11938608615E+03  0.27329747746E+03  0.17300000000E+03 0.  1.
         -6    1    1    2    0  502 -0.17271269541E+03 -0.26072945138E+02  0.35592374910E+03  0.43257391136E+03  0.17300000000E+03 0. -1.
<mgrwt>
<rscale>  2 0.24584238E+03</rscale>
<asrwt>0</asrwt>
<pdfrwt beam="1">  1       21 0.90860092E-01 0.24584238E+03</pdfrwt>
<pdfrwt beam="2">  1       21 0.17735504E-01 0.24584238E+03</pdfrwt>
<totfact> 0.28838091E+04</totfact>
</mgrwt>
</event>
<event>
 4    1  0.4090208E+000  0.1789742E+03  0.7546771E-02  0.1168800E+00
         21   -1    0    0  501  502  0.00000000000E+00  0.00000000000E+00  0.10520601331E+04  0.10520601331E+04  0.00000000000E+00 0.  1.
         21   -1    0    0  502  503 -0.00000000000E+00 -0.00000000000E+00 -0.39490626359E+02  0.39490626359E+02  0.00000000000E+00 0.  1.
          6    1    1    2  501    0 -0.80621097547E+00  0.45848768062E+02  0.76746806991E+03  0.78806027551E+03  0.17300000000E+03 0.  1.
         -6    1    1    2    0  503  0.80621097547E+00 -0.45848768062E+02  0.24510143683E+03  0.30349048394E+03  0.17300000000E+03 0.  1.
<mgrwt>
<rscale>  2 0.17897419E+03</rscale>
<asrwt>0</asrwt>
<pdfrwt beam="1">  1       21 0.16185538E+00 0.17897419E+03</pdfrwt>
<pdfrwt beam="2">  1       21 0.60754818E-02 0.17897419E+03</pdfrwt>
<totfact> 0.47469324E+04</totfact>
</mgrwt>
</event>
<event>
 4    1  0.4090208E+000  0.1822639E+03  0.7546771E-02  0.1165630E+00
         21   -1    0    0  501  502  0.00000000000E+00  0.00000000000E+00  0.30127627272E+03  0.30127627272E+03  0.00000000000E+00 0.  1.
         21   -1    0    0  502  503 -0.00000000000E+00 -0.00000000000E+00 -0.16368221315E+03  0.16368221315E+03  0.00000000000E+00 0. -1.
          6    1    1    2  501    0  0.48921420782E+02  0.29963724124E+02  0.20160537777E+03  0.27178090168E+03  0.17300000000E+03 0.  1.
         -6    1    1    2    0  503 -0.48921420782E+02 -0.29963724124E+02 -0.64011318202E+02  0.19317758419E+03  0.17300000000E+03 0. -1.
<mgrwt>
<rscale>  2 0.18226390E+03</rscale>
<asrwt>0</asrwt>
<pdfrwt beam="1">  1       21 0.46350196E-01 0.18226390E+03</pdfrwt>
<pdfrwt beam="2">  1       21 0.25181879E-01 0.18226390E+03</pdfrwt>
<totfact> 0.66908220E+04</totfact>
</mgrwt>
</event>
<event>
 4    1  0.4090208E+000  0.3463645E+03  0.7546771E-02  0.1064117E+00
         21   -1    0    0  501  502  0.00000000000E+00  0.00000000000E+00  0.13037169902E+04  0.13037169902E+04  0.00000000000E+00 0. -1.
         21   -1    0    0  502  503 -0.00000000000E+00 -0.00000000000E+00 -0.10591338048E+03  0.10591338048E+03  0.00000000000E+00 0.  1.
          6    1    1    2  501    0 -0.29215756457E+03 -0.68434780879E+02  0.85417188455E+03  0.92172553948E+03  0.17300000000E+03 0.  1.
         -6    1    1    2    0  503  0.29215756457E+03  0.68434780879E+02  0.34363172517E+03  0.48790483121E+03  0.17300000000E+03 0.  1.
<mgrwt>
<rscale>  2 0.34636449E+03</rscale>
<asrwt>0</asrwt>
<pdfrwt beam="1">  1       21 0.20057183E+00 0.34636449E+03</pdfrwt>
<pdfrwt beam="2">  1       21 0.16294367E-01 0.34636449E+03</pdfrwt>
<totfact> 0.40279606E+03</totfact>
</mgrwt>
</event>
<event>
 4    1  0.4090208E+000  0.2026195E+03  0.7546771E-02  0.1147548E+00
         21   -1    0    0  503  502  0.00000000000E+00  0.00000000000E+00  0.24635495717E+03  0.24635495717E+03  0.00000000000E+00 0. -1.
         21   -1    0    0  501  503 -0.00000000000E+00 -0.00000000000E+00 -0.34272595203E+03  0.34272595203E+03  0.00000000000E+00 0. -1.
          6    1    1    2  501    0  0.22008966798E+02  0.10315643898E+03 -0.25930265138E+03  0.32907827418E+03  0.17300000000E+03 0. -1.
         -6    1    1    2    0  502 -0.22008966798E+02 -0.10315643898E+03  0.16293165652E+03  0.26000263502E+03  0.17300000000E+03 0. -1.
<mgrwt>
<rscale>  2 0.20261946E+03</rscale>
<asrwt>0</asrwt>
<pdfrwt beam="1">  1       21 0.37900763E-01 0.20261946E+03</pdfrwt>
<pdfrwt beam="2">  1       21 0.52727069E-01 0.20261946E+03</pdfrwt>
<totfact> 0.22757180E+04</totfact>
</mgrwt>
</event>
<event>
 4    1  0.4090208E+000  0.1911400E+03  0.7546771E-02  0.1157437E+00
         21   -1    0    0  501  502  0.00000000000E+00  0.00000000000E+00  0.27854333113E+04  0.27854333113E+04  0.00000000000E+00 0.  1.
         21   -1    0    0  502  503 -0.00000000000E+00 -0.00000000000E+00 -0.13923102528E+02  0.13923102528E+02  0.00000000000E+00 0.  1.
          6    1    1    2  501    0  0.34819489529E+02 -0.73437756892E+02  0.17226941546E+04  0.17332656032E+04  0.17300000000E+03 0.  1.
         -6    1    1    2    0  503 -0.34819489529E+02  0.73437756892E+02  0.10488160542E+04  0.10660908106E+04  0.17300000000E+03 0.  1.
<mgrwt>
<rscale>  2 0.19114000E+03</rscale>
<asrwt>0</asrwt>
<pdfrwt beam="1">  1       21 0.42852776E+00 0.19114000E+03</pdfrwt>
<pdfrwt beam="2">  1       21 0.21420180E-02 0.19114000E+03</pdfrwt>
<totfact> 0.63392906E+03</totfact>
</mgrwt>
</event>
<event>
 4    1  0.4090208E+000  0.1778360E+03  0.7546771E-02  0.1169914E+00
         21   -1    0    0  501  502  0.00000000000E+00  0.00000000000E+00  0.53737531593E+03  0.53737531593E+03  0.00000000000E+00 0.  1.
         21   -1    0    0  502  503 -0.00000000000E+00 -0.00000000000E+00 -0.60442694909E+02  0.60442694909E+02  0.00000000000E+00 0. -1.
          6    1    1    2  501    0 -0.28119193679E+02 -0.30098803175E+02  0.18997580107E+03  0.26022381136E+03  0.17300000000E+03 0.  1.
         -6    1    1    2    0  503  0.28119193679E+02  0.30098803175E+02  0.28695681995E+03  0.33759419948E+03  0.17300000000E+03 0.  1.
<mgrwt>
<rscale>  2 0.17783596E+03</rscale>
<asrwt>0</asrwt>
<pdfrwt beam="1">  1       21 0.82673122E-01 0.17783596E+03</pdfrwt>
<pdfrwt beam="2">  1       21 0.92988765E-02 0.17783596E+03</pdfrwt>
<totfact> 0.11840422E+05</totfact>
</mgrwt>
</event>
<event>
 4    1  0.4090208E+000  0.1738762E+03  0.7546771E-02  0.1173865E+00
         21   -1    0    0  501  502  0.00000000000E+00  0.00000000000E+00  0.41480124012E+02  0.41480124012E+02  0.00000000000E+00 0. -1.
         21   -1    0    0  502  503 -0.00000000000E+00 -0.00000000000E+00 -0.77518014598E+03  0.77518014598E+03  0.00000000000E+00 0. -1.
          6    1    1    2  501    0 -0.45655192677E+01  0.16824933070E+02 -0.26702788620E+03  0.31864841808E+03  0.17300000000E+03 0. -1.
         -6    1    1    2    0  503  0.45655192677E+01 -0.16824933070E+02 -0.46667213576E+03  0.49801185190E+03  0.17300000000E+03 0. -1.
<mgrwt>
<rscale>  2 0.17387617E+03</rscale>
<asrwt>0</asrwt>
<pdfrwt beam="1">  1       21 0.63815574E-02 0.17387617E+03</pdfrwt>
<pdfrwt beam="2">  1       21 0.11925849E+00 0.17387617E+03</pdfrwt>
<totfact> 0.95926308E+04</totfact>
</mgrwt>
</event>
<event>
 4    1  0.4090208E+000  0.1827697E+03  0.7546771E-02  0.1165149E+00
         21   -1    0    0  503  502  0.00000000000E+00  0.00000000000E+00  0.12670330480E+03  0.12670330480E+03  0.00000000000E+00 0. -1.
         21   -1    0    0  501  503 -0.00000000000E+00 -0.00000000000E+00 -0.12773593533E+04  0.12773593533E+04  0.00000000000E+00 0. -1.
          6    1    1    2  501    0  0.37169490504E+02  0.45762410118E+02 -0.12007276486E+04  0.12145582140E+04  0.17300000000E+03 0. -1.
         -6    1    1    2    0  502 -0.37169490504E+02 -0.45762410118E+02  0.50071600048E+02  0.18950444410E+03  0.17300000000E+03 0. -1.
<mgrwt>
<rscale>  2 0.18276972E+03</rscale>
<asrwt>0</asrwt>
<pdfrwt beam="1">  1       21 0.19492816E-01 0.18276972E+03</pdfrwt>
<pdfrwt beam="2">  1       21 0.19651682E+00 0.18276972E+03</pdfrwt>
<totfact> 0.34576120E+03</totfact>
</mgrwt>
</event>
<event>
 4    1  0.4090208E+000  0.1848868E+03  0.7546771E-02  0.1163156E+00
         21   -1    0    0  501  502  0.00000000000E+00  0.00000000000E+00  0.68918008277E+03  0.68918008277E+03  0.00000000000E+00 0.  1.
         21   -1    0    0  502  503 -0.00000000000E+00 -0.00000000000E+00 -0.78073629887E+02  0.78073629887E+02  0.00000000000E+00 0.  1.
          6    1    1    2  501    0 -0.47450859706E+02  0.44749945510E+02  0.53722885064E+03  0.56815313048E+03  0.17300000000E+03 0.  1.
         -6    1    1    2    0  503  0.47450859706E+02 -0.44749945510E+02  0.73877602237E+02  0.19910058217E+03  0.17300000000E+03 0.  1.
<mgrwt>
<rscale>  2 0.18488683E+03</rscale>
<asrwt>0</asrwt>
<pdfrwt beam="1">  1       21 0.10602770E+00 0.18488683E+03</pdfrwt>
<pdfrwt beam="2">  1       21 0.12011328E-01 0.18488683E+03</pdfrwt>
<totfact> 0.41981819E+04</totfact>
</mgrwt>
</event>
<event>
 4    1  0.4090208E+000  0.2243400E+03  0.7546771E-02  0.1130688E+00
         21   -1    0    0  501  502  0.00000000000E+00  0.00000000000E+00  0.42007640514E+03  0.42007640514E+03  0.00000000000E+00 0.  1.
         21   -1    0    0  502  503 -0.00000000000E+00 -0.00000000000E+00 -0.12965687564E+03  0.12965687564E+03  0.00000000000E+00 0. -1.
          6    1    1    2  501    0 -0.11294719990E+03 -0.87420659385E+02  0.22096652250E+03  0.31488830674E+03  0.17300000000E+03 0.  1.
         -6    1    1    2    0  503  0.11294719990E+03  0.87420659385E+02  0.69453006997E+02  0.23484497404E+03  0.17300000000E+03 0. -1.
<mgrwt>
<rscale>  2 0.22434001E+03</rscale>
<asrwt>0</asrwt>
<pdfrwt beam="1">  1       21 0.64627138E-01 0.22434001E+03</pdfrwt>
<pdfrwt beam="2">  1       21 0.19947212E-01 0.22434001E+03</pdfrwt>
<totfact> 0.50432977E+04</totfact>
</mgrwt>
</event>
<event>
 4    1  0.4090208E+000  0.2547320E+03  0.7546771E-02  0.1110350E+00
         21   -1    0    0  501  502  0.00000000000E+00  0.00000000000E+00  0.15546437227E+03  0.15546437227E+03  0.00000000000E+00 0.  1.
         21   -1    0    0  502  503 -0.00000000000E+00 -0.00000000000E+00 -0.12294613778E+04  0.12294613778E+04  0.00000000000E+00 0. -1.
          6    1    1    2  501    0  0.17840130034E+03 -0.55967723923E+02  0.25780178804E+02  0.25603325507E+03  0.17300000000E+03 0.  1.
         -6    1    1    2    0  503 -0.17840130034E+03  0.55967723923E+02 -0.10997771843E+04  0.11288924950E+04  0.17300000000E+03 0. -1.
<mgrwt>
<rscale>  2 0.25473204E+03</rscale>
<asrwt>0</asrwt>
<pdfrwt beam="1">  1       21 0.23917595E-01 0.25473204E+03</pdfrwt>
<pdfrwt beam="2">  1       21 0.18914791E+00 0.25473204E+03</pdfrwt>
<totfact> 0.24658227E+03</totfact>
</mgrwt>
</event>
<event>
 4    1  0.4090208E+000  0.2130042E+03  0.7546771E-02  0.1139209E+00
         21   -1    0    0  503  502  0.00000000000E+00  0.00000000000E+00  0.86923153745E+02  0.86923153745E+02  0.00000000000E+00 0. -1.
         21   -1    0    0  501  503 -0.00000000000E+00 -0.00000000000E+00 -0.68770653077E+03  0.68770653077E+03  0.00000000000E+00 0. -1.
          6    1    1    2  501    0  0.46974921389E+02 -0.11504401489E+03 -0.49053426480E+03  0.53478466091E+03  0.17300000000E+03 0. -1.
         -6    1    1    2    0  502 -0.46974921389E+02  0.11504401489E+03 -0.11024911222E+03  0.23984502360E+03  0.17300000000E+03 0. -1.
<mgrwt>
<rscale>  2 0.21300415E+03</rscale>
<asrwt>0</asrwt>
<pdfrwt beam="1">  1       21 0.13372794E-01 0.21300415E+03</pdfrwt>
<pdfrwt beam="2">  1       21 0.10580100E+00 0.21300415E+03</pdfrwt>
<totfact> 0.34265854E+04</totfact>
</mgrwt>
</event>
<event>
 4    1  0.4090208E+000  0.1945676E+03  0.7546771E-02  0.1154405E+00
         21   -1    0    0  501  502  0.00000000000E+00  0.00000000000E+00  0.80067067946E+02  0.80067067946E+02  0.00000000000E+00 0. -1.
         21   -1    0    0  502  503 -0.00000000000E+00 -0.00000000000E+00 -0.56089526169E+03  0.56089526169E+03  0.00000000000E+00 0.  1.
          6    1    1    2  501    0  0.54270006490E+02 -0.70585496269E+02 -0.11341163006E+03  0.22520822303E+03  0.17300000000E+03 0. -1.
         -6    1    1    2    0  503 -0.54270006490E+02  0.70585496269E+02 -0.36741656368E+03  0.41575410660E+03  0.17300000000E+03 0.  1.
<mgrwt>
<rscale>  2 0.19456759E+03</rscale>
<asrwt>0</asrwt>
<pdfrwt beam="1">  1       21 0.12318010E-01 0.19456759E+03</pdfrwt>
<pdfrwt beam="2">  1       21 0.86291581E-01 0.19456759E+03</pdfrwt>
<totfact> 0.64764036E+04</totfact>
</mgrwt>
</event>
<event>
 4    1  0.4090208E+000  0.1943719E+03  0.7546771E-02  0.1154576E+00
         21   -1    0    0  503  502  0.00000000000E+00  0.00000000000E+00  0.39055407242E+03  0.39055407242E+03  0.00000000000E+00 0. -1.
         21   -1    0    0  501  503 -0.00000000000E+00 -0.00000000000E+00 -0.96904016348E+02  0.96904016348E+02  0.00000000000E+00 0. -1.
          6    1    1    2  501    0 -0.81914041262E+02  0.33786664409E+02  0.13666161250E+03  0.23760649229E+03  0.17300000000E+03 0. -1.
         -6    1    1    2    0  502  0.81914041262E+02 -0.33786664409E+02  0.15698844357E+03  0.24985159648E+03  0.17300000000E+03 0. -1.
<mgrwt>
<rscale>  2 0.19437193E+03</rscale>
<asrwt>0</asrwt>
<pdfrwt beam="1">  1       21 0.60085241E-01 0.19437193E+03</pdfrwt>
<pdfrwt beam="2">  1       21 0.14908310E-01 0.19437193E+03</pdfrwt>
<totfact> 0.10241086E+05</totfact>
</mgrwt>
</event>
<event>
 4    1  0.4090208E+000  0.2233837E+03  0.7546771E-02  0.1131385E+00
         21   -1    0    0  501  502  0.00000000000E+00  0.00000000000E+00  0.17018630166E+03  0.17018630166E+03  0.00000000000E+00 0. -1.
         21   -1    0    0  502  503 -0.00000000000E+00 -0.00000000000E+00 -0.29401164382E+03  0.29401164382E+03  0.00000000000E+00 0. -1.
          6    1    1    2  501    0  0.60927436547E+01  0.14118844898E+03 -0.74033235193E+02  0.23533214733E+03  0.17300000000E+03 0.  1.
         -6    1    1    2    0  503 -0.60927436547E+01 -0.14118844898E+03 -0.49792106963E+02  0.22886579816E+03  0.17300000000E+03 0.  1.
<mgrwt>
<rscale>  2 0.22338375E+03</rscale>
<asrwt>0</asrwt>
<pdfrwt beam="1">  1       21 0.26182508E-01 0.22338375E+03</pdfrwt>
<pdfrwt beam="2">  1       21 0.45232560E-01 0.22338375E+03</pdfrwt>
<totfact> 0.64131600E+04</totfact>
</mgrwt>
</event>
<event>
 4    1  0.4090208E+000  0.1762986E+03  0.7546771E-02  0.1171434E+00
         21   -1    0    0  501  502  0.00000000000E+00  0.00000000000E+00  0.27066320179E+04  0.27066320179E+04  0.00000000000E+00 0. -1.
         21   -1    0    0  502  503 -0.00000000000E+00 -0.00000000000E+00 -0.11967234368E+02  0.11967234368E+02  0.00000000000E+00 0. -1.
          6    1    1    2  501    0 -0.28813011615E+02  0.17944811692E+02  0.10740015883E+04  0.10883752191E+04  0.17300000000E+03 0.  1.
         -6    1    1    2    0  503  0.28813011615E+02 -0.17944811692E+02  0.16206631952E+04  0.16302240332E+04  0.17300000000E+03 0.  1.
<mgrwt>
<rscale>  2 0.17629863E+03</rscale>
<asrwt>0</asrwt>
<pdfrwt beam="1">  1       21 0.41640444E+00 0.17629863E+03</pdfrwt>
<pdfrwt beam="2">  1       21 0.18411151E-02 0.17629863E+03</pdfrwt>
<totfact> 0.98969112E+03</totfact>
</mgrwt>
</event>
<event>
 4    1  0.4090208E+000  0.4709952E+03  0.7546771E-02  0.1021640E+00
         21   -1    0    0  501  502  0.00000000000E+00  0.00000000000E+00  0.16497909887E+04  0.16497909887E+04  0.00000000000E+00 0.  1.
         21   -1    0    0  502  503 -0.00000000000E+00 -0.00000000000E+00 -0.30665841435E+03  0.30665841435E+03  0.00000000000E+00 0. -1.
          6    1    1    2  501    0  0.18827634429E+03  0.39554959565E+03  0.14045958674E+04  0.14814607707E+04  0.17300000000E+03 0.  1.
         -6    1    1    2    0  503 -0.18827634429E+03 -0.39554959565E+03 -0.61463293063E+02  0.47498863232E+03  0.17300000000E+03 0. -1.
<mgrwt>
<rscale>  2 0.47099519E+03</rscale>
<asrwt>0</asrwt>
<pdfrwt beam="1">  1       21 0.25381399E+00 0.47099519E+03</pdfrwt>
<pdfrwt beam="2">  1       21 0.47178219E-01 0.47099519E+03</pdfrwt>
<totfact> 0.21371666E+02</totfact>
</mgrwt>
</event>
<event>
 4    1  0.4090208E+000  0.1887167E+03  0.7546771E-02  0.1159624E+00
         21   -1    0    0  503  502  0.00000000000E+00  0.00000000000E+00  0.99475719446E+03  0.99475719446E+03  0.00000000000E+00 0.  1.
         21   -1    0    0  501  503 -0.00000000000E+00 -0.00000000000E+00 -0.12980112069E+03  0.12980112069E+03  0.00000000000E+00 0. -1.
          6    1    1    2  501    0 -0.47935652776E+01 -0.75246352705E+02 -0.46014720688E+02  0.19424558266E+03  0.17300000000E+03 0. -1.
         -6    1    1    2    0  502  0.47935652776E+01  0.75246352705E+02  0.91097079446E+03  0.93031273248E+03  0.17300000000E+03 0.  1.
<mgrwt>
<rscale>  2 0.18871670E+03</rscale>
<asrwt>0</asrwt>
<pdfrwt beam="1">  1       21 0.15303956E+00 0.18871670E+03</pdfrwt>
<pdfrwt beam="2">  1       21 0.19969404E-01 0.18871670E+03</pdfrwt>
<totfact> 0.65836553E+03</totfact>
</mgrwt>
</event>
<event>
 4    1  0.4090208E+000  0.2060292E+03  0.7546771E-02  0.1144750E+00
         21   -1    0    0  503  502  0.00000000000E+00  0.00000000000E+00  0.98714927472E+03  0.98714927472E+03  0.00000000000E+00 0. -1.
         21   -1    0    0  501  503 -0.00000000000E+00 -0.00000000000E+00 -0.14503988299E+03  0.14503988299E+03  0.00000000000E+00 0. -1.
          6    1    1    2  501    0 -0.94212212686E+02  0.60357921319E+02 -0.53765252207E+02  0.21292891309E+03  0.17300000000E+03 0. -1.
         -6    1    1    2    0  502  0.94212212686E+02 -0.60357921319E+02  0.89587464394E+03  0.91926024462E+03  0.17300000000E+03 0. -1.
<mgrwt>
<rscale>  2 0.20602917E+03</rscale>
<asrwt>0</asrwt>
<pdfrwt beam="1">  1       21 0.15186912E+00 0.20602917E+03</pdfrwt>
<pdfrwt beam="2">  1       21 0.22313829E-01 0.20602917E+03</pdfrwt>
<totfact> 0.53773304E+03</totfact>
</mgrwt>
</event>
<event>
 4    1  0.4090208E+000  0.1930691E+03  0.7546771E-02  0.1155722E+00
         21   -1    0    0  503  502  0.00000000000E+00  0.00000000000E+00  0.21580378390E+03  0.21580378390E+03  0.00000000000E+00 0.  1.
         21   -1    0    0  501  503 -0.00000000000E+00 -0.00000000000E+00 -0.28094481922E+03  0.28094481922E+03  0.00000000000E+00 0.  1.
          6    1    1    2  501    0  0.49736537918E+02 -0.69806414504E+02 -0.18671951793E+03  0.26858860193E+03  0.17300000000E+03 0.  1.
         -6    1    1    2    0  502 -0.49736537918E+02  0.69806414504E+02  0.12157848261E+03  0.22816000119E+03  0.17300000000E+03 0.  1.
<mgrwt>
<rscale>  2 0.19306905E+03</rscale>
<asrwt>0</asrwt>
<pdfrwt beam="1">  1       21 0.33200582E-01 0.19306905E+03</pdfrwt>
<pdfrwt beam="2">  1       21 0.43222280E-01 0.19306905E+03</pdfrwt>
<totfact> 0.44951032E+04</totfact>
</mgrwt>
</event>
<event>
 4    1  0.4090208E+000  0.1751006E+03  0.7546771E-02  0.1172631E+00
         21   -1    0    0  503  502  0.00000000000E+00  0.00000000000E+00  0.81093379947E+02  0.81093379947E+02  0.00000000000E+00 0. -1.
         21   -1    0    0  501  503 -0.00000000000E+00 -0.00000000000E+00 -0.46129257966E+03  0.46129257966E+03  0.00000000000E+00 0. -1.
          6    1    1    2  501    0 -0.72172464661E+01 -0.26060388500E+02 -0.30527780429E+03  0.35193006448E+03  0.17300000000E+03 0. -1.
         -6    1    1    2    0  502  0.72172464661E+01  0.26060388500E+02 -0.74921395425E+02  0.19045589512E+03  0.17300000000E+03 0. -1.
<mgrwt>
<rscale>  2 0.17510064E+03</rscale>
<asrwt>0</asrwt>
<pdfrwt beam="1">  1       21 0.12475905E-01 0.17510064E+03</pdfrwt>
<pdfrwt beam="2">  1       21 0.70968089E-01 0.17510064E+03</pdfrwt>
<totfact> 0.99066962E+04</totfact>
</mgrwt>
</event>
<event>
 4    1  0.4090208E+000  0.1828718E+03  0.7546771E-02  0.1165052E+00
         21   -1    0    0  501  502  0.00000000000E+00  0.00000000000E+00  0.43229266595E+03  0.43229266595E+03  0.00000000000E+00 0. -1.
         21   -1    0    0  502  503 -0.00000000000E+00 -0.00000000000E+00 -0.77888140599E+02  0.77888140599E+02  0.00000000000E+00 0. -1.
          6    1    1    2  501    0 -0.85377654580E+01  0.58653273511E+02  0.15619396037E+03  0.24049668020E+03  0.17300000000E+03 0. -1.
         -6    1    1    2    0  503  0.85377654580E+01 -0.58653273511E+02  0.19821056498E+03  0.26968412635E+03  0.17300000000E+03 0. -1.
<mgrwt>
<rscale>  2 0.18287181E+03</rscale>
<asrwt>0</asrwt>
<pdfrwt beam="1">  1       21 0.66506563E-01 0.18287181E+03</pdfrwt>
<pdfrwt beam="2">  1       21 0.11982791E-01 0.18287181E+03</pdfrwt>
<totfact> 0.12240460E+05</totfact>
</mgrwt>
</event>
<event>
 4    1  0.4090208E+000  0.3376665E+03  0.7546771E-02  0.1067794E+00
         21   -1    0    0  503  502  0.00000000000E+00  0.00000000000E+00  0.52361580080E+03  0.52361580080E+03  0.00000000000E+00 0. -1.
         21   -1    0    0  501  503 -0.00000000000E+00 -0.00000000000E+00 -0.80968198150E+03  0.80968198150E+03  0.00000000000E+00 0.  1.
          6    1    1    2  501    0  0.19723655043E+03  0.21257327057E+03 -0.71303315825E+03  0.78894545879E+03  0.17300000000E+03 0.  1.
         -6    1    1    2    0  502 -0.19723655043E+03 -0.21257327057E+03  0.42696697755E+03  0.54435232351E+03  0.17300000000E+03 0. -1.
<mgrwt>
<rscale>  2 0.33766648E+03</rscale>
<asrwt>0</asrwt>
<pdfrwt beam="1">  1       21 0.80556278E-01 0.33766648E+03</pdfrwt>
<pdfrwt beam="2">  1       21 0.12456646E+00 0.33766648E+03</pdfrwt>
<totfact> 0.57863842E+02</totfact>
</mgrwt>
</event>
<event>
 4    1  0.4090208E+000  0.1834459E+03  0.7546771E-02  0.1164509E+00
         21   -1    0    0  501  502  0.00000000000E+00  0.00000000000E+00  0.11534664568E+04  0.11534664568E+04  0.00000000000E+00 0.  1.
         21   -1    0    0  502  503 -0.00000000000E+00 -0.00000000000E+00 -0.29729610288E+02  0.29729610288E+02  0.00000000000E+00 0.  1.
          6    1    1    2  501    0  0.27140747649E+02  0.54651266455E+02  0.48106551084E+03  0.51485571457E+03  0.17300000000E+03 0.  1.
         -6    1    1    2    0  503 -0.27140747649E+02 -0.54651266455E+02  0.64267133571E+03  0.66834035255E+03  0.17300000000E+03 0.  1.
<mgrwt>
<rscale>  2 0.18344585E+03</rscale>
<asrwt>0</asrwt>
<pdfrwt beam="1">  1       21 0.17745634E+00 0.18344585E+03</pdfrwt>
<pdfrwt beam="2">  1       21 0.45737871E-02 0.18344585E+03</pdfrwt>
<totfact> 0.59552980E+04</totfact>
</mgrwt>
</event>
<event>
 4    1  0.4090208E+000  0.2042712E+03  0.7546771E-02  0.1146185E+00
         21   -1    0    0  501  502  0.00000000000E+00  0.00000000000E+00  0.24964746317E+03  0.24964746317E+03  0.00000000000E+00 0.  1.
         21   -1    0    0  502  503 -0.00000000000E+00 -0.00000000000E+00 -0.29404359929E+03  0.29404359929E+03  0.00000000000E+00 0. -1.
          6    1    1    2  501    0  0.19827094608E+02 -0.10679231154E+03  0.15638856690E+03  0.25726269715E+03  0.17300000000E+03 0.  1.
         -6    1    1    2    0  503 -0.19827094608E+02  0.10679231154E+03 -0.20078470302E+03  0.28642836531E+03  0.17300000000E+03 0. -1.
<mgrwt>
<rscale>  2 0.20427117E+03</rscale>
<asrwt>0</asrwt>
<pdfrwt beam="1">  1       21 0.38407302E-01 0.20427117E+03</pdfrwt>
<pdfrwt beam="2">  1       21 0.45237477E-01 0.20427117E+03</pdfrwt>
<totfact> 0.30449981E+04</totfact>
</mgrwt>
</event>
<event>
 4    1  0.4090208E+000  0.3119307E+03  0.7546771E-02  0.1079424E+00
         21   -1    0    0  503  502  0.00000000000E+00  0.00000000000E+00  0.24623768495E+03  0.24623768495E+03  0.00000000000E+00 0. -1.
         21   -1    0    0  501  503 -0.00000000000E+00 -0.00000000000E+00 -0.63486476295E+03  0.63486476295E+03  0.00000000000E+00 0.  1.
          6    1    1    2  501    0  0.23499867150E+03  0.11021516738E+03 -0.46502299183E+03  0.55995280307E+03  0.17300000000E+03 0.  1.
         -6    1    1    2    0  502 -0.23499867150E+03 -0.11021516738E+03  0.76395913829E+02  0.32114964483E+03  0.17300000000E+03 0. -1.
<mgrwt>
<rscale>  2 0.31193070E+03</rscale>
<asrwt>0</asrwt>
<pdfrwt beam="1">  1       21 0.37882721E-01 0.31193070E+03</pdfrwt>
<pdfrwt beam="2">  1       21 0.97671500E-01 0.31193070E+03</pdfrwt>
<totfact> 0.54169633E+03</totfact>
</mgrwt>
</event>
<event>
 4    1  0.4090208E+000  0.1889157E+03  0.7546771E-02  0.1159443E+00
         21   -1    0    0  501  502  0.00000000000E+00  0.00000000000E+00  0.15333922946E+04  0.15333922946E+04  0.00000000000E+00 0.  1.
         21   -1    0    0  502  503 -0.00000000000E+00 -0.00000000000E+00 -0.12278587540E+03  0.12278587540E+03  0.00000000000E+00 0. -1.
          6    1    1    2  501    0  0.71989918937E+02  0.24032925167E+02  0.14507882750E+04  0.14630364824E+04  0.17300000000E+03 0.  1.
         -6    1    1    2    0  503 -0.71989918937E+02 -0.24032925167E+02 -0.40181855877E+02  0.19314168753E+03  0.17300000000E+03 0. -1.
<mgrwt>
<rscale>  2 0.18891567E+03</rscale>
<asrwt>0</asrwt>
<pdfrwt beam="1">  1       21 0.23590649E+00 0.18891567E+03</pdfrwt>
<pdfrwt beam="2">  1       21 0.18890136E-01 0.18891567E+03</pdfrwt>
<totfact> 0.20778299E+03</totfact>
</mgrwt>
</event>
<event>
 4    1  0.4090208E+000  0.1884853E+03  0.7546771E-02  0.1159835E+00
         21   -1    0    0  503  502  0.00000000000E+00  0.00000000000E+00  0.13158792386E+04  0.13158792386E+04  0.00000000000E+00 0. -1.
         21   -1    0    0  501  503 -0.00000000000E+00 -0.00000000000E+00 -0.79094055983E+02  0.79094055983E+02  0.00000000000E+00 0. -1.
          6    1    1    2  501    0  0.68716805209E+02  0.29592358828E+02  0.52329943212E+02  0.19561474887E+03  0.17300000000E+03 0. -1.
         -6    1    1    2    0  502 -0.68716805209E+02 -0.29592358828E+02  0.11844552394E+04  0.11993585457E+04  0.17300000000E+03 0. -1.
<mgrwt>
<rscale>  2 0.18848530E+03</rscale>
<asrwt>0</asrwt>
<pdfrwt beam="1">  1       21 0.20244294E+00 0.18848530E+03</pdfrwt>
<pdfrwt beam="2">  1       21 0.12168317E-01 0.18848530E+03</pdfrwt>
<totfact> 0.74410465E+03</totfact>
</mgrwt>
</event>
<event>
 4    1  0.4090208E+000  0.1946911E+03  0.7546771E-02  0.1154297E+00
         21   -1    0    0  501  502  0.00000000000E+00  0.00000000000E+00  0.23606727321E+03  0.23606727321E+03  0.00000000000E+00 0.  1.
         21   -1    0    0  502  503 -0.00000000000E+00 -0.00000000000E+00 -0.16282641769E+03  0.16282641769E+03  0.00000000000E+00 0.  1.
          6    1    1    2  501    0  0.79916439355E+02  0.39862007369E+02  0.60114687045E+02  0.20376062551E+03  0.17300000000E+03 0.  1.
         -6    1    1    2    0  503 -0.79916439355E+02 -0.39862007369E+02  0.13126168479E+02  0.19513306539E+03  0.17300000000E+03 0.  1.
<mgrwt>
<rscale>  2 0.19469108E+03</rscale>
<asrwt>0</asrwt>
<pdfrwt beam="1">  1       21 0.36318042E-01 0.19469108E+03</pdfrwt>
<pdfrwt beam="2">  1       21 0.25050218E-01 0.19469108E+03</pdfrwt>
<totfact> 0.11023924E+05</totfact>
</mgrwt>
</event>
<event>
 4    1  0.4090208E+000  0.2425650E+03  0.7546771E-02  0.1118096E+00
         21   -1    0    0  501  502  0.00000000000E+00  0.00000000000E+00  0.15507184157E+04  0.15507184157E+04  0.00000000000E+00 0. -1.
         21   -1    0    0  502  503 -0.00000000000E+00 -0.00000000000E+00 -0.37954371815E+02  0.37954371815E+02  0.00000000000E+00 0.  1.
          6    1    1    2  501    0 -0.21735646154E+02  0.16863077770E+03  0.74219827535E+03  0.78083036406E+03  0.17300000000E+03 0.  1.
         -6    1    1    2    0  503  0.21735646154E+02 -0.16863077770E+03  0.77056576856E+03  0.80784242348E+03  0.17300000000E+03 0. -1.
<mgrwt>
<rscale>  2 0.24256500E+03</rscale>
<asrwt>0</asrwt>
<pdfrwt beam="1">  1       21 0.23857202E+00 0.24256500E+03</pdfrwt>
<pdfrwt beam="2">  1       21 0.58391353E-02 0.24256500E+03</pdfrwt>
<totfact> 0.15421099E+04</totfact>
</mgrwt>
</event>
<event>
 4    1  0.4090208E+000  0.3247003E+03  0.7546771E-02  0.1073506E+00
         21   -1    0    0  501  502  0.00000000000E+00  0.00000000000E+00  0.52487145793E+03  0.52487145793E+03  0.00000000000E+00 0.  1.
         21   -1    0    0  502  503 -0.00000000000E+00 -0.00000000000E+00 -0.13993301812E+04  0.13993301812E+04  0.00000000000E+00 0. -1.
          6    1    1    2  501    0  0.17332420843E+03 -0.21321353711E+03  0.45314471747E+03  0.55746787226E+03  0.17300000000E+03 0.  1.
         -6    1    1    2    0  503 -0.17332420843E+03  0.21321353711E+03 -0.13276034408E+04  0.13667337669E+04  0.17300000000E+03 0. -1.
<mgrwt>
<rscale>  2 0.32470031E+03</rscale>
<asrwt>0</asrwt>
<pdfrwt beam="1">  1       21 0.80749456E-01 0.32470031E+03</pdfrwt>
<pdfrwt beam="2">  1       21 0.21528156E+00 0.32470031E+03</pdfrwt>
<totfact> 0.12559242E+02</totfact>
</mgrwt>
</event>
<event>
 4    1  0.4090208E+000  0.2689923E+03  0.7546771E-02  0.1101858E+00
         21   -1    0    0  503  502  0.00000000000E+00  0.00000000000E+00  0.51797617346E+03  0.51797617346E+03  0.00000000000E+00 0.  1.
         21   -1    0    0  501  503 -0.00000000000E+00 -0.00000000000E+00 -0.31013743576E+03  0.31013743576E+03  0.00000000000E+00 0.  1.
          6    1    1    2  501    0  0.12642159911E+03  0.16262047554E+03 -0.20303670145E+03  0.33701742080E+03  0.17300000000E+03 0.  1.
         -6    1    1    2    0  502 -0.12642159911E+03 -0.16262047554E+03  0.41087543915E+03  0.49109618842E+03  0.17300000000E+03 0.  1.
<mgrwt>
<rscale>  2 0.26899227E+03</rscale>
<asrwt>0</asrwt>
<pdfrwt beam="1">  1       21 0.79688642E-01 0.26899227E+03</pdfrwt>
<pdfrwt beam="2">  1       21 0.47713452E-01 0.26899227E+03</pdfrwt>
<totfact> 0.55386252E+03</totfact>
</mgrwt>
</event>
<event>
 4    1  0.4090208E+000  0.1793550E+03  0.7546771E-02  0.1168429E+00
         21   -1    0    0  501  502  0.00000000000E+00  0.00000000000E+00  0.54519131066E+02  0.54519131066E+02  0.00000000000E+00 0.  1.
         21   -1    0    0  502  503 -0.00000000000E+00 -0.00000000000E+00 -0.94300594499E+03  0.94300594499E+03  0.00000000000E+00 0.  1.
          6    1    1    2  501    0 -0.14416400572E+02 -0.45070993069E+02 -0.13909877522E+03  0.22697289770E+03  0.17300000000E+03 0.  1.
         -6    1    1    2    0  503  0.14416400572E+02  0.45070993069E+02 -0.74938803870E+03  0.77055217836E+03  0.17300000000E+03 0.  1.
<mgrwt>
<rscale>  2 0.17935503E+03</rscale>
<asrwt>0</asrwt>
<pdfrwt beam="1">  1       21 0.83875585E-02 0.17935503E+03</pdfrwt>
<pdfrwt beam="2">  1       21 0.14507784E+00 0.17935503E+03</pdfrwt>
<totfact> 0.36333483E+04</totfact>
</mgrwt>
</event>
<event>
 4    1  0.4090208E+000  0.1832076E+03  0.7546771E-02  0.1164734E+00
         21   -1    0    0  501  502  0.00000000000E+00  0.00000000000E+00  0.19066111298E+02  0.19066111298E+02  0.00000000000E+00 0. -1.
         21   -1    0    0  502  503 -0.00000000000E+00 -0.00000000000E+00 -0.22261224983E+04  0.22261224983E+04  0.00000000000E+00 0. -1.
          6    1    1    2  501    0  0.46095624969E+02 -0.38874389761E+02 -0.59009207218E+03  0.61787836867E+03  0.17300000000E+03 0. -1.
         -6    1    1    2    0  503 -0.46095624969E+02  0.38874389761E+02 -0.16169643149E+04  0.16273102410E+04  0.17300000000E+03 0. -1.
<mgrwt>
<rscale>  2 0.18320760E+03</rscale>
<asrwt>0</asrwt>
<pdfrwt beam="1">  1       21 0.29332496E-02 0.18320760E+03</pdfrwt>
<pdfrwt beam="2">  1       21 0.34248018E+00 0.18320760E+03</pdfrwt>
<totfact> 0.12859009E+04</totfact>
</mgrwt>
</event>
<event>
 4    1  0.4090208E+000  0.1763239E+03  0.7546771E-02  0.1171409E+00
         21   -1    0    0  501  502  0.00000000000E+00  0.00000000000E+00  0.16936234361E+03  0.16936234361E+03  0.00000000000E+00 0. -1.
         21   -1    0    0  502  503 -0.00000000000E+00 -0.00000000000E+00 -0.18532992299E+03  0.18532992299E+03  0.00000000000E+00 0. -1.
          6    1    1    2  501    0  0.49560223934E+01  0.33712631749E+02  0.92907919654E+01  0.17656846409E+03  0.17300000000E+03 0. -1.
         -6    1    1    2    0  503 -0.49560223934E+01 -0.33712631749E+02 -0.25258371348E+02  0.17812380251E+03  0.17300000000E+03 0. -1.
<mgrwt>
<rscale>  2 0.17632386E+03</rscale>
<asrwt>0</asrwt>
<pdfrwt beam="1">  1       21 0.26055745E-01 0.17632386E+03</pdfrwt>
<pdfrwt beam="2">  1       21 0.28512296E-01 0.17632386E+03</pdfrwt>
<totfact> 0.16545262E+05</totfact>
</mgrwt>
</event>
<event>
 4    1  0.4090208E+000  0.2933203E+03  0.7546771E-02  0.1088628E+00
         21   -1    0    0  503  502  0.00000000000E+00  0.00000000000E+00  0.16819174338E+03  0.16819174338E+03  0.00000000000E+00 0.  1.
         21   -1    0    0  501  503 -0.00000000000E+00 -0.00000000000E+00 -0.51847225458E+03  0.51847225458E+03  0.00000000000E+00 0.  1.
          6    1    1    2  501    0  0.11486256395E+03 -0.20715782662E+03 -0.21484061947E+03  0.36358391810E+03  0.17300000000E+03 0.  1.
         -6    1    1    2    0  502 -0.11486256395E+03  0.20715782662E+03 -0.13543989174E+03  0.32308007986E+03  0.17300000000E+03 0.  1.
<mgrwt>
<rscale>  2 0.29332026E+03</rscale>
<asrwt>0</asrwt>
<pdfrwt beam="1">  1       21 0.25875653E-01 0.29332026E+03</pdfrwt>
<pdfrwt beam="2">  1       21 0.79764961E-01 0.29332026E+03</pdfrwt>
<totfact> 0.18646779E+04</totfact>
</mgrwt>
</event>
<event>
 4    1  0.4090208E+000  0.2702725E+03  0.7546771E-02  0.1101124E+00
         21   -1    0    0  501  502  0.00000000000E+00  0.00000000000E+00  0.15684149037E+04  0.15684149037E+04  0.00000000000E+00 0.  1.
         21   -1    0    0  502  503 -0.00000000000E+00 -0.00000000000E+00 -0.46612795891E+02  0.46612795891E+02  0.00000000000E+00 0.  1.
          6    1    1    2  501    0 -0.20382233593E+03 -0.39682464968E+02  0.73758293941E+03  0.78554174629E+03  0.17300000000E+03 0.  1.
         -6    1    1    2    0  503  0.20382233593E+03  0.39682464968E+02  0.78421916839E+03  0.82948595330E+03  0.17300000000E+03 0.  1.
<mgrwt>
<rscale>  2 0.27027253E+03</rscale>
<asrwt>0</asrwt>
<pdfrwt beam="1">  1       21 0.24129456E+00 0.27027253E+03</pdfrwt>
<pdfrwt beam="2">  1       21 0.71712006E-02 0.27027253E+03</pdfrwt>
<totfact> 0.10208027E+04</totfact>
</mgrwt>
</event>
<event>
 4    1  0.4090208E+000  0.2308808E+03  0.7546771E-02  0.1126021E+00
         21   -1    0    0  501  502  0.00000000000E+00  0.00000000000E+00  0.82060742114E+03  0.82060742114E+03  0.00000000000E+00 0.  1.
         21   -1    0    0  502  503 -0.00000000000E+00 -0.00000000000E+00 -0.64992326748E+02  0.64992326748E+02  0.00000000000E+00 0.  1.
          6    1    1    2  501    0  0.15047499362E+03 -0.27096326143E+02  0.36779832423E+03  0.43425976316E+03  0.17300000000E+03 0.  1.
         -6    1    1    2    0  503 -0.15047499362E+03  0.27096326143E+02  0.38781677016E+03  0.45133998472E+03  0.17300000000E+03 0.  1.
<mgrwt>
<rscale>  2 0.23088078E+03</rscale>
<asrwt>0</asrwt>
<pdfrwt beam="1">  1       21 0.12624729E+00 0.23088078E+03</pdfrwt>
<pdfrwt beam="2">  1       21 0.99988201E-02 0.23088078E+03</pdfrwt>
<totfact> 0.36987423E+04</totfact>
</mgrwt>
</event>
<event>
 4    1  0.4090208E+000  0.1870939E+03  0.7546771E-02  0.1161109E+00
         21   -1    0    0  503  502  0.00000000000E+00  0.00000000000E+00  0.11787492009E+04  0.11787492009E+04  0.00000000000E+00 0. -1.
         21   -1    0    0  501  503 -0.00000000000E+00 -0.00000000000E+00 -0.93081804054E+02  0.93081804054E+02  0.00000000000E+00 0. -1.
          6    1    1    2  501    0  0.63678471084E+02  0.31940047043E+02  0.18070848201E+02  0.18796454410E+03  0.17300000000E+03 0. -1.
         -6    1    1    2    0  502 -0.63678471084E+02 -0.31940047043E+02  0.10675965487E+04  0.10838664609E+04  0.17300000000E+03 0. -1.
<mgrwt>
<rscale>  2 0.18709386E+03</rscale>
<asrwt>0</asrwt>
<pdfrwt beam="1">  1       21 0.18134602E+00 0.18709386E+03</pdfrwt>
<pdfrwt beam="2">  1       21 0.14320278E-01 0.18709386E+03</pdfrwt>
<totfact> 0.76398550E+03</totfact>
</mgrwt>
</event>
<event>
 4    1  0.4090208E+000  0.1969164E+03  0.7546771E-02  0.1152367E+00
         21   -1    0    0  501  502  0.00000000000E+00  0.00000000000E+00  0.32478368871E+03  0.32478368871E+03  0.00000000000E+00 0.  1.
         21   -1    0    0  502  503 -0.00000000000E+00 -0.00000000000E+00 -0.13747740913E+03  0.13747740913E+03  0.00000000000E+00 0.  1.
          6    1    1    2  501    0  0.85971238853E+02  0.38157885007E+02  0.17748791191E+03  0.26510005087E+03  0.17300000000E+03 0. -1.
         -6    1    1    2    0  503 -0.85971238853E+02 -0.38157885007E+02  0.98183676683E+01  0.19716104697E+03  0.17300000000E+03 0. -1.
<mgrwt>
<rscale>  2 0.19691642E+03</rscale>
<asrwt>0</asrwt>
<pdfrwt beam="1">  1       21 0.49966721E-01 0.19691642E+03</pdfrwt>
<pdfrwt beam="2">  1       21 0.21150371E-01 0.19691642E+03</pdfrwt>
<totfact> 0.79175496E+04</totfact>
</mgrwt>
</event>
<event>
 4    1  0.4090208E+000  0.1999355E+03  0.7546771E-02  0.1149793E+00
         21   -1    0    0  501  502  0.00000000000E+00  0.00000000000E+00  0.55321778463E+03  0.55321778463E+03  0.00000000000E+00 0.  1.
         21   -1    0    0  502  503 -0.00000000000E+00 -0.00000000000E+00 -0.11396948678E+03  0.11396948678E+03  0.00000000000E+00 0.  1.
          6    1    1    2  501    0 -0.76479558986E+02  0.64777317572E+02  0.42143896846E+03  0.46646010328E+03  0.17300000000E+03 0.  1.
         -6    1    1    2    0  503  0.76479558986E+02 -0.64777317572E+02  0.17809329399E+02  0.20072716814E+03  0.17300000000E+03 0.  1.
<mgrwt>
<rscale>  2 0.19993555E+03</rscale>
<asrwt>0</asrwt>
<pdfrwt beam="1">  1       21 0.85110427E-01 0.19993555E+03</pdfrwt>
<pdfrwt beam="2">  1       21 0.17533767E-01 0.19993555E+03</pdfrwt>
<totfact> 0.35068118E+04</totfact>
</mgrwt>
</event>
<event>
 4    1  0.4090208E+000  0.1910166E+03  0.7546771E-02  0.1157548E+00
         21   -1    0    0  503  502  0.00000000000E+00  0.00000000000E+00  0.11764685857E+03  0.11764685857E+03  0.00000000000E+00 0.  1.
         21   -1    0    0  501  503 -0.00000000000E+00 -0.00000000000E+00 -0.32659052264E+03  0.32659052264E+03  0.00000000000E+00 0.  1.
          6    1    1    2  501    0  0.34072326648E+02 -0.73467001988E+02 -0.15431853768E+03  0.24556370843E+03  0.17300000000E+03 0.  1.
         -6    1    1    2    0  502 -0.34072326648E+02  0.73467001988E+02 -0.54625126391E+02  0.19867367278E+03  0.17300000000E+03 0.  1.
<mgrwt>
<rscale>  2 0.19101655E+03</rscale>
<asrwt>0</asrwt>
<pdfrwt beam="1">  1       21 0.18099517E-01 0.19101655E+03</pdfrwt>
<pdfrwt beam="2">  1       21 0.50244694E-01 0.19101655E+03</pdfrwt>
<totfact> 0.10489004E+05</totfact>
</mgrwt>
</event>
<event>
 4    1  0.4090208E+000  0.2063083E+03  0.7546771E-02  0.1144523E+00
         21   -1    0    0  503  502  0.00000000000E+00  0.00000000000E+00  0.85631069663E+03  0.85631069663E+03  0.00000000000E+00 0. -1.
         21   -1    0    0  501  503 -0.00000000000E+00 -0.00000000000E+00 -0.51523615078E+02  0.51523615078E+02  0.00000000000E+00 0.  1.
          6    1    1    2  501    0  0.66078048293E+02  0.90927380410E+02  0.31711896022E+03  0.37832199501E+03  0.17300000000E+03 0.  1.
         -6    1    1    2    0  502 -0.66078048293E+02 -0.90927380410E+02  0.48766812133E+03  0.52951231670E+03  0.17300000000E+03 0. -1.
<mgrwt>
<rscale>  2 0.20630826E+03</rscale>
<asrwt>0</asrwt>
<pdfrwt beam="1">  1       21 0.13174010E+00 0.20630826E+03</pdfrwt>
<pdfrwt beam="2">  1       21 0.79267106E-02 0.20630826E+03</pdfrwt>
<totfact> 0.50592273E+04</totfact>
</mgrwt>
</event>
<event>
 4    1  0.4090208E+000  0.1817260E+03  0.7546771E-02  0.1166143E+00
         21   -1    0    0  503  502  0.00000000000E+00  0.00000000000E+00  0.11357133132E+03  0.11357133132E+03  0.00000000000E+00 0. -1.
         21   -1    0    0  501  503 -0.00000000000E+00 -0.00000000000E+00 -0.29287296173E+03  0.29287296173E+03  0.00000000000E+00 0. -1.
          6    1    1    2  501    0 -0.55550459086E+02  0.30797404839E+01 -0.10682796897E+03  0.21079979426E+03  0.17300000000E+03 0. -1.
         -6    1    1    2    0  502  0.55550459086E+02 -0.30797404839E+01 -0.72473661439E+02  0.19564449879E+03  0.17300000000E+03 0. -1.
<mgrwt>
<rscale>  2 0.18172600E+03</rscale>
<asrwt>0</asrwt>
<pdfrwt beam="1">  1       21 0.17472512E-01 0.18172600E+03</pdfrwt>
<pdfrwt beam="2">  1       21 0.45057379E-01 0.18172600E+03</pdfrwt>
<totfact> 0.14069317E+05</totfact>
</mgrwt>
</event>
<event>
 4    1  0.4090208E+000  0.2134710E+03  0.7546771E-02  0.1138846E+00
         21   -1    0    0  503  502  0.00000000000E+00  0.00000000000E+00  0.11052370779E+03  0.11052370779E+03  0.00000000000E+00 0. -1.
         21   -1    0    0  501  503 -0.00000000000E+00 -0.00000000000E+00 -0.51118818305E+03  0.51118818305E+03  0.00000000000E+00 0. -1.
          6    1    1    2  501    0  0.59325513364E+02  0.11009703368E+03 -0.63615361870E+02  0.22274826066E+03  0.17300000000E+03 0. -1.
         -6    1    1    2    0  502 -0.59325513364E+02 -0.11009703368E+03 -0.33704911339E+03  0.39896363017E+03  0.17300000000E+03 0. -1.
<mgrwt>
<rscale>  2 0.21347101E+03</rscale>
<asrwt>0</asrwt>
<pdfrwt beam="1">  1       21 0.17003647E-01 0.21347101E+03</pdfrwt>
<pdfrwt beam="2">  1       21 0.78644336E-01 0.21347101E+03</pdfrwt>
<totfact> 0.44109814E+04</totfact>
</mgrwt>
</event>
<event>
 4    1  0.4090208E+000  0.2617924E+03  0.7546771E-02  0.1106071E+00
         21   -1    0    0  503  502  0.00000000000E+00  0.00000000000E+00  0.68843728057E+03  0.68843728057E+03  0.00000000000E+00 0. -1.
         21   -1    0    0  501  503 -0.00000000000E+00 -0.00000000000E+00 -0.10108940343E+03  0.10108940343E+03  0.00000000000E+00 0.  1.
          6    1    1    2  501    0 -0.11916983703E+03 -0.15622043181E+03  0.34235780459E+03  0.43098044009E+03  0.17300000000E+03 0. -1.
         -6    1    1    2    0  502  0.11916983703E+03  0.15622043181E+03  0.24499007255E+03  0.35854624391E+03  0.17300000000E+03 0. -1.
<mgrwt>
<rscale>  2 0.26179242E+03</rscale>
<asrwt>0</asrwt>
<pdfrwt beam="1">  1       21 0.10591342E+00 0.26179242E+03</pdfrwt>
<pdfrwt beam="2">  1       21 0.15552216E-01 0.26179242E+03</pdfrwt>
<totfact> 0.25334076E+04</totfact>
</mgrwt>
</event>
<event>
 4    1  0.4090208E+000  0.2070333E+03  0.7546771E-02  0.1143937E+00
         21   -1    0    0  503  502  0.00000000000E+00  0.00000000000E+00  0.60974306721E+03  0.60974306721E+03  0.00000000000E+00 0. -1.
         21   -1    0    0  501  503 -0.00000000000E+00 -0.00000000000E+00 -0.70296909654E+02  0.70296909654E+02  0.00000000000E+00 0.  1.
          6    1    1    2  501    0 -0.10958902096E+03 -0.30397663898E+02  0.26885121140E+03  0.33932837393E+03  0.17300000000E+03 0.  1.
         -6    1    1    2    0  502  0.10958902096E+03  0.30397663898E+02  0.27059494616E+03  0.34071160293E+03  0.17300000000E+03 0. -1.
<mgrwt>
<rscale>  2 0.20703326E+03</rscale>
<asrwt>0</asrwt>
<pdfrwt beam="1">  1       21 0.93806622E-01 0.20703326E+03</pdfrwt>
<pdfrwt beam="2">  1       21 0.10814910E-01 0.20703326E+03</pdfrwt>
<totfact> 0.66935589E+04</totfact>
</mgrwt>
</event>
<event>
 4    1  0.4090208E+000  0.1795385E+03  0.7546771E-02  0.1168250E+00
         21   -1    0    0  503  502  0.00000000000E+00  0.00000000000E+00  0.16911621489E+03  0.16911621489E+03  0.00000000000E+00 0.  1.
         21   -1    0    0  501  503 -0.00000000000E+00 -0.00000000000E+00 -0.38400024961E+03  0.38400024961E+03  0.00000000000E+00 0.  1.
          6    1    1    2  501    0 -0.25305564346E+02 -0.40800632798E+02 -0.30370841380E+03  0.35280711988E+03  0.17300000000E+03 0.  1.
         -6    1    1    2    0  502  0.25305564346E+02  0.40800632798E+02  0.88824379088E+02  0.20030934462E+03  0.17300000000E+03 0.  1.
<mgrwt>
<rscale>  2 0.17953847E+03</rscale>
<asrwt>0</asrwt>
<pdfrwt beam="1">  1       21 0.26017879E-01 0.17953847E+03</pdfrwt>
<pdfrwt beam="2">  1       21 0.59076961E-01 0.17953847E+03</pdfrwt>
<totfact> 0.37845686E+04</totfact>
</mgrwt>
</event>
<event>
 4    1  0.4090208E+000  0.1737612E+03  0.7546771E-02  0.1173981E+00
         21   -1    0    0  503  502  0.00000000000E+00  0.00000000000E+00  0.37687459959E+02  0.37687459959E+02  0.00000000000E+00 0. -1.
         21   -1    0    0  501  503 -0.00000000000E+00 -0.00000000000E+00 -0.10315329669E+04  0.10315329669E+04  0.00000000000E+00 0. -1.
          6    1    1    2  501    0 -0.12913905104E+02  0.98583346320E+01 -0.24426670297E+03  0.29976520460E+03  0.17300000000E+03 0. -1.
         -6    1    1    2    0  502  0.12913905104E+02 -0.98583346320E+01 -0.74957880401E+03  0.76945522230E+03  0.17300000000E+03 0. -1.
<mgrwt>
<rscale>  2 0.17376120E+03</rscale>
<asrwt>0</asrwt>
<pdfrwt beam="1">  1       21 0.57980720E-02 0.17376120E+03</pdfrwt>
<pdfrwt beam="2">  1       21 0.15869735E+00 0.17376120E+03</pdfrwt>
<totfact> 0.54378681E+04</totfact>
</mgrwt>
</event>
<event>
 4    1  0.4090208E+000  0.1737484E+03  0.7546771E-02  0.1173994E+00
         21   -1    0    0  503  502  0.00000000000E+00  0.00000000000E+00  0.29089463018E+03  0.29089463018E+03  0.00000000000E+00 0.  1.
         21   -1    0    0  501  503 -0.00000000000E+00 -0.00000000000E+00 -0.20813521539E+03  0.20813521539E+03  0.00000000000E+00 0.  1.
          6    1    1    2  501    0 -0.14193295304E+02  0.76193728140E+01 -0.13529919199E+03  0.22021438606E+03  0.17300000000E+03 0.  1.
         -6    1    1    2    0  502  0.14193295304E+02 -0.76193728140E+01  0.21805860678E+03  0.27881545952E+03  0.17300000000E+03 0.  1.
<mgrwt>
<rscale>  2 0.17374839E+03</rscale>
<asrwt>0</asrwt>
<pdfrwt beam="1">  1       21 0.44753020E-01 0.17374839E+03</pdfrwt>
<pdfrwt beam="2">  1       21 0.32020802E-01 0.17374839E+03</pdfrwt>
<totfact> 0.45373543E+04</totfact>
</mgrwt>
</event>
<event>
 4    1  0.4090208E+000  0.3841722E+03  0.7546771E-02  0.1049402E+00
         21   -1    0    0  503  502  0.00000000000E+00  0.00000000000E+00  0.10270703024E+04  0.10270703024E+04  0.00000000000E+00 0. -1.
         21   -1    0    0  501  503 -0.00000000000E+00 -0.00000000000E+00 -0.66346188648E+03  0.66346188648E+03  0.00000000000E+00 0. -1.
          6    1    1    2  501    0  0.32287020788E+03 -0.11581924287E+03 -0.56634527413E+03  0.68435023029E+03  0.17300000000E+03 0. -1.
         -6    1    1    2    0  502 -0.32287020788E+03  0.11581924287E+03  0.92995369006E+03  0.10061819586E+04  0.17300000000E+03 0. -1.
<mgrwt>
<rscale>  2 0.38417219E+03</rscale>
<asrwt>0</asrwt>
<pdfrwt beam="1">  1       21 0.15801082E+00 0.38417219E+03</pdfrwt>
<pdfrwt beam="2">  1       21 0.10207106E+00 0.38417219E+03</pdfrwt>
<totfact> 0.17156040E+02</totfact>
</mgrwt>
</event>
<event>
 4    1  0.4090208E+000  0.2165735E+03  0.7546771E-02  0.1136464E+00
         21   -1    0    0  501  502  0.00000000000E+00  0.00000000000E+00  0.69801541910E+03  0.69801541910E+03  0.00000000000E+00 0. -1.
         21   -1    0    0  502  503 -0.00000000000E+00 -0.00000000000E+00 -0.10759663159E+03  0.10759663159E+03  0.00000000000E+00 0.  1.
          6    1    1    2  501    0  0.27242848967E+02  0.12740849932E+03  0.54203416247E+03  0.58369952184E+03  0.17300000000E+03 0. -1.
         -6    1    1    2    0  503 -0.27242848967E+02 -0.12740849932E+03  0.48384625053E+02  0.22191252885E+03  0.17300000000E+03 0.  1.
<mgrwt>
<rscale>  2 0.21657354E+03</rscale>
<asrwt>0</asrwt>
<pdfrwt beam="1">  1       21 0.10738698E+00 0.21657354E+03</pdfrwt>
<pdfrwt beam="2">  1       21 0.16553328E-01 0.21657354E+03</pdfrwt>
<totfact> 0.22353008E+04</totfact>
</mgrwt>
</event>
<event>
 4    1  0.4090208E+000  0.2914425E+03  0.7546771E-02  0.1089598E+00
         21   -1    0    0  503  502  0.00000000000E+00  0.00000000000E+00  0.22049548727E+04  0.22049548727E+04  0.00000000000E+00 0. -1.
         21   -1    0    0  501  503 -0.00000000000E+00 -0.00000000000E+00 -0.71207020220E+02  0.71207020220E+02  0.00000000000E+00 0.  1.
          6    1    1    2  501    0  0.22267335878E+03 -0.73663657971E+02  0.29581482244E+03  0.41526517840E+03  0.17300000000E+03 0.  1.
         -6    1    1    2    0  502 -0.22267335878E+03  0.73663657971E+02  0.18379330301E+04  0.18608967145E+04  0.17300000000E+03 0. -1.
<mgrwt>
<rscale>  2 0.29144255E+03</rscale>
<asrwt>0</asrwt>
<pdfrwt beam="1">  1       21 0.33922377E+00 0.29144255E+03</pdfrwt>
<pdfrwt beam="2">  1       21 0.10954928E-01 0.29144255E+03</pdfrwt>
<totfact> 0.12489078E+03</totfact>
</mgrwt>
</event>
<event>
 4    1  0.4090208E+000  0.2265247E+03  0.7546771E-02  0.1129110E+00
         21   -1    0    0  501  502  0.00000000000E+00  0.00000000000E+00  0.20133499358E+03  0.20133499358E+03  0.00000000000E+00 0.  1.
         21   -1    0    0  502  503 -0.00000000000E+00 -0.00000000000E+00 -0.29117405053E+03  0.29117405053E+03  0.00000000000E+00 0. -1.
          6    1    1    2  501    0 -0.40052487298E+02  0.14064228472E+03  0.42038375545E+02  0.23039244564E+03  0.17300000000E+03 0.  1.
         -6    1    1    2    0  503  0.40052487298E+02 -0.14064228472E+03 -0.13187743249E+03  0.26211659846E+03  0.17300000000E+03 0.  1.
<mgrwt>
<rscale>  2 0.22652473E+03</rscale>
<asrwt>0</asrwt>
<pdfrwt beam="1">  1       21 0.30974614E-01 0.22652473E+03</pdfrwt>
<pdfrwt beam="2">  1       21 0.44796008E-01 0.22652473E+03</pdfrwt>
<totfact> 0.47122090E+04</totfact>
</mgrwt>
</event>
<event>
 4    1  0.4090208E+000  0.2094361E+03  0.7546771E-02  0.1142013E+00
         21   -1    0    0  503  502  0.00000000000E+00  0.00000000000E+00  0.13194214363E+04  0.13194214363E+04  0.00000000000E+00 0. -1.
         21   -1    0    0  501  503 -0.00000000000E+00 -0.00000000000E+00 -0.12233442561E+03  0.12233442561E+03  0.00000000000E+00 0. -1.
          6    1    1    2  501    0 -0.77915341772E+02  0.88677319416E+02 -0.16635854476E+02  0.21009573798E+03  0.17300000000E+03 0. -1.
         -6    1    1    2    0  502  0.77915341772E+02 -0.88677319416E+02  0.12137228652E+04  0.12316601240E+04  0.17300000000E+03 0. -1.
<mgrwt>
<rscale>  2 0.20943607E+03</rscale>
<asrwt>0</asrwt>
<pdfrwt beam="1">  1       21 0.20298790E+00 0.20943607E+03</pdfrwt>
<pdfrwt beam="2">  1       21 0.18820682E-01 0.20943607E+03</pdfrwt>
<totfact> 0.32683129E+03</totfact>
</mgrwt>
</event>
<event>
 4    1  0.4090208E+000  0.1813215E+03  0.7546771E-02  0.1166530E+00
         21   -1    0    0  503  502  0.00000000000E+00  0.00000000000E+00  0.29769765788E+02  0.29769765788E+02  0.00000000000E+00 0.  1.
         21   -1    0    0  501  503 -0.00000000000E+00 -0.00000000000E+00 -0.19239196974E+04  0.19239196974E+04  0.00000000000E+00 0.  1.
          6    1    1    2  501    0 -0.35891672529E+02  0.40746525279E+02 -0.15846244274E+04  0.15949645976E+04  0.17300000000E+03 0.  1.
         -6    1    1    2    0  502  0.35891672529E+02 -0.40746525279E+02 -0.30952550421E+03  0.35872486565E+03  0.17300000000E+03 0.  1.
<mgrwt>
<rscale>  2 0.18132151E+03</rscale>
<asrwt>0</asrwt>
<pdfrwt beam="1">  1       21 0.45799647E-02 0.18132151E+03</pdfrwt>
<pdfrwt beam="2">  1       21 0.29598760E+00 0.18132151E+03</pdfrwt>
<totfact> 0.11371913E+04</totfact>
</mgrwt>
</event>
<event>
 4    1  0.4090208E+000  0.2627543E+03  0.7546771E-02  0.1105500E+00
         21   -1    0    0  501  502  0.00000000000E+00  0.00000000000E+00  0.90537129152E+03  0.90537129152E+03  0.00000000000E+00 0. -1.
         21   -1    0    0  502  503 -0.00000000000E+00 -0.00000000000E+00 -0.10109523319E+03  0.10109523319E+03  0.00000000000E+00 0.  1.
          6    1    1    2  501    0 -0.12599051094E+03 -0.15243757787E+03  0.15269307341E+03  0.30389965229E+03  0.17300000000E+03 0.  1.
         -6    1    1    2    0  503  0.12599051094E+03  0.15243757787E+03  0.65158298492E+03  0.70256687242E+03  0.17300000000E+03 0. -1.
<mgrwt>
<rscale>  2 0.26275430E+03</rscale>
<asrwt>0</asrwt>
<pdfrwt beam="1">  1       21 0.13928789E+00 0.26275430E+03</pdfrwt>
<pdfrwt beam="2">  1       21 0.15553113E-01 0.26275430E+03</pdfrwt>
<totfact> 0.12740689E+04</totfact>
</mgrwt>
</event>
<event>
 4    1  0.4090208E+000  0.1831871E+03  0.7546771E-02  0.1164754E+00
         21   -1    0    0  501  502  0.00000000000E+00  0.00000000000E+00  0.27871974917E+03  0.27871974917E+03  0.00000000000E+00 0. -1.
         21   -1    0    0  502  503 -0.00000000000E+00 -0.00000000000E+00 -0.12055679484E+03  0.12055679484E+03  0.00000000000E+00 0.  1.
          6    1    1    2  501    0  0.20253161321E+02  0.56730123043E+02  0.71852160577E+02  0.19677456742E+03  0.17300000000E+03 0. -1.
         -6    1    1    2    0  503 -0.20253161321E+02 -0.56730123043E+02  0.86310793747E+02  0.20250197659E+03  0.17300000000E+03 0.  1.
<mgrwt>
<rscale>  2 0.18318706E+03</rscale>
<asrwt>0</asrwt>
<pdfrwt beam="1">  1       21 0.42879961E-01 0.18318706E+03</pdfrwt>
<pdfrwt beam="2">  1       21 0.18547199E-01 0.18318706E+03</pdfrwt>
<totfact> 0.13936874E+05</totfact>
</mgrwt>
</event>
<event>
 4    1  0.4090208E+000  0.1730563E+03  0.7546771E-02  0.1174698E+00
         21   -1    0    0  501  502  0.00000000000E+00  0.00000000000E+00  0.24040190331E+02  0.24040190331E+02  0.00000000000E+00 0.  1.
         21   -1    0    0  502  503 -0.00000000000E+00 -0.00000000000E+00 -0.15254012966E+04  0.15254012966E+04  0.00000000000E+00 0.  1.
          6    1    1    2  501    0  0.42152277587E+01 -0.13049569225E+01 -0.41897824038E+03  0.45331141280E+03  0.17300000000E+03 0. -1.
         -6    1    1    2    0  503 -0.42152277587E+01  0.13049569225E+01 -0.10823828659E+04  0.10961300741E+04  0.17300000000E+03 0. -1.
<mgrwt>
<rscale>  2 0.17305627E+03</rscale>
<asrwt>0</asrwt>
<pdfrwt beam="1">  1       21 0.36984917E-02 0.17305627E+03</pdfrwt>
<pdfrwt beam="2">  1       21 0.23467707E+00 0.17305627E+03</pdfrwt>
<totfact> 0.37193380E+04</totfact>
</mgrwt>
</event>
<event>
 4    1  0.4090208E+000  0.1731014E+03  0.7546771E-02  0.1174652E+00
         21   -1    0    0  503  502  0.00000000000E+00  0.00000000000E+00  0.99616599794E+03  0.99616599794E+03  0.00000000000E+00 0. -1.
         21   -1    0    0  501  503 -0.00000000000E+00 -0.00000000000E+00 -0.64050852081E+02  0.64050852081E+02  0.00000000000E+00 0. -1.
          6    1    1    2  501    0 -0.32314606327E+01  0.49644523417E+01  0.79993644800E+02  0.19069103632E+03  0.17300000000E+03 0. -1.
         -6    1    1    2    0  502  0.32314606327E+01 -0.49644523417E+01  0.85212150106E+03  0.86952581370E+03  0.17300000000E+03 0. -1.
<mgrwt>
<rscale>  2 0.17310138E+03</rscale>
<asrwt>0</asrwt>
<pdfrwt beam="1">  1       21 0.15325630E+00 0.17310138E+03</pdfrwt>
<pdfrwt beam="2">  1       21 0.98539780E-02 0.17310138E+03</pdfrwt>
<totfact> 0.23831023E+04</totfact>
</mgrwt>
</event>
<event>
 4    1  0.4090208E+000  0.1755002E+03  0.7546771E-02  0.1172230E+00
         21   -1    0    0  501  502  0.00000000000E+00  0.00000000000E+00  0.41864672540E+03  0.41864672540E+03  0.00000000000E+00 0.  1.
         21   -1    0    0  502  503 -0.00000000000E+00 -0.00000000000E+00 -0.96317127460E+02  0.96317127460E+02  0.00000000000E+00 0.  1.
          6    1    1    2  501    0 -0.26277842804E+02 -0.13445847827E+02  0.28629075517E+03  0.33580159669E+03  0.17300000000E+03 0.  1.
         -6    1    1    2    0  503  0.26277842804E+02  0.13445847827E+02  0.36038842770E+02  0.17916225617E+03  0.17300000000E+03 0.  1.
<mgrwt>
<rscale>  2 0.17550019E+03</rscale>
<asrwt>0</asrwt>
<pdfrwt beam="1">  1       21 0.64407187E-01 0.17550019E+03</pdfrwt>
<pdfrwt beam="2">  1       21 0.14818020E-01 0.17550019E+03</pdfrwt>
<totfact> 0.89795544E+04</totfact>
</mgrwt>
</event>
<event>
 4    1  0.4090208E+000  0.1789410E+03  0.7546771E-02  0.1168832E+00
         21   -1    0    0  503  502  0.00000000000E+00  0.00000000000E+00  0.12308735537E+04  0.12308735537E+04  0.00000000000E+00 0. -1.
         21   -1    0    0  501  503 -0.00000000000E+00 -0.00000000000E+00 -0.27019829071E+02  0.27019829071E+02  0.00000000000E+00 0. -1.
          6    1    1    2  501    0 -0.41193573857E+02 -0.19848916197E+02  0.48057562447E+03  0.51280875659E+03  0.17300000000E+03 0.  1.
         -6    1    1    2    0  502  0.41193573857E+02  0.19848916197E+02  0.72327810020E+03  0.74508462622E+03  0.17300000000E+03 0.  1.
<mgrwt>
<rscale>  2 0.17894102E+03</rscale>
<asrwt>0</asrwt>
<pdfrwt beam="1">  1       21 0.18936512E+00 0.17894102E+03</pdfrwt>
<pdfrwt beam="2">  1       21 0.41568977E-02 0.17894102E+03</pdfrwt>
<totfact> 0.58344256E+04</totfact>
</mgrwt>
</event>
<event>
 4    1  0.4090208E+000  0.2127948E+03  0.7546771E-02  0.1139372E+00
         21   -1    0    0  501  502  0.00000000000E+00  0.00000000000E+00  0.31669399608E+02  0.31669399608E+02  0.00000000000E+00 0. -1.
         21   -1    0    0  502  503 -0.00000000000E+00 -0.00000000000E+00 -0.21943748726E+04  0.21943748726E+04  0.00000000000E+00 0.  1.
          6    1    1    2  501    0 -0.12352838080E+03  0.96618838036E+01 -0.42437284623E+03  0.47473563747E+03  0.17300000000E+03 0. -1.
         -6    1    1    2    0  503  0.12352838080E+03 -0.96618838036E+01 -0.17383326268E+04  0.17513086348E+04  0.17300000000E+03 0.  1.
<mgrwt>
<rscale>  2 0.21279477E+03</rscale>
<asrwt>0</asrwt>
<pdfrwt beam="1">  1       21 0.48722156E-02 0.21279477E+03</pdfrwt>
<pdfrwt beam="2">  1       21 0.33759611E+00 0.21279477E+03</pdfrwt>
<totfact> 0.56762196E+03</totfact>
</mgrwt>
</event>
<event>
 4    1  0.4090208E+000  0.1979469E+03  0.7546771E-02  0.1151483E+00
         21   -1    0    0  503  502  0.00000000000E+00  0.00000000000E+00  0.18224127471E+03  0.18224127471E+03  0.00000000000E+00 0. -1.
         21   -1    0    0  501  503 -0.00000000000E+00 -0.00000000000E+00 -0.21511232978E+03  0.21511232978E+03  0.00000000000E+00 0. -1.
          6    1    1    2  501    0  0.32996331046E+02  0.90361519761E+02 -0.12017764627E+02  0.19831134305E+03  0.17300000000E+03 0. -1.
         -6    1    1    2    0  502 -0.32996331046E+02 -0.90361519761E+02 -0.20853290450E+02  0.19904226144E+03  0.17300000000E+03 0. -1.
<mgrwt>
<rscale>  2 0.19794687E+03</rscale>
<asrwt>0</asrwt>
<pdfrwt beam="1">  1       21 0.28037119E-01 0.19794687E+03</pdfrwt>
<pdfrwt beam="2">  1       21 0.33094205E-01 0.19794687E+03</pdfrwt>
<totfact> 0.10661081E+05</totfact>
</mgrwt>
</event>
<event>
 4    1  0.4090208E+000  0.2467767E+03  0.7546771E-02  0.1115359E+00
         21   -1    0    0  501  502  0.00000000000E+00  0.00000000000E+00  0.90238346903E+02  0.90238346903E+02  0.00000000000E+00 0.  1.
         21   -1    0    0  502  503 -0.00000000000E+00 -0.00000000000E+00 -0.71695917049E+03  0.71695917049E+03  0.00000000000E+00 0. -1.
          6    1    1    2  501    0  0.17566018531E+03  0.10642144591E+02 -0.21556679622E+03  0.32767026044E+03  0.17300000000E+03 0.  1.
         -6    1    1    2    0  503 -0.17566018531E+03 -0.10642144591E+02 -0.41115402737E+03  0.47952725696E+03  0.17300000000E+03 0. -1.
<mgrwt>
<rscale>  2 0.24677673E+03</rscale>
<asrwt>0</asrwt>
<pdfrwt beam="1">  1       21 0.13882822E-01 0.24677673E+03</pdfrwt>
<pdfrwt beam="2">  1       21 0.11030142E+00 0.24677673E+03</pdfrwt>
<totfact> 0.28449521E+04</totfact>
</mgrwt>
</event>
<event>
 4    1  0.4090208E+000  0.2031936E+03  0.7546771E-02  0.1147072E+00
         21   -1    0    0  501  502  0.00000000000E+00  0.00000000000E+00  0.92830010211E+03  0.92830010211E+03  0.00000000000E+00 0.  1.
         21   -1    0    0  502  503 -0.00000000000E+00 -0.00000000000E+00 -0.48711743254E+02  0.48711743254E+02  0.00000000000E+00 0.  1.
          6    1    1    2  501    0 -0.59910353705E+02  0.88144140767E+02  0.58383534403E+03  0.61818391194E+03  0.17300000000E+03 0.  1.
         -6    1    1    2    0  503  0.59910353705E+02 -0.88144140767E+02  0.29575301483E+03  0.35882793343E+03  0.17300000000E+03 0.  1.
<mgrwt>
<rscale>  2 0.20319360E+03</rscale>
<asrwt>0</asrwt>
<pdfrwt beam="1">  1       21 0.14281539E+00 0.20319360E+03</pdfrwt>
<pdfrwt beam="2">  1       21 0.74941150E-02 0.20319360E+03</pdfrwt>
<totfact> 0.45408831E+04</totfact>
</mgrwt>
</event>
<event>
 4    1  0.4090208E+000  0.2267308E+03  0.7546771E-02  0.1128962E+00
         21   -1    0    0  503  502  0.00000000000E+00  0.00000000000E+00  0.47241834929E+03  0.47241834929E+03  0.00000000000E+00 0.  1.
         21   -1    0    0  501  503 -0.00000000000E+00 -0.00000000000E+00 -0.11327921906E+03  0.11327921906E+03  0.00000000000E+00 0. -1.
          6    1    1    2  501    0 -0.97808557383E+02  0.10913902870E+03  0.23769621154E+03  0.32849098993E+03  0.17300000000E+03 0.  1.
         -6    1    1    2    0  502  0.97808557383E+02 -0.10913902870E+03  0.12144291868E+03  0.25720657842E+03  0.17300000000E+03 0. -1.
<mgrwt>
<rscale>  2 0.22673077E+03</rscale>
<asrwt>0</asrwt>
<pdfrwt beam="1">  1       21 0.72679745E-01 0.22673077E+03</pdfrwt>
<pdfrwt beam="2">  1       21 0.17427572E-01 0.22673077E+03</pdfrwt>
<totfact> 0.50000173E+04</totfact>
</mgrwt>
</event>
<event>
 4    1  0.4090208E+000  0.1906166E+03  0.7546771E-02  0.1157906E+00
         21   -1    0    0  501  502  0.00000000000E+00  0.00000000000E+00  0.27916569489E+03  0.27916569489E+03  0.00000000000E+00 0. -1.
         21   -1    0    0  502  503 -0.00000000000E+00 -0.00000000000E+00 -0.14877128344E+03  0.14877128344E+03  0.00000000000E+00 0. -1.
          6    1    1    2  501    0  0.19394328877E+02  0.77650203580E+02  0.14088775231E+03  0.23703175496E+03  0.17300000000E+03 0. -1.
         -6    1    1    2    0  503 -0.19394328877E+02 -0.77650203580E+02 -0.10493340860E+02  0.19090522337E+03  0.17300000000E+03 0. -1.
<mgrwt>
<rscale>  2 0.19061662E+03</rscale>
<asrwt>0</asrwt>
<pdfrwt beam="1">  1       21 0.42948568E-01 0.19061662E+03</pdfrwt>
<pdfrwt beam="2">  1       21 0.22887890E-01 0.19061662E+03</pdfrwt>
<totfact> 0.93468583E+04</totfact>
</mgrwt>
</event>
<event>
 4    1  0.4090208E+000  0.1914797E+03  0.7546771E-02  0.1157133E+00
         21   -1    0    0  503  502  0.00000000000E+00  0.00000000000E+00  0.38368426489E+03  0.38368426489E+03  0.00000000000E+00 0. -1.
         21   -1    0    0  501  503 -0.00000000000E+00 -0.00000000000E+00 -0.20623271039E+03  0.20623271039E+03  0.00000000000E+00 0. -1.
          6    1    1    2  501    0  0.60507607501E+02 -0.55446373799E+02 -0.12734917634E+03  0.22996148296E+03  0.17300000000E+03 0. -1.
         -6    1    1    2    0  502 -0.60507607501E+02  0.55446373799E+02  0.30480073084E+03  0.35995549232E+03  0.17300000000E+03 0. -1.
<mgrwt>
<rscale>  2 0.19147969E+03</rscale>
<asrwt>0</asrwt>
<pdfrwt beam="1">  1       21 0.59028348E-01 0.19147969E+03</pdfrwt>
<pdfrwt beam="2">  1       21 0.31728109E-01 0.19147969E+03</pdfrwt>
<totfact> 0.25648044E+04</totfact>
</mgrwt>
</event>
<event>
 4    1  0.4090208E+000  0.1731727E+03  0.7546771E-02  0.1174579E+00
         21   -1    0    0  501  502  0.00000000000E+00  0.00000000000E+00  0.12849579310E+03  0.12849579310E+03  0.00000000000E+00 0.  1.
         21   -1    0    0  502  503 -0.00000000000E+00 -0.00000000000E+00 -0.32663477061E+03  0.32663477061E+03  0.00000000000E+00 0.  1.
          6    1    1    2  501    0  0.65646925584E+01  0.40851423155E+01  0.22521793242E+02  0.17463108185E+03  0.17300000000E+03 0.  1.
         -6    1    1    2    0  503 -0.65646925584E+01 -0.40851423155E+01 -0.22066077075E+03  0.28049948186E+03  0.17300000000E+03 0.  1.
<mgrwt>
<rscale>  2 0.17317270E+03</rscale>
<asrwt>0</asrwt>
<pdfrwt beam="1">  1       21 0.19768583E-01 0.17317270E+03</pdfrwt>
<pdfrwt beam="2">  1       21 0.50251503E-01 0.17317270E+03</pdfrwt>
<totfact> 0.89646693E+04</totfact>
</mgrwt>
</event>
<event>
 4    1  0.4090208E+000  0.1755526E+03  0.7546771E-02  0.1172178E+00
         21   -1    0    0  503  502  0.00000000000E+00  0.00000000000E+00  0.15395322137E+03  0.15395322137E+03  0.00000000000E+00 0. -1.
         21   -1    0    0  501  503 -0.00000000000E+00 -0.00000000000E+00 -0.20256325188E+03  0.20256325188E+03  0.00000000000E+00 0. -1.
          6    1    1    2  501    0  0.29615370545E+02 -0.35572542002E+01 -0.43630754849E+02  0.18089324752E+03  0.17300000000E+03 0. -1.
         -6    1    1    2    0  502 -0.29615370545E+02  0.35572542002E+01 -0.49792756636E+01  0.17562322573E+03  0.17300000000E+03 0. -1.
<mgrwt>
<rscale>  2 0.17555263E+03</rscale>
<asrwt>0</asrwt>
<pdfrwt beam="1">  1       21 0.23685111E-01 0.17555263E+03</pdfrwt>
<pdfrwt beam="2">  1       21 0.31163577E-01 0.17555263E+03</pdfrwt>
<totfact> 0.16695867E+05</totfact>
</mgrwt>
</event>
<event>
 4    1  0.4090208E+000  0.4060152E+03  0.7546771E-02  0.1041717E+00
         21   -1    0    0  503  502  0.00000000000E+00  0.00000000000E+00  0.13408771230E+03  0.13408771230E+03  0.00000000000E+00 0.  1.
         21   -1    0    0  501  503 -0.00000000000E+00 -0.00000000000E+00 -0.12766909490E+04  0.12766909490E+04  0.00000000000E+00 0. -1.
          6    1    1    2  501    0 -0.26778593900E+03  0.25141599878E+03 -0.70705319185E+03  0.81533583858E+03  0.17300000000E+03 0. -1.
         -6    1    1    2    0  502  0.26778593900E+03 -0.25141599878E+03 -0.43555004489E+03  0.59544282276E+03  0.17300000000E+03 0. -1.
<mgrwt>
<rscale>  2 0.40601516E+03</rscale>
<asrwt>0</asrwt>
<pdfrwt beam="1">  1       21 0.20628878E-01 0.40601516E+03</pdfrwt>
<pdfrwt beam="2">  1       21 0.19641400E+00 0.40601516E+03</pdfrwt>
<totfact> 0.26749502E+03</totfact>
</mgrwt>
</event>
<event>
 4    1  0.4090208E+000  0.3059113E+03  0.7546771E-02  0.1082322E+00
         21   -1    0    0  503  502  0.00000000000E+00  0.00000000000E+00  0.50787005219E+02  0.50787005219E+02  0.00000000000E+00 0.  1.
         21   -1    0    0  501  503 -0.00000000000E+00 -0.00000000000E+00 -0.21940205426E+04  0.21940205426E+04  0.00000000000E+00 0. -1.
          6    1    1    2  501    0 -0.25141392682E+03 -0.21065142519E+02 -0.62243380141E+03  0.69354562933E+03  0.17300000000E+03 0.  1.
         -6    1    1    2    0  502  0.25141392682E+03  0.21065142519E+02 -0.15207997360E+04  0.15512619185E+04  0.17300000000E+03 0.  1.
<mgrwt>
<rscale>  2 0.30591127E+03</rscale>
<asrwt>0</asrwt>
<pdfrwt beam="1">  1       21 0.78133857E-02 0.30591127E+03</pdfrwt>
<pdfrwt beam="2">  1       21 0.33754161E+00 0.30591127E+03</pdfrwt>
<totfact> 0.22999123E+03</totfact>
</mgrwt>
</event>
<event>
 4    1  0.4090208E+000  0.1925325E+03  0.7546771E-02  0.1156197E+00
         21   -1    0    0  501  502  0.00000000000E+00  0.00000000000E+00  0.77424967696E+02  0.77424967696E+02  0.00000000000E+00 0. -1.
         21   -1    0    0  502  503 -0.00000000000E+00 -0.00000000000E+00 -0.47877056182E+03  0.47877056182E+03  0.00000000000E+00 0. -1.
          6    1    1    2  501    0 -0.71283846272E+01 -0.84195971510E+02 -0.20087602905E+03  0.27824441510E+03  0.17300000000E+03 0. -1.
         -6    1    1    2    0  503  0.71283846272E+01  0.84195971510E+02 -0.20046956508E+03  0.27795111442E+03  0.17300000000E+03 0. -1.
<mgrwt>
<rscale>  2 0.19253253E+03</rscale>
<asrwt>0</asrwt>
<pdfrwt beam="1">  1       21 0.11911533E-01 0.19253253E+03</pdfrwt>
<pdfrwt beam="2">  1       21 0.73657011E-01 0.19253253E+03</pdfrwt>
<totfact> 0.98438544E+04</totfact>
</mgrwt>
</event>
<event>
 4    1  0.4090208E+000  0.2508134E+03  0.7546771E-02  0.1112792E+00
         21   -1    0    0  503  502  0.00000000000E+00  0.00000000000E+00  0.12089275148E+03  0.12089275148E+03  0.00000000000E+00 0. -1.
         21   -1    0    0  501  503 -0.00000000000E+00 -0.00000000000E+00 -0.60150382935E+03  0.60150382935E+03  0.00000000000E+00 0. -1.
          6    1    1    2  501    0 -0.42752566182E+02  0.17649520965E+03 -0.37297267067E+03  0.44946184934E+03  0.17300000000E+03 0. -1.
         -6    1    1    2    0  502  0.42752566182E+02 -0.17649520965E+03 -0.10763840720E+03  0.27293473148E+03  0.17300000000E+03 0. -1.
<mgrwt>
<rscale>  2 0.25081336E+03</rscale>
<asrwt>0</asrwt>
<pdfrwt beam="1">  1       21 0.18598885E-01 0.25081336E+03</pdfrwt>
<pdfrwt beam="2">  1       21 0.92539049E-01 0.25081336E+03</pdfrwt>
<totfact> 0.25230295E+04</totfact>
</mgrwt>
</event>
<event>
 4    1  0.4090208E+000  0.1777528E+03  0.7546771E-02  0.1169996E+00
         21   -1    0    0  501  502  0.00000000000E+00  0.00000000000E+00  0.27458599629E+03  0.27458599629E+03  0.00000000000E+00 0. -1.
         21   -1    0    0  502  503 -0.00000000000E+00 -0.00000000000E+00 -0.19734538064E+03  0.19734538064E+03  0.00000000000E+00 0. -1.
          6    1    1    2  501    0  0.40728863212E+02 -0.28695493221E+01  0.19098189091E+03  0.26090258195E+03  0.17300000000E+03 0. -1.
         -6    1    1    2    0  503 -0.40728863212E+02  0.28695493221E+01 -0.11374127526E+03  0.21102879498E+03  0.17300000000E+03 0. -1.
<mgrwt>
<rscale>  2 0.17775285E+03</rscale>
<asrwt>0</asrwt>
<pdfrwt beam="1">  1       21 0.42243999E-01 0.17775285E+03</pdfrwt>
<pdfrwt beam="2">  1       21 0.30360828E-01 0.17775285E+03</pdfrwt>
<totfact> 0.56519161E+04</totfact>
</mgrwt>
</event>
<event>
 4    1  0.4090208E+000  0.1796417E+03  0.7546771E-02  0.1168150E+00
         21   -1    0    0  503  502  0.00000000000E+00  0.00000000000E+00  0.16823989144E+04  0.16823989144E+04  0.00000000000E+00 0.  1.
         21   -1    0    0  501  503 -0.00000000000E+00 -0.00000000000E+00 -0.22524335242E+03  0.22524335242E+03  0.00000000000E+00 0.  1.
          6    1    1    2  501    0  0.35909148862E+01 -0.48262088155E+02 -0.18372632780E+03  0.25695619733E+03  0.17300000000E+03 0.  1.
         -6    1    1    2    0  502 -0.35909148862E+01  0.48262088155E+02  0.16408818898E+04  0.16506860695E+04  0.17300000000E+03 0.  1.
<mgrwt>
<rscale>  2 0.17964165E+03</rscale>
<asrwt>0</asrwt>
<pdfrwt beam="1">  1       21 0.25883059E+00 0.17964165E+03</pdfrwt>
<pdfrwt beam="2">  1       21 0.34652824E-01 0.17964165E+03</pdfrwt>
<totfact> 0.48250704E+02</totfact>
</mgrwt>
</event>
<event>
 4    1  0.4090208E+000  0.2064343E+03  0.7546771E-02  0.1144421E+00
         21   -1    0    0  503  502  0.00000000000E+00  0.00000000000E+00  0.27548638102E+03  0.27548638102E+03  0.00000000000E+00 0.  1.
         21   -1    0    0  501  503 -0.00000000000E+00 -0.00000000000E+00 -0.20455538384E+03  0.20455538384E+03  0.00000000000E+00 0.  1.
          6    1    1    2  501    0 -0.25126456546E+02  0.10979423078E+03 -0.83040736096E+02  0.22251039477E+03  0.17300000000E+03 0.  1.
         -6    1    1    2    0  502  0.25126456546E+02 -0.10979423078E+03  0.15397173328E+03  0.25753137009E+03  0.17300000000E+03 0.  1.
<mgrwt>
<rscale>  2 0.20643428E+03</rscale>
<asrwt>0</asrwt>
<pdfrwt beam="1">  1       21 0.42382520E-01 0.20643428E+03</pdfrwt>
<pdfrwt beam="2">  1       21 0.31470059E-01 0.20643428E+03</pdfrwt>
<totfact> 0.51640857E+04</totfact>
</mgrwt>
</event>
<event>
 4    1  0.4090208E+000  0.1912175E+03  0.7546771E-02  0.1157368E+00
         21   -1    0    0  501  502  0.00000000000E+00  0.00000000000E+00  0.28408821072E+02  0.28408821072E+02  0.00000000000E+00 0.  1.
         21   -1    0    0  502  503 -0.00000000000E+00 -0.00000000000E+00 -0.12940183727E+04  0.12940183727E+04  0.00000000000E+00 0.  1.
          6    1    1    2  501    0 -0.80914258460E+02 -0.93810105712E+01 -0.58435007255E+03  0.61484073374E+03  0.17300000000E+03 0.  1.
         -6    1    1    2    0  503  0.80914258460E+02  0.93810105712E+01 -0.68125947908E+03  0.70758646003E+03  0.17300000000E+03 0.  1.
<mgrwt>
<rscale>  2 0.19121747E+03</rscale>
<asrwt>0</asrwt>
<pdfrwt beam="1">  1       21 0.43705880E-02 0.19121747E+03</pdfrwt>
<pdfrwt beam="2">  1       21 0.19907974E+00 0.19121747E+03</pdfrwt>
<totfact> 0.46001850E+04</totfact>
</mgrwt>
</event>
<event>
 4    1  0.4090208E+000  0.1775626E+03  0.7546771E-02  0.1170183E+00
         21   -1    0    0  503  502  0.00000000000E+00  0.00000000000E+00  0.26434752236E+02  0.26434752236E+02  0.00000000000E+00 0. -1.
         21   -1    0    0  501  503 -0.00000000000E+00 -0.00000000000E+00 -0.15524462787E+04  0.15524462787E+04  0.00000000000E+00 0. -1.
          6    1    1    2  501    0 -0.13235356661E+02 -0.37740009610E+02 -0.11430331482E+04  0.11567425215E+04  0.17300000000E+03 0. -1.
         -6    1    1    2    0  502  0.13235356661E+02  0.37740009610E+02 -0.38297837824E+03  0.42213850949E+03  0.17300000000E+03 0. -1.
<mgrwt>
<rscale>  2 0.17756262E+03</rscale>
<asrwt>0</asrwt>
<pdfrwt beam="1">  1       21 0.40668842E-02 0.17756262E+03</pdfrwt>
<pdfrwt beam="2">  1       21 0.23883793E+00 0.17756262E+03</pdfrwt>
<totfact> 0.29869417E+04</totfact>
</mgrwt>
</event>
<event>
 4    1  0.4090208E+000  0.1945970E+03  0.7546771E-02  0.1154379E+00
         21   -1    0    0  503  502  0.00000000000E+00  0.00000000000E+00  0.72309263601E+03  0.72309263601E+03  0.00000000000E+00 0. -1.
         21   -1    0    0  501  503 -0.00000000000E+00 -0.00000000000E+00 -0.10187181398E+03  0.10187181398E+03  0.00000000000E+00 0. -1.
          6    1    1    2  501    0 -0.43551772900E+02 -0.77731738029E+02  0.23075164477E+02  0.19596031036E+03  0.17300000000E+03 0. -1.
         -6    1    1    2    0  502  0.43551772900E+02  0.77731738029E+02  0.59814565755E+03  0.62900413963E+03  0.17300000000E+03 0. -1.
<mgrwt>
<rscale>  2 0.19459697E+03</rscale>
<asrwt>0</asrwt>
<pdfrwt beam="1">  1       21 0.11124502E+00 0.19459697E+03</pdfrwt>
<pdfrwt beam="2">  1       21 0.15672587E-01 0.19459697E+03</pdfrwt>
<totfact> 0.22987507E+04</totfact>
</mgrwt>
</event>
<event>
 4    1  0.4090208E+000  0.3812836E+03  0.7546771E-02  0.1050460E+00
         21   -1    0    0  503  502  0.00000000000E+00  0.00000000000E+00  0.25488858582E+04  0.25488858582E+04  0.00000000000E+00 0. -1.
         21   -1    0    0  501  503 -0.00000000000E+00 -0.00000000000E+00 -0.61404613899E+02  0.61404613899E+02  0.00000000000E+00 0.  1.
          6    1    1    2  501    0 -0.23103911343E+03 -0.24913666632E+03  0.89560241581E+03  0.97338627360E+03  0.17300000000E+03 0.  1.
         -6    1    1    2    0  502  0.23103911343E+03  0.24913666632E+03  0.15918788285E+04  0.16369041985E+04  0.17300000000E+03 0. -1.
<mgrwt>
<rscale>  2 0.38128356E+03</rscale>
<asrwt>0</asrwt>
<pdfrwt beam="1">  1       21 0.39213620E+00 0.38128356E+03</pdfrwt>
<pdfrwt beam="2">  1       21 0.94468657E-02 0.38128356E+03</pdfrwt>
<totfact> 0.71561152E+02</totfact>
</mgrwt>
</event>
<event>
 4    1  0.4090208E+000  0.1920763E+03  0.7546771E-02  0.1156602E+00
         21   -1    0    0  501  502  0.00000000000E+00  0.00000000000E+00  0.84924684421E+03  0.84924684421E+03  0.00000000000E+00 0.  1.
         21   -1    0    0  502  503 -0.00000000000E+00 -0.00000000000E+00 -0.45442414503E+02  0.45442414503E+02  0.00000000000E+00 0.  1.
          6    1    1    2  501    0 -0.42849894554E+02 -0.71611325965E+02  0.49575158841E+03  0.53166054291E+03  0.17300000000E+03 0.  1.
         -6    1    1    2    0  503  0.42849894554E+02  0.71611325965E+02  0.30805284129E+03  0.36302871580E+03  0.17300000000E+03 0.  1.
<mgrwt>
<rscale>  2 0.19207628E+03</rscale>
<asrwt>0</asrwt>
<pdfrwt beam="1">  1       21 0.13065335E+00 0.19207628E+03</pdfrwt>
<pdfrwt beam="2">  1       21 0.69911413E-02 0.19207628E+03</pdfrwt>
<totfact> 0.64725325E+04</totfact>
</mgrwt>
</event>
<event>
 4    1  0.4090208E+000  0.2273817E+03  0.7546771E-02  0.1128496E+00
         21   -1    0    0  501  502  0.00000000000E+00  0.00000000000E+00  0.38743898979E+03  0.38743898979E+03  0.00000000000E+00 0. -1.
         21   -1    0    0  502  503 -0.00000000000E+00 -0.00000000000E+00 -0.34921185315E+03  0.34921185315E+03  0.00000000000E+00 0. -1.
          6    1    1    2  501    0  0.93967655999E+02 -0.11376963508E+03  0.30863310205E+03  0.38334950362E+03  0.17300000000E+03 0. -1.
         -6    1    1    2    0  503 -0.93967655999E+02  0.11376963508E+03 -0.27040596540E+03  0.35330133932E+03  0.17300000000E+03 0. -1.
<mgrwt>
<rscale>  2 0.22738173E+03</rscale>
<asrwt>0</asrwt>
<pdfrwt beam="1">  1       21 0.59605999E-01 0.22738173E+03</pdfrwt>
<pdfrwt beam="2">  1       21 0.53724900E-01 0.22738173E+03</pdfrwt>
<totfact> 0.84137280E+03</totfact>
</mgrwt>
</event>
<event>
 4    1  0.4090208E+000  0.1764309E+03  0.7546771E-02  0.1171303E+00
         21   -1    0    0  501  502  0.00000000000E+00  0.00000000000E+00  0.84132749932E+03  0.84132749932E+03  0.00000000000E+00 0.  1.
         21   -1    0    0  502  503 -0.00000000000E+00 -0.00000000000E+00 -0.10501600880E+03  0.10501600880E+03  0.00000000000E+00 0.  1.
          6    1    1    2  501    0  0.34608157566E+02 -0.10722079772E+01  0.74895960967E+03  0.76945979175E+03  0.17300000000E+03 0.  1.
         -6    1    1    2    0  503 -0.34608157566E+02  0.10722079772E+01 -0.12648119157E+02  0.17688371637E+03  0.17300000000E+03 0.  1.
<mgrwt>
<rscale>  2 0.17643093E+03</rscale>
<asrwt>0</asrwt>
<pdfrwt beam="1">  1       21 0.12943500E+00 0.17643093E+03</pdfrwt>
<pdfrwt beam="2">  1       21 0.16156310E-01 0.17643093E+03</pdfrwt>
<totfact> 0.15138175E+04</totfact>
</mgrwt>
</event>
<event>
 4    1  0.4090208E+000  0.2187805E+03  0.7546771E-02  0.1134795E+00
         21   -1    0    0  503  502  0.00000000000E+00  0.00000000000E+00  0.87727144389E+03  0.87727144389E+03  0.00000000000E+00 0.  1.
         21   -1    0    0  501  503 -0.00000000000E+00 -0.00000000000E+00 -0.75287613150E+02  0.75287613150E+02  0.00000000000E+00 0. -1.
          6    1    1    2  501    0  0.10530253711E+03  0.82748382004E+02  0.15109379687E+03  0.26588391170E+03  0.17300000000E+03 0.  1.
         -6    1    1    2    0  502 -0.10530253711E+03 -0.82748382004E+02  0.65089003387E+03  0.68667514535E+03  0.17300000000E+03 0.  1.
<mgrwt>
<rscale>  2 0.21878053E+03</rscale>
<asrwt>0</asrwt>
<pdfrwt beam="1">  1       21 0.13496483E+00 0.21878053E+03</pdfrwt>
<pdfrwt beam="2">  1       21 0.11582710E-01 0.21878053E+03</pdfrwt>
<totfact> 0.24182274E+04</totfact>
</mgrwt>
</event>
<event>
 4    1  0.4090208E+000  0.2097101E+03  0.7546771E-02  0.1141796E+00
         21   -1    0    0  501  502  0.00000000000E+00  0.00000000000E+00  0.21565980132E+03  0.21565980132E+03  0.00000000000E+00 0.  1.
         21   -1    0    0  502  503 -0.00000000000E+00 -0.00000000000E+00 -0.29934256099E+03  0.29934256099E+03  0.00000000000E+00 0. -1.
          6    1    1    2  501    0 -0.11812823782E+03 -0.97489348739E+01  0.10354048311E+03  0.23387807496E+03  0.17300000000E+03 0.  1.
         -6    1    1    2    0  503  0.11812823782E+03  0.97489348739E+01 -0.18722324278E+03  0.28112428735E+03  0.17300000000E+03 0.  1.
<mgrwt>
<rscale>  2 0.20971009E+03</rscale>
<asrwt>0</asrwt>
<pdfrwt beam="1">  1       21 0.33178431E-01 0.20971009E+03</pdfrwt>
<pdfrwt beam="2">  1       21 0.46052701E-01 0.20971009E+03</pdfrwt>
<totfact> 0.39179879E+04</totfact>
</mgrwt>
</event>
<event>
 4    1  0.4090208E+000  0.1808142E+03  0.7546771E-02  0.1167017E+00
         21   -1    0    0  501  502  0.00000000000E+00  0.00000000000E+00  0.13163064217E+03  0.13163064217E+03  0.00000000000E+00 0. -1.
         21   -1    0    0  502  503 -0.00000000000E+00 -0.00000000000E+00 -0.31511540806E+03  0.31511540806E+03  0.00000000000E+00 0. -1.
          6    1    1    2  501    0 -0.52022903503E+02  0.76405885304E+01  0.11056957172E+02  0.18115191797E+03  0.17300000000E+03 0. -1.
         -6    1    1    2    0  503  0.52022903503E+02 -0.76405885304E+01 -0.19454172306E+03  0.26559413226E+03  0.17300000000E+03 0. -1.
<mgrwt>
<rscale>  2 0.18081416E+03</rscale>
<asrwt>0</asrwt>
<pdfrwt beam="1">  1       21 0.20250868E-01 0.18081416E+03</pdfrwt>
<pdfrwt beam="2">  1       21 0.48479293E-01 0.18081416E+03</pdfrwt>
<totfact> 0.92056386E+04</totfact>
</mgrwt>
</event>
<event>
 4    1  0.4090208E+000  0.1948151E+03  0.7546771E-02  0.1154189E+00
         21   -1    0    0  501  502  0.00000000000E+00  0.00000000000E+00  0.20914445108E+03  0.20914445108E+03  0.00000000000E+00 0.  1.
         21   -1    0    0  502  503 -0.00000000000E+00 -0.00000000000E+00 -0.38191832588E+03  0.38191832588E+03  0.00000000000E+00 0.  1.
          6    1    1    2  501    0 -0.73393255603E+02 -0.51354995881E+02  0.12771587319E+03  0.23294688200E+03  0.17300000000E+03 0.  1.
         -6    1    1    2    0  503  0.73393255603E+02  0.51354995881E+02 -0.30048974799E+03  0.35811589495E+03  0.17300000000E+03 0.  1.
<mgrwt>
<rscale>  2 0.19481505E+03</rscale>
<asrwt>0</asrwt>
<pdfrwt beam="1">  1       21 0.32176070E-01 0.19481505E+03</pdfrwt>
<pdfrwt beam="2">  1       21 0.58756665E-01 0.19481505E+03</pdfrwt>
<totfact> 0.25151541E+04</totfact>
</mgrwt>
</event>
<event>
 4    1  0.4090208E+000  0.3101652E+03  0.7546771E-02  0.1080267E+00
         21   -1    0    0  501  502  0.00000000000E+00  0.00000000000E+00  0.66609232732E+03  0.66609232732E+03  0.00000000000E+00 0. -1.
         21   -1    0    0  502  503 -0.00000000000E+00 -0.00000000000E+00 -0.16613406324E+03  0.16613406324E+03  0.00000000000E+00 0. -1.
          6    1    1    2  501    0  0.12507884749E+03 -0.22500825578E+03  0.40038747138E+03  0.50647069066E+03  0.17300000000E+03 0. -1.
         -6    1    1    2    0  503 -0.12507884749E+03  0.22500825578E+03  0.99570792698E+02  0.32575569990E+03  0.17300000000E+03 0. -1.
<mgrwt>
<rscale>  2 0.31016517E+03</rscale>
<asrwt>0</asrwt>
<pdfrwt beam="1">  1       21 0.10247574E+00 0.31016517E+03</pdfrwt>
<pdfrwt beam="2">  1       21 0.25559087E-01 0.31016517E+03</pdfrwt>
<totfact> 0.10526883E+04</totfact>
</mgrwt>
</event>
<event>
 4    1  0.4090208E+000  0.3464621E+03  0.7546771E-02  0.1064077E+00
         21   -1    0    0  503  502  0.00000000000E+00  0.00000000000E+00  0.33567499594E+03  0.33567499594E+03  0.00000000000E+00 0.  1.
         21   -1    0    0  501  503 -0.00000000000E+00 -0.00000000000E+00 -0.39350876230E+03  0.39350876230E+03  0.00000000000E+00 0. -1.
          6    1    1    2  501    0 -0.20562359962E+03 -0.21869146320E+03 -0.13905926504E+03  0.37332760411E+03  0.17300000000E+03 0. -1.
         -6    1    1    2    0  502  0.20562359962E+03  0.21869146320E+03  0.81225498687E+02  0.35585615413E+03  0.17300000000E+03 0.  1.
<mgrwt>
<rscale>  2 0.34646215E+03</rscale>
<asrwt>0</asrwt>
<pdfrwt beam="1">  1       21 0.51642307E-01 0.34646215E+03</pdfrwt>
<pdfrwt beam="2">  1       21 0.60539810E-01 0.34646215E+03</pdfrwt>
<totfact> 0.83390034E+03</totfact>
</mgrwt>
</event>
<event>
 4    1  0.4090208E+000  0.2761301E+03  0.7546771E-02  0.1097822E+00
         21   -1    0    0  503  502  0.00000000000E+00  0.00000000000E+00  0.46632777210E+03  0.46632777210E+03  0.00000000000E+00 0.  1.
         21   -1    0    0  501  503 -0.00000000000E+00 -0.00000000000E+00 -0.16440274410E+03  0.16440274410E+03  0.00000000000E+00 0. -1.
          6    1    1    2  501    0 -0.35334413773E+02  0.21229767539E+03  0.17424168690E+03  0.32650878890E+03  0.17300000000E+03 0. -1.
         -6    1    1    2    0  502  0.35334413773E+02 -0.21229767539E+03  0.12768334110E+03  0.30422172731E+03  0.17300000000E+03 0.  1.
<mgrwt>
<rscale>  2 0.27613008E+03</rscale>
<asrwt>0</asrwt>
<pdfrwt beam="1">  1       21 0.71742734E-01 0.27613008E+03</pdfrwt>
<pdfrwt beam="2">  1       21 0.25292730E-01 0.27613008E+03</pdfrwt>
<totfact> 0.24937296E+04</totfact>
</mgrwt>
</event>
<event>
 4    1  0.4090208E+000  0.1807409E+03  0.7546771E-02  0.1167088E+00
         21   -1    0    0  501  502  0.00000000000E+00  0.00000000000E+00  0.31313403358E+02  0.31313403358E+02  0.00000000000E+00 0. -1.
         21   -1    0    0  502  503 -0.00000000000E+00 -0.00000000000E+00 -0.11127733564E+04  0.11127733564E+04  0.00000000000E+00 0. -1.
          6    1    1    2  501    0 -0.52029468287E+02 -0.55873056996E+01 -0.39773087538E+03  0.43687198672E+03  0.17300000000E+03 0. -1.
         -6    1    1    2    0  503  0.52029468287E+02  0.55873056996E+01 -0.68372907770E+03  0.70721477307E+03  0.17300000000E+03 0. -1.
<mgrwt>
<rscale>  2 0.18074093E+03</rscale>
<asrwt>0</asrwt>
<pdfrwt beam="1">  1       21 0.48174463E-02 0.18074093E+03</pdfrwt>
<pdfrwt beam="2">  1       21 0.17119591E+00 0.18074093E+03</pdfrwt>
<totfact> 0.60373069E+04</totfact>
</mgrwt>
</event>
<event>
 4    1  0.4090208E+000  0.2254119E+03  0.7546771E-02  0.1129911E+00
         21   -1    0    0  503  502  0.00000000000E+00  0.00000000000E+00  0.52185782496E+03  0.52185782496E+03  0.00000000000E+00 0. -1.
         21   -1    0    0  501  503 -0.00000000000E+00 -0.00000000000E+00 -0.15454434859E+03  0.15454434859E+03  0.00000000000E+00 0. -1.
          6    1    1    2  501    0  0.82491462546E+02  0.11864528770E+03 -0.22059732865E+02  0.22648880215E+03  0.17300000000E+03 0. -1.
         -6    1    1    2    0  502 -0.82491462546E+02 -0.11864528770E+03  0.38937320924E+03  0.44991337140E+03  0.17300000000E+03 0. -1.
<mgrwt>
<rscale>  2 0.22541195E+03</rscale>
<asrwt>0</asrwt>
<pdfrwt beam="1">  1       21 0.80285818E-01 0.22541195E+03</pdfrwt>
<pdfrwt beam="2">  1       21 0.23776054E-01 0.22541195E+03</pdfrwt>
<totfact> 0.22315956E+04</totfact>
</mgrwt>
</event>
<event>
 4    1  0.4090208E+000  0.2179209E+03  0.7546771E-02  0.1135443E+00
         21   -1    0    0  503  502  0.00000000000E+00  0.00000000000E+00  0.12191869097E+03  0.12191869097E+03  0.00000000000E+00 0.  1.
         21   -1    0    0  501  503 -0.00000000000E+00 -0.00000000000E+00 -0.40481335684E+03  0.40481335684E+03  0.00000000000E+00 0. -1.
          6    1    1    2  501    0  0.42246411537E+02 -0.12560165177E+03 -0.19264038538E+03  0.29086053754E+03  0.17300000000E+03 0.  1.
         -6    1    1    2    0  502 -0.42246411537E+02  0.12560165177E+03 -0.90254280486E+02  0.23587151028E+03  0.17300000000E+03 0.  1.
<mgrwt>
<rscale>  2 0.21792094E+03</rscale>
<asrwt>0</asrwt>
<pdfrwt beam="1">  1       21 0.18756721E-01 0.21792094E+03</pdfrwt>
<pdfrwt beam="2">  1       21 0.62278979E-01 0.21792094E+03</pdfrwt>
<totfact> 0.61493565E+04</totfact>
</mgrwt>
</event>
<event>
 4    1  0.4090208E+000  0.1813892E+03  0.7546771E-02  0.1166465E+00
         21   -1    0    0  501  502  0.00000000000E+00  0.00000000000E+00  0.10159672889E+04  0.10159672889E+04  0.00000000000E+00 0. -1.
         21   -1    0    0  502  503 -0.00000000000E+00 -0.00000000000E+00 -0.56580987667E+02  0.56580987667E+02  0.00000000000E+00 0. -1.
          6    1    1    2  501    0 -0.49996934468E+01  0.54295798953E+02  0.83038355800E+03  0.84996404872E+03  0.17300000000E+03 0. -1.
         -6    1    1    2    0  503  0.49996934468E+01 -0.54295798953E+02  0.12900274320E+03  0.22258422781E+03  0.17300000000E+03 0. -1.
<mgrwt>
<rscale>  2 0.18138917E+03</rscale>
<asrwt>0</asrwt>
<pdfrwt beam="1">  1       21 0.15630265E+00 0.18138917E+03</pdfrwt>
<pdfrwt beam="2">  1       21 0.87047681E-02 0.18138917E+03</pdfrwt>
<totfact> 0.27957771E+04</totfact>
</mgrwt>
</event>
<event>
 4    1  0.4090208E+000  0.2158239E+03  0.7546771E-02  0.1137035E+00
         21   -1    0    0  501  502  0.00000000000E+00  0.00000000000E+00  0.94513509058E+03  0.94513509058E+03  0.00000000000E+00 0.  1.
         21   -1    0    0  502  503 -0.00000000000E+00 -0.00000000000E+00 -0.97435491331E+02  0.97435491331E+02  0.00000000000E+00 0.  1.
          6    1    1    2  501    0  0.12676330615E+03  0.24125205020E+02  0.79030603620E+03  0.81924574589E+03  0.17300000000E+03 0. -1.
         -6    1    1    2    0  503 -0.12676330615E+03 -0.24125205020E+02  0.57393563047E+02  0.22332483602E+03  0.17300000000E+03 0. -1.
<mgrwt>
<rscale>  2 0.21582391E+03</rscale>
<asrwt>0</asrwt>
<pdfrwt beam="1">  1       21 0.14540539E+00 0.21582391E+03</pdfrwt>
<pdfrwt beam="2">  1       21 0.14990076E-01 0.21582391E+03</pdfrwt>
<totfact> 0.12530402E+04</totfact>
</mgrwt>
</event>
<event>
 4    1  0.4090208E+000  0.1793307E+03  0.7546771E-02  0.1168452E+00
         21   -1    0    0  503  502  0.00000000000E+00  0.00000000000E+00  0.16843845764E+03  0.16843845764E+03  0.00000000000E+00 0.  1.
         21   -1    0    0  501  503 -0.00000000000E+00 -0.00000000000E+00 -0.20677354044E+03  0.20677354044E+03  0.00000000000E+00 0.  1.
          6    1    1    2  501    0 -0.92160169474E+01  0.46320424487E+02 -0.71102644353E+02  0.19291216324E+03  0.17300000000E+03 0.  1.
         -6    1    1    2    0  502  0.92160169474E+01 -0.46320424487E+02  0.32767561556E+02  0.18229983484E+03  0.17300000000E+03 0.  1.
<mgrwt>
<rscale>  2 0.17933075E+03</rscale>
<asrwt>0</asrwt>
<pdfrwt beam="1">  1       21 0.25913609E-01 0.17933075E+03</pdfrwt>
<pdfrwt beam="2">  1       21 0.31811314E-01 0.17933075E+03</pdfrwt>
<totfact> 0.13497601E+05</totfact>
</mgrwt>
</event>
<event>
 4    1  0.4090208E+000  0.1762521E+03  0.7546771E-02  0.1171480E+00
         21   -1    0    0  503  502  0.00000000000E+00  0.00000000000E+00  0.13130639512E+03  0.13130639512E+03  0.00000000000E+00 0.  1.
         21   -1    0    0  501  503 -0.00000000000E+00 -0.00000000000E+00 -0.34518096513E+03  0.34518096513E+03  0.00000000000E+00 0.  1.
          6    1    1    2  501    0  0.30938837242E+02 -0.13364267626E+02 -0.24056898936E+03  0.29822517322E+03  0.17300000000E+03 0.  1.
         -6    1    1    2    0  502 -0.30938837242E+02  0.13364267626E+02  0.26694419355E+02  0.17826218703E+03  0.17300000000E+03 0.  1.
<mgrwt>
<rscale>  2 0.17625214E+03</rscale>
<asrwt>0</asrwt>
<pdfrwt beam="1">  1       21 0.20200984E-01 0.17625214E+03</pdfrwt>
<pdfrwt beam="2">  1       21 0.53104762E-01 0.17625214E+03</pdfrwt>
<totfact> 0.76617798E+04</totfact>
</mgrwt>
</event>
<event>
 4    1  0.4090208E+000  0.2012217E+03  0.7546771E-02  0.1148712E+00
         21   -1    0    0  503  502  0.00000000000E+00  0.00000000000E+00  0.14329483604E+03  0.14329483604E+03  0.00000000000E+00 0.  1.
         21   -1    0    0  501  503 -0.00000000000E+00 -0.00000000000E+00 -0.29283328631E+03  0.29283328631E+03  0.00000000000E+00 0.  1.
          6    1    1    2  501    0 -0.10270942814E+03  0.34563816664E+01 -0.11560237151E+03  0.23206482177E+03  0.17300000000E+03 0.  1.
         -6    1    1    2    0  502  0.10270942814E+03 -0.34563816664E+01 -0.33936078749E+02  0.20406330058E+03  0.17300000000E+03 0.  1.
<mgrwt>
<rscale>  2 0.20122170E+03</rscale>
<asrwt>0</asrwt>
<pdfrwt beam="1">  1       21 0.22045359E-01 0.20122170E+03</pdfrwt>
<pdfrwt beam="2">  1       21 0.45051275E-01 0.20122170E+03</pdfrwt>
<totfact> 0.90579810E+04</totfact>
</mgrwt>
</event>
<event>
 4    1  0.4090208E+000  0.1877730E+03  0.7546771E-02  0.1160485E+00
         21   -1    0    0  503  502  0.00000000000E+00  0.00000000000E+00  0.61600872075E+03  0.61600872075E+03  0.00000000000E+00 0.  1.
         21   -1    0    0  501  503 -0.00000000000E+00 -0.00000000000E+00 -0.57356850686E+02  0.57356850686E+02  0.00000000000E+00 0. -1.
          6    1    1    2  501    0  0.39848145807E+02 -0.61170372850E+02  0.26395624465E+03  0.32393145622E+03  0.17300000000E+03 0. -1.
         -6    1    1    2    0  502 -0.39848145807E+02  0.61170372850E+02  0.29469562541E+03  0.34943411522E+03  0.17300000000E+03 0. -1.
<mgrwt>
<rscale>  2 0.18777297E+03</rscale>
<asrwt>0</asrwt>
<pdfrwt beam="1">  1       21 0.94770568E-01 0.18777297E+03</pdfrwt>
<pdfrwt beam="2">  1       21 0.88241313E-02 0.18777297E+03</pdfrwt>
<totfact> 0.94394565E+04</totfact>
</mgrwt>
</event>
<event>
 4    1  0.4090208E+000  0.1831252E+03  0.7546771E-02  0.1164812E+00
         21   -1    0    0  501  502  0.00000000000E+00  0.00000000000E+00  0.42224603080E+03  0.42224603080E+03  0.00000000000E+00 0.  1.
         21   -1    0    0  502  503 -0.00000000000E+00 -0.00000000000E+00 -0.30767551137E+03  0.30767551137E+03  0.00000000000E+00 0.  1.
          6    1    1    2  501    0  0.29363207227E+02  0.52379613102E+02  0.37163294125E+03  0.41430165922E+03  0.17300000000E+03 0.  1.
         -6    1    1    2    0  503 -0.29363207227E+02 -0.52379613102E+02 -0.25706242181E+03  0.31561988295E+03  0.17300000000E+03 0.  1.
<mgrwt>
<rscale>  2 0.18312515E+03</rscale>
<asrwt>0</asrwt>
<pdfrwt beam="1">  1       21 0.64960928E-01 0.18312515E+03</pdfrwt>
<pdfrwt beam="2">  1       21 0.47334694E-01 0.18312515E+03</pdfrwt>
<totfact> 0.93798827E+03</totfact>
</mgrwt>
</event>
<event>
 4    1  0.4090208E+000  0.2213606E+03  0.7546771E-02  0.1132873E+00
         21   -1    0    0  503  502  0.00000000000E+00  0.00000000000E+00  0.50841502754E+02  0.50841502754E+02  0.00000000000E+00 0.  1.
         21   -1    0    0  501  503 -0.00000000000E+00 -0.00000000000E+00 -0.10340177055E+04  0.10340177055E+04  0.00000000000E+00 0. -1.
          6    1    1    2  501    0  0.17555202464E+02  0.13697923357E+03 -0.63295113230E+03  0.67054278868E+03  0.17300000000E+03 0. -1.
         -6    1    1    2    0  502 -0.17555202464E+02 -0.13697923357E+03 -0.35022507042E+03  0.41431641956E+03  0.17300000000E+03 0.  1.
<mgrwt>
<rscale>  2 0.22136056E+03</rscale>
<asrwt>0</asrwt>
<pdfrwt beam="1">  1       21 0.78217701E-02 0.22136056E+03</pdfrwt>
<pdfrwt beam="2">  1       21 0.15907964E+00 0.22136056E+03</pdfrwt>
<totfact> 0.31345584E+04</totfact>
</mgrwt>
</event>
<event>
 4    1  0.4090208E+000  0.2094715E+03  0.7546771E-02  0.1141985E+00
         21   -1    0    0  501  502  0.00000000000E+00  0.00000000000E+00  0.12932107800E+03  0.12932107800E+03  0.00000000000E+00 0. -1.
         21   -1    0    0  502  503 -0.00000000000E+00 -0.00000000000E+00 -0.40721804667E+03  0.40721804667E+03  0.00000000000E+00 0.  1.
          6    1    1    2  501    0  0.42206336177E+02 -0.11030832051E+03 -0.29386743093E+02  0.21152276723E+03  0.17300000000E+03 0.  1.
         -6    1    1    2    0  503 -0.42206336177E+02  0.11030832051E+03 -0.24851022558E+03  0.32501635744E+03  0.17300000000E+03 0.  1.
<mgrwt>
<rscale>  2 0.20947148E+03</rscale>
<asrwt>0</asrwt>
<pdfrwt beam="1">  1       21 0.19895551E-01 0.20947148E+03</pdfrwt>
<pdfrwt beam="2">  1       21 0.62648929E-01 0.20947148E+03</pdfrwt>
<totfact> 0.54591034E+04</totfact>
</mgrwt>
</event>
<event>
 4    1  0.4090208E+000  0.1934160E+03  0.7546771E-02  0.1155416E+00
         21   -1    0    0  503  502  0.00000000000E+00  0.00000000000E+00  0.60895344849E+02  0.60895344849E+02  0.00000000000E+00 0.  1.
         21   -1    0    0  501  503 -0.00000000000E+00 -0.00000000000E+00 -0.62010452242E+03  0.62010452242E+03  0.00000000000E+00 0.  1.
          6    1    1    2  501    0 -0.61445448810E+02  0.60870542090E+02 -0.24674315287E+03  0.31351546941E+03  0.17300000000E+03 0.  1.
         -6    1    1    2    0  502  0.61445448810E+02 -0.60870542090E+02 -0.31246602470E+03  0.36748439786E+03  0.17300000000E+03 0.  1.
<mgrwt>
<rscale>  2 0.19341604E+03</rscale>
<asrwt>0</asrwt>
<pdfrwt beam="1">  1       21 0.93685148E-02 0.19341604E+03</pdfrwt>
<pdfrwt beam="2">  1       21 0.95400693E-01 0.19341604E+03</pdfrwt>
<totfact> 0.83478031E+04</totfact>
</mgrwt>
</event>
<event>
 4    1  0.4090208E+000  0.2405740E+03  0.7546771E-02  0.1119411E+00
         21   -1    0    0  501  502  0.00000000000E+00  0.00000000000E+00  0.49815096940E+03  0.49815096940E+03  0.00000000000E+00 0.  1.
         21   -1    0    0  502  503 -0.00000000000E+00 -0.00000000000E+00 -0.27419789567E+03  0.27419789567E+03  0.00000000000E+00 0. -1.
          6    1    1    2  501    0  0.13014983670E+03 -0.10491850053E+03  0.40513516858E+03  0.47117977096E+03  0.17300000000E+03 0.  1.
         -6    1    1    2    0  503 -0.13014983670E+03  0.10491850053E+03 -0.18118209485E+03  0.30116909410E+03  0.17300000000E+03 0. -1.
<mgrwt>
<rscale>  2 0.24057405E+03</rscale>
<asrwt>0</asrwt>
<pdfrwt beam="1">  1       21 0.76638610E-01 0.24057405E+03</pdfrwt>
<pdfrwt beam="2">  1       21 0.42184292E-01 0.24057405E+03</pdfrwt>
<totfact> 0.79347567E+03</totfact>
</mgrwt>
</event>
<event>
 4    1  0.4090208E+000  0.2065383E+03  0.7546771E-02  0.1144337E+00
         21   -1    0    0  501  502  0.00000000000E+00  0.00000000000E+00  0.16454750411E+03  0.16454750411E+03  0.00000000000E+00 0. -1.
         21   -1    0    0  502  503 -0.00000000000E+00 -0.00000000000E+00 -0.36149807607E+03  0.36149807607E+03  0.00000000000E+00 0.  1.
          6    1    1    2  501    0  0.96002256096E+02 -0.59267596539E+02  0.41412258710E+02  0.21064913089E+03  0.17300000000E+03 0. -1.
         -6    1    1    2    0  503 -0.96002256096E+02  0.59267596539E+02 -0.23836283067E+03  0.31539644928E+03  0.17300000000E+03 0.  1.
<mgrwt>
<rscale>  2 0.20653833E+03</rscale>
<asrwt>0</asrwt>
<pdfrwt beam="1">  1       21 0.25315001E-01 0.20653833E+03</pdfrwt>
<pdfrwt beam="2">  1       21 0.55615088E-01 0.20653833E+03</pdfrwt>
<totfact> 0.44742620E+04</totfact>
</mgrwt>
</event>
<event>
 4    1  0.4090208E+000  0.1985780E+03  0.7546771E-02  0.1150944E+00
         21   -1    0    0  503  502  0.00000000000E+00  0.00000000000E+00  0.27220171223E+03  0.27220171223E+03  0.00000000000E+00 0.  1.
         21   -1    0    0  501  503 -0.00000000000E+00 -0.00000000000E+00 -0.17062863402E+03  0.17062863402E+03  0.00000000000E+00 0. -1.
          6    1    1    2  501    0  0.18170183796E+02 -0.95781370276E+02 -0.35245956153E+02  0.20168168954E+03  0.17300000000E+03 0. -1.
         -6    1    1    2    0  502 -0.18170183796E+02  0.95781370276E+02  0.13681903435E+03  0.24114865671E+03  0.17300000000E+03 0.  1.
<mgrwt>
<rscale>  2 0.19857801E+03</rscale>
<asrwt>0</asrwt>
<pdfrwt beam="1">  1       21 0.41877186E-01 0.19857801E+03</pdfrwt>
<pdfrwt beam="2">  1       21 0.26250559E-01 0.19857801E+03</pdfrwt>
<totfact> 0.75527242E+04</totfact>
</mgrwt>
</event>
<event>
 4    1  0.4090208E+000  0.1908002E+03  0.7546771E-02  0.1157742E+00
         21   -1    0    0  501  502  0.00000000000E+00  0.00000000000E+00  0.11016302485E+04  0.11016302485E+04  0.00000000000E+00 0. -1.
         21   -1    0    0  502  503 -0.00000000000E+00 -0.00000000000E+00 -0.41622866845E+02  0.41622866845E+02  0.00000000000E+00 0. -1.
          6    1    1    2  501    0  0.61855393185E+02 -0.51474605677E+02  0.78948432860E+03  0.81221316771E+03  0.17300000000E+03 0. -1.
         -6    1    1    2    0  503 -0.61855393185E+02  0.51474605677E+02  0.27052305305E+03  0.33103994763E+03  0.17300000000E+03 0. -1.
<mgrwt>
<rscale>  2 0.19080022E+03</rscale>
<asrwt>0</asrwt>
<pdfrwt beam="1">  1       21 0.16948155E+00 0.19080022E+03</pdfrwt>
<pdfrwt beam="2">  1       21 0.64035188E-02 0.19080022E+03</pdfrwt>
<totfact> 0.37991765E+04</totfact>
</mgrwt>
</event>
<event>
 4    1  0.4090208E+000  0.1838978E+03  0.7546771E-02  0.1164083E+00
         21   -1    0    0  501  502  0.00000000000E+00  0.00000000000E+00  0.71258965808E+03  0.71258965808E+03  0.00000000000E+00 0. -1.
         21   -1    0    0  502  503 -0.00000000000E+00 -0.00000000000E+00 -0.51591936629E+02  0.51591936629E+02  0.00000000000E+00 0. -1.
          6    1    1    2  501    0 -0.26740452510E+02 -0.56341522921E+02  0.22234735292E+03  0.28854248275E+03  0.17300000000E+03 0. -1.
         -6    1    1    2    0  503  0.26740452510E+02  0.56341522921E+02  0.43865036853E+03  0.47563911195E+03  0.17300000000E+03 0. -1.
<mgrwt>
<rscale>  2 0.18389785E+03</rscale>
<asrwt>0</asrwt>
<pdfrwt beam="1">  1       21 0.10962917E+00 0.18389785E+03</pdfrwt>
<pdfrwt beam="2">  1       21 0.79372215E-02 0.18389785E+03</pdfrwt>
<totfact> 0.80421419E+04</totfact>
</mgrwt>
</event>
<event>
 4    1  0.4090208E+000  0.1866550E+03  0.7546771E-02  0.1161513E+00
         21   -1    0    0  501  502  0.00000000000E+00  0.00000000000E+00  0.75244851116E+03  0.75244851116E+03  0.00000000000E+00 0. -1.
         21   -1    0    0  502  503 -0.00000000000E+00 -0.00000000000E+00 -0.10180204254E+03  0.10180204254E+03  0.00000000000E+00 0. -1.
          6    1    1    2  501    0 -0.82094575207E+01 -0.69596681206E+02  0.64069479675E+03  0.66733043975E+03  0.17300000000E+03 0. -1.
         -6    1    1    2    0  503  0.82094575207E+01  0.69596681206E+02  0.99516718742E+01  0.18692011395E+03  0.17300000000E+03 0. -1.
<mgrwt>
<rscale>  2 0.18665501E+03</rscale>
<asrwt>0</asrwt>
<pdfrwt beam="1">  1       21 0.11576131E+00 0.18665501E+03</pdfrwt>
<pdfrwt beam="2">  1       21 0.15661853E-01 0.18665501E+03</pdfrwt>
<totfact> 0.20994934E+04</totfact>
</mgrwt>
</event>
<event>
 4    1  0.4090208E+000  0.1838796E+03  0.7546771E-02  0.1164100E+00
         21   -1    0    0  501  502  0.00000000000E+00  0.00000000000E+00  0.10384339024E+04  0.10384339024E+04  0.00000000000E+00 0. -1.
         21   -1    0    0  502  503 -0.00000000000E+00 -0.00000000000E+00 -0.41483471330E+02  0.41483471330E+02  0.00000000000E+00 0. -1.
          6    1    1    2  501    0 -0.62306941891E+02 -0.73469206761E+00  0.24804704567E+03  0.30877019229E+03  0.17300000000E+03 0. -1.
         -6    1    1    2    0  503  0.62306941891E+02  0.73469206761E+00  0.74890338540E+03  0.77114718144E+03  0.17300000000E+03 0. -1.
<mgrwt>
<rscale>  2 0.18387957E+03</rscale>
<asrwt>0</asrwt>
<pdfrwt beam="1">  1       21 0.15975904E+00 0.18387957E+03</pdfrwt>
<pdfrwt beam="2">  1       21 0.63820733E-02 0.18387957E+03</pdfrwt>
<totfact> 0.45056858E+04</totfact>
</mgrwt>
</event>
<event>
 4    1  0.4090208E+000  0.1933821E+03  0.7546771E-02  0.1155446E+00
         21   -1    0    0  503  502  0.00000000000E+00  0.00000000000E+00  0.16800439546E+03  0.16800439546E+03  0.00000000000E+00 0. -1.
         21   -1    0    0  501  503 -0.00000000000E+00 -0.00000000000E+00 -0.30673443319E+03  0.30673443319E+03  0.00000000000E+00 0. -1.
          6    1    1    2  501    0  0.83747523852E+02  0.21307336551E+02 -0.19368693885E+03  0.27369925214E+03  0.17300000000E+03 0. -1.
         -6    1    1    2    0  502 -0.83747523852E+02 -0.21307336551E+02  0.54956901116E+02  0.20103957651E+03  0.17300000000E+03 0. -1.
<mgrwt>
<rscale>  2 0.19338214E+03</rscale>
<asrwt>0</asrwt>
<pdfrwt beam="1">  1       21 0.25846830E-01 0.19338214E+03</pdfrwt>
<pdfrwt beam="2">  1       21 0.47189912E-01 0.19338214E+03</pdfrwt>
<totfact> 0.61047693E+04</totfact>
</mgrwt>
</event>
<event>
 4    1  0.4090208E+000  0.2220773E+03  0.7546771E-02  0.1132344E+00
         21   -1    0    0  503  502  0.00000000000E+00  0.00000000000E+00  0.20058050950E+03  0.20058050950E+03  0.00000000000E+00 0. -1.
         21   -1    0    0  501  503 -0.00000000000E+00 -0.00000000000E+00 -0.27746237255E+03  0.27746237255E+03  0.00000000000E+00 0. -1.
          6    1    1    2  501    0  0.11155790088E+03 -0.83331514640E+02  0.42203038012E+02  0.22605177062E+03  0.17300000000E+03 0. -1.
         -6    1    1    2    0  502 -0.11155790088E+03  0.83331514640E+02 -0.11908490105E+03  0.25199111143E+03  0.17300000000E+03 0. -1.
<mgrwt>
<rscale>  2 0.22207725E+03</rscale>
<asrwt>0</asrwt>
<pdfrwt beam="1">  1       21 0.30858540E-01 0.22207725E+03</pdfrwt>
<pdfrwt beam="2">  1       21 0.42686519E-01 0.22207725E+03</pdfrwt>
<totfact> 0.52515289E+04</totfact>
</mgrwt>
</event>
<event>
 4    1  0.4090208E+000  0.2349177E+03  0.7546771E-02  0.1123226E+00
         21   -1    0    0  501  502  0.00000000000E+00  0.00000000000E+00  0.14073006833E+03  0.14073006833E+03  0.00000000000E+00 0. -1.
         21   -1    0    0  502  503 -0.00000000000E+00 -0.00000000000E+00 -0.39621276532E+03  0.39621276532E+03  0.00000000000E+00 0. -1.
          6    1    1    2  501    0 -0.10206728992E+03 -0.12181784859E+03 -0.10053218446E+03  0.25552502817E+03  0.17300000000E+03 0. -1.
         -6    1    1    2    0  503  0.10206728992E+03  0.12181784859E+03 -0.15495051253E+03  0.28141780548E+03  0.17300000000E+03 0. -1.
<mgrwt>
<rscale>  2 0.23491769E+03</rscale>
<asrwt>0</asrwt>
<pdfrwt beam="1">  1       21 0.21650780E-01 0.23491769E+03</pdfrwt>
<pdfrwt beam="2">  1       21 0.60955809E-01 0.23491769E+03</pdfrwt>
<totfact> 0.48856375E+04</totfact>
</mgrwt>
</event>
<event>
 4    1  0.4090208E+000  0.2088746E+03  0.7546771E-02  0.1142460E+00
         21   -1    0    0  503  502  0.00000000000E+00  0.00000000000E+00  0.54880959489E+03  0.54880959489E+03  0.00000000000E+00 0. -1.
         21   -1    0    0  501  503 -0.00000000000E+00 -0.00000000000E+00 -0.96932535249E+02  0.96932535249E+02  0.00000000000E+00 0. -1.
          6    1    1    2  501    0 -0.64344316072E+02  0.97772172968E+02  0.89003400269E+02  0.22704667819E+03  0.17300000000E+03 0. -1.
         -6    1    1    2    0  502  0.64344316072E+02 -0.97772172968E+02  0.36287365938E+03  0.41869545195E+03  0.17300000000E+03 0. -1.
<mgrwt>
<rscale>  2 0.20887458E+03</rscale>
<asrwt>0</asrwt>
<pdfrwt beam="1">  1       21 0.84432244E-01 0.20887458E+03</pdfrwt>
<pdfrwt beam="2">  1       21 0.14912698E-01 0.20887458E+03</pdfrwt>
<totfact> 0.47848797E+04</totfact>
</mgrwt>
</event>
<event>
 4    1  0.4090208E+000  0.1967684E+03  0.7546771E-02  0.1152495E+00
         21   -1    0    0  503  502  0.00000000000E+00  0.00000000000E+00  0.63586231482E+03  0.63586231482E+03  0.00000000000E+00 0.  1.
         21   -1    0    0  501  503 -0.00000000000E+00 -0.00000000000E+00 -0.12249393496E+03  0.12249393496E+03  0.00000000000E+00 0.  1.
          6    1    1    2  501    0 -0.26984035159E+02  0.89781159386E+02 -0.12214967411E+02  0.19714715358E+03  0.17300000000E+03 0.  1.
         -6    1    1    2    0  502  0.26984035159E+02 -0.89781159386E+02  0.52558334727E+03  0.56120909620E+03  0.17300000000E+03 0.  1.
<mgrwt>
<rscale>  2 0.19676838E+03</rscale>
<asrwt>0</asrwt>
<pdfrwt beam="1">  1       21 0.97824970E-01 0.19676838E+03</pdfrwt>
<pdfrwt beam="2">  1       21 0.18845221E-01 0.19676838E+03</pdfrwt>
<totfact> 0.22243906E+04</totfact>
</mgrwt>
</event>
<event>
 4    1  0.4090208E+000  0.1888609E+03  0.7546771E-02  0.1159493E+00
         21   -1    0    0  503  502  0.00000000000E+00  0.00000000000E+00  0.80102795790E+02  0.80102795790E+02  0.00000000000E+00 0. -1.
         21   -1    0    0  501  503 -0.00000000000E+00 -0.00000000000E+00 -0.56402052783E+03  0.56402052783E+03  0.00000000000E+00 0. -1.
          6    1    1    2  501    0 -0.75733325830E+02 -0.19758720252E+01 -0.38972841499E+03  0.43307814325E+03  0.17300000000E+03 0. -1.
         -6    1    1    2    0  502  0.75733325830E+02  0.19758720252E+01 -0.94189317057E+02  0.21104518037E+03  0.17300000000E+03 0. -1.
<mgrwt>
<rscale>  2 0.18886090E+03</rscale>
<asrwt>0</asrwt>
<pdfrwt beam="1">  1       21 0.12323507E-01 0.18886090E+03</pdfrwt>
<pdfrwt beam="2">  1       21 0.86772388E-01 0.18886090E+03</pdfrwt>
<totfact> 0.64057753E+04</totfact>
</mgrwt>
</event>
<event>
 4    1  0.4090208E+000  0.2364218E+03  0.7546771E-02  0.1122200E+00
         21   -1    0    0  501  502  0.00000000000E+00  0.00000000000E+00  0.19308972365E+03  0.19308972365E+03  0.00000000000E+00 0. -1.
         21   -1    0    0  502  503 -0.00000000000E+00 -0.00000000000E+00 -0.36611777034E+03  0.36611777034E+03  0.00000000000E+00 0. -1.
          6    1    1    2  501    0  0.15984645310E+03  0.20381339414E+02  0.41411968135E+02  0.24002132962E+03  0.17300000000E+03 0. -1.
         -6    1    1    2    0  503 -0.15984645310E+03 -0.20381339414E+02 -0.21444001483E+03  0.31918616437E+03  0.17300000000E+03 0. -1.
<mgrwt>
<rscale>  2 0.23642184E+03</rscale>
<asrwt>0</asrwt>
<pdfrwt beam="1">  1       21 0.29706111E-01 0.23642184E+03</pdfrwt>
<pdfrwt beam="2">  1       21 0.56325811E-01 0.23642184E+03</pdfrwt>
<totfact> 0.31501152E+04</totfact>
</mgrwt>
</event>
<event>
 4    1  0.4090208E+000  0.1876352E+03  0.7546771E-02  0.1160612E+00
         21   -1    0    0  503  502  0.00000000000E+00  0.00000000000E+00  0.12781119182E+04  0.12781119182E+04  0.00000000000E+00 0.  1.
         21   -1    0    0  501  503 -0.00000000000E+00 -0.00000000000E+00 -0.30624046370E+02  0.30624046370E+02  0.00000000000E+00 0. -1.
          6    1    1    2  501    0 -0.39966413133E+02 -0.60668534894E+02  0.83119803424E+03  0.85211334776E+03  0.17300000000E+03 0.  1.
         -6    1    1    2    0  502  0.39966413133E+02  0.60668534894E+02  0.41628983762E+03  0.45662261684E+03  0.17300000000E+03 0. -1.
<mgrwt>
<rscale>  2 0.18763525E+03</rscale>
<asrwt>0</asrwt>
<pdfrwt beam="1">  1       21 0.19663256E+00 0.18763525E+03</pdfrwt>
<pdfrwt beam="2">  1       21 0.47113927E-02 0.18763525E+03</pdfrwt>
<totfact> 0.42129760E+04</totfact>
</mgrwt>
</event>
<event>
 4    1  0.4090208E+000  0.2249188E+03  0.7546771E-02  0.1130268E+00
         21   -1    0    0  501  502  0.00000000000E+00  0.00000000000E+00  0.50428891609E+02  0.50428891609E+02  0.00000000000E+00 0.  1.
         21   -1    0    0  502  503 -0.00000000000E+00 -0.00000000000E+00 -0.10194333719E+04  0.10194333719E+04  0.00000000000E+00 0.  1.
          6    1    1    2  501    0 -0.11525863363E+03  0.85877297643E+02 -0.55207942106E+03  0.59613769385E+03  0.17300000000E+03 0.  1.
         -6    1    1    2    0  503  0.11525863363E+03 -0.85877297643E+02 -0.41692505923E+03  0.47372456965E+03  0.17300000000E+03 0.  1.
<mgrwt>
<rscale>  2 0.22491879E+03</rscale>
<asrwt>0</asrwt>
<pdfrwt beam="1">  1       21 0.77582916E-02 0.22491879E+03</pdfrwt>
<pdfrwt beam="2">  1       21 0.15683589E+00 0.22491879E+03</pdfrwt>
<totfact> 0.32970795E+04</totfact>
</mgrwt>
</event>
<event>
 4    1  0.4090208E+000  0.2485552E+03  0.7546771E-02  0.1114221E+00
         21   -1    0    0  503  502  0.00000000000E+00  0.00000000000E+00  0.10349482055E+04  0.10349482055E+04  0.00000000000E+00 0. -1.
         21   -1    0    0  501  503 -0.00000000000E+00 -0.00000000000E+00 -0.66391828409E+02  0.66391828409E+02  0.00000000000E+00 0.  1.
          6    1    1    2  501    0 -0.17549267485E+03 -0.32449897924E+02  0.65918934821E+03  0.70449291806E+03  0.17300000000E+03 0. -1.
         -6    1    1    2    0  502  0.17549267485E+03  0.32449897924E+02  0.30936702888E+03  0.39684711585E+03  0.17300000000E+03 0.  1.
<mgrwt>
<rscale>  2 0.24855517E+03</rscale>
<asrwt>0</asrwt>
<pdfrwt beam="1">  1       21 0.15922279E+00 0.24855517E+03</pdfrwt>
<pdfrwt beam="2">  1       21 0.10214128E-01 0.24855517E+03</pdfrwt>
<totfact> 0.19243961E+04</totfact>
</mgrwt>
</event>
<event>
 4    1  0.4090208E+000  0.1848333E+03  0.7546771E-02  0.1163206E+00
         21   -1    0    0  503  502  0.00000000000E+00  0.00000000000E+00  0.18360599471E+03  0.18360599471E+03  0.00000000000E+00 0. -1.
         21   -1    0    0  501  503 -0.00000000000E+00 -0.00000000000E+00 -0.59935232812E+03  0.59935232812E+03  0.00000000000E+00 0. -1.
          6    1    1    2  501    0  0.56510680551E+02 -0.32263108863E+02 -0.53295413703E+03  0.56409527332E+03  0.17300000000E+03 0. -1.
         -6    1    1    2    0  502 -0.56510680551E+02  0.32263108863E+02  0.11720780362E+03  0.21886304951E+03  0.17300000000E+03 0. -1.
<mgrwt>
<rscale>  2 0.18483334E+03</rscale>
<asrwt>0</asrwt>
<pdfrwt beam="1">  1       21 0.28247076E-01 0.18483334E+03</pdfrwt>
<pdfrwt beam="2">  1       21 0.92208051E-01 0.18483334E+03</pdfrwt>
<totfact> 0.11958978E+04</totfact>
</mgrwt>
</event>
<event>
 4    1  0.4090208E+000  0.1995059E+03  0.7546771E-02  0.1150157E+00
         21   -1    0    0  501  502  0.00000000000E+00  0.00000000000E+00  0.11398244719E+03  0.11398244719E+03  0.00000000000E+00 0.  1.
         21   -1    0    0  502  503 -0.00000000000E+00 -0.00000000000E+00 -0.34921371494E+03  0.34921371494E+03  0.00000000000E+00 0.  1.
          6    1    1    2  501    0 -0.98771072338E+02 -0.10857415311E+02 -0.11613557136E+03  0.23084644059E+03  0.17300000000E+03 0.  1.
         -6    1    1    2    0  503  0.98771072338E+02  0.10857415311E+02 -0.11909569639E+03  0.23234972153E+03  0.17300000000E+03 0.  1.
<mgrwt>
<rscale>  2 0.19950591E+03</rscale>
<asrwt>0</asrwt>
<pdfrwt beam="1">  1       21 0.17535761E-01 0.19950591E+03</pdfrwt>
<pdfrwt beam="2">  1       21 0.53725186E-01 0.19950591E+03</pdfrwt>
<totfact> 0.96297340E+04</totfact>
</mgrwt>
</event>
<event>
 4    1  0.4090208E+000  0.2612267E+03  0.7546771E-02  0.1106408E+00
         21   -1    0    0  501  502  0.00000000000E+00  0.00000000000E+00  0.28956060543E+03  0.28956060543E+03  0.00000000000E+00 0. -1.
         21   -1    0    0  502  503 -0.00000000000E+00 -0.00000000000E+00 -0.23566556924E+03  0.23566556924E+03  0.00000000000E+00 0.  1.
          6    1    1    2  501    0 -0.11424349321E+03  0.15893029550E+03  0.27173077449E+02  0.26263623266E+03  0.17300000000E+03 0. -1.
         -6    1    1    2    0  503  0.11424349321E+03 -0.15893029550E+03  0.26721958741E+02  0.26258994201E+03  0.17300000000E+03 0.  1.
<mgrwt>
<rscale>  2 0.26122675E+03</rscale>
<asrwt>0</asrwt>
<pdfrwt beam="1">  1       21 0.44547785E-01 0.26122675E+03</pdfrwt>
<pdfrwt beam="2">  1       21 0.36256242E-01 0.26122675E+03</pdfrwt>
<totfact> 0.34357837E+04</totfact>
</mgrwt>
</event>
<event>
 4    1  0.4090208E+000  0.2114881E+03  0.7546771E-02  0.1140393E+00
         21   -1    0    0  503  502  0.00000000000E+00  0.00000000000E+00  0.51575787755E+03  0.51575787755E+03  0.00000000000E+00 0.  1.
         21   -1    0    0  501  503 -0.00000000000E+00 -0.00000000000E+00 -0.11419018748E+03  0.11419018748E+03  0.00000000000E+00 0.  1.
          6    1    1    2  501    0 -0.12094725932E+03  0.13038275272E+02  0.46301006443E+02  0.21649715785E+03  0.17300000000E+03 0.  1.
         -6    1    1    2    0  502  0.12094725932E+03 -0.13038275272E+02  0.35526668363E+03  0.41345090719E+03  0.17300000000E+03 0.  1.
<mgrwt>
<rscale>  2 0.21148815E+03</rscale>
<asrwt>0</asrwt>
<pdfrwt beam="1">  1       21 0.79347364E-01 0.21148815E+03</pdfrwt>
<pdfrwt beam="2">  1       21 0.17567721E-01 0.21148815E+03</pdfrwt>
<totfact> 0.40742654E+04</totfact>
</mgrwt>
</event>
<event>
 4    1  0.4090208E+000  0.2198099E+03  0.7546771E-02  0.1134025E+00
         21   -1    0    0  501  502  0.00000000000E+00  0.00000000000E+00  0.29738157239E+03  0.29738157239E+03  0.00000000000E+00 0.  1.
         21   -1    0    0  502  503 -0.00000000000E+00 -0.00000000000E+00 -0.16351558086E+03  0.16351558086E+03  0.00000000000E+00 0. -1.
          6    1    1    2  501    0 -0.44353529809E+02  0.12814111911E+03  0.85337125977E+02  0.23579399289E+03  0.17300000000E+03 0.  1.
         -6    1    1    2    0  503  0.44353529809E+02 -0.12814111911E+03  0.48528865561E+02  0.22510316036E+03  0.17300000000E+03 0.  1.
<mgrwt>
<rscale>  2 0.21980988E+03</rscale>
<asrwt>0</asrwt>
<pdfrwt beam="1">  1       21 0.45751011E-01 0.21980988E+03</pdfrwt>
<pdfrwt beam="2">  1       21 0.25156243E-01 0.21980988E+03</pdfrwt>
<totfact> 0.67741626E+04</totfact>
</mgrwt>
</event>
<event>
 4    1  0.4090208E+000  0.1872658E+03  0.7546771E-02  0.1160951E+00
         21   -1    0    0  501  502  0.00000000000E+00  0.00000000000E+00  0.59592866656E+03  0.59592866656E+03  0.00000000000E+00 0.  1.
         21   -1    0    0  502  503 -0.00000000000E+00 -0.00000000000E+00 -0.11633708238E+03  0.11633708238E+03  0.00000000000E+00 0. -1.
          6    1    1    2  501    0  0.61019179099E+02 -0.37631543565E+02  0.49014737400E+03  0.52470269823E+03  0.17300000000E+03 0.  1.
         -6    1    1    2    0  503 -0.61019179099E+02  0.37631543565E+02 -0.10555789825E+02  0.18756305070E+03  0.17300000000E+03 0. -1.
<mgrwt>
<rscale>  2 0.18726578E+03</rscale>
<asrwt>0</asrwt>
<pdfrwt beam="1">  1       21 0.91681332E-01 0.18726578E+03</pdfrwt>
<pdfrwt beam="2">  1       21 0.17898013E-01 0.18726578E+03</pdfrwt>
<totfact> 0.28641451E+04</totfact>
</mgrwt>
</event>
<event>
 4    1  0.4090208E+000  0.2390979E+03  0.7546771E-02  0.1120395E+00
         21   -1    0    0  503  502  0.00000000000E+00  0.00000000000E+00  0.17122673061E+03  0.17122673061E+03  0.00000000000E+00 0. -1.
         21   -1    0    0  501  503 -0.00000000000E+00 -0.00000000000E+00 -0.34142330097E+03  0.34142330097E+03  0.00000000000E+00 0. -1.
          6    1    1    2  501    0  0.72074927161E+02 -0.14847217804E+03 -0.46977657378E+02  0.24366920830E+03  0.17300000000E+03 0. -1.
         -6    1    1    2    0  502 -0.72074927161E+02  0.14847217804E+03 -0.12321891298E+03  0.26898082329E+03  0.17300000000E+03 0. -1.
<mgrwt>
<rscale>  2 0.23909785E+03</rscale>
<asrwt>0</asrwt>
<pdfrwt beam="1">  1       21 0.26342574E-01 0.23909785E+03</pdfrwt>
<pdfrwt beam="2">  1       21 0.52526661E-01 0.23909785E+03</pdfrwt>
<totfact> 0.46090900E+04</totfact>
</mgrwt>
</event>
<event>
 4    1  0.4090208E+000  0.2817029E+03  0.7546771E-02  0.1094762E+00
         21   -1    0    0  501  502  0.00000000000E+00  0.00000000000E+00  0.56170128212E+03  0.56170128212E+03  0.00000000000E+00 0.  1.
         21   -1    0    0  502  503 -0.00000000000E+00 -0.00000000000E+00 -0.19524558396E+03  0.19524558396E+03  0.00000000000E+00 0.  1.
          6    1    1    2  501    0 -0.21989049807E+03 -0.32797855389E+02  0.38220706690E+03  0.47480393053E+03  0.17300000000E+03 0.  1.
         -6    1    1    2    0  503  0.21989049807E+03  0.32797855389E+02 -0.15751368740E+02  0.28214293554E+03  0.17300000000E+03 0.  1.
<mgrwt>
<rscale>  2 0.28170291E+03</rscale>
<asrwt>0</asrwt>
<pdfrwt beam="1">  1       21 0.86415581E-01 0.28170291E+03</pdfrwt>
<pdfrwt beam="2">  1       21 0.30037782E-01 0.28170291E+03</pdfrwt>
<totfact> 0.11652170E+04</totfact>
</mgrwt>
</event>
<event>
 4    1  0.4090208E+000  0.2514570E+03  0.7546771E-02  0.1112388E+00
         21   -1    0    0  503  502  0.00000000000E+00  0.00000000000E+00  0.58103543636E+03  0.58103543636E+03  0.00000000000E+00 0.  1.
         21   -1    0    0  501  503 -0.00000000000E+00 -0.00000000000E+00 -0.20491779511E+03  0.20491779511E+03  0.00000000000E+00 0.  1.
          6    1    1    2  501    0  0.83115133502E+02 -0.16246069189E+03  0.45716553766E+03  0.52175754010E+03  0.17300000000E+03 0.  1.
         -6    1    1    2    0  502 -0.83115133502E+02  0.16246069189E+03 -0.81047896409E+02  0.26419569137E+03  0.17300000000E+03 0.  1.
<mgrwt>
<rscale>  2 0.25145696E+03</rscale>
<asrwt>0</asrwt>
<pdfrwt beam="1">  1       21 0.89390066E-01 0.25145696E+03</pdfrwt>
<pdfrwt beam="2">  1       21 0.31525815E-01 0.25145696E+03</pdfrwt>
<totfact> 0.99460849E+03</totfact>
</mgrwt>
</event>
<event>
 4    1  0.4090208E+000  0.2493771E+03  0.7546771E-02  0.1113699E+00
         21   -1    0    0  503  502  0.00000000000E+00  0.00000000000E+00  0.22977549425E+04  0.22977549425E+04  0.00000000000E+00 0.  1.
         21   -1    0    0  501  503 -0.00000000000E+00 -0.00000000000E+00 -0.30742088110E+02  0.30742088110E+02  0.00000000000E+00 0. -1.
          6    1    1    2  501    0 -0.88705731594E+02  0.15617689997E+03  0.73085795143E+03  0.77223200922E+03  0.17300000000E+03 0. -1.
         -6    1    1    2    0  502  0.88705731594E+02 -0.15617689997E+03  0.15361549030E+04  0.15562650214E+04  0.17300000000E+03 0.  1.
<mgrwt>
<rscale>  2 0.24937709E+03</rscale>
<asrwt>0</asrwt>
<pdfrwt beam="1">  1       21 0.35350062E+00 0.24937709E+03</pdfrwt>
<pdfrwt beam="2">  1       21 0.47295538E-02 0.24937709E+03</pdfrwt>
<totfact> 0.46211447E+03</totfact>
</mgrwt>
</event>
<event>
 4    1  0.4090208E+000  0.1864445E+03  0.7546771E-02  0.1161708E+00
         21   -1    0    0  503  502  0.00000000000E+00  0.00000000000E+00  0.12927028977E+04  0.12927028977E+04  0.00000000000E+00 0.  1.
         21   -1    0    0  501  503 -0.00000000000E+00 -0.00000000000E+00 -0.33283275398E+02  0.33283275398E+02  0.00000000000E+00 0.  1.
          6    1    1    2  501    0  0.19401204552E+02  0.66754410975E+02  0.92027076686E+03  0.93896743419E+03  0.17300000000E+03 0.  1.
         -6    1    1    2    0  502 -0.19401204552E+02 -0.66754410975E+02  0.33914885544E+03  0.38701873891E+03  0.17300000000E+03 0.  1.
<mgrwt>
<rscale>  2 0.18644452E+03</rscale>
<asrwt>0</asrwt>
<pdfrwt beam="1">  1       21 0.19887733E+00 0.18644452E+03</pdfrwt>
<pdfrwt beam="2">  1       21 0.51205049E-02 0.18644452E+03</pdfrwt>
<totfact> 0.35419959E+04</totfact>
</mgrwt>
</event>
<event>
 4    1  0.4090208E+000  0.2204875E+03  0.7546771E-02  0.1133520E+00
         21   -1    0    0  503  502  0.00000000000E+00  0.00000000000E+00  0.36244014563E+03  0.36244014563E+03  0.00000000000E+00 0. -1.
         21   -1    0    0  501  503 -0.00000000000E+00 -0.00000000000E+00 -0.21012192206E+03  0.21012192206E+03  0.00000000000E+00 0. -1.
          6    1    1    2  501    0  0.10403219488E+03  0.88673790644E+02 -0.96002193865E+02  0.24048110101E+03  0.17300000000E+03 0. -1.
         -6    1    1    2    0  502 -0.10403219488E+03 -0.88673790644E+02  0.24832041743E+03  0.33208096668E+03  0.17300000000E+03 0. -1.
<mgrwt>
<rscale>  2 0.22048750E+03</rscale>
<asrwt>0</asrwt>
<pdfrwt beam="1">  1       21 0.55760022E-01 0.22048750E+03</pdfrwt>
<pdfrwt beam="2">  1       21 0.32326450E-01 0.22048750E+03</pdfrwt>
<totfact> 0.27475114E+04</totfact>
</mgrwt>
</event>
<event>
 4    1  0.4090208E+000  0.1959674E+03  0.7546771E-02  0.1153187E+00
         21   -1    0    0  501  502  0.00000000000E+00  0.00000000000E+00  0.74421404669E+02  0.74421404669E+02  0.00000000000E+00 0.  1.
         21   -1    0    0  502  503 -0.00000000000E+00 -0.00000000000E+00 -0.57326623049E+03  0.57326623049E+03  0.00000000000E+00 0.  1.
          6    1    1    2  501    0 -0.89262942511E+02 -0.22502334535E+02 -0.35175544812E+03  0.40266005916E+03  0.17300000000E+03 0.  1.
         -6    1    1    2    0  503  0.89262942511E+02  0.22502334535E+02 -0.14708937771E+03  0.24502757600E+03  0.17300000000E+03 0.  1.
<mgrwt>
<rscale>  2 0.19596742E+03</rscale>
<asrwt>0</asrwt>
<pdfrwt beam="1">  1       21 0.11449447E-01 0.19596742E+03</pdfrwt>
<pdfrwt beam="2">  1       21 0.88194805E-01 0.19596742E+03</pdfrwt>
<totfact> 0.70150646E+04</totfact>
</mgrwt>
</event>
<event>
 4    1  0.4090208E+000  0.1731592E+03  0.7546771E-02  0.1174593E+00
         21   -1    0    0  503  502  0.00000000000E+00  0.00000000000E+00  0.23762216167E+03  0.23762216167E+03  0.00000000000E+00 0. -1.
         21   -1    0    0  501  503 -0.00000000000E+00 -0.00000000000E+00 -0.12873618452E+03  0.12873618452E+03  0.00000000000E+00 0. -1.
          6    1    1    2  501    0 -0.12976989309E+01  0.73080392905E+01  0.28650681747E+02  0.17551339842E+03  0.17300000000E+03 0. -1.
         -6    1    1    2    0  502  0.12976989309E+01 -0.73080392905E+01  0.80235295405E+02  0.19084494777E+03  0.17300000000E+03 0. -1.
<mgrwt>
<rscale>  2 0.17315915E+03</rscale>
<asrwt>0</asrwt>
<pdfrwt beam="1">  1       21 0.36557256E-01 0.17315915E+03</pdfrwt>
<pdfrwt beam="2">  1       21 0.19805567E-01 0.17315915E+03</pdfrwt>
<totfact> 0.17066327E+05</totfact>
</mgrwt>
</event>
<event>
 4    1  0.4090208E+000  0.2205480E+03  0.7546771E-02  0.1133475E+00
         21   -1    0    0  501  502  0.00000000000E+00  0.00000000000E+00  0.45364414942E+02  0.45364414942E+02  0.00000000000E+00 0. -1.
         21   -1    0    0  502  503 -0.00000000000E+00 -0.00000000000E+00 -0.17687643730E+04  0.17687643730E+04  0.00000000000E+00 0. -1.
          6    1    1    2  501    0  0.12175214900E+03  0.62360556551E+02 -0.29249055600E+03  0.36632246744E+03  0.17300000000E+03 0. -1.
         -6    1    1    2    0  503 -0.12175214900E+03 -0.62360556551E+02 -0.14309094021E+04  0.14478063205E+04  0.17300000000E+03 0. -1.
<mgrwt>
<rscale>  2 0.22054801E+03</rscale>
<asrwt>0</asrwt>
<pdfrwt beam="1">  1       21 0.69791413E-02 0.22054801E+03</pdfrwt>
<pdfrwt beam="2">  1       21 0.27211757E+00 0.22054801E+03</pdfrwt>
<totfact> 0.73088662E+03</totfact>
</mgrwt>
</event>
<event>
 4    1  0.4090208E+000  0.1934323E+03  0.7546771E-02  0.1155402E+00
         21   -1    0    0  503  502  0.00000000000E+00  0.00000000000E+00  0.61026167741E+02  0.61026167741E+02  0.00000000000E+00 0.  1.
         21   -1    0    0  501  503 -0.00000000000E+00 -0.00000000000E+00 -0.61558887003E+03  0.61558887003E+03  0.00000000000E+00 0.  1.
          6    1    1    2  501    0 -0.38250270694E+02  0.77614295391E+02 -0.25583516484E+03  0.32072993877E+03  0.17300000000E+03 0.  1.
         -6    1    1    2    0  502  0.38250270694E+02 -0.77614295391E+02 -0.29872753745E+03  0.35588509900E+03  0.17300000000E+03 0.  1.
<mgrwt>
<rscale>  2 0.19343232E+03</rscale>
<asrwt>0</asrwt>
<pdfrwt beam="1">  1       21 0.93886416E-02 0.19343232E+03</pdfrwt>
<pdfrwt beam="2">  1       21 0.94705976E-01 0.19343232E+03</pdfrwt>
<totfact> 0.84598394E+04</totfact>
</mgrwt>
</event>
<event>
 4    1  0.4090208E+000  0.2294386E+03  0.7546771E-02  0.1127036E+00
         21   -1    0    0  501  502  0.00000000000E+00  0.00000000000E+00  0.63942084831E+03  0.63942084831E+03  0.00000000000E+00 0. -1.
         21   -1    0    0  502  503 -0.00000000000E+00 -0.00000000000E+00 -0.83317812635E+02  0.83317812635E+02  0.00000000000E+00 0. -1.
          6    1    1    2  501    0  0.12914868629E+03  0.77676809309E+02  0.31744433876E+03  0.39167968812E+03  0.17300000000E+03 0. -1.
         -6    1    1    2    0  503 -0.12914868629E+03 -0.77676809309E+02  0.23865869692E+03  0.33105897283E+03  0.17300000000E+03 0. -1.
<mgrwt>
<rscale>  2 0.22943860E+03</rscale>
<asrwt>0</asrwt>
<pdfrwt beam="1">  1       21 0.98372435E-01 0.22943860E+03</pdfrwt>
<pdfrwt beam="2">  1       21 0.12818125E-01 0.22943860E+03</pdfrwt>
<totfact> 0.43679277E+04</totfact>
</mgrwt>
</event>
<event>
 4    1  0.4090208E+000  0.1938511E+03  0.7546771E-02  0.1155033E+00
         21   -1    0    0  503  502  0.00000000000E+00  0.00000000000E+00  0.41370323182E+02  0.41370323182E+02  0.00000000000E+00 0.  1.
         21   -1    0    0  501  503 -0.00000000000E+00 -0.00000000000E+00 -0.21677000102E+04  0.21677000102E+04  0.00000000000E+00 0.  1.
          6    1    1    2  501    0  0.71858330520E+02  0.49856071432E+02 -0.19050545635E+04  0.19148919389E+04  0.17300000000E+03 0.  1.
         -6    1    1    2    0  502 -0.71858330520E+02 -0.49856071432E+02 -0.22127512349E+03  0.29417839452E+03  0.17300000000E+03 0.  1.
<mgrwt>
<rscale>  2 0.19385110E+03</rscale>
<asrwt>0</asrwt>
<pdfrwt beam="1">  1       21 0.63646647E-02 0.19385110E+03</pdfrwt>
<pdfrwt beam="2">  1       21 0.33349233E+00 0.19385110E+03</pdfrwt>
<totfact> 0.38881803E+03</totfact>
</mgrwt>
</event>
<event>
 4    1  0.4090208E+000  0.1968302E+03  0.7546771E-02  0.1152441E+00
         21   -1    0    0  503  502  0.00000000000E+00  0.00000000000E+00  0.53561948906E+03  0.53561948906E+03  0.00000000000E+00 0. -1.
         21   -1    0    0  501  503 -0.00000000000E+00 -0.00000000000E+00 -0.12600854083E+03  0.12600854083E+03  0.00000000000E+00 0.  1.
          6    1    1    2  501    0  0.57461067849E+02  0.74238435944E+02 -0.11107382959E+02  0.19714333275E+03  0.17300000000E+03 0.  1.
         -6    1    1    2    0  502 -0.57461067849E+02 -0.74238435944E+02  0.42071833119E+03  0.46448469715E+03  0.17300000000E+03 0. -1.
<mgrwt>
<rscale>  2 0.19683018E+03</rscale>
<asrwt>0</asrwt>
<pdfrwt beam="1">  1       21 0.82402997E-01 0.19683018E+03</pdfrwt>
<pdfrwt beam="2">  1       21 0.19385930E-01 0.19683018E+03</pdfrwt>
<totfact> 0.31393000E+04</totfact>
</mgrwt>
</event>
<event>
 4    1  0.4090208E+000  0.2064764E+03  0.7546771E-02  0.1144387E+00
         21   -1    0    0  503  502  0.00000000000E+00  0.00000000000E+00  0.75072376268E+02  0.75072376268E+02  0.00000000000E+00 0. -1.
         21   -1    0    0  501  503 -0.00000000000E+00 -0.00000000000E+00 -0.63770922627E+03  0.63770922627E+03  0.00000000000E+00 0. -1.
          6    1    1    2  501    0 -0.38446538645E+01  0.11264419988E+03 -0.39924653626E+03  0.44947780129E+03  0.17300000000E+03 0. -1.
         -6    1    1    2    0  502  0.38446538645E+01 -0.11264419988E+03 -0.16339031374E+03  0.26330380125E+03  0.17300000000E+03 0. -1.
<mgrwt>
<rscale>  2 0.20647638E+03</rscale>
<asrwt>0</asrwt>
<pdfrwt beam="1">  1       21 0.11549596E-01 0.20647638E+03</pdfrwt>
<pdfrwt beam="2">  1       21 0.98109111E-01 0.20647638E+03</pdfrwt>
<totfact> 0.53591111E+04</totfact>
</mgrwt>
</event>
<event>
 4    1  0.4090208E+000  0.1803565E+03  0.7546771E-02  0.1167458E+00
         21   -1    0    0  501  502  0.00000000000E+00  0.00000000000E+00  0.71136664790E+02  0.71136664790E+02  0.00000000000E+00 0.  1.
         21   -1    0    0  502  503 -0.00000000000E+00 -0.00000000000E+00 -0.59260851243E+03  0.59260851243E+03  0.00000000000E+00 0.  1.
          6    1    1    2  501    0  0.48208605177E+02  0.16595602428E+02 -0.10213629069E+03  0.20726867952E+03  0.17300000000E+03 0.  1.
         -6    1    1    2    0  503 -0.48208605177E+02 -0.16595602428E+02 -0.41933555694E+03  0.45647649770E+03  0.17300000000E+03 0.  1.
<mgrwt>
<rscale>  2 0.18035655E+03</rscale>
<asrwt>0</asrwt>
<pdfrwt beam="1">  1       21 0.10944103E-01 0.18035655E+03</pdfrwt>
<pdfrwt beam="2">  1       21 0.91170537E-01 0.18035655E+03</pdfrwt>
<totfact> 0.70899743E+04</totfact>
</mgrwt>
</event>
<event>
 4    1  0.4090208E+000  0.2104582E+03  0.7546771E-02  0.1141204E+00
         21   -1    0    0  503  502  0.00000000000E+00  0.00000000000E+00  0.67138998120E+02  0.67138998120E+02  0.00000000000E+00 0. -1.
         21   -1    0    0  501  503 -0.00000000000E+00 -0.00000000000E+00 -0.71757733996E+03  0.71757733996E+03  0.00000000000E+00 0. -1.
          6    1    1    2  501    0  0.58730164267E+02  0.10447210183E+03 -0.21380417510E+03  0.30000812914E+03  0.17300000000E+03 0. -1.
         -6    1    1    2    0  502 -0.58730164267E+02 -0.10447210183E+03 -0.43663416674E+03  0.48470820895E+03  0.17300000000E+03 0. -1.
<mgrwt>
<rscale>  2 0.21045820E+03</rscale>
<asrwt>0</asrwt>
<pdfrwt beam="1">  1       21 0.10329077E-01 0.21045820E+03</pdfrwt>
<pdfrwt beam="2">  1       21 0.11039651E+00 0.21045820E+03</pdfrwt>
<totfact> 0.49156782E+04</totfact>
</mgrwt>
</event>
<event>
 4    1  0.4090208E+000  0.2127754E+03  0.7546771E-02  0.1139387E+00
         21   -1    0    0  503  502  0.00000000000E+00  0.00000000000E+00  0.10476921330E+04  0.10476921330E+04  0.00000000000E+00 0.  1.
         21   -1    0    0  501  503 -0.00000000000E+00 -0.00000000000E+00 -0.56801813142E+02  0.56801813142E+02  0.00000000000E+00 0. -1.
          6    1    1    2  501    0 -0.91412517578E+02  0.83594961859E+02  0.22532844478E+03  0.30991333312E+03  0.17300000000E+03 0. -1.
         -6    1    1    2    0  502  0.91412517578E+02 -0.83594961859E+02  0.76556187505E+03  0.79458061299E+03  0.17300000000E+03 0.  1.
<mgrwt>
<rscale>  2 0.21277539E+03</rscale>
<asrwt>0</asrwt>
<pdfrwt beam="1">  1       21 0.16118339E+00 0.21277539E+03</pdfrwt>
<pdfrwt beam="2">  1       21 0.87387413E-02 0.21277539E+03</pdfrwt>
<totfact> 0.25047356E+04</totfact>
</mgrwt>
</event>
<event>
 4    1  0.4090208E+000  0.1889916E+03  0.7546771E-02  0.1159374E+00
         21   -1    0    0  503  502  0.00000000000E+00  0.00000000000E+00  0.20626024421E+03  0.20626024421E+03  0.00000000000E+00 0. -1.
         21   -1    0    0  501  503 -0.00000000000E+00 -0.00000000000E+00 -0.49648387341E+03  0.49648387341E+03  0.00000000000E+00 0. -1.
          6    1    1    2  501    0 -0.53734869051E+02 -0.53864591517E+02 -0.42866051061E+03  0.46847375991E+03  0.17300000000E+03 0. -1.
         -6    1    1    2    0  502  0.53734869051E+02  0.53864591517E+02  0.13843688140E+03  0.23427035772E+03  0.17300000000E+03 0. -1.
<mgrwt>
<rscale>  2 0.18899161E+03</rscale>
<asrwt>0</asrwt>
<pdfrwt beam="1">  1       21 0.31732345E-01 0.18899161E+03</pdfrwt>
<pdfrwt beam="2">  1       21 0.76382134E-01 0.18899161E+03</pdfrwt>
<totfact> 0.14608074E+04</totfact>
</mgrwt>
</event>
<event>
 4    1  0.4090208E+000  0.2186596E+03  0.7546771E-02  0.1134886E+00
         21   -1    0    0  501  502  0.00000000000E+00  0.00000000000E+00  0.10093572198E+03  0.10093572198E+03  0.00000000000E+00 0.  1.
         21   -1    0    0  502  503 -0.00000000000E+00 -0.00000000000E+00 -0.57322544546E+03  0.57322544546E+03  0.00000000000E+00 0.  1.
          6    1    1    2  501    0 -0.91762882164E+02 -0.97275880759E+02 -0.37660872684E+03  0.43548381904E+03  0.17300000000E+03 0.  1.
         -6    1    1    2    0  503  0.91762882164E+02  0.97275880759E+02 -0.95680996637E+02  0.23867734840E+03  0.17300000000E+03 0.  1.
<mgrwt>
<rscale>  2 0.21865961E+03</rscale>
<asrwt>0</asrwt>
<pdfrwt beam="1">  1       21 0.15528573E-01 0.21865961E+03</pdfrwt>
<pdfrwt beam="2">  1       21 0.88188530E-01 0.21865961E+03</pdfrwt>
<totfact> 0.40009543E+04</totfact>
</mgrwt>
</event>
<event>
 4    1  0.4090208E+000  0.1887825E+03  0.7546771E-02  0.1159564E+00
         21   -1    0    0  503  502  0.00000000000E+00  0.00000000000E+00  0.34844351081E+03  0.34844351081E+03  0.00000000000E+00 0. -1.
         21   -1    0    0  501  503 -0.00000000000E+00 -0.00000000000E+00 -0.12517292693E+03  0.12517292693E+03  0.00000000000E+00 0. -1.
          6    1    1    2  501    0 -0.41480811104E+02 -0.63159928954E+02  0.10362832597E+02  0.18906671472E+03  0.17300000000E+03 0. -1.
         -6    1    1    2    0  502  0.41480811104E+02  0.63159928954E+02  0.21290775128E+03  0.28454972302E+03  0.17300000000E+03 0. -1.
<mgrwt>
<rscale>  2 0.18878251E+03</rscale>
<asrwt>0</asrwt>
<pdfrwt beam="1">  1       21 0.53606694E-01 0.18878251E+03</pdfrwt>
<pdfrwt beam="2">  1       21 0.19257373E-01 0.18878251E+03</pdfrwt>
<totfact> 0.81694187E+04</totfact>
</mgrwt>
</event>
<event>
 4    1  0.4090208E+000  0.2285820E+03  0.7546771E-02  0.1127642E+00
         21   -1    0    0  501  502  0.00000000000E+00  0.00000000000E+00  0.11807378504E+03  0.11807378504E+03  0.00000000000E+00 0. -1.
         21   -1    0    0  502  503 -0.00000000000E+00 -0.00000000000E+00 -0.44468816017E+03  0.44468816017E+03  0.00000000000E+00 0. -1.
          6    1    1    2  501    0 -0.53546062399E+02 -0.13947598568E+03 -0.18296566942E+03  0.29279031331E+03  0.17300000000E+03 0. -1.
         -6    1    1    2    0  503  0.53546062399E+02  0.13947598568E+03 -0.14364870570E+03  0.26997163190E+03  0.17300000000E+03 0. -1.
<mgrwt>
<rscale>  2 0.22858200E+03</rscale>
<asrwt>0</asrwt>
<pdfrwt beam="1">  1       21 0.18165198E-01 0.22858200E+03</pdfrwt>
<pdfrwt beam="2">  1       21 0.68413563E-01 0.22858200E+03</pdfrwt>
<totfact> 0.52904628E+04</totfact>
</mgrwt>
</event>
<event>
 4    1  0.4090208E+000  0.1884058E+03  0.7546771E-02  0.1159907E+00
         21   -1    0    0  503  502  0.00000000000E+00  0.00000000000E+00  0.78242643522E+02  0.78242643522E+02  0.00000000000E+00 0.  1.
         21   -1    0    0  501  503 -0.00000000000E+00 -0.00000000000E+00 -0.61744051744E+03  0.61744051744E+03  0.00000000000E+00 0.  1.
          6    1    1    2  501    0 -0.32600725156E+02  0.67118819783E+02 -0.44873992346E+03  0.48668702690E+03  0.17300000000E+03 0.  1.
         -6    1    1    2    0  502  0.32600725156E+02 -0.67118819783E+02 -0.90457950457E+02  0.20899613406E+03  0.17300000000E+03 0.  1.
<mgrwt>
<rscale>  2 0.18840579E+03</rscale>
<asrwt>0</asrwt>
<pdfrwt beam="1">  1       21 0.12037331E-01 0.18840579E+03</pdfrwt>
<pdfrwt beam="2">  1       21 0.94990843E-01 0.18840579E+03</pdfrwt>
<totfact> 0.54182008E+04</totfact>
</mgrwt>
</event>
<event>
 4    1  0.4090208E+000  0.2342642E+03  0.7546771E-02  0.1123674E+00
         21   -1    0    0  503  502  0.00000000000E+00  0.00000000000E+00  0.23224450574E+03  0.23224450574E+03  0.00000000000E+00 0. -1.
         21   -1    0    0  501  503 -0.00000000000E+00 -0.00000000000E+00 -0.40183881388E+03  0.40183881388E+03  0.00000000000E+00 0. -1.
          6    1    1    2  501    0  0.11129769508E+03  0.11208719407E+03 -0.28828496252E+03  0.37146727396E+03  0.17300000000E+03 0. -1.
         -6    1    1    2    0  502 -0.11129769508E+03 -0.11208719407E+03  0.11869065439E+03  0.26261604567E+03  0.17300000000E+03 0. -1.
<mgrwt>
<rscale>  2 0.23426420E+03</rscale>
<asrwt>0</asrwt>
<pdfrwt beam="1">  1       21 0.35729925E-01 0.23426420E+03</pdfrwt>
<pdfrwt beam="2">  1       21 0.61821355E-01 0.23426420E+03</pdfrwt>
<totfact> 0.17914434E+04</totfact>
</mgrwt>
</event>
<event>
 4    1  0.4090208E+000  0.1992153E+03  0.7546771E-02  0.1150403E+00
         21   -1    0    0  503  502  0.00000000000E+00  0.00000000000E+00  0.23326746931E+03  0.23326746931E+03  0.00000000000E+00 0.  1.
         21   -1    0    0  501  503 -0.00000000000E+00 -0.00000000000E+00 -0.22240204787E+03  0.22240204787E+03  0.00000000000E+00 0. -1.
          6    1    1    2  501    0  0.94398756331E+02  0.29096532542E+02 -0.10501802859E+03  0.22520106512E+03  0.17300000000E+03 0. -1.
         -6    1    1    2    0  502 -0.94398756331E+02 -0.29096532542E+02  0.11588345003E+03  0.23046845206E+03  0.17300000000E+03 0.  1.
<mgrwt>
<rscale>  2 0.19921529E+03</rscale>
<asrwt>0</asrwt>
<pdfrwt beam="1">  1       21 0.35887303E-01 0.19921529E+03</pdfrwt>
<pdfrwt beam="2">  1       21 0.34215699E-01 0.19921529E+03</pdfrwt>
<totfact> 0.61441465E+04</totfact>
</mgrwt>
</event>
<event>
 4    1  0.4090208E+000  0.3018498E+03  0.7546771E-02  0.1084320E+00
         21   -1    0    0  501  502  0.00000000000E+00  0.00000000000E+00  0.53123321426E+03  0.53123321426E+03  0.00000000000E+00 0.  1.
         21   -1    0    0  502  503 -0.00000000000E+00 -0.00000000000E+00 -0.46396213183E+03  0.46396213183E+03  0.00000000000E+00 0. -1.
          6    1    1    2  501    0 -0.23464861057E+03 -0.78258248091E+02  0.42869489680E+03  0.52430204881E+03  0.17300000000E+03 0.  1.
         -6    1    1    2    0  503  0.23464861057E+03  0.78258248091E+02 -0.36142381437E+03  0.47089329729E+03  0.17300000000E+03 0. -1.
<mgrwt>
<rscale>  2 0.30184984E+03</rscale>
<asrwt>0</asrwt>
<pdfrwt beam="1">  1       21 0.81728187E-01 0.30184984E+03</pdfrwt>
<pdfrwt beam="2">  1       21 0.71378790E-01 0.30184984E+03</pdfrwt>
<totfact> 0.21499071E+03</totfact>
</mgrwt>
</event>
<event>
 4    1  0.4090208E+000  0.1907152E+03  0.7546771E-02  0.1157818E+00
         21   -1    0    0  501  502  0.00000000000E+00  0.00000000000E+00  0.61462478604E+02  0.61462478604E+02  0.00000000000E+00 0.  1.
         21   -1    0    0  502  503 -0.00000000000E+00 -0.00000000000E+00 -0.74201697397E+03  0.74201697397E+03  0.00000000000E+00 0. -1.
          6    1    1    2  501    0 -0.69526708240E+02 -0.40116405242E+02 -0.15950751345E+03  0.24862609673E+03  0.17300000000E+03 0.  1.
         -6    1    1    2    0  503  0.69526708240E+02  0.40116405242E+02 -0.52104698192E+03  0.55485335585E+03  0.17300000000E+03 0.  1.
<mgrwt>
<rscale>  2 0.19071520E+03</rscale>
<asrwt>0</asrwt>
<pdfrwt beam="1">  1       21 0.94557665E-02 0.19071520E+03</pdfrwt>
<pdfrwt beam="2">  1       21 0.11415645E+00 0.19071520E+03</pdfrwt>
<totfact> 0.53509532E+04</totfact>
</mgrwt>
</event>
<event>
 4    1  0.4090208E+000  0.2465581E+03  0.7546771E-02  0.1115500E+00
         21   -1    0    0  501  502  0.00000000000E+00  0.00000000000E+00  0.13658438809E+03  0.13658438809E+03  0.00000000000E+00 0.  1.
         21   -1    0    0  502  503 -0.00000000000E+00 -0.00000000000E+00 -0.53893025549E+03  0.53893025549E+03  0.00000000000E+00 0.  1.
          6    1    1    2  501    0 -0.16945362800E+03  0.46339457466E+02 -0.60225248233E+02  0.25380693033E+03  0.17300000000E+03 0.  1.
         -6    1    1    2    0  503  0.16945362800E+03 -0.46339457466E+02 -0.34212061916E+03  0.42170771325E+03  0.17300000000E+03 0.  1.
<mgrwt>
<rscale>  2 0.24655806E+03</rscale>
<asrwt>0</asrwt>
<pdfrwt beam="1">  1       21 0.21012982E-01 0.24655806E+03</pdfrwt>
<pdfrwt beam="2">  1       21 0.82912348E-01 0.24655806E+03</pdfrwt>
<totfact> 0.25936109E+04</totfact>
</mgrwt>
</event>
<event>
 4    1  0.4090208E+000  0.1992197E+03  0.7546771E-02  0.1150399E+00
         21   -1    0    0  503  502  0.00000000000E+00  0.00000000000E+00  0.18053949122E+03  0.18053949122E+03  0.00000000000E+00 0. -1.
         21   -1    0    0  501  503 -0.00000000000E+00 -0.00000000000E+00 -0.29522673478E+03  0.29522673478E+03  0.00000000000E+00 0.  1.
          6    1    1    2  501    0  0.95680732025E+02 -0.24590110454E+02 -0.17755743927E+03  0.26686161255E+03  0.17300000000E+03 0.  1.
         -6    1    1    2    0  502 -0.95680732025E+02  0.24590110454E+02  0.62870195704E+02  0.20890461345E+03  0.17300000000E+03 0. -1.
<mgrwt>
<rscale>  2 0.19921967E+03</rscale>
<asrwt>0</asrwt>
<pdfrwt beam="1">  1       21 0.27775306E-01 0.19921967E+03</pdfrwt>
<pdfrwt beam="2">  1       21 0.45419498E-01 0.19921967E+03</pdfrwt>
<totfact> 0.57354491E+04</totfact>
</mgrwt>
</event>
<event>
 4    1  0.4090208E+000  0.1809274E+03  0.7546771E-02  0.1166909E+00
         21   -1    0    0  503  502  0.00000000000E+00  0.00000000000E+00  0.13729077561E+04  0.13729077561E+04  0.00000000000E+00 0. -1.
         21   -1    0    0  501  503 -0.00000000000E+00 -0.00000000000E+00 -0.46080589745E+02  0.46080589745E+02  0.00000000000E+00 0. -1.
          6    1    1    2  501    0  0.11257195463E+02 -0.51758956588E+02  0.17054594719E+03  0.24863755577E+03  0.17300000000E+03 0. -1.
         -6    1    1    2    0  502 -0.11257195463E+02  0.51758956588E+02  0.11562812191E+04  0.11703507900E+04  0.17300000000E+03 0. -1.
<mgrwt>
<rscale>  2 0.18092737E+03</rscale>
<asrwt>0</asrwt>
<pdfrwt beam="1">  1       21 0.21121655E+00 0.18092737E+03</pdfrwt>
<pdfrwt beam="2">  1       21 0.70893225E-02 0.18092737E+03</pdfrwt>
<totfact> 0.17036429E+04</totfact>
</mgrwt>
</event>
<event>
 4    1  0.4090208E+000  0.2011541E+03  0.7546771E-02  0.1148769E+00
         21   -1    0    0  501  502  0.00000000000E+00  0.00000000000E+00  0.42695500542E+03  0.42695500542E+03  0.00000000000E+00 0. -1.
         21   -1    0    0  502  503 -0.00000000000E+00 -0.00000000000E+00 -0.11930764368E+03  0.11930764368E+03  0.00000000000E+00 0. -1.
          6    1    1    2  501    0  0.95831744679E+02 -0.36745925412E+02  0.27768744113E+03  0.34288963426E+03  0.17300000000E+03 0. -1.
         -6    1    1    2    0  503 -0.95831744679E+02  0.36745925412E+02  0.29959920614E+02  0.20337301484E+03  0.17300000000E+03 0. -1.
<mgrwt>
<rscale>  2 0.20115414E+03</rscale>
<asrwt>0</asrwt>
<pdfrwt beam="1">  1       21 0.65685385E-01 0.20115414E+03</pdfrwt>
<pdfrwt beam="2">  1       21 0.18355022E-01 0.20115414E+03</pdfrwt>
<totfact> 0.57451926E+04</totfact>
</mgrwt>
</event>
<event>
 4    1  0.4090208E+000  0.3782860E+03  0.7546771E-02  0.1051569E+00
         21   -1    0    0  503  502  0.00000000000E+00  0.00000000000E+00  0.18329346761E+03  0.18329346761E+03  0.00000000000E+00 0. -1.
         21   -1    0    0  501  503 -0.00000000000E+00 -0.00000000000E+00 -0.84940071436E+03  0.84940071436E+03  0.00000000000E+00 0.  1.
          6    1    1    2  501    0 -0.26031669169E+03 -0.21308798184E+03 -0.18622412541E+03  0.42163929236E+03  0.17300000000E+03 0. -1.
         -6    1    1    2    0  502  0.26031669169E+03  0.21308798184E+03 -0.47988312133E+03  0.61105488961E+03  0.17300000000E+03 0.  1.
<mgrwt>
<rscale>  2 0.37828596E+03</rscale>
<asrwt>0</asrwt>
<pdfrwt beam="1">  1       21 0.28198995E-01 0.37828596E+03</pdfrwt>
<pdfrwt beam="2">  1       21 0.13067703E+00 0.37828596E+03</pdfrwt>
<totfact> 0.45983894E+03</totfact>
</mgrwt>
</event>
<event>
 4    1  0.4090208E+000  0.2151181E+03  0.7546771E-02  0.1137576E+00
         21   -1    0    0  503  502  0.00000000000E+00  0.00000000000E+00  0.56304280430E+03  0.56304280430E+03  0.00000000000E+00 0. -1.
         21   -1    0    0  501  503 -0.00000000000E+00 -0.00000000000E+00 -0.82258222785E+02  0.82258222785E+02  0.00000000000E+00 0.  1.
          6    1    1    2  501    0  0.11142082426E+03  0.62707236877E+02  0.23101719081E+03  0.31566555100E+03  0.17300000000E+03 0. -1.
         -6    1    1    2    0  502 -0.11142082426E+03 -0.62707236877E+02  0.24976739071E+03  0.32963547609E+03  0.17300000000E+03 0.  1.
<mgrwt>
<rscale>  2 0.21511810E+03</rscale>
<asrwt>0</asrwt>
<pdfrwt beam="1">  1       21 0.86621968E-01 0.21511810E+03</pdfrwt>
<pdfrwt beam="2">  1       21 0.12655112E-01 0.21511810E+03</pdfrwt>
<totfact> 0.60569417E+04</totfact>
</mgrwt>
</event>
<event>
 4    1  0.4090208E+000  0.2098383E+03  0.7546771E-02  0.1141694E+00
         21   -1    0    0  503  502  0.00000000000E+00  0.00000000000E+00  0.65102091454E+03  0.65102091454E+03  0.00000000000E+00 0.  1.
         21   -1    0    0  501  503 -0.00000000000E+00 -0.00000000000E+00 -0.79705690462E+02  0.79705690462E+02  0.00000000000E+00 0.  1.
          6    1    1    2  501    0 -0.50104593271E+02  0.10766908247E+03  0.14347778866E+03  0.25420066370E+03  0.17300000000E+03 0.  1.
         -6    1    1    2    0  502  0.50104593271E+02 -0.10766908247E+03  0.42783743542E+03  0.47652594130E+03  0.17300000000E+03 0.  1.
<mgrwt>
<rscale>  2 0.20983827E+03</rscale>
<asrwt>0</asrwt>
<pdfrwt beam="1">  1       21 0.10015706E+00 0.20983827E+03</pdfrwt>
<pdfrwt beam="2">  1       21 0.12262414E-01 0.20983827E+03</pdfrwt>
<totfact> 0.45763660E+04</totfact>
</mgrwt>
</event>
<event>
 4    1  0.4090208E+000  0.1754718E+03  0.7546771E-02  0.1172259E+00
         21   -1    0    0  503  502  0.00000000000E+00  0.00000000000E+00  0.30949045449E+02  0.30949045449E+02  0.00000000000E+00 0.  1.
         21   -1    0    0  501  503 -0.00000000000E+00 -0.00000000000E+00 -0.10363807228E+04  0.10363807228E+04  0.00000000000E+00 0.  1.
          6    1    1    2  501    0  0.30315314176E+00 -0.29347183329E+02 -0.39591444912E+03  0.43305727115E+03  0.17300000000E+03 0.  1.
         -6    1    1    2    0  502 -0.30315314176E+00  0.29347183329E+02 -0.60951722824E+03  0.63427249711E+03  0.17300000000E+03 0.  1.
<mgrwt>
<rscale>  2 0.17547179E+03</rscale>
<asrwt>0</asrwt>
<pdfrwt beam="1">  1       21 0.47613919E-02 0.17547179E+03</pdfrwt>
<pdfrwt beam="2">  1       21 0.15944318E+00 0.17547179E+03</pdfrwt>
<totfact> 0.74925529E+04</totfact>
</mgrwt>
</event>
<event>
 4    1  0.4090208E+000  0.2279987E+03  0.7546771E-02  0.1128056E+00
         21   -1    0    0  501  502  0.00000000000E+00  0.00000000000E+00  0.67989706386E+03  0.67989706386E+03  0.00000000000E+00 0.  1.
         21   -1    0    0  502  503 -0.00000000000E+00 -0.00000000000E+00 -0.80540114430E+02  0.80540114430E+02  0.00000000000E+00 0.  1.
          6    1    1    2  501    0  0.51970355462E+02 -0.13911677610E+03  0.38528038611E+03  0.44768780546E+03  0.17300000000E+03 0.  1.
         -6    1    1    2    0  503 -0.51970355462E+02  0.13911677610E+03  0.21407656332E+03  0.31274937282E+03  0.17300000000E+03 0.  1.
<mgrwt>
<rscale>  2 0.22799867E+03</rscale>
<asrwt>0</asrwt>
<pdfrwt beam="1">  1       21 0.10459954E+00 0.22799867E+03</pdfrwt>
<pdfrwt beam="2">  1       21 0.12390787E-01 0.22799867E+03</pdfrwt>
<totfact> 0.40113036E+04</totfact>
</mgrwt>
</event>
<event>
 4    1  0.4090208E+000  0.2126660E+03  0.7546771E-02  0.1139472E+00
         21   -1    0    0  503  502  0.00000000000E+00  0.00000000000E+00  0.76483651257E+03  0.76483651257E+03  0.00000000000E+00 0. -1.
         21   -1    0    0  501  503 -0.00000000000E+00 -0.00000000000E+00 -0.60145654949E+02  0.60145654949E+02  0.00000000000E+00 0.  1.
          6    1    1    2  501    0 -0.10002539695E+03 -0.72751242461E+02  0.29881330994E+03  0.36676452597E+03  0.17300000000E+03 0.  1.
         -6    1    1    2    0  502  0.10002539695E+03  0.72751242461E+02  0.40587754768E+03  0.45821764155E+03  0.17300000000E+03 0. -1.
<mgrwt>
<rscale>  2 0.21266599E+03</rscale>
<asrwt>0</asrwt>
<pdfrwt beam="1">  1       21 0.11766715E+00 0.21266599E+03</pdfrwt>
<pdfrwt beam="2">  1       21 0.92531783E-02 0.21266599E+03</pdfrwt>
<totfact> 0.51040369E+04</totfact>
</mgrwt>
</event>
<event>
 4    1  0.4090208E+000  0.2001637E+03  0.7546771E-02  0.1149601E+00
         21   -1    0    0  501  502  0.00000000000E+00  0.00000000000E+00  0.25166537298E+03  0.25166537298E+03  0.00000000000E+00 0. -1.
         21   -1    0    0  502  503 -0.00000000000E+00 -0.00000000000E+00 -0.16257942788E+03  0.16257942788E+03  0.00000000000E+00 0. -1.
          6    1    1    2  501    0  0.10026731000E+03 -0.91083716455E+01  0.74398294381E+02  0.21354297482E+03  0.17300000000E+03 0. -1.
         -6    1    1    2    0  503 -0.10026731000E+03  0.91083716455E+01  0.14687650723E+02  0.20070182603E+03  0.17300000000E+03 0. -1.
<mgrwt>
<rscale>  2 0.20016367E+03</rscale>
<asrwt>0</asrwt>
<pdfrwt beam="1">  1       21 0.38717750E-01 0.20016367E+03</pdfrwt>
<pdfrwt beam="2">  1       21 0.25012220E-01 0.20016367E+03</pdfrwt>
<totfact> 0.97041429E+04</totfact>
</mgrwt>
</event>
<event>
 4    1  0.4090208E+000  0.2302050E+03  0.7546771E-02  0.1126496E+00
         21   -1    0    0  501  502  0.00000000000E+00  0.00000000000E+00  0.79448469995E+03  0.79448469995E+03  0.00000000000E+00 0.  1.
         21   -1    0    0  502  503 -0.00000000000E+00 -0.00000000000E+00 -0.88907789813E+02  0.88907789813E+02  0.00000000000E+00 0. -1.
          6    1    1    2  501    0  0.43526387782E+02  0.14550189558E+03  0.13204940823E+03  0.26538913743E+03  0.17300000000E+03 0. -1.
         -6    1    1    2    0  503 -0.43526387782E+02 -0.14550189558E+03  0.57352750191E+03  0.61800335233E+03  0.17300000000E+03 0. -1.
<mgrwt>
<rscale>  2 0.23020501E+03</rscale>
<asrwt>0</asrwt>
<pdfrwt beam="1">  1       21 0.12222841E+00 0.23020501E+03</pdfrwt>
<pdfrwt beam="2">  1       21 0.13678122E-01 0.23020501E+03</pdfrwt>
<totfact> 0.22880438E+04</totfact>
</mgrwt>
</event>
<event>
 4    1  0.4090208E+000  0.2146956E+03  0.7546771E-02  0.1137901E+00
         21   -1    0    0  501  502  0.00000000000E+00  0.00000000000E+00  0.93566290771E+03  0.93566290771E+03  0.00000000000E+00 0. -1.
         21   -1    0    0  502  503 -0.00000000000E+00 -0.00000000000E+00 -0.64037674932E+02  0.64037674932E+02  0.00000000000E+00 0. -1.
          6    1    1    2  501    0 -0.28905194172E+02 -0.12381304654E+03  0.67590114886E+03  0.70918019133E+03  0.17300000000E+03 0. -1.
         -6    1    1    2    0  503  0.28905194172E+02  0.12381304654E+03  0.19572408393E+03  0.29052039132E+03  0.17300000000E+03 0. -1.
<mgrwt>
<rscale>  2 0.21469555E+03</rscale>
<asrwt>0</asrwt>
<pdfrwt beam="1">  1       21 0.14394813E+00 0.21469555E+03</pdfrwt>
<pdfrwt beam="2">  1       21 0.98519506E-02 0.21469555E+03</pdfrwt>
<totfact> 0.27361716E+04</totfact>
</mgrwt>
</event>
<event>
 4    1  0.4090208E+000  0.1793925E+03  0.7546771E-02  0.1168392E+00
         21   -1    0    0  501  502  0.00000000000E+00  0.00000000000E+00  0.55878826860E+02  0.55878826860E+02  0.00000000000E+00 0. -1.
         21   -1    0    0  502  503 -0.00000000000E+00 -0.00000000000E+00 -0.58413208698E+03  0.58413208698E+03  0.00000000000E+00 0. -1.
          6    1    1    2  501    0 -0.28423842480E+02 -0.38009780257E+02 -0.22618076437E+03  0.28868563593E+03  0.17300000000E+03 0. -1.
         -6    1    1    2    0  503  0.28423842480E+02  0.38009780257E+02 -0.30207249575E+03  0.35132527792E+03  0.17300000000E+03 0. -1.
<mgrwt>
<rscale>  2 0.17939247E+03</rscale>
<asrwt>0</asrwt>
<pdfrwt beam="1">  1       21 0.85967428E-02 0.17939247E+03</pdfrwt>
<pdfrwt beam="2">  1       21 0.89866473E-01 0.17939247E+03</pdfrwt>
<totfact> 0.11215980E+05</totfact>
</mgrwt>
</event>
<event>
 4    1  0.4090208E+000  0.2009289E+03  0.7546771E-02  0.1148958E+00
         21   -1    0    0  503  502  0.00000000000E+00  0.00000000000E+00  0.11089970072E+04  0.11089970072E+04  0.00000000000E+00 0. -1.
         21   -1    0    0  501  503 -0.00000000000E+00 -0.00000000000E+00 -0.46301196931E+02  0.46301196931E+02  0.00000000000E+00 0. -1.
          6    1    1    2  501    0  0.65411797035E+01 -0.10198345494E+03  0.26428442579E+03  0.33199197254E+03  0.17300000000E+03 0. -1.
         -6    1    1    2    0  502 -0.65411797035E+01  0.10198345494E+03  0.79841138444E+03  0.82330623156E+03  0.17300000000E+03 0. -1.
<mgrwt>
<rscale>  2 0.20092887E+03</rscale>
<asrwt>0</asrwt>
<pdfrwt beam="1">  1       21 0.17061490E+00 0.20092887E+03</pdfrwt>
<pdfrwt beam="2">  1       21 0.71232619E-02 0.20092887E+03</pdfrwt>
<totfact> 0.30840257E+04</totfact>
</mgrwt>
</event>
<event>
 4    1  0.4090208E+000  0.1794872E+03  0.7546771E-02  0.1168300E+00
         21   -1    0    0  501  502  0.00000000000E+00  0.00000000000E+00  0.13994780711E+03  0.13994780711E+03  0.00000000000E+00 0.  1.
         21   -1    0    0  502  503 -0.00000000000E+00 -0.00000000000E+00 -0.54170312161E+03  0.54170312161E+03  0.00000000000E+00 0.  1.
          6    1    1    2  501    0  0.11938641438E+02  0.46304827353E+02  0.57576871551E+02  0.18849605920E+03  0.17300000000E+03 0.  1.
         -6    1    1    2    0  503 -0.11938641438E+02 -0.46304827353E+02 -0.45933218604E+03  0.49315486952E+03  0.17300000000E+03 0.  1.
<mgrwt>
<rscale>  2 0.17948724E+03</rscale>
<asrwt>0</asrwt>
<pdfrwt beam="1">  1       21 0.21530432E-01 0.17948724E+03</pdfrwt>
<pdfrwt beam="2">  1       21 0.83338941E-01 0.17948724E+03</pdfrwt>
<totfact> 0.25391160E+04</totfact>
</mgrwt>
</event>
<event>
 4    1  0.4090208E+000  0.2746602E+03  0.7546771E-02  0.1098642E+00
         21   -1    0    0  501  502  0.00000000000E+00  0.00000000000E+00  0.45190971544E+03  0.45190971544E+03  0.00000000000E+00 0. -1.
         21   -1    0    0  502  503 -0.00000000000E+00 -0.00000000000E+00 -0.24529169769E+03  0.24529169769E+03  0.00000000000E+00 0.  1.
          6    1    1    2  501    0  0.13314880021E+03 -0.16667517415E+03  0.30033933079E+03  0.40699131476E+03  0.17300000000E+03 0. -1.
         -6    1    1    2    0  503 -0.13314880021E+03  0.16667517415E+03 -0.93721313032E+02  0.29021009837E+03  0.17300000000E+03 0.  1.
<mgrwt>
<rscale>  2 0.27466018E+03</rscale>
<asrwt>0</asrwt>
<pdfrwt beam="1">  1       21 0.69524571E-01 0.27466018E+03</pdfrwt>
<pdfrwt beam="2">  1       21 0.37737184E-01 0.27466018E+03</pdfrwt>
<totfact> 0.12153597E+04</totfact>
</mgrwt>
</event>
<event>
 4    1  0.4090208E+000  0.2441375E+03  0.7546771E-02  0.1117067E+00
         21   -1    0    0  503  502  0.00000000000E+00  0.00000000000E+00  0.39479195289E+02  0.39479195289E+02  0.00000000000E+00 0.  1.
         21   -1    0    0  501  503 -0.00000000000E+00 -0.00000000000E+00 -0.15327809632E+04  0.15327809632E+04  0.00000000000E+00 0. -1.
          6    1    1    2  501    0 -0.69130238218E+02 -0.15778194094E+03 -0.65025690014E+03  0.69457696974E+03  0.17300000000E+03 0. -1.
         -6    1    1    2    0  502  0.69130238218E+02  0.15778194094E+03 -0.84304486777E+03  0.87768318874E+03  0.17300000000E+03 0. -1.
<mgrwt>
<rscale>  2 0.24413752E+03</rscale>
<asrwt>0</asrwt>
<pdfrwt beam="1">  1       21 0.60737227E-02 0.24413752E+03</pdfrwt>
<pdfrwt beam="2">  1       21 0.23581244E+00 0.24413752E+03</pdfrwt>
<totfact> 0.14958999E+04</totfact>
</mgrwt>
</event>
<event>
 4    1  0.4090208E+000  0.1755698E+03  0.7546771E-02  0.1172161E+00
         21   -1    0    0  501  502  0.00000000000E+00  0.00000000000E+00  0.53776283221E+02  0.53776283221E+02  0.00000000000E+00 0. -1.
         21   -1    0    0  502  503 -0.00000000000E+00 -0.00000000000E+00 -0.57915551014E+03  0.57915551014E+03  0.00000000000E+00 0. -1.
          6    1    1    2  501    0 -0.93647712169E+01 -0.28426418046E+02 -0.23060795634E+03  0.28983579784E+03  0.17300000000E+03 0. -1.
         -6    1    1    2    0  503  0.93647712169E+01  0.28426418046E+02 -0.29477127057E+03  0.34309599551E+03  0.17300000000E+03 0. -1.
<mgrwt>
<rscale>  2 0.17556982E+03</rscale>
<asrwt>0</asrwt>
<pdfrwt beam="1">  1       21 0.82732745E-02 0.17556982E+03</pdfrwt>
<pdfrwt beam="2">  1       21 0.89100846E-01 0.17556982E+03</pdfrwt>
<totfact> 0.12248764E+05</totfact>
</mgrwt>
</event>
<event>
 4    1  0.4090208E+000  0.1969900E+03  0.7546771E-02  0.1152304E+00
         21   -1    0    0  501  502  0.00000000000E+00  0.00000000000E+00  0.94383715681E+02  0.94383715681E+02  0.00000000000E+00 0.  1.
         21   -1    0    0  502  503 -0.00000000000E+00 -0.00000000000E+00 -0.16313177615E+04  0.16313177615E+04  0.00000000000E+00 0. -1.
          6    1    1    2  501    0 -0.69319601817E+02 -0.63803243026E+02 -0.22228471631E+02  0.19824017244E+03  0.17300000000E+03 0.  1.
         -6    1    1    2    0  503  0.69319601817E+02  0.63803243026E+02 -0.15147055741E+04  0.15274613047E+04  0.17300000000E+03 0. -1.
<mgrwt>
<rscale>  2 0.19699000E+03</rscale>
<asrwt>0</asrwt>
<pdfrwt beam="1">  1       21 0.14520573E-01 0.19699000E+03</pdfrwt>
<pdfrwt beam="2">  1       21 0.25097195E+00 0.19699000E+03</pdfrwt>
<totfact> 0.27178993E+03</totfact>
</mgrwt>
</event>
<event>
 4    1  0.4090208E+000  0.3092089E+03  0.7546771E-02  0.1080726E+00
         21   -1    0    0  501  502  0.00000000000E+00  0.00000000000E+00  0.31717417341E+03  0.31717417341E+03  0.00000000000E+00 0.  1.
         21   -1    0    0  502  503 -0.00000000000E+00 -0.00000000000E+00 -0.43953807409E+03  0.43953807409E+03  0.00000000000E+00 0.  1.
          6    1    1    2  501    0 -0.14499357796E+03 -0.21132443707E+03  0.15089355723E+03  0.34406252479E+03  0.17300000000E+03 0.  1.
         -6    1    1    2    0  503  0.14499357796E+03  0.21132443707E+03 -0.27325745791E+03  0.41264972272E+03  0.17300000000E+03 0.  1.
<mgrwt>
<rscale>  2 0.30920892E+03</rscale>
<asrwt>0</asrwt>
<pdfrwt beam="1">  1       21 0.48796027E-01 0.30920892E+03</pdfrwt>
<pdfrwt beam="2">  1       21 0.67621242E-01 0.30920892E+03</pdfrwt>
<totfact> 0.74888631E+03</totfact>
</mgrwt>
</event>
<event>
 4    1  0.4090208E+000  0.2282852E+03  0.7546771E-02  0.1127853E+00
         21   -1    0    0  503  502  0.00000000000E+00  0.00000000000E+00  0.24150182059E+02  0.24150182059E+02  0.00000000000E+00 0. -1.
         21   -1    0    0  501  503 -0.00000000000E+00 -0.00000000000E+00 -0.23405695141E+04  0.23405695141E+04  0.00000000000E+00 0.  1.
          6    1    1    2  501    0 -0.25492874954E+02 -0.14674896433E+03 -0.14885023336E+04  0.15059061532E+04  0.17300000000E+03 0.  1.
         -6    1    1    2    0  502  0.25492874954E+02  0.14674896433E+03 -0.82791699839E+03  0.85881354288E+03  0.17300000000E+03 0. -1.
<mgrwt>
<rscale>  2 0.22828523E+03</rscale>
<asrwt>0</asrwt>
<pdfrwt beam="1">  1       21 0.37154124E-02 0.22828523E+03</pdfrwt>
<pdfrwt beam="2">  1       21 0.36008764E+00 0.22828523E+03</pdfrwt>
<totfact> 0.64792480E+03</totfact>
</mgrwt>
</event>
<event>
 4    1  0.4090208E+000  0.1739737E+03  0.7546771E-02  0.1173766E+00
         21   -1    0    0  503  502  0.00000000000E+00  0.00000000000E+00  0.18865888654E+03  0.18865888654E+03  0.00000000000E+00 0. -1.
         21   -1    0    0  501  503 -0.00000000000E+00 -0.00000000000E+00 -0.32907637640E+03  0.32907637640E+03  0.00000000000E+00 0. -1.
          6    1    1    2  501    0 -0.18237132646E+02 -0.22956203928E+01 -0.25552594744E+03  0.30912840810E+03  0.17300000000E+03 0. -1.
         -6    1    1    2    0  502  0.18237132646E+02  0.22956203928E+01  0.11510845758E+03  0.20860685484E+03  0.17300000000E+03 0. -1.
<mgrwt>
<rscale>  2 0.17397374E+03</rscale>
<asrwt>0</asrwt>
<pdfrwt beam="1">  1       21 0.29024444E-01 0.17397374E+03</pdfrwt>
<pdfrwt beam="2">  1       21 0.50627135E-01 0.17397374E+03</pdfrwt>
<totfact> 0.42585420E+04</totfact>
</mgrwt>
</event>
<event>
 4    1  0.4090208E+000  0.1922490E+03  0.7546771E-02  0.1156448E+00
         21   -1    0    0  503  502  0.00000000000E+00  0.00000000000E+00  0.21618081109E+02  0.21618081109E+02  0.00000000000E+00 0.  1.
         21   -1    0    0  501  503 -0.00000000000E+00 -0.00000000000E+00 -0.21707144665E+04  0.21707144665E+04  0.00000000000E+00 0.  1.
          6    1    1    2  501    0  0.39492302885E+00  0.83848205371E+02 -0.15797313100E+04  0.15913864048E+04  0.17300000000E+03 0.  1.
         -6    1    1    2    0  502 -0.39492302885E+00 -0.83848205371E+02 -0.56936507532E+03  0.60094614277E+03  0.17300000000E+03 0.  1.
<mgrwt>
<rscale>  2 0.19224900E+03</rscale>
<asrwt>0</asrwt>
<pdfrwt beam="1">  1       21 0.33258584E-02 0.19224900E+03</pdfrwt>
<pdfrwt beam="2">  1       21 0.33395609E+00 0.19224900E+03</pdfrwt>
<totfact> 0.11585667E+04</totfact>
</mgrwt>
</event>
<event>
 4    1  0.4090208E+000  0.1867818E+03  0.7546771E-02  0.1161396E+00
         21   -1    0    0  503  502  0.00000000000E+00  0.00000000000E+00  0.57294766932E+03  0.57294766932E+03  0.00000000000E+00 0.  1.
         21   -1    0    0  501  503 -0.00000000000E+00 -0.00000000000E+00 -0.12975568685E+03  0.12975568685E+03  0.00000000000E+00 0.  1.
          6    1    1    2  501    0  0.69966801743E+02  0.79421987903E+01 -0.34366722251E+02  0.18991709630E+03  0.17300000000E+03 0.  1.
         -6    1    1    2    0  502 -0.69966801743E+02 -0.79421987903E+01  0.47755870472E+03  0.51278625988E+03  0.17300000000E+03 0.  1.
<mgrwt>
<rscale>  2 0.18678178E+03</rscale>
<asrwt>0</asrwt>
<pdfrwt beam="1">  1       21 0.88145794E-01 0.18678178E+03</pdfrwt>
<pdfrwt beam="2">  1       21 0.19962414E-01 0.18678178E+03</pdfrwt>
<totfact> 0.25620726E+04</totfact>
</mgrwt>
</event>
<event>
 4    1  0.4090208E+000  0.2609777E+03  0.7546771E-02  0.1106557E+00
         21   -1    0    0  501  502  0.00000000000E+00  0.00000000000E+00  0.88183590579E+02  0.88183590579E+02  0.00000000000E+00 0.  1.
         21   -1    0    0  502  503 -0.00000000000E+00 -0.00000000000E+00 -0.82697560441E+03  0.82697560441E+03  0.00000000000E+00 0.  1.
          6    1    1    2  501    0 -0.18464086731E+03  0.63938159920E+02 -0.48698995730E+03  0.55251113716E+03  0.17300000000E+03 0.  1.
         -6    1    1    2    0  503  0.18464086731E+03 -0.63938159920E+02 -0.25180205654E+03  0.36264805783E+03  0.17300000000E+03 0.  1.
<mgrwt>
<rscale>  2 0.26097766E+03</rscale>
<asrwt>0</asrwt>
<pdfrwt beam="1">  1       21 0.13566705E-01 0.26097766E+03</pdfrwt>
<pdfrwt beam="2">  1       21 0.12722702E+00 0.26097766E+03</pdfrwt>
<totfact> 0.20659970E+04</totfact>
</mgrwt>
</event>
<event>
 4    1  0.4090208E+000  0.1755740E+03  0.7546771E-02  0.1172157E+00
         21   -1    0    0  501  502  0.00000000000E+00  0.00000000000E+00  0.59192199611E+03  0.59192199611E+03  0.00000000000E+00 0. -1.
         21   -1    0    0  502  503 -0.00000000000E+00 -0.00000000000E+00 -0.66971804926E+02  0.66971804926E+02  0.00000000000E+00 0.  1.
          6    1    1    2  501    0 -0.25033228838E+02  0.16448600895E+02  0.41783525604E+03  0.45322458033E+03  0.17300000000E+03 0. -1.
         -6    1    1    2    0  503  0.25033228838E+02 -0.16448600895E+02  0.10711493514E+03  0.20566922071E+03  0.17300000000E+03 0.  1.
<mgrwt>
<rscale>  2 0.17557397E+03</rscale>
<asrwt>0</asrwt>
<pdfrwt beam="1">  1       21 0.91064919E-01 0.17557397E+03</pdfrwt>
<pdfrwt beam="2">  1       21 0.10303355E-01 0.17557397E+03</pdfrwt>
<totfact> 0.79275609E+04</totfact>
</mgrwt>
</event>
<event>
 4    1  0.4090208E+000  0.2007951E+03  0.7546771E-02  0.1149070E+00
         21   -1    0    0  503  502  0.00000000000E+00  0.00000000000E+00  0.43280065312E+02  0.43280065312E+02  0.00000000000E+00 0.  1.
         21   -1    0    0  501  503 -0.00000000000E+00 -0.00000000000E+00 -0.11510621819E+04  0.11510621819E+04  0.00000000000E+00 0.  1.
          6    1    1    2  501    0 -0.10069730696E+03  0.15802327681E+02 -0.81465840164E+03  0.83903931526E+03  0.17300000000E+03 0.  1.
         -6    1    1    2    0  502  0.10069730696E+03 -0.15802327681E+02 -0.29312371495E+03  0.35530293195E+03  0.17300000000E+03 0.  1.
<mgrwt>
<rscale>  2 0.20079507E+03</rscale>
<asrwt>0</asrwt>
<pdfrwt beam="1">  1       21 0.66584724E-02 0.20079507E+03</pdfrwt>
<pdfrwt beam="2">  1       21 0.17708647E+00 0.20079507E+03</pdfrwt>
<totfact> 0.31243190E+04</totfact>
</mgrwt>
</event>
<event>
 4    1  0.4090208E+000  0.1852230E+03  0.7546771E-02  0.1162842E+00
         21   -1    0    0  503  502  0.00000000000E+00  0.00000000000E+00  0.45325996149E+03  0.45325996149E+03  0.00000000000E+00 0. -1.
         21   -1    0    0  501  503 -0.00000000000E+00 -0.00000000000E+00 -0.78393794543E+02  0.78393794543E+02  0.00000000000E+00 0. -1.
          6    1    1    2  501    0 -0.96560652609E+01  0.65462465377E+02  0.13807175298E+03  0.23102247280E+03  0.17300000000E+03 0. -1.
         -6    1    1    2    0  502  0.96560652609E+01 -0.65462465377E+02  0.23679441397E+03  0.30063128323E+03  0.17300000000E+03 0. -1.
<mgrwt>
<rscale>  2 0.18522304E+03</rscale>
<asrwt>0</asrwt>
<pdfrwt beam="1">  1       21 0.69732300E-01 0.18522304E+03</pdfrwt>
<pdfrwt beam="2">  1       21 0.12060584E-01 0.18522304E+03</pdfrwt>
<totfact> 0.10897412E+05</totfact>
</mgrwt>
</event>
<event>
 4    1  0.4090208E+000  0.1829475E+03  0.7546771E-02  0.1164981E+00
         21   -1    0    0  503  502  0.00000000000E+00  0.00000000000E+00  0.60640264700E+02  0.60640264700E+02  0.00000000000E+00 0. -1.
         21   -1    0    0  501  503 -0.00000000000E+00 -0.00000000000E+00 -0.56803600093E+03  0.56803600093E+03  0.00000000000E+00 0. -1.
          6    1    1    2  501    0  0.57229944732E+02 -0.16294736742E+02 -0.20078409526E+03  0.27163217396E+03  0.17300000000E+03 0. -1.
         -6    1    1    2    0  502 -0.57229944732E+02  0.16294736742E+02 -0.30661164097E+03  0.35704409167E+03  0.17300000000E+03 0. -1.
<mgrwt>
<rscale>  2 0.18294749E+03</rscale>
<asrwt>0</asrwt>
<pdfrwt beam="1">  1       21 0.93292711E-02 0.18294749E+03</pdfrwt>
<pdfrwt beam="2">  1       21 0.87390158E-01 0.18294749E+03</pdfrwt>
<totfact> 0.10351122E+05</totfact>
</mgrwt>
</event>
<event>
 4    1  0.4090208E+000  0.1749502E+03  0.7546771E-02  0.1172782E+00
         21   -1    0    0  503  502  0.00000000000E+00  0.00000000000E+00  0.12899622877E+04  0.12899622877E+04  0.00000000000E+00 0. -1.
         21   -1    0    0  501  503 -0.00000000000E+00 -0.00000000000E+00 -0.58709573019E+02  0.58709573019E+02  0.00000000000E+00 0. -1.
          6    1    1    2  501    0 -0.25585262434E+02 -0.48956260426E+01  0.95097697757E+02  0.19912595242E+03  0.17300000000E+03 0. -1.
         -6    1    1    2    0  502  0.25585262434E+02  0.48956260426E+01  0.11361550169E+04  0.11495459083E+04  0.17300000000E+03 0. -1.
<mgrwt>
<rscale>  2 0.17495020E+03</rscale>
<asrwt>0</asrwt>
<pdfrwt beam="1">  1       21 0.19845572E+00 0.17495020E+03</pdfrwt>
<pdfrwt beam="2">  1       21 0.90322429E-02 0.17495020E+03</pdfrwt>
<totfact> 0.13531961E+04</totfact>
</mgrwt>
</event>
<event>
 4    1  0.4090208E+000  0.2364344E+03  0.7546771E-02  0.1122191E+00
         21   -1    0    0  503  502  0.00000000000E+00  0.00000000000E+00  0.23595904978E+03  0.23595904978E+03  0.00000000000E+00 0.  1.
         21   -1    0    0  501  503 -0.00000000000E+00 -0.00000000000E+00 -0.36140927516E+03  0.36140927516E+03  0.00000000000E+00 0. -1.
          6    1    1    2  501    0  0.73970357765E+02 -0.14318027381E+03 -0.23803034521E+03  0.33549910563E+03  0.17300000000E+03 0. -1.
         -6    1    1    2    0  502 -0.73970357765E+02  0.14318027381E+03  0.11258011983E+03  0.26186921930E+03  0.17300000000E+03 0.  1.
<mgrwt>
<rscale>  2 0.23643436E+03</rscale>
<asrwt>0</asrwt>
<pdfrwt beam="1">  1       21 0.36301392E-01 0.23643436E+03</pdfrwt>
<pdfrwt beam="2">  1       21 0.55601427E-01 0.23643436E+03</pdfrwt>
<totfact> 0.21773450E+04</totfact>
</mgrwt>
</event>
<event>
 4    1  0.4090208E+000  0.2053175E+03  0.7546771E-02  0.1145329E+00
         21   -1    0    0  501  502  0.00000000000E+00  0.00000000000E+00  0.39857658741E+02  0.39857658741E+02  0.00000000000E+00 0.  1.
         21   -1    0    0  502  503 -0.00000000000E+00 -0.00000000000E+00 -0.12234269887E+04  0.12234269887E+04  0.00000000000E+00 0.  1.
          6    1    1    2  501    0 -0.37428840679E+02 -0.10404507726E+03 -0.82429885492E+03  0.84948448982E+03  0.17300000000E+03 0.  1.
         -6    1    1    2    0  503  0.37428840679E+02  0.10404507726E+03 -0.35927047506E+03  0.41380015764E+03  0.17300000000E+03 0.  1.
<mgrwt>
<rscale>  2 0.20531755E+03</rscale>
<asrwt>0</asrwt>
<pdfrwt beam="1">  1       21 0.61319479E-02 0.20531755E+03</pdfrwt>
<pdfrwt beam="2">  1       21 0.18821953E+00 0.20531755E+03</pdfrwt>
<totfact> 0.30179529E+04</totfact>
</mgrwt>
</event>
<event>
 4    1  0.4090208E+000  0.2131486E+03  0.7546771E-02  0.1139097E+00
         21   -1    0    0  503  502  0.00000000000E+00  0.00000000000E+00  0.37094003665E+02  0.37094003665E+02  0.00000000000E+00 0.  1.
         21   -1    0    0  501  503 -0.00000000000E+00 -0.00000000000E+00 -0.12423128763E+04  0.12423128763E+04  0.00000000000E+00 0.  1.
          6    1    1    2  501    0  0.26999236253E+02 -0.12154977627E+03 -0.67858697577E+03  0.71127532682E+03  0.17300000000E+03 0.  1.
         -6    1    1    2    0  502 -0.26999236253E+02  0.12154977627E+03 -0.52663189684E+03  0.56813155311E+03  0.17300000000E+03 0.  1.
<mgrwt>
<rscale>  2 0.21314856E+03</rscale>
<asrwt>0</asrwt>
<pdfrwt beam="1">  1       21 0.57067698E-02 0.21314856E+03</pdfrwt>
<pdfrwt beam="2">  1       21 0.19112506E+00 0.21314856E+03</pdfrwt>
<totfact> 0.32486825E+04</totfact>
</mgrwt>
</event>
<event>
 4    1  0.4090208E+000  0.1936821E+03  0.7546771E-02  0.1155182E+00
         21   -1    0    0  503  502  0.00000000000E+00  0.00000000000E+00  0.38338117556E+03  0.38338117556E+03  0.00000000000E+00 0.  1.
         21   -1    0    0  501  503 -0.00000000000E+00 -0.00000000000E+00 -0.10182711209E+03  0.10182711209E+03  0.00000000000E+00 0.  1.
          6    1    1    2  501    0 -0.33665398926E+02 -0.80314456138E+02  0.92814317228E+02  0.21477259702E+03  0.17300000000E+03 0.  1.
         -6    1    1    2    0  502  0.33665398926E+02  0.80314456138E+02  0.18873974625E+03  0.27043569063E+03  0.17300000000E+03 0.  1.
<mgrwt>
<rscale>  2 0.19368214E+03</rscale>
<asrwt>0</asrwt>
<pdfrwt beam="1">  1       21 0.58981718E-01 0.19368214E+03</pdfrwt>
<pdfrwt beam="2">  1       21 0.15665710E-01 0.19368214E+03</pdfrwt>
<totfact> 0.97383752E+04</totfact>
</mgrwt>
</event>
<event>
 4    1  0.4090208E+000  0.2699969E+03  0.7546771E-02  0.1101281E+00
         21   -1    0    0  501  502  0.00000000000E+00  0.00000000000E+00  0.55831868741E+03  0.55831868741E+03  0.00000000000E+00 0.  1.
         21   -1    0    0  502  503 -0.00000000000E+00 -0.00000000000E+00 -0.19763397093E+03  0.19763397093E+03  0.00000000000E+00 0.  1.
          6    1    1    2  501    0  0.14292022734E+03 -0.15014368696E+03  0.40052662478E+03  0.48303198163E+03  0.17300000000E+03 0.  1.
         -6    1    1    2    0  503 -0.14292022734E+03  0.15014368696E+03 -0.39841908306E+02  0.27292067671E+03  0.17300000000E+03 0.  1.
<mgrwt>
<rscale>  2 0.26999689E+03</rscale>
<asrwt>0</asrwt>
<pdfrwt beam="1">  1       21 0.85895182E-01 0.26999689E+03</pdfrwt>
<pdfrwt beam="2">  1       21 0.30405226E-01 0.26999689E+03</pdfrwt>
<totfact> 0.11603581E+04</totfact>
</mgrwt>
</event>
<event>
 4    1  0.4090208E+000  0.1806297E+03  0.7546771E-02  0.1167195E+00
         21   -1    0    0  503  502  0.00000000000E+00  0.00000000000E+00  0.25873660369E+03  0.25873660369E+03  0.00000000000E+00 0. -1.
         21   -1    0    0  501  503 -0.00000000000E+00 -0.00000000000E+00 -0.14129698647E+03  0.14129698647E+03  0.00000000000E+00 0. -1.
          6    1    1    2  501    0 -0.46005581142E+02  0.24115658300E+02 -0.68731261023E+01  0.18076038928E+03  0.17300000000E+03 0. -1.
         -6    1    1    2    0  502  0.46005581142E+02 -0.24115658300E+02  0.12431274332E+03  0.21927320088E+03  0.17300000000E+03 0. -1.
<mgrwt>
<rscale>  2 0.18062967E+03</rscale>
<asrwt>0</asrwt>
<pdfrwt beam="1">  1       21 0.39805631E-01 0.18062967E+03</pdfrwt>
<pdfrwt beam="2">  1       21 0.21737998E-01 0.18062967E+03</pdfrwt>
<totfact> 0.12061036E+05</totfact>
</mgrwt>
</event>
<event>
 4    1  0.4090208E+000  0.2091813E+03  0.7546771E-02  0.1142216E+00
         21   -1    0    0  503  502  0.00000000000E+00  0.00000000000E+00  0.19732893921E+03  0.19732893921E+03  0.00000000000E+00 0. -1.
         21   -1    0    0  501  503 -0.00000000000E+00 -0.00000000000E+00 -0.27879025688E+03  0.27879025688E+03  0.00000000000E+00 0.  1.
          6    1    1    2  501    0 -0.63297302721E+02 -0.99102225947E+02  0.66954252528E+02  0.21963531513E+03  0.17300000000E+03 0. -1.
         -6    1    1    2    0  502  0.63297302721E+02  0.99102225947E+02 -0.14841557019E+03  0.25648388096E+03  0.17300000000E+03 0.  1.
<mgrwt>
<rscale>  2 0.20918126E+03</rscale>
<asrwt>0</asrwt>
<pdfrwt beam="1">  1       21 0.30358299E-01 0.20918126E+03</pdfrwt>
<pdfrwt beam="2">  1       21 0.42890809E-01 0.20918126E+03</pdfrwt>
<totfact> 0.54009197E+04</totfact>
</mgrwt>
</event>
<event>
 4    1  0.4090208E+000  0.1841001E+03  0.7546771E-02  0.1163893E+00
         21   -1    0    0  501  502  0.00000000000E+00  0.00000000000E+00  0.11143406560E+04  0.11143406560E+04  0.00000000000E+00 0. -1.
         21   -1    0    0  502  503 -0.00000000000E+00 -0.00000000000E+00 -0.36031502825E+02  0.36031502825E+02  0.00000000000E+00 0. -1.
          6    1    1    2  501    0  0.77075669554E+01  0.62485393549E+02  0.76624280388E+03  0.78804877101E+03  0.17300000000E+03 0. -1.
         -6    1    1    2    0  503 -0.77075669554E+01 -0.62485393549E+02  0.31206634930E+03  0.36232338782E+03  0.17300000000E+03 0. -1.
<mgrwt>
<rscale>  2 0.18410006E+03</rscale>
<asrwt>0</asrwt>
<pdfrwt beam="1">  1       21 0.17143700E+00 0.18410006E+03</pdfrwt>
<pdfrwt beam="2">  1       21 0.55433090E-02 0.18410006E+03</pdfrwt>
<totfact> 0.47304637E+04</totfact>
</mgrwt>
</event>
<event>
 4    1  0.4090208E+000  0.1976152E+03  0.7546771E-02  0.1151767E+00
         21   -1    0    0  501  502  0.00000000000E+00  0.00000000000E+00  0.31500477565E+02  0.31500477565E+02  0.00000000000E+00 0. -1.
         21   -1    0    0  502  503 -0.00000000000E+00 -0.00000000000E+00 -0.16204552743E+04  0.16204552743E+04  0.00000000000E+00 0. -1.
          6    1    1    2  501    0  0.76249399924E+02 -0.57522036288E+02 -0.39410719845E+03  0.44087667155E+03  0.17300000000E+03 0. -1.
         -6    1    1    2    0  503 -0.76249399924E+02  0.57522036288E+02 -0.11948475983E+04  0.12110790803E+04  0.17300000000E+03 0. -1.
<mgrwt>
<rscale>  2 0.19761517E+03</rscale>
<asrwt>0</asrwt>
<pdfrwt beam="1">  1       21 0.48462272E-02 0.19761517E+03</pdfrwt>
<pdfrwt beam="2">  1       21 0.24930082E+00 0.19761517E+03</pdfrwt>
<totfact> 0.18954994E+04</totfact>
</mgrwt>
</event>
<event>
 4    1  0.4090208E+000  0.2301014E+03  0.7546771E-02  0.1126568E+00
         21   -1    0    0  503  502  0.00000000000E+00  0.00000000000E+00  0.23726759531E+03  0.23726759531E+03  0.00000000000E+00 0. -1.
         21   -1    0    0  501  503 -0.00000000000E+00 -0.00000000000E+00 -0.24624408343E+03  0.24624408343E+03  0.00000000000E+00 0.  1.
          6    1    1    2  501    0 -0.14716923877E+03  0.36863028316E+02 -0.78521769853E+02  0.24313028614E+03  0.17300000000E+03 0.  1.
         -6    1    1    2    0  502  0.14716923877E+03 -0.36863028316E+02  0.69545281736E+02  0.24038139260E+03  0.17300000000E+03 0. -1.
<mgrwt>
<rscale>  2 0.23010143E+03</rscale>
<asrwt>0</asrwt>
<pdfrwt beam="1">  1       21 0.36502707E-01 0.23010143E+03</pdfrwt>
<pdfrwt beam="2">  1       21 0.37883705E-01 0.23010143E+03</pdfrwt>
<totfact> 0.47791213E+04</totfact>
</mgrwt>
</event>
<event>
 4    1  0.4090208E+000  0.1944976E+03  0.7546771E-02  0.1154466E+00
         21   -1    0    0  503  502  0.00000000000E+00  0.00000000000E+00  0.43248320459E+03  0.43248320459E+03  0.00000000000E+00 0.  1.
         21   -1    0    0  501  503 -0.00000000000E+00 -0.00000000000E+00 -0.13750392063E+03  0.13750392063E+03  0.00000000000E+00 0.  1.
          6    1    1    2  501    0 -0.85281377130E+02 -0.25048122269E+02 -0.24423714104E+02  0.19602509922E+03  0.17300000000E+03 0.  1.
         -6    1    1    2    0  502  0.85281377130E+02  0.25048122269E+02  0.31940299807E+03  0.37396202600E+03  0.17300000000E+03 0.  1.
<mgrwt>
<rscale>  2 0.19449761E+03</rscale>
<asrwt>0</asrwt>
<pdfrwt beam="1">  1       21 0.66535877E-01 0.19449761E+03</pdfrwt>
<pdfrwt beam="2">  1       21 0.21154450E-01 0.19449761E+03</pdfrwt>
<totfact> 0.43002975E+04</totfact>
</mgrwt>
</event>
<event>
 4    1  0.4090208E+000  0.1823909E+03  0.7546771E-02  0.1165509E+00
         21   -1    0    0  501  502  0.00000000000E+00  0.00000000000E+00  0.13811960329E+03  0.13811960329E+03  0.00000000000E+00 0.  1.
         21   -1    0    0  502  503 -0.00000000000E+00 -0.00000000000E+00 -0.53256200374E+03  0.53256200374E+03  0.00000000000E+00 0. -1.
          6    1    1    2  501    0  0.52244069831E+02  0.24657716918E+02  0.50964430107E+02  0.18937745107E+03  0.17300000000E+03 0.  1.
         -6    1    1    2    0  503 -0.52244069831E+02 -0.24657716918E+02 -0.44540683056E+03  0.48130415596E+03  0.17300000000E+03 0. -1.
<mgrwt>
<rscale>  2 0.18239091E+03</rscale>
<asrwt>0</asrwt>
<pdfrwt beam="1">  1       21 0.21249169E-01 0.18239091E+03</pdfrwt>
<pdfrwt beam="2">  1       21 0.81932617E-01 0.18239091E+03</pdfrwt>
<totfact> 0.27005308E+04</totfact>
</mgrwt>
</event>
<event>
 4    1  0.4090208E+000  0.1985956E+03  0.7546771E-02  0.1150929E+00
         21   -1    0    0  501  502  0.00000000000E+00  0.00000000000E+00  0.12321126334E+03  0.12321126334E+03  0.00000000000E+00 0. -1.
         21   -1    0    0  502  503 -0.00000000000E+00 -0.00000000000E+00 -0.36224545005E+03  0.36224545005E+03  0.00000000000E+00 0. -1.
          6    1    1    2  501    0  0.24091701909E+00 -0.97525106986E+02 -0.20230801570E+03  0.28349380548E+03  0.17300000000E+03 0. -1.
         -6    1    1    2    0  503 -0.24091701909E+00  0.97525106986E+02 -0.36726171015E+02  0.20196290791E+03  0.17300000000E+03 0. -1.
<mgrwt>
<rscale>  2 0.19859558E+03</rscale>
<asrwt>0</asrwt>
<pdfrwt beam="1">  1       21 0.18955579E-01 0.19859558E+03</pdfrwt>
<pdfrwt beam="2">  1       21 0.55730068E-01 0.19859558E+03</pdfrwt>
<totfact> 0.77175578E+04</totfact>
</mgrwt>
</event>
<event>
 4    1  0.4090208E+000  0.1884420E+03  0.7546771E-02  0.1159874E+00
         21   -1    0    0  503  502  0.00000000000E+00  0.00000000000E+00  0.19731624603E+04  0.19731624603E+04  0.00000000000E+00 0. -1.
         21   -1    0    0  501  503 -0.00000000000E+00 -0.00000000000E+00 -0.21543501713E+02  0.21543501713E+02  0.00000000000E+00 0. -1.
          6    1    1    2  501    0  0.73241342011E+02 -0.14734589599E+02  0.57113154537E+03  0.60141636528E+03  0.17300000000E+03 0. -1.
         -6    1    1    2    0  502 -0.73241342011E+02  0.14734589599E+02  0.13804874132E+04  0.13932895967E+04  0.17300000000E+03 0. -1.
<mgrwt>
<rscale>  2 0.18844204E+03</rscale>
<asrwt>0</asrwt>
<pdfrwt beam="1">  1       21 0.30356331E+00 0.18844204E+03</pdfrwt>
<pdfrwt beam="2">  1       21 0.33143864E-02 0.18844204E+03</pdfrwt>
<totfact> 0.17539609E+04</totfact>
</mgrwt>
</event>
<event>
 4    1  0.4090208E+000  0.2245703E+03  0.7546771E-02  0.1130521E+00
         21   -1    0    0  501  502  0.00000000000E+00  0.00000000000E+00  0.59810877518E+03  0.59810877518E+03  0.00000000000E+00 0.  1.
         21   -1    0    0  502  503 -0.00000000000E+00 -0.00000000000E+00 -0.84340955191E+02  0.84340955191E+02  0.00000000000E+00 0.  1.
          6    1    1    2  501    0 -0.14318169396E+03  0.13432250263E+01  0.26241694145E+03  0.34539029068E+03  0.17300000000E+03 0.  1.
         -6    1    1    2    0  503  0.14318169396E+03 -0.13432250263E+01  0.25135087854E+03  0.33705943969E+03  0.17300000000E+03 0.  1.
<mgrwt>
<rscale>  2 0.22457026E+03</rscale>
<asrwt>0</asrwt>
<pdfrwt beam="1">  1       21 0.92016732E-01 0.22457026E+03</pdfrwt>
<pdfrwt beam="2">  1       21 0.12975532E-01 0.22457026E+03</pdfrwt>
<totfact> 0.50112016E+04</totfact>
</mgrwt>
</event>
<event>
 4    1  0.4090208E+000  0.1790023E+03  0.7546771E-02  0.1168772E+00
         21   -1    0    0  503  502  0.00000000000E+00  0.00000000000E+00  0.48369101220E+03  0.48369101220E+03  0.00000000000E+00 0. -1.
         21   -1    0    0  501  503 -0.00000000000E+00 -0.00000000000E+00 -0.89276147214E+02  0.89276147214E+02  0.00000000000E+00 0. -1.
          6    1    1    2  501    0  0.35373021819E+02  0.29352716566E+02  0.51696632501E+02  0.18631793916E+03  0.17300000000E+03 0. -1.
         -6    1    1    2    0  502 -0.35373021819E+02 -0.29352716566E+02  0.34271823249E+03  0.38664922025E+03  0.17300000000E+03 0. -1.
<mgrwt>
<rscale>  2 0.17900233E+03</rscale>
<asrwt>0</asrwt>
<pdfrwt beam="1">  1       21 0.74414000E-01 0.17900233E+03</pdfrwt>
<pdfrwt beam="2">  1       21 0.13734792E-01 0.17900233E+03</pdfrwt>
<totfact> 0.74913220E+04</totfact>
</mgrwt>
</event>
<event>
 4    1  0.4090208E+000  0.1980732E+03  0.7546771E-02  0.1151375E+00
         21   -1    0    0  501  502  0.00000000000E+00  0.00000000000E+00  0.30261125272E+03  0.30261125272E+03  0.00000000000E+00 0.  1.
         21   -1    0    0  502  503 -0.00000000000E+00 -0.00000000000E+00 -0.17498634532E+03  0.17498634532E+03  0.00000000000E+00 0.  1.
          6    1    1    2  501    0  0.56154571452E+02 -0.78426118712E+02  0.18536445857E+03  0.27128025083E+03  0.17300000000E+03 0.  1.
         -6    1    1    2    0  503 -0.56154571452E+02  0.78426118712E+02 -0.57739551166E+02  0.20631734721E+03  0.17300000000E+03 0.  1.
<mgrwt>
<rscale>  2 0.19807320E+03</rscale>
<asrwt>0</asrwt>
<pdfrwt beam="1">  1       21 0.46555577E-01 0.19807320E+03</pdfrwt>
<pdfrwt beam="2">  1       21 0.26920976E-01 0.19807320E+03</pdfrwt>
<totfact> 0.57925581E+04</totfact>
</mgrwt>
</event>
<event>
 4    1  0.4090208E+000  0.2659690E+03  0.7546771E-02  0.1103609E+00
         21   -1    0    0  501  502  0.00000000000E+00  0.00000000000E+00  0.69469213999E+03  0.69469213999E+03  0.00000000000E+00 0. -1.
         21   -1    0    0  502  503 -0.00000000000E+00 -0.00000000000E+00 -0.10551695710E+03  0.10551695710E+03  0.00000000000E+00 0.  1.
          6    1    1    2  501    0  0.18017866044E+03  0.91357312577E+02  0.36939257279E+03  0.45518170116E+03  0.17300000000E+03 0. -1.
         -6    1    1    2    0  503 -0.18017866044E+03 -0.91357312577E+02  0.21978261010E+03  0.34502739593E+03  0.17300000000E+03 0.  1.
<mgrwt>
<rscale>  2 0.26596900E+03</rscale>
<asrwt>0</asrwt>
<pdfrwt beam="1">  1       21 0.10687571E+00 0.26596900E+03</pdfrwt>
<pdfrwt beam="2">  1       21 0.16233378E-01 0.26596900E+03</pdfrwt>
<totfact> 0.22857074E+04</totfact>
</mgrwt>
</event>
<event>
 4    1  0.4090208E+000  0.1883208E+03  0.7546771E-02  0.1159985E+00
         21   -1    0    0  503  502  0.00000000000E+00  0.00000000000E+00  0.18341346968E+04  0.18341346968E+04  0.00000000000E+00 0. -1.
         21   -1    0    0  501  503 -0.00000000000E+00 -0.00000000000E+00 -0.19549822765E+02  0.19549822765E+02  0.00000000000E+00 0.  1.
          6    1    1    2  501    0  0.36132881743E+02 -0.65039419121E+02  0.81034723236E+03  0.83194191394E+03  0.17300000000E+03 0.  1.
         -6    1    1    2    0  502 -0.36132881743E+02  0.65039419121E+02  0.10042376417E+04  0.10217426056E+04  0.17300000000E+03 0.  1.
<mgrwt>
<rscale>  2 0.18832077E+03</rscale>
<asrwt>0</asrwt>
<pdfrwt beam="1">  1       21 0.28217443E+00 0.18832077E+03</pdfrwt>
<pdfrwt beam="2">  1       21 0.30076665E-02 0.18832077E+03</pdfrwt>
<totfact> 0.27351292E+04</totfact>
</mgrwt>
</event>
<event>
 4    1  0.4090208E+000  0.1820991E+03  0.7546771E-02  0.1165787E+00
         21   -1    0    0  503  502  0.00000000000E+00  0.00000000000E+00  0.17286449779E+03  0.17286449779E+03  0.00000000000E+00 0. -1.
         21   -1    0    0  501  503 -0.00000000000E+00 -0.00000000000E+00 -0.21609919488E+03  0.21609919488E+03  0.00000000000E+00 0. -1.
          6    1    1    2  501    0 -0.29697800071E+02 -0.48467800496E+02 -0.86796177587E+02  0.20172670487E+03  0.17300000000E+03 0. -1.
         -6    1    1    2    0  502  0.29697800071E+02  0.48467800496E+02  0.43561480499E+02  0.18723698779E+03  0.17300000000E+03 0. -1.
<mgrwt>
<rscale>  2 0.18209911E+03</rscale>
<asrwt>0</asrwt>
<pdfrwt beam="1">  1       21 0.26594538E-01 0.18209911E+03</pdfrwt>
<pdfrwt beam="2">  1       21 0.33246030E-01 0.18209911E+03</pdfrwt>
<totfact> 0.11765903E+05</totfact>
</mgrwt>
</event>
<event>
 4    1  0.4090208E+000  0.2095021E+03  0.7546771E-02  0.1141961E+00
         21   -1    0    0  501  502  0.00000000000E+00  0.00000000000E+00  0.87149362296E+02  0.87149362296E+02  0.00000000000E+00 0.  1.
         21   -1    0    0  502  503 -0.00000000000E+00 -0.00000000000E+00 -0.70612406181E+03  0.70612406181E+03  0.00000000000E+00 0.  1.
          6    1    1    2  501    0  0.55235124502E+02  0.10445667314E+03 -0.97085869849E+02  0.23090426948E+03  0.17300000000E+03 0.  1.
         -6    1    1    2    0  503 -0.55235124502E+02 -0.10445667314E+03 -0.52188882966E+03  0.56236915462E+03  0.17300000000E+03 0.  1.
<mgrwt>
<rscale>  2 0.20950207E+03</rscale>
<asrwt>0</asrwt>
<pdfrwt beam="1">  1       21 0.13407595E-01 0.20950207E+03</pdfrwt>
<pdfrwt beam="2">  1       21 0.10863447E+00 0.20950207E+03</pdfrwt>
<totfact> 0.32055824E+04</totfact>
</mgrwt>
</event>
<event>
 4    1  0.4090208E+000  0.1934672E+03  0.7546771E-02  0.1155371E+00
         21   -1    0    0  501  502  0.00000000000E+00  0.00000000000E+00  0.47674586149E+03  0.47674586149E+03  0.00000000000E+00 0. -1.
         21   -1    0    0  502  503 -0.00000000000E+00 -0.00000000000E+00 -0.78510671076E+02  0.78510671076E+02  0.00000000000E+00 0.  1.
          6    1    1    2  501    0  0.30550482026E+02  0.81038412915E+02  0.19952650790E+03  0.27792154230E+03  0.17300000000E+03 0.  1.
         -6    1    1    2    0  503 -0.30550482026E+02 -0.81038412915E+02  0.19870868251E+03  0.27733499027E+03  0.17300000000E+03 0.  1.
<mgrwt>
<rscale>  2 0.19346720E+03</rscale>
<asrwt>0</asrwt>
<pdfrwt beam="1">  1       21 0.73345515E-01 0.19346720E+03</pdfrwt>
<pdfrwt beam="2">  1       21 0.12078565E-01 0.19346720E+03</pdfrwt>
<totfact> 0.96889560E+04</totfact>
</mgrwt>
</event>
<event>
 4    1  0.4090208E+000  0.1771901E+03  0.7546771E-02  0.1170551E+00
         21   -1    0    0  503  502  0.00000000000E+00  0.00000000000E+00  0.42760172062E+03  0.42760172062E+03  0.00000000000E+00 0.  1.
         21   -1    0    0  501  503 -0.00000000000E+00 -0.00000000000E+00 -0.85570312861E+02  0.85570312861E+02  0.00000000000E+00 0. -1.
          6    1    1    2  501    0  0.19694852836E+02  0.32854920931E+02  0.74346243380E+02  0.19215539795E+03  0.17300000000E+03 0. -1.
         -6    1    1    2    0  502 -0.19694852836E+02 -0.32854920931E+02  0.26768516438E+03  0.32101663553E+03  0.17300000000E+03 0.  1.
<mgrwt>
<rscale>  2 0.17719010E+03</rscale>
<asrwt>0</asrwt>
<pdfrwt beam="1">  1       21 0.65784879E-01 0.17719010E+03</pdfrwt>
<pdfrwt beam="2">  1       21 0.13164664E-01 0.17719010E+03</pdfrwt>
<totfact> 0.10612799E+05</totfact>
</mgrwt>
</event>
<event>
 4    1  0.4090208E+000  0.1773961E+03  0.7546771E-02  0.1170347E+00
         21   -1    0    0  501  502  0.00000000000E+00  0.00000000000E+00  0.27560829373E+03  0.27560829373E+03  0.00000000000E+00 0. -1.
         21   -1    0    0  502  503 -0.00000000000E+00 -0.00000000000E+00 -0.11568657669E+03  0.11568657669E+03  0.00000000000E+00 0.  1.
          6    1    1    2  501    0  0.19164257828E+02  0.34250836227E+02  0.57645625298E+02  0.18652722771E+03  0.17300000000E+03 0.  1.
         -6    1    1    2    0  503 -0.19164257828E+02 -0.34250836227E+02  0.10227609174E+03  0.20476764271E+03  0.17300000000E+03 0.  1.
<mgrwt>
<rscale>  2 0.17739613E+03</rscale>
<asrwt>0</asrwt>
<pdfrwt beam="1">  1       21 0.42401276E-01 0.17739613E+03</pdfrwt>
<pdfrwt beam="2">  1       21 0.17797935E-01 0.17739613E+03</pdfrwt>
<totfact> 0.15417124E+05</totfact>
</mgrwt>
</event>
<event>
 4    1  0.4090208E+000  0.3219547E+03  0.7546771E-02  0.1074753E+00
         21   -1    0    0  503  502  0.00000000000E+00  0.00000000000E+00  0.33193728082E+03  0.33193728082E+03  0.00000000000E+00 0.  1.
         21   -1    0    0  501  503 -0.00000000000E+00 -0.00000000000E+00 -0.43465655654E+03  0.43465655654E+03  0.00000000000E+00 0. -1.
          6    1    1    2  501    0  0.73860799121E+02  0.26128606332E+03 -0.25474746342E+03  0.41054974686E+03  0.17300000000E+03 0. -1.
         -6    1    1    2    0  502 -0.73860799121E+02 -0.26128606332E+03  0.15202818770E+03  0.35604409051E+03  0.17300000000E+03 0.  1.
<mgrwt>
<rscale>  2 0.32195469E+03</rscale>
<asrwt>0</asrwt>
<pdfrwt beam="1">  1       21 0.51067274E-01 0.32195469E+03</pdfrwt>
<pdfrwt beam="2">  1       21 0.66870239E-01 0.32195469E+03</pdfrwt>
<totfact> 0.69337761E+03</totfact>
</mgrwt>
</event>
<event>
 4    1  0.4090208E+000  0.2009170E+03  0.7546771E-02  0.1148968E+00
         21   -1    0    0  501  502  0.00000000000E+00  0.00000000000E+00  0.52116598565E+03  0.52116598565E+03  0.00000000000E+00 0.  1.
         21   -1    0    0  502  503 -0.00000000000E+00 -0.00000000000E+00 -0.98486093154E+02  0.98486093154E+02  0.00000000000E+00 0.  1.
          6    1    1    2  501    0  0.21793277196E+02 -0.99818324634E+02  0.35450824122E+03  0.40748464751E+03  0.17300000000E+03 0.  1.
         -6    1    1    2    0  503 -0.21793277196E+02  0.99818324634E+02  0.68171651274E+02  0.21216743129E+03  0.17300000000E+03 0.  1.
<mgrwt>
<rscale>  2 0.20091701E+03</rscale>
<asrwt>0</asrwt>
<pdfrwt beam="1">  1       21 0.80179381E-01 0.20091701E+03</pdfrwt>
<pdfrwt beam="2">  1       21 0.15151707E-01 0.20091701E+03</pdfrwt>
<totfact> 0.52490268E+04</totfact>
</mgrwt>
</event>
<event>
 4    1  0.4090208E+000  0.1902751E+03  0.7546771E-02  0.1158213E+00
         21   -1    0    0  503  502  0.00000000000E+00  0.00000000000E+00  0.95034340013E+02  0.95034340013E+02  0.00000000000E+00 0.  1.
         21   -1    0    0  501  503 -0.00000000000E+00 -0.00000000000E+00 -0.67544501190E+03  0.67544501190E+03  0.00000000000E+00 0. -1.
          6    1    1    2  501    0 -0.47072803111E+02  0.63716294724E+02 -0.54457482926E+03  0.57685904662E+03  0.17300000000E+03 0. -1.
         -6    1    1    2    0  502  0.47072803111E+02 -0.63716294724E+02 -0.35835842633E+02  0.19362030530E+03  0.17300000000E+03 0.  1.
<mgrwt>
<rscale>  2 0.19027510E+03</rscale>
<asrwt>0</asrwt>
<pdfrwt beam="1">  1       21 0.14620667E-01 0.19027510E+03</pdfrwt>
<pdfrwt beam="2">  1       21 0.10391462E+00 0.19027510E+03</pdfrwt>
<totfact> 0.30827329E+04</totfact>
</mgrwt>
</event>
<event>
 4    1  0.4090208E+000  0.2004785E+03  0.7546771E-02  0.1149336E+00
         21   -1    0    0  501  502  0.00000000000E+00  0.00000000000E+00  0.86483529499E+02  0.86483529499E+02  0.00000000000E+00 0. -1.
         21   -1    0    0  502  503 -0.00000000000E+00 -0.00000000000E+00 -0.74360867975E+03  0.74360867975E+03  0.00000000000E+00 0. -1.
          6    1    1    2  501    0 -0.10105946736E+03  0.70425016818E+01 -0.74388837974E+02  0.21383477731E+03  0.17300000000E+03 0. -1.
         -6    1    1    2    0  503  0.10105946736E+03 -0.70425016818E+01 -0.58273631228E+03  0.61625743194E+03  0.17300000000E+03 0. -1.
<mgrwt>
<rscale>  2 0.20047846E+03</rscale>
<asrwt>0</asrwt>
<pdfrwt beam="1">  1       21 0.13305159E-01 0.20047846E+03</pdfrwt>
<pdfrwt beam="2">  1       21 0.11440133E+00 0.20047846E+03</pdfrwt>
<totfact> 0.28811925E+04</totfact>
</mgrwt>
</event>
<event>
 4    1  0.4090208E+000  0.2027389E+03  0.7546771E-02  0.1147449E+00
         21   -1    0    0  501  502  0.00000000000E+00  0.00000000000E+00  0.16142065130E+03  0.16142065130E+03  0.00000000000E+00 0.  1.
         21   -1    0    0  502  503 -0.00000000000E+00 -0.00000000000E+00 -0.26782081425E+03  0.26782081425E+03  0.00000000000E+00 0.  1.
          6    1    1    2  501    0 -0.83814233157E+02  0.64414688388E+02 -0.55755727378E+01  0.20281559302E+03  0.17300000000E+03 0.  1.
         -6    1    1    2    0  503  0.83814233157E+02 -0.64414688388E+02 -0.10082459022E+03  0.22642587253E+03  0.17300000000E+03 0.  1.
<mgrwt>
<rscale>  2 0.20273894E+03</rscale>
<asrwt>0</asrwt>
<pdfrwt beam="1">  1       21 0.24833946E-01 0.20273894E+03</pdfrwt>
<pdfrwt beam="2">  1       21 0.41203202E-01 0.20273894E+03</pdfrwt>
<totfact> 0.86654459E+04</totfact>
</mgrwt>
</event>
<event>
 4    1  0.4090208E+000  0.1963003E+03  0.7546771E-02  0.1152899E+00
         21   -1    0    0  503  502  0.00000000000E+00  0.00000000000E+00  0.14607625625E+04  0.14607625625E+04  0.00000000000E+00 0. -1.
         21   -1    0    0  501  503 -0.00000000000E+00 -0.00000000000E+00 -0.34599808491E+02  0.34599808491E+02  0.00000000000E+00 0. -1.
          6    1    1    2  501    0 -0.41832461800E+02 -0.82794002823E+02  0.34863753916E+03  0.40010240624E+03  0.17300000000E+03 0. -1.
         -6    1    1    2    0  502  0.41832461800E+02  0.82794002823E+02  0.10775252149E+04  0.10952599648E+04  0.17300000000E+03 0. -1.
<mgrwt>
<rscale>  2 0.19630028E+03</rscale>
<asrwt>0</asrwt>
<pdfrwt beam="1">  1       21 0.22473265E+00 0.19630028E+03</pdfrwt>
<pdfrwt beam="2">  1       21 0.53230486E-02 0.19630028E+03</pdfrwt>
<totfact> 0.22697320E+04</totfact>
</mgrwt>
</event>
<event>
 4    1  0.4090208E+000  0.1835805E+03  0.7546771E-02  0.1164382E+00
         21   -1    0    0  501  502  0.00000000000E+00  0.00000000000E+00  0.47308143820E+02  0.47308143820E+02  0.00000000000E+00 0. -1.
         21   -1    0    0  502  503 -0.00000000000E+00 -0.00000000000E+00 -0.11893454947E+04  0.11893454947E+04  0.00000000000E+00 0. -1.
          6    1    1    2  501    0  0.60820410074E+02 -0.85827376547E+01 -0.17945391330E+03  0.25672065103E+03  0.17300000000E+03 0. -1.
         -6    1    1    2    0  503 -0.60820410074E+02  0.85827376547E+01 -0.96258343762E+03  0.97993298753E+03  0.17300000000E+03 0. -1.
<mgrwt>
<rscale>  2 0.18358046E+03</rscale>
<asrwt>0</asrwt>
<pdfrwt beam="1">  1       21 0.72781762E-02 0.18358046E+03</pdfrwt>
<pdfrwt beam="2">  1       21 0.18297622E+00 0.18358046E+03</pdfrwt>
<totfact> 0.24721856E+04</totfact>
</mgrwt>
</event>
<event>
 4    1  0.4090208E+000  0.2144181E+03  0.7546771E-02  0.1138114E+00
         21   -1    0    0  503  502  0.00000000000E+00  0.00000000000E+00  0.15862342748E+04  0.15862342748E+04  0.00000000000E+00 0.  1.
         21   -1    0    0  501  503 -0.00000000000E+00 -0.00000000000E+00 -0.29078204641E+02  0.29078204641E+02  0.00000000000E+00 0.  1.
          6    1    1    2  501    0  0.32102592862E+02 -0.12253789478E+03  0.73256112443E+03  0.76329608485E+03  0.17300000000E+03 0. -1.
         -6    1    1    2    0  502 -0.32102592862E+02  0.12253789478E+03  0.82459494577E+03  0.85201639463E+03  0.17300000000E+03 0. -1.
<mgrwt>
<rscale>  2 0.21441808E+03</rscale>
<asrwt>0</asrwt>
<pdfrwt beam="1">  1       21 0.24403597E+00 0.21441808E+03</pdfrwt>
<pdfrwt beam="2">  1       21 0.44735712E-02 0.21441808E+03</pdfrwt>
<totfact> 0.22996283E+04</totfact>
</mgrwt>
</event>
<event>
 4    1  0.4090208E+000  0.1749782E+03  0.7546771E-02  0.1172754E+00
         21   -1    0    0  501  502  0.00000000000E+00  0.00000000000E+00  0.17039707953E+03  0.17039707953E+03  0.00000000000E+00 0.  1.
         21   -1    0    0  502  503 -0.00000000000E+00 -0.00000000000E+00 -0.19557884504E+03  0.19557884504E+03  0.00000000000E+00 0.  1.
          6    1    1    2  501    0  0.26164317697E+02  0.19470917221E+01  0.39577943895E+02  0.17939837326E+03  0.17300000000E+03 0.  1.
         -6    1    1    2    0  503 -0.26164317697E+02 -0.19470917221E+01 -0.64759709405E+02  0.18657755130E+03  0.17300000000E+03 0.  1.
<mgrwt>
<rscale>  2 0.17497818E+03</rscale>
<asrwt>0</asrwt>
<pdfrwt beam="1">  1       21 0.26214935E-01 0.17497818E+03</pdfrwt>
<pdfrwt beam="2">  1       21 0.30089053E-01 0.17497818E+03</pdfrwt>
<totfact> 0.14739154E+05</totfact>
</mgrwt>
</event>
<event>
 4    1  0.4090208E+000  0.2062387E+03  0.7546771E-02  0.1144580E+00
         21   -1    0    0  503  502  0.00000000000E+00  0.00000000000E+00  0.20272499829E+03  0.20272499829E+03  0.00000000000E+00 0. -1.
         21   -1    0    0  501  503 -0.00000000000E+00 -0.00000000000E+00 -0.36638030794E+03  0.36638030794E+03  0.00000000000E+00 0.  1.
          6    1    1    2  501    0  0.10606348238E+03  0.36823244269E+02 -0.26784207660E+03  0.33804406756E+03  0.17300000000E+03 0.  1.
         -6    1    1    2    0  502 -0.10606348238E+03 -0.36823244269E+02  0.10418676694E+03  0.23106123868E+03  0.17300000000E+03 0. -1.
<mgrwt>
<rscale>  2 0.20623873E+03</rscale>
<asrwt>0</asrwt>
<pdfrwt beam="1">  1       21 0.31188461E-01 0.20623873E+03</pdfrwt>
<pdfrwt beam="2">  1       21 0.56366201E-01 0.20623873E+03</pdfrwt>
<totfact> 0.29028823E+04</totfact>
</mgrwt>
</event>
<event>
 4    1  0.4090208E+000  0.1803265E+03  0.7546771E-02  0.1167487E+00
         21   -1    0    0  503  502  0.00000000000E+00  0.00000000000E+00  0.30587285865E+03  0.30587285865E+03  0.00000000000E+00 0. -1.
         21   -1    0    0  501  503 -0.00000000000E+00 -0.00000000000E+00 -0.13933266365E+03  0.13933266365E+03  0.00000000000E+00 0. -1.
          6    1    1    2  501    0  0.50816989926E+02 -0.25029392822E+01 -0.25098622939E+02  0.18206474684E+03  0.17300000000E+03 0. -1.
         -6    1    1    2    0  502 -0.50816989926E+02  0.25029392822E+01  0.19163881794E+03  0.26314077546E+03  0.17300000000E+03 0. -1.
<mgrwt>
<rscale>  2 0.18032646E+03</rscale>
<asrwt>0</asrwt>
<pdfrwt beam="1">  1       21 0.47057363E-01 0.18032646E+03</pdfrwt>
<pdfrwt beam="2">  1       21 0.21435794E-01 0.18032646E+03</pdfrwt>
<totfact> 0.88031488E+04</totfact>
</mgrwt>
</event>
<event>
 4    1  0.4090208E+000  0.1736456E+03  0.7546771E-02  0.1174099E+00
         21   -1    0    0  503  502  0.00000000000E+00  0.00000000000E+00  0.22772629692E+02  0.22772629692E+02  0.00000000000E+00 0.  1.
         21   -1    0    0  501  503 -0.00000000000E+00 -0.00000000000E+00 -0.25106801153E+04  0.25106801153E+04  0.00000000000E+00 0.  1.
          6    1    1    2  501    0 -0.10524762583E+02  0.10631629887E+02 -0.21147953368E+04  0.21219123730E+04  0.17300000000E+03 0.  1.
         -6    1    1    2    0  502  0.10524762583E+02 -0.10631629887E+02 -0.37311214878E+03  0.41154037196E+03  0.17300000000E+03 0.  1.
<mgrwt>
<rscale>  2 0.17364562E+03</rscale>
<asrwt>0</asrwt>
<pdfrwt beam="1">  1       21 0.35034812E-02 0.17364562E+03</pdfrwt>
<pdfrwt beam="2">  1       21 0.38625851E+00 0.17364562E+03</pdfrwt>
<totfact> 0.53198248E+03</totfact>
</mgrwt>
</event>
<event>
 4    1  0.4090208E+000  0.1780090E+03  0.7546771E-02  0.1169744E+00
         21   -1    0    0  503  502  0.00000000000E+00  0.00000000000E+00  0.59744252441E+02  0.59744252441E+02  0.00000000000E+00 0. -1.
         21   -1    0    0  501  503 -0.00000000000E+00 -0.00000000000E+00 -0.88602474928E+03  0.88602474928E+03  0.00000000000E+00 0. -1.
          6    1    1    2  501    0  0.40954964539E+02 -0.89935484397E+01 -0.71273898782E+03  0.73463191994E+03  0.17300000000E+03 0. -1.
         -6    1    1    2    0  502 -0.40954964539E+02  0.89935484397E+01 -0.11354150902E+03  0.21113708179E+03  0.17300000000E+03 0. -1.
<mgrwt>
<rscale>  2 0.17800897E+03</rscale>
<asrwt>0</asrwt>
<pdfrwt beam="1">  1       21 0.91914235E-02 0.17800897E+03</pdfrwt>
<pdfrwt beam="2">  1       21 0.13631150E+00 0.17800897E+03</pdfrwt>
<totfact> 0.36391277E+04</totfact>
</mgrwt>
</event>
<event>
 4    1  0.4090208E+000  0.1903351E+03  0.7546771E-02  0.1158159E+00
         21   -1    0    0  501  502  0.00000000000E+00  0.00000000000E+00  0.15124903263E+03  0.15124903263E+03  0.00000000000E+00 0. -1.
         21   -1    0    0  502  503 -0.00000000000E+00 -0.00000000000E+00 -0.28154198259E+03  0.28154198259E+03  0.00000000000E+00 0. -1.
          6    1    1    2  501    0 -0.77720748680E+02  0.16060688563E+02  0.18453268404E+02  0.19122757021E+03  0.17300000000E+03 0. -1.
         -6    1    1    2    0  503  0.77720748680E+02 -0.16060688563E+02 -0.14874621836E+03  0.24156344502E+03  0.17300000000E+03 0. -1.
<mgrwt>
<rscale>  2 0.19033513E+03</rscale>
<asrwt>0</asrwt>
<pdfrwt beam="1">  1       21 0.23269082E-01 0.19033513E+03</pdfrwt>
<pdfrwt beam="2">  1       21 0.43314151E-01 0.19033513E+03</pdfrwt>
<totfact> 0.89046710E+04</totfact>
</mgrwt>
</event>
<event>
 4    1  0.4090208E+000  0.2553908E+03  0.7546771E-02  0.1109945E+00
         21   -1    0    0  503  502  0.00000000000E+00  0.00000000000E+00  0.57953951948E+03  0.57953951948E+03  0.00000000000E+00 0. -1.
         21   -1    0    0  501  503 -0.00000000000E+00 -0.00000000000E+00 -0.15042755227E+03  0.15042755227E+03  0.00000000000E+00 0. -1.
          6    1    1    2  501    0 -0.52581392039E+02 -0.18036262734E+03  0.31397445447E+02  0.25731358245E+03  0.17300000000E+03 0. -1.
         -6    1    1    2    0  502  0.52581392039E+02  0.18036262734E+03  0.39771452176E+03  0.47265348930E+03  0.17300000000E+03 0. -1.
<mgrwt>
<rscale>  2 0.25539084E+03</rscale>
<asrwt>0</asrwt>
<pdfrwt beam="1">  1       21 0.89159925E-01 0.25539084E+03</pdfrwt>
<pdfrwt beam="2">  1       21 0.23142701E-01 0.25539084E+03</pdfrwt>
<totfact> 0.18182023E+04</totfact>
</mgrwt>
</event>
<event>
 4    1  0.4090208E+000  0.1746807E+03  0.7546771E-02  0.1173053E+00
         21   -1    0    0  503  502  0.00000000000E+00  0.00000000000E+00  0.24205214399E+03  0.24205214399E+03  0.00000000000E+00 0. -1.
         21   -1    0    0  501  503 -0.00000000000E+00 -0.00000000000E+00 -0.16963039179E+03  0.16963039179E+03  0.00000000000E+00 0. -1.
          6    1    1    2  501    0 -0.17063799124E+02  0.17122776374E+02 -0.68109897870E+02  0.18748952211E+03  0.17300000000E+03 0.  1.
         -6    1    1    2    0  502  0.17063799124E+02 -0.17122776374E+02  0.14053165007E+03  0.22419301368E+03  0.17300000000E+03 0.  1.
<mgrwt>
<rscale>  2 0.17468075E+03</rscale>
<asrwt>0</asrwt>
<pdfrwt beam="1">  1       21 0.37238791E-01 0.17468075E+03</pdfrwt>
<pdfrwt beam="2">  1       21 0.26096983E-01 0.17468075E+03</pdfrwt>
<totfact> 0.97703399E+04</totfact>
</mgrwt>
</event>
<event>
 4    1  0.4090208E+000  0.2171214E+03  0.7546771E-02  0.1136048E+00
         21   -1    0    0  503  502  0.00000000000E+00  0.00000000000E+00  0.69005376030E+03  0.69005376030E+03  0.00000000000E+00 0. -1.
         21   -1    0    0  501  503 -0.00000000000E+00 -0.00000000000E+00 -0.17722825746E+03  0.17722825746E+03  0.00000000000E+00 0.  1.
          6    1    1    2  501    0 -0.10601302569E+03 -0.77291282056E+02 -0.83527246779E+02  0.23263384288E+03  0.17300000000E+03 0.  1.
         -6    1    1    2    0  502  0.10601302569E+03  0.77291282056E+02  0.59635274962E+03  0.63464817488E+03  0.17300000000E+03 0. -1.
<mgrwt>
<rscale>  2 0.21712140E+03</rscale>
<asrwt>0</asrwt>
<pdfrwt beam="1">  1       21 0.10616212E+00 0.21712140E+03</pdfrwt>
<pdfrwt beam="2">  1       21 0.27265886E-01 0.21712140E+03</pdfrwt>
<totfact> 0.89696299E+03</totfact>
</mgrwt>
</event>
<event>
 4    1  0.4090208E+000  0.2297700E+03  0.7546771E-02  0.1126802E+00
         21   -1    0    0  501  502  0.00000000000E+00  0.00000000000E+00  0.14284109454E+03  0.14284109454E+03  0.00000000000E+00 0. -1.
         21   -1    0    0  502  503 -0.00000000000E+00 -0.00000000000E+00 -0.63624037703E+03  0.63624037703E+03  0.00000000000E+00 0.  1.
          6    1    1    2  501    0  0.14919818313E+03  0.24599930335E+02  0.54765984184E+01  0.22983526177E+03  0.17300000000E+03 0. -1.
         -6    1    1    2    0  503 -0.14919818313E+03 -0.24599930335E+02 -0.49887588091E+03  0.54924620980E+03  0.17300000000E+03 0.  1.
<mgrwt>
<rscale>  2 0.22977000E+03</rscale>
<asrwt>0</asrwt>
<pdfrwt beam="1">  1       21 0.21975553E-01 0.22977000E+03</pdfrwt>
<pdfrwt beam="2">  1       21 0.97883136E-01 0.22977000E+03</pdfrwt>
<totfact> 0.16328793E+04</totfact>
</mgrwt>
</event>
<event>
 4    1  0.4090208E+000  0.2199793E+03  0.7546771E-02  0.1133898E+00
         21   -1    0    0  503  502  0.00000000000E+00  0.00000000000E+00  0.14970761314E+03  0.14970761314E+03  0.00000000000E+00 0.  1.
         21   -1    0    0  501  503 -0.00000000000E+00 -0.00000000000E+00 -0.33441712389E+03  0.33441712389E+03  0.00000000000E+00 0.  1.
          6    1    1    2  501    0  0.12230561995E+02 -0.13532301712E+03 -0.13661601151E+03  0.25894949355E+03  0.17300000000E+03 0.  1.
         -6    1    1    2    0  502 -0.12230561995E+02  0.13532301712E+03 -0.48093499239E+02  0.22517524348E+03  0.17300000000E+03 0.  1.
<mgrwt>
<rscale>  2 0.21997933E+03</rscale>
<asrwt>0</asrwt>
<pdfrwt beam="1">  1       21 0.23031940E-01 0.21997933E+03</pdfrwt>
<pdfrwt beam="2">  1       21 0.51448788E-01 0.21997933E+03</pdfrwt>
<totfact> 0.62769542E+04</totfact>
</mgrwt>
</event>
<event>
 4    1  0.4090208E+000  0.2778744E+03  0.7546771E-02  0.1096856E+00
         21   -1    0    0  501  502  0.00000000000E+00  0.00000000000E+00  0.67976194527E+03  0.67976194527E+03  0.00000000000E+00 0. -1.
         21   -1    0    0  502  503 -0.00000000000E+00 -0.00000000000E+00 -0.11482206105E+03  0.11482206105E+03  0.00000000000E+00 0.  1.
          6    1    1    2  501    0  0.18866477013E+03 -0.10812399514E+03  0.32362321073E+03  0.42655149319E+03  0.17300000000E+03 0. -1.
         -6    1    1    2    0  503 -0.18866477013E+03  0.10812399514E+03  0.24131667349E+03  0.36803251313E+03  0.17300000000E+03 0. -1.
<mgrwt>
<rscale>  2 0.27787442E+03</rscale>
<asrwt>0</asrwt>
<pdfrwt beam="1">  1       21 0.10457876E+00 0.27787442E+03</pdfrwt>
<pdfrwt beam="2">  1       21 0.17664933E-01 0.27787442E+03</pdfrwt>
<totfact> 0.20489963E+04</totfact>
</mgrwt>
</event>
<event>
 4    1  0.4090208E+000  0.1774348E+03  0.7546771E-02  0.1170309E+00
         21   -1    0    0  501  502  0.00000000000E+00  0.00000000000E+00  0.14822785471E+04  0.14822785471E+04  0.00000000000E+00 0.  1.
         21   -1    0    0  502  503 -0.00000000000E+00 -0.00000000000E+00 -0.21394937744E+02  0.21394937744E+02  0.00000000000E+00 0.  1.
          6    1    1    2  501    0 -0.32835480954E+02 -0.21816129742E+02  0.79448954418E+03  0.81406188225E+03  0.17300000000E+03 0.  1.
         -6    1    1    2    0  503  0.32835480954E+02  0.21816129742E+02  0.66639406516E+03  0.68961160258E+03  0.17300000000E+03 0.  1.
<mgrwt>
<rscale>  2 0.17743481E+03</rscale>
<asrwt>0</asrwt>
<pdfrwt beam="1">  1       21 0.22804277E+00 0.17743481E+03</pdfrwt>
<pdfrwt beam="2">  1       21 0.32915301E-02 0.17743481E+03</pdfrwt>
<totfact> 0.49304068E+04</totfact>
</mgrwt>
</event>
<event>
 4    1  0.4090208E+000  0.2418908E+03  0.7546771E-02  0.1118540E+00
         21   -1    0    0  503  502  0.00000000000E+00  0.00000000000E+00  0.52301109300E+03  0.52301109300E+03  0.00000000000E+00 0.  1.
         21   -1    0    0  501  503 -0.00000000000E+00 -0.00000000000E+00 -0.28789589497E+03  0.28789589497E+03  0.00000000000E+00 0.  1.
          6    1    1    2  501    0  0.67871963001E+02 -0.15484039485E+03 -0.19947732755E+03  0.31353206446E+03  0.17300000000E+03 0.  1.
         -6    1    1    2    0  502 -0.67871963001E+02  0.15484039485E+03  0.43459252558E+03  0.49737492350E+03  0.17300000000E+03 0.  1.
<mgrwt>
<rscale>  2 0.24189078E+03</rscale>
<asrwt>0</asrwt>
<pdfrwt beam="1">  1       21 0.80463245E-01 0.24189078E+03</pdfrwt>
<pdfrwt beam="2">  1       21 0.44291676E-01 0.24189078E+03</pdfrwt>
<totfact> 0.64237965E+03</totfact>
</mgrwt>
</event>
<event>
 4    1  0.4090208E+000  0.2303087E+03  0.7546771E-02  0.1126423E+00
         21   -1    0    0  503  502  0.00000000000E+00  0.00000000000E+00  0.10479049804E+03  0.10479049804E+03  0.00000000000E+00 0. -1.
         21   -1    0    0  501  503 -0.00000000000E+00 -0.00000000000E+00 -0.72616969676E+03  0.72616969676E+03  0.00000000000E+00 0. -1.
          6    1    1    2  501    0  0.13853515513E+03 -0.62618579682E+02 -0.53937564667E+03  0.58648799131E+03  0.17300000000E+03 0. -1.
         -6    1    1    2    0  502 -0.13853515513E+03  0.62618579682E+02 -0.82003552050E+02  0.24447220349E+03  0.17300000000E+03 0. -1.
<mgrwt>
<rscale>  2 0.23030865E+03</rscale>
<asrwt>0</asrwt>
<pdfrwt beam="1">  1       21 0.16121615E-01 0.23030865E+03</pdfrwt>
<pdfrwt beam="2">  1       21 0.11171841E+00 0.23030865E+03</pdfrwt>
<totfact> 0.21153673E+04</totfact>
</mgrwt>
</event>
<event>
 4    1  0.4090208E+000  0.1740027E+03  0.7546771E-02  0.1173737E+00
         21   -1    0    0  501  502  0.00000000000E+00  0.00000000000E+00  0.17628039511E+04  0.17628039511E+04  0.00000000000E+00 0.  1.
         21   -1    0    0  502  503 -0.00000000000E+00 -0.00000000000E+00 -0.40978364189E+02  0.40978364189E+02  0.00000000000E+00 0.  1.
          6    1    1    2  501    0  0.47494952234E+01 -0.18038459822E+02  0.15482849304E+04  0.15580318255E+04  0.17300000000E+03 0.  1.
         -6    1    1    2    0  503 -0.47494952234E+01  0.18038459822E+02  0.17354065648E+03  0.24575048970E+03  0.17300000000E+03 0.  1.
<mgrwt>
<rscale>  2 0.17400271E+03</rscale>
<asrwt>0</asrwt>
<pdfrwt beam="1">  1       21 0.27120055E+00 0.17400271E+03</pdfrwt>
<pdfrwt beam="2">  1       21 0.63043651E-02 0.17400271E+03</pdfrwt>
<totfact> 0.92428682E+03</totfact>
</mgrwt>
</event>
<event>
 4    1  0.4090208E+000  0.1854259E+03  0.7546771E-02  0.1162653E+00
         21   -1    0    0  503  502  0.00000000000E+00  0.00000000000E+00  0.12210995654E+04  0.12210995654E+04  0.00000000000E+00 0. -1.
         21   -1    0    0  501  503 -0.00000000000E+00 -0.00000000000E+00 -0.28868140597E+02  0.28868140597E+02  0.00000000000E+00 0. -1.
          6    1    1    2  501    0 -0.65911956630E+02 -0.10458221892E+02  0.69419382707E+03  0.71853171814E+03  0.17300000000E+03 0. -1.
         -6    1    1    2    0  502  0.65911956630E+02  0.10458221892E+02  0.49803759771E+03  0.53143598783E+03  0.17300000000E+03 0. -1.
<mgrwt>
<rscale>  2 0.18542589E+03</rscale>
<asrwt>0</asrwt>
<pdfrwt beam="1">  1       21 0.18786143E+00 0.18542589E+03</pdfrwt>
<pdfrwt beam="2">  1       21 0.44412534E-02 0.18542589E+03</pdfrwt>
<totfact> 0.53192965E+04</totfact>
</mgrwt>
</event>
<event>
 4    1  0.4090208E+000  0.1733486E+03  0.7546771E-02  0.1174400E+00
         21   -1    0    0  503  502  0.00000000000E+00  0.00000000000E+00  0.99065264518E+03  0.99065264518E+03  0.00000000000E+00 0.  1.
         21   -1    0    0  501  503 -0.00000000000E+00 -0.00000000000E+00 -0.86755977449E+02  0.86755977449E+02  0.00000000000E+00 0.  1.
          6    1    1    2  501    0  0.10098067279E+02  0.43303645892E+01  0.17510387622E+02  0.17423069963E+03  0.17300000000E+03 0.  1.
         -6    1    1    2    0  502 -0.10098067279E+02 -0.43303645892E+01  0.88638628011E+03  0.90317792299E+03  0.17300000000E+03 0.  1.
<mgrwt>
<rscale>  2 0.17334856E+03</rscale>
<asrwt>0</asrwt>
<pdfrwt beam="1">  1       21 0.15240809E+00 0.17334856E+03</pdfrwt>
<pdfrwt beam="2">  1       21 0.13347074E-01 0.17334856E+03</pdfrwt>
<totfact> 0.14091987E+04</totfact>
</mgrwt>
</event>
<event>
 4    1  0.4090208E+000  0.2588970E+03  0.7546771E-02  0.1107808E+00
         21   -1    0    0  503  502  0.00000000000E+00  0.00000000000E+00  0.17911817091E+03  0.17911817091E+03  0.00000000000E+00 0.  1.
         21   -1    0    0  501  503 -0.00000000000E+00 -0.00000000000E+00 -0.37994661888E+03  0.37994661888E+03  0.00000000000E+00 0.  1.
          6    1    1    2  501    0 -0.11552065868E+03  0.15412207636E+03 -0.66063526148E+02  0.26719286384E+03  0.17300000000E+03 0.  1.
         -6    1    1    2    0  502  0.11552065868E+03 -0.15412207636E+03 -0.13476492182E+03  0.29187192594E+03  0.17300000000E+03 0.  1.
<mgrwt>
<rscale>  2 0.25889696E+03</rscale>
<asrwt>0</asrwt>
<pdfrwt beam="1">  1       21 0.27556642E-01 0.25889696E+03</pdfrwt>
<pdfrwt beam="2">  1       21 0.58453326E-01 0.25889696E+03</pdfrwt>
<totfact> 0.33352129E+04</totfact>
</mgrwt>
</event>
<event>
 4    1  0.4090208E+000  0.2017101E+03  0.7546771E-02  0.1148304E+00
         21   -1    0    0  503  502  0.00000000000E+00  0.00000000000E+00  0.40999945113E+03  0.40999945113E+03  0.00000000000E+00 0. -1.
         21   -1    0    0  501  503 -0.00000000000E+00 -0.00000000000E+00 -0.10001579425E+03  0.10001579425E+03  0.00000000000E+00 0.  1.
          6    1    1    2  501    0 -0.74647442104E+02  0.72011953308E+02  0.13248394795E+03  0.24132749221E+03  0.17300000000E+03 0.  1.
         -6    1    1    2    0  502  0.74647442104E+02 -0.72011953308E+02  0.17749970893E+03  0.26868775317E+03  0.17300000000E+03 0. -1.
<mgrwt>
<rscale>  2 0.20171009E+03</rscale>
<asrwt>0</asrwt>
<pdfrwt beam="1">  1       21 0.63076838E-01 0.20171009E+03</pdfrwt>
<pdfrwt beam="2">  1       21 0.15387045E-01 0.20171009E+03</pdfrwt>
<totfact> 0.86780816E+04</totfact>
</mgrwt>
</event>
<event>
 4    1  0.4090208E+000  0.1802155E+03  0.7546771E-02  0.1167595E+00
         21   -1    0    0  503  502  0.00000000000E+00  0.00000000000E+00  0.21047123926E+03  0.21047123926E+03  0.00000000000E+00 0.  1.
         21   -1    0    0  501  503 -0.00000000000E+00 -0.00000000000E+00 -0.24143027892E+03  0.24143027892E+03  0.00000000000E+00 0.  1.
          6    1    1    2  501    0  0.45521290794E+02 -0.21827074883E+02 -0.15121082532E+03  0.23524949056E+03  0.17300000000E+03 0.  1.
         -6    1    1    2    0  502 -0.45521290794E+02  0.21827074883E+02  0.12025178566E+03  0.21665202761E+03  0.17300000000E+03 0.  1.
<mgrwt>
<rscale>  2 0.18021545E+03</rscale>
<asrwt>0</asrwt>
<pdfrwt beam="1">  1       21 0.32380191E-01 0.18021545E+03</pdfrwt>
<pdfrwt beam="2">  1       21 0.37143120E-01 0.18021545E+03</pdfrwt>
<totfact> 0.64500226E+04</totfact>
</mgrwt>
</event>
<event>
 4    1  0.4090208E+000  0.2511135E+03  0.7546771E-02  0.1112603E+00
         21   -1    0    0  501  502  0.00000000000E+00  0.00000000000E+00  0.18362445943E+03  0.18362445943E+03  0.00000000000E+00 0. -1.
         21   -1    0    0  502  503 -0.00000000000E+00 -0.00000000000E+00 -0.34548279798E+03  0.34548279798E+03  0.00000000000E+00 0.  1.
          6    1    1    2  501    0 -0.49494688534E+01 -0.18194642650E+03 -0.60424605453E+02  0.25828111101E+03  0.17300000000E+03 0. -1.
         -6    1    1    2    0  503  0.49494688534E+01  0.18194642650E+03 -0.10143373310E+03  0.27082614639E+03  0.17300000000E+03 0. -1.
<mgrwt>
<rscale>  2 0.25111352E+03</rscale>
<asrwt>0</asrwt>
<pdfrwt beam="1">  1       21 0.28249917E-01 0.25111352E+03</pdfrwt>
<pdfrwt beam="2">  1       21 0.53151199E-01 0.25111352E+03</pdfrwt>
<totfact> 0.39058792E+04</totfact>
</mgrwt>
</event>
<event>
 4    1  0.4090208E+000  0.1888561E+03  0.7546771E-02  0.1159497E+00
         21   -1    0    0  503  502  0.00000000000E+00  0.00000000000E+00  0.14757422376E+03  0.14757422376E+03  0.00000000000E+00 0. -1.
         21   -1    0    0  501  503 -0.00000000000E+00 -0.00000000000E+00 -0.24704840540E+03  0.24704840540E+03  0.00000000000E+00 0. -1.
          6    1    1    2  501    0 -0.30638791046E+02 -0.69274047277E+02 -0.78806709215E+02  0.20463901524E+03  0.17300000000E+03 0. -1.
         -6    1    1    2    0  502  0.30638791046E+02  0.69274047277E+02 -0.20667472422E+02  0.18998361392E+03  0.17300000000E+03 0. -1.
<mgrwt>
<rscale>  2 0.18885611E+03</rscale>
<asrwt>0</asrwt>
<pdfrwt beam="1">  1       21 0.22703727E-01 0.18885611E+03</pdfrwt>
<pdfrwt beam="2">  1       21 0.38007447E-01 0.18885611E+03</pdfrwt>
<totfact> 0.12159356E+05</totfact>
</mgrwt>
</event>
<event>
 4    1  0.4090208E+000  0.3223051E+03  0.7546771E-02  0.1074593E+00
         21   -1    0    0  501  502  0.00000000000E+00  0.00000000000E+00  0.27828674018E+03  0.27828674018E+03  0.00000000000E+00 0.  1.
         21   -1    0    0  502  503 -0.00000000000E+00 -0.00000000000E+00 -0.52521940938E+03  0.52521940938E+03  0.00000000000E+00 0.  1.
          6    1    1    2  501    0  0.78656401936E+02 -0.26031658276E+03  0.92614089071E+02  0.33534746505E+03  0.17300000000E+03 0.  1.
         -6    1    1    2    0  503 -0.78656401936E+02  0.26031658276E+03 -0.33954675827E+03  0.46815868450E+03  0.17300000000E+03 0.  1.
<mgrwt>
<rscale>  2 0.32230506E+03</rscale>
<asrwt>0</asrwt>
<pdfrwt beam="1">  1       21 0.42813345E-01 0.32230506E+03</pdfrwt>
<pdfrwt beam="2">  1       21 0.80802985E-01 0.32230506E+03</pdfrwt>
<totfact> 0.65412181E+03</totfact>
</mgrwt>
</event>
<event>
 4    1  0.4090208E+000  0.2128704E+03  0.7546771E-02  0.1139313E+00
         21   -1    0    0  503  502  0.00000000000E+00  0.00000000000E+00  0.73113095613E+02  0.73113095613E+02  0.00000000000E+00 0.  1.
         21   -1    0    0  501  503 -0.00000000000E+00 -0.00000000000E+00 -0.62155331927E+03  0.62155331927E+03  0.00000000000E+00 0.  1.
          6    1    1    2  501    0 -0.62786253467E+02  0.10697056920E+03 -0.25565209363E+03  0.33267372796E+03  0.17300000000E+03 0.  1.
         -6    1    1    2    0  502  0.62786253467E+02 -0.10697056920E+03 -0.29278813002E+03  0.36199268692E+03  0.17300000000E+03 0.  1.
<mgrwt>
<rscale>  2 0.21287042E+03</rscale>
<asrwt>0</asrwt>
<pdfrwt beam="1">  1       21 0.11248168E-01 0.21287042E+03</pdfrwt>
<pdfrwt beam="2">  1       21 0.95623594E-01 0.21287042E+03</pdfrwt>
<totfact> 0.59503328E+04</totfact>
</mgrwt>
</event>
<event>
 4    1  0.4090208E+000  0.2094750E+03  0.7546771E-02  0.1141982E+00
         21   -1    0    0  503  502  0.00000000000E+00  0.00000000000E+00  0.10254217869E+03  0.10254217869E+03  0.00000000000E+00 0. -1.
         21   -1    0    0  501  503 -0.00000000000E+00 -0.00000000000E+00 -0.43506097154E+03  0.43506097154E+03  0.00000000000E+00 0.  1.
          6    1    1    2  501    0  0.76499952767E+02 -0.89991795110E+02 -0.20069915138E+03  0.29010328389E+03  0.17300000000E+03 0.  1.
         -6    1    1    2    0  502 -0.76499952767E+02  0.89991795110E+02 -0.13181964147E+03  0.24749986634E+03  0.17300000000E+03 0.  1.
<mgrwt>
<rscale>  2 0.20947498E+03</rscale>
<asrwt>0</asrwt>
<pdfrwt beam="1">  1       21 0.15775720E-01 0.20947498E+03</pdfrwt>
<pdfrwt beam="2">  1       21 0.66932455E-01 0.20947498E+03</pdfrwt>
<totfact> 0.72607587E+04</totfact>
</mgrwt>
</event>
<event>
 4    1  0.4090208E+000  0.3624893E+03  0.7546771E-02  0.1057603E+00
         21   -1    0    0  501  502  0.00000000000E+00  0.00000000000E+00  0.15987924244E+03  0.15987924244E+03  0.00000000000E+00 0. -1.
         21   -1    0    0  502  503 -0.00000000000E+00 -0.00000000000E+00 -0.12413998311E+04  0.12413998311E+04  0.00000000000E+00 0. -1.
          6    1    1    2  501    0  0.64195738197E+02 -0.31200702409E+03 -0.13345035758E+03  0.38627383269E+03  0.17300000000E+03 0. -1.
         -6    1    1    2    0  503 -0.64195738197E+02  0.31200702409E+03 -0.94807023112E+03  0.10150052409E+04  0.17300000000E+03 0. -1.
<mgrwt>
<rscale>  2 0.36248928E+03</rscale>
<asrwt>0</asrwt>
<pdfrwt beam="1">  1       21 0.24596807E-01 0.36248928E+03</pdfrwt>
<pdfrwt beam="2">  1       21 0.19098458E+00 0.36248928E+03</pdfrwt>
<totfact> 0.21215043E+03</totfact>
</mgrwt>
</event>
<event>
 4    1  0.4090208E+000  0.1805797E+03  0.7546771E-02  0.1167243E+00
         21   -1    0    0  503  502  0.00000000000E+00  0.00000000000E+00  0.18236512014E+02  0.18236512014E+02  0.00000000000E+00 0. -1.
         21   -1    0    0  501  503 -0.00000000000E+00 -0.00000000000E+00 -0.17902992011E+04  0.17902992011E+04  0.00000000000E+00 0.  1.
          6    1    1    2  501    0  0.42344578466E+02  0.29782078017E+02 -0.85446810630E+03  0.87334115910E+03  0.17300000000E+03 0.  1.
         -6    1    1    2    0  502 -0.42344578466E+02 -0.29782078017E+02 -0.91759458275E+03  0.93519455397E+03  0.17300000000E+03 0.  1.
<mgrwt>
<rscale>  2 0.18057972E+03</rscale>
<asrwt>0</asrwt>
<pdfrwt beam="1">  1       21 0.28056163E-02 0.18057972E+03</pdfrwt>
<pdfrwt beam="2">  1       21 0.27543074E+00 0.18057972E+03</pdfrwt>
<totfact> 0.33788166E+04</totfact>
</mgrwt>
</event>
<event>
 4    1  0.4090208E+000  0.2982368E+03  0.7546771E-02  0.1086125E+00
         21   -1    0    0  503  502  0.00000000000E+00  0.00000000000E+00  0.51996601934E+03  0.51996601934E+03  0.00000000000E+00 0.  1.
         21   -1    0    0  501  503 -0.00000000000E+00 -0.00000000000E+00 -0.18285244376E+03  0.18285244376E+03  0.00000000000E+00 0. -1.
          6    1    1    2  501    0  0.22880107329E+03  0.81647200146E+02  0.25779923005E+03  0.39421521970E+03  0.17300000000E+03 0.  1.
         -6    1    1    2    0  502 -0.22880107329E+03 -0.81647200146E+02  0.79314345532E+02  0.30860324340E+03  0.17300000000E+03 0. -1.
<mgrwt>
<rscale>  2 0.29823681E+03</rscale>
<asrwt>0</asrwt>
<pdfrwt beam="1">  1       21 0.79994772E-01 0.29823681E+03</pdfrwt>
<pdfrwt beam="2">  1       21 0.28131145E-01 0.29823681E+03</pdfrwt>
<totfact> 0.15713415E+04</totfact>
</mgrwt>
</event>
<event>
 4    1  0.4090208E+000  0.2062377E+03  0.7546771E-02  0.1144580E+00
         21   -1    0    0  503  502  0.00000000000E+00  0.00000000000E+00  0.45128662579E+03  0.45128662579E+03  0.00000000000E+00 0. -1.
         21   -1    0    0  501  503 -0.00000000000E+00 -0.00000000000E+00 -0.13856022414E+03  0.13856022414E+03  0.00000000000E+00 0. -1.
          6    1    1    2  501    0 -0.22642984883E+02  0.10996488133E+03 -0.10415126707E+02  0.20650049577E+03  0.17300000000E+03 0. -1.
         -6    1    1    2    0  502  0.22642984883E+02 -0.10996488133E+03  0.32314152836E+03  0.38334635415E+03  0.17300000000E+03 0. -1.
<mgrwt>
<rscale>  2 0.20623768E+03</rscale>
<asrwt>0</asrwt>
<pdfrwt beam="1">  1       21 0.69428711E-01 0.20623768E+03</pdfrwt>
<pdfrwt beam="2">  1       21 0.21316958E-01 0.20623768E+03</pdfrwt>
<totfact> 0.38371479E+04</totfact>
</mgrwt>
</event>
<event>
 4    1  0.4090208E+000  0.1874258E+03  0.7546771E-02  0.1160804E+00
         21   -1    0    0  501  502  0.00000000000E+00  0.00000000000E+00  0.46061852888E+03  0.46061852888E+03  0.00000000000E+00 0. -1.
         21   -1    0    0  502  503 -0.00000000000E+00 -0.00000000000E+00 -0.11624395783E+03  0.11624395783E+03  0.00000000000E+00 0. -1.
          6    1    1    2  501    0  0.41451426871E+02 -0.59001665291E+02  0.34134062010E+03  0.38941216754E+03  0.17300000000E+03 0. -1.
         -6    1    1    2    0  503 -0.41451426871E+02  0.59001665291E+02  0.30339509530E+01  0.18745031917E+03  0.17300000000E+03 0. -1.
<mgrwt>
<rscale>  2 0.18742576E+03</rscale>
<asrwt>0</asrwt>
<pdfrwt beam="1">  1       21 0.70864388E-01 0.18742576E+03</pdfrwt>
<pdfrwt beam="2">  1       21 0.17883686E-01 0.18742576E+03</pdfrwt>
<totfact> 0.51368700E+04</totfact>
</mgrwt>
</event>
<event>
 4    1  0.4090208E+000  0.2597213E+03  0.7546771E-02  0.1107311E+00
         21   -1    0    0  501  502  0.00000000000E+00  0.00000000000E+00  0.21975401919E+03  0.21975401919E+03  0.00000000000E+00 0. -1.
         21   -1    0    0  502  503 -0.00000000000E+00 -0.00000000000E+00 -0.45151459874E+03  0.45151459874E+03  0.00000000000E+00 0. -1.
          6    1    1    2  501    0 -0.51534283137E+02 -0.18673614317E+03  0.74030653034E+02  0.27006611615E+03  0.17300000000E+03 0. -1.
         -6    1    1    2    0  503  0.51534283137E+02  0.18673614317E+03 -0.30579123258E+03  0.40120250177E+03  0.17300000000E+03 0. -1.
<mgrwt>
<rscale>  2 0.25972133E+03</rscale>
<asrwt>0</asrwt>
<pdfrwt beam="1">  1       21 0.33808311E-01 0.25972133E+03</pdfrwt>
<pdfrwt beam="2">  1       21 0.69463784E-01 0.25972133E+03</pdfrwt>
<totfact> 0.15292109E+04</totfact>
</mgrwt>
</event>
<event>
 4    1  0.4090208E+000  0.2267088E+03  0.7546771E-02  0.1128978E+00
         21   -1    0    0  503  502  0.00000000000E+00  0.00000000000E+00  0.11363526854E+03  0.11363526854E+03  0.00000000000E+00 0. -1.
         21   -1    0    0  501  503 -0.00000000000E+00 -0.00000000000E+00 -0.45401761535E+03  0.45401761535E+03  0.00000000000E+00 0. -1.
          6    1    1    2  501    0  0.11547055700E+03 -0.90191200227E+02 -0.18766331308E+03  0.29430328100E+03  0.17300000000E+03 0. -1.
         -6    1    1    2    0  502 -0.11547055700E+03  0.90191200227E+02 -0.15271903373E+03  0.27334960288E+03  0.17300000000E+03 0. -1.
<mgrwt>
<rscale>  2 0.22670885E+03</rscale>
<asrwt>0</asrwt>
<pdfrwt beam="1">  1       21 0.17482349E-01 0.22670885E+03</pdfrwt>
<pdfrwt beam="2">  1       21 0.69848863E-01 0.22670885E+03</pdfrwt>
<totfact> 0.54297724E+04</totfact>
</mgrwt>
</event>
<event>
 4    1  0.4090208E+000  0.1761863E+03  0.7546771E-02  0.1171546E+00
         21   -1    0    0  501  502  0.00000000000E+00  0.00000000000E+00  0.20236761507E+03  0.20236761507E+03  0.00000000000E+00 0. -1.
         21   -1    0    0  502  503 -0.00000000000E+00 -0.00000000000E+00 -0.15475673505E+03  0.15475673505E+03  0.00000000000E+00 0. -1.
          6    1    1    2  501    0 -0.24520543116E+02  0.22613408231E+02  0.40572213650E+02  0.18079747727E+03  0.17300000000E+03 0. -1.
         -6    1    1    2    0  503  0.24520543116E+02 -0.22613408231E+02  0.70386663705E+01  0.17632687285E+03  0.17300000000E+03 0. -1.
<mgrwt>
<rscale>  2 0.17618633E+03</rscale>
<asrwt>0</asrwt>
<pdfrwt beam="1">  1       21 0.31133479E-01 0.17618633E+03</pdfrwt>
<pdfrwt beam="2">  1       21 0.23808728E-01 0.17618633E+03</pdfrwt>
<totfact> 0.16559867E+05</totfact>
</mgrwt>
</event>
<event>
 4    1  0.4090208E+000  0.2322277E+03  0.7546771E-02  0.1125082E+00
         21   -1    0    0  501  502  0.00000000000E+00  0.00000000000E+00  0.66259809181E+02  0.66259809181E+02  0.00000000000E+00 0.  1.
         21   -1    0    0  502  503 -0.00000000000E+00 -0.00000000000E+00 -0.90570502581E+03  0.90570502581E+03  0.00000000000E+00 0. -1.
          6    1    1    2  501    0 -0.14958342205E+03  0.40317349645E+02 -0.26500819999E+03  0.35236207926E+03  0.17300000000E+03 0. -1.
         -6    1    1    2    0  503  0.14958342205E+03 -0.40317349645E+02 -0.57443701663E+03  0.61960275573E+03  0.17300000000E+03 0. -1.
<mgrwt>
<rscale>  2 0.23222767E+03</rscale>
<asrwt>0</asrwt>
<pdfrwt beam="1">  1       21 0.10193817E-01 0.23222767E+03</pdfrwt>
<pdfrwt beam="2">  1       21 0.13933923E+00 0.23222767E+03</pdfrwt>
<totfact> 0.27758333E+04</totfact>
</mgrwt>
</event>
<event>
 4    1  0.4090208E+000  0.4514017E+03  0.7546771E-02  0.1027305E+00
         21   -1    0    0  501  502  0.00000000000E+00  0.00000000000E+00  0.98182212889E+03  0.98182212889E+03  0.00000000000E+00 0.  1.
         21   -1    0    0  502  503 -0.00000000000E+00 -0.00000000000E+00 -0.57462128682E+03  0.57462128682E+03  0.00000000000E+00 0. -1.
          6    1    1    2  501    0 -0.24843585655E+02  0.41619386244E+03  0.82560834292E+03  0.94095306513E+03  0.17300000000E+03 0.  1.
         -6    1    1    2    0  503  0.24843585655E+02 -0.41619386244E+03 -0.41840750085E+03  0.61549035058E+03  0.17300000000E+03 0. -1.
<mgrwt>
<rscale>  2 0.45140174E+03</rscale>
<asrwt>0</asrwt>
<pdfrwt beam="1">  1       21 0.15104956E+00 0.45140174E+03</pdfrwt>
<pdfrwt beam="2">  1       21 0.88403275E-01 0.45140174E+03</pdfrwt>
<totfact> 0.26374778E+02</totfact>
</mgrwt>
</event>
<event>
 4    1  0.4090208E+000  0.2096503E+03  0.7546771E-02  0.1141843E+00
         21   -1    0    0  503  502  0.00000000000E+00  0.00000000000E+00  0.22695246856E+02  0.22695246856E+02  0.00000000000E+00 0. -1.
         21   -1    0    0  501  503 -0.00000000000E+00 -0.00000000000E+00 -0.22201861379E+04  0.22201861379E+04  0.00000000000E+00 0. -1.
          6    1    1    2  501    0  0.45903285261E+02 -0.10916567686E+03 -0.69799988015E+03  0.72880524785E+03  0.17300000000E+03 0. -1.
         -6    1    1    2    0  502 -0.45903285261E+02  0.10916567686E+03 -0.14994910109E+04  0.15140761369E+04  0.17300000000E+03 0. -1.
<mgrwt>
<rscale>  2 0.20965032E+03</rscale>
<asrwt>0</asrwt>
<pdfrwt beam="1">  1       21 0.34915765E-02 0.20965032E+03</pdfrwt>
<pdfrwt beam="2">  1       21 0.34156710E+00 0.20965032E+03</pdfrwt>
<totfact> 0.94563198E+03</totfact>
</mgrwt>
</event>
<event>
 4    1  0.4090208E+000  0.1786489E+03  0.7546771E-02  0.1169117E+00
         21   -1    0    0  501  502  0.00000000000E+00  0.00000000000E+00  0.68063252061E+02  0.68063252061E+02  0.00000000000E+00 0. -1.
         21   -1    0    0  502  503 -0.00000000000E+00 -0.00000000000E+00 -0.82376058167E+03  0.82376058167E+03  0.00000000000E+00 0. -1.
          6    1    1    2  501    0 -0.17308737686E+02  0.41071026275E+02 -0.85182580736E+02  0.19791789626E+03  0.17300000000E+03 0. -1.
         -6    1    1    2    0  503  0.17308737686E+02 -0.41071026275E+02 -0.67051474887E+03  0.69390593747E+03  0.17300000000E+03 0. -1.
<mgrwt>
<rscale>  2 0.17864888E+03</rscale>
<asrwt>0</asrwt>
<pdfrwt beam="1">  1       21 0.10471269E-01 0.17864888E+03</pdfrwt>
<pdfrwt beam="2">  1       21 0.12673240E+00 0.17864888E+03</pdfrwt>
<totfact> 0.34748783E+04</totfact>
</mgrwt>
</event>
<event>
 4    1  0.4090208E+000  0.1771917E+03  0.7546771E-02  0.1170549E+00
         21   -1    0    0  503  502  0.00000000000E+00  0.00000000000E+00  0.63356596556E+02  0.63356596556E+02  0.00000000000E+00 0.  1.
         21   -1    0    0  501  503 -0.00000000000E+00 -0.00000000000E+00 -0.79464707647E+03  0.79464707647E+03  0.00000000000E+00 0.  1.
          6    1    1    2  501    0  0.21268533473E+02  0.31867633092E+02 -0.62883679992E+03  0.65332428203E+03  0.17300000000E+03 0.  1.
         -6    1    1    2    0  502 -0.21268533473E+02 -0.31867633092E+02 -0.10245367999E+03  0.20467939100E+03  0.17300000000E+03 0.  1.
<mgrwt>
<rscale>  2 0.17719169E+03</rscale>
<asrwt>0</asrwt>
<pdfrwt beam="1">  1       21 0.97471680E-02 0.17719169E+03</pdfrwt>
<pdfrwt beam="2">  1       21 0.12225341E+00 0.17719169E+03</pdfrwt>
<totfact> 0.43169819E+04</totfact>
</mgrwt>
</event>
<event>
 4    1  0.4090208E+000  0.2012016E+03  0.7546771E-02  0.1148729E+00
         21   -1    0    0  503  502  0.00000000000E+00  0.00000000000E+00  0.80151120406E+03  0.80151120406E+03  0.00000000000E+00 0.  1.
         21   -1    0    0  501  503 -0.00000000000E+00 -0.00000000000E+00 -0.96164241221E+02  0.96164241221E+02  0.00000000000E+00 0.  1.
          6    1    1    2  501    0  0.45391392849E+02 -0.92155952787E+02  0.43404503360E+02  0.20583014621E+03  0.17300000000E+03 0.  1.
         -6    1    1    2    0  502 -0.45391392849E+02  0.92155952787E+02  0.66194245947E+03  0.69184529906E+03  0.17300000000E+03 0.  1.
<mgrwt>
<rscale>  2 0.20120164E+03</rscale>
<asrwt>0</asrwt>
<pdfrwt beam="1">  1       21 0.12330941E+00 0.20120164E+03</pdfrwt>
<pdfrwt beam="2">  1       21 0.14794499E-01 0.20120164E+03</pdfrwt>
<totfact> 0.19743739E+04</totfact>
</mgrwt>
</event>
<event>
 4    1  0.4090208E+000  0.2053243E+03  0.7546771E-02  0.1145323E+00
         21   -1    0    0  503  502  0.00000000000E+00  0.00000000000E+00  0.23343142110E+03  0.23343142110E+03  0.00000000000E+00 0. -1.
         21   -1    0    0  501  503 -0.00000000000E+00 -0.00000000000E+00 -0.19715466007E+03  0.19715466007E+03  0.00000000000E+00 0. -1.
          6    1    1    2  501    0 -0.10323433029E+03 -0.39645434657E+02  0.80521293863E+02  0.22054878418E+03  0.17300000000E+03 0. -1.
         -6    1    1    2    0  502  0.10323433029E+03  0.39645434657E+02 -0.44244532829E+02  0.21003729698E+03  0.17300000000E+03 0. -1.
<mgrwt>
<rscale>  2 0.20532435E+03</rscale>
<asrwt>0</asrwt>
<pdfrwt beam="1">  1       21 0.35912526E-01 0.20532435E+03</pdfrwt>
<pdfrwt beam="2">  1       21 0.30331486E-01 0.20532435E+03</pdfrwt>
<totfact> 0.77559136E+04</totfact>
</mgrwt>
</event>
<event>
 4    1  0.4090208E+000  0.2465493E+03  0.7546771E-02  0.1115505E+00
         21   -1    0    0  501  502  0.00000000000E+00  0.00000000000E+00  0.48469151902E+03  0.48469151902E+03  0.00000000000E+00 0. -1.
         21   -1    0    0  502  503 -0.00000000000E+00 -0.00000000000E+00 -0.18301392685E+03  0.18301392685E+03  0.00000000000E+00 0.  1.
          6    1    1    2  501    0 -0.12111790970E+03  0.12723217018E+03  0.33813455064E+03  0.41847526512E+03  0.17300000000E+03 0. -1.
         -6    1    1    2    0  503  0.12111790970E+03 -0.12723217018E+03 -0.36456958469E+02  0.24923018076E+03  0.17300000000E+03 0.  1.
<mgrwt>
<rscale>  2 0.24654933E+03</rscale>
<asrwt>0</asrwt>
<pdfrwt beam="1">  1       21 0.74567926E-01 0.24654933E+03</pdfrwt>
<pdfrwt beam="2">  1       21 0.28155989E-01 0.24654933E+03</pdfrwt>
<totfact> 0.18834155E+04</totfact>
</mgrwt>
</event>
<event>
 4    1  0.4090208E+000  0.1802572E+03  0.7546771E-02  0.1167554E+00
         21   -1    0    0  501  502  0.00000000000E+00  0.00000000000E+00  0.11819423825E+02  0.11819423825E+02  0.00000000000E+00 0. -1.
         21   -1    0    0  502  503 -0.00000000000E+00 -0.00000000000E+00 -0.27492391696E+04  0.27492391696E+04  0.00000000000E+00 0.  1.
          6    1    1    2  501    0 -0.11159028054E+02  0.49387628226E+02 -0.13585462803E+04  0.13704527199E+04  0.17300000000E+03 0.  1.
         -6    1    1    2    0  503  0.11159028054E+02 -0.49387628226E+02 -0.13788734654E+04  0.13906058735E+04  0.17300000000E+03 0. -1.
<mgrwt>
<rscale>  2 0.18025721E+03</rscale>
<asrwt>0</asrwt>
<pdfrwt beam="1">  1       21 0.18183710E-02 0.18025721E+03</pdfrwt>
<pdfrwt beam="2">  1       21 0.42296032E+00 0.18025721E+03</pdfrwt>
<totfact> 0.91230305E+03</totfact>
</mgrwt>
</event>
<event>
 4    1  0.4090208E+000  0.1820696E+03  0.7546771E-02  0.1165815E+00
         21   -1    0    0  501  502  0.00000000000E+00  0.00000000000E+00  0.16114820317E+03  0.16114820317E+03  0.00000000000E+00 0. -1.
         21   -1    0    0  502  503 -0.00000000000E+00 -0.00000000000E+00 -0.69859366081E+03  0.69859366081E+03  0.00000000000E+00 0. -1.
          6    1    1    2  501    0  0.30825331959E+02  0.47645929653E+02  0.92353776325E+02  0.20415326523E+03  0.17300000000E+03 0. -1.
         -6    1    1    2    0  503 -0.30825331959E+02 -0.47645929653E+02 -0.62979923396E+03  0.65558859874E+03  0.17300000000E+03 0. -1.
<mgrwt>
<rscale>  2 0.18206959E+03</rscale>
<asrwt>0</asrwt>
<pdfrwt beam="1">  1       21 0.24792031E-01 0.18206959E+03</pdfrwt>
<pdfrwt beam="2">  1       21 0.10747595E+00 0.18206959E+03</pdfrwt>
<totfact> 0.10710799E+04</totfact>
</mgrwt>
</event>
<event>
 4    1  0.4090208E+000  0.2849859E+03  0.7546771E-02  0.1092996E+00
         21   -1    0    0  501  502  0.00000000000E+00  0.00000000000E+00  0.41826010824E+03  0.41826010824E+03  0.00000000000E+00 0.  1.
         21   -1    0    0  502  503 -0.00000000000E+00 -0.00000000000E+00 -0.43758928501E+03  0.43758928501E+03  0.00000000000E+00 0. -1.
          6    1    1    2  501    0  0.71429789363E+01  0.22635584100E+03  0.30949228429E+03  0.42071660644E+03  0.17300000000E+03 0.  1.
         -6    1    1    2    0  503 -0.71429789363E+01 -0.22635584100E+03 -0.32882146106E+03  0.43513278681E+03  0.17300000000E+03 0. -1.
<mgrwt>
<rscale>  2 0.28498595E+03</rscale>
<asrwt>0</asrwt>
<pdfrwt beam="1">  1       21 0.64347709E-01 0.28498595E+03</pdfrwt>
<pdfrwt beam="2">  1       21 0.67321428E-01 0.28498595E+03</pdfrwt>
<totfact> 0.42274999E+03</totfact>
</mgrwt>
</event>
<event>
 4    1  0.4090208E+000  0.2307188E+03  0.7546771E-02  0.1126135E+00
         21   -1    0    0  503  502  0.00000000000E+00  0.00000000000E+00  0.18875666929E+03  0.18875666929E+03  0.00000000000E+00 0. -1.
         21   -1    0    0  501  503 -0.00000000000E+00 -0.00000000000E+00 -0.73038851521E+03  0.73038851521E+03  0.00000000000E+00 0. -1.
          6    1    1    2  501    0  0.14035060197E+03  0.60032454821E+02 -0.63089655176E+03  0.67176011055E+03  0.17300000000E+03 0. -1.
         -6    1    1    2    0  502 -0.14035060197E+03 -0.60032454821E+02  0.89264705837E+02  0.24738507395E+03  0.17300000000E+03 0. -1.
<mgrwt>
<rscale>  2 0.23071885E+03</rscale>
<asrwt>0</asrwt>
<pdfrwt beam="1">  1       21 0.29039487E-01 0.23071885E+03</pdfrwt>
<pdfrwt beam="2">  1       21 0.11236747E+00 0.23071885E+03</pdfrwt>
<totfact> 0.68511842E+03</totfact>
</mgrwt>
</event>
<event>
 4    1  0.4090208E+000  0.2510847E+03  0.7546771E-02  0.1112621E+00
         21   -1    0    0  503  502  0.00000000000E+00  0.00000000000E+00  0.10433217556E+04  0.10433217556E+04  0.00000000000E+00 0. -1.
         21   -1    0    0  501  503 -0.00000000000E+00 -0.00000000000E+00 -0.81476834793E+02  0.81476834793E+02  0.00000000000E+00 0. -1.
          6    1    1    2  501    0  0.12486573897E+03 -0.13237474362E+03  0.76678989019E+03  0.80685206898E+03  0.17300000000E+03 0. -1.
         -6    1    1    2    0  502 -0.12486573897E+03  0.13237474362E+03  0.19505503064E+03  0.31794652144E+03  0.17300000000E+03 0. -1.
<mgrwt>
<rscale>  2 0.25108470E+03</rscale>
<asrwt>0</asrwt>
<pdfrwt beam="1">  1       21 0.16051103E+00 0.25108470E+03</pdfrwt>
<pdfrwt beam="2">  1       21 0.12534898E-01 0.25108470E+03</pdfrwt>
<totfact> 0.13024570E+04</totfact>
</mgrwt>
</event>
<event>
 4    1  0.4090208E+000  0.2126626E+03  0.7546771E-02  0.1139475E+00
         21   -1    0    0  501  502  0.00000000000E+00  0.00000000000E+00  0.68153174289E+03  0.68153174289E+03  0.00000000000E+00 0.  1.
         21   -1    0    0  502  503 -0.00000000000E+00 -0.00000000000E+00 -0.68623678154E+02  0.68623678154E+02  0.00000000000E+00 0. -1.
          6    1    1    2  501    0 -0.12164479121E+03  0.22336270563E+02  0.23830748224E+03  0.31939915514E+03  0.17300000000E+03 0.  1.
         -6    1    1    2    0  503  0.12164479121E+03 -0.22336270563E+02  0.37460058249E+03  0.43075626590E+03  0.17300000000E+03 0. -1.
<mgrwt>
<rscale>  2 0.21266256E+03</rscale>
<asrwt>0</asrwt>
<pdfrwt beam="1">  1       21 0.10485103E+00 0.21266256E+03</pdfrwt>
<pdfrwt beam="2">  1       21 0.10557489E-01 0.21266256E+03</pdfrwt>
<totfact> 0.53501681E+04</totfact>
</mgrwt>
</event>
<event>
 4    1  0.4090208E+000  0.1834380E+03  0.7546771E-02  0.1164517E+00
         21   -1    0    0  503  502  0.00000000000E+00  0.00000000000E+00  0.74602329701E+03  0.74602329701E+03  0.00000000000E+00 0.  1.
         21   -1    0    0  501  503 -0.00000000000E+00 -0.00000000000E+00 -0.56436558821E+02  0.56436558821E+02  0.00000000000E+00 0.  1.
          6    1    1    2  501    0 -0.40308106377E+02 -0.45779557230E+02  0.16500792214E+03  0.24673290350E+03  0.17300000000E+03 0.  1.
         -6    1    1    2    0  502  0.40308106377E+02  0.45779557230E+02  0.52457881605E+03  0.55572695233E+03  0.17300000000E+03 0.  1.
<mgrwt>
<rscale>  2 0.18343803E+03</rscale>
<asrwt>0</asrwt>
<pdfrwt beam="1">  1       21 0.11477281E+00 0.18343803E+03</pdfrwt>
<pdfrwt beam="2">  1       21 0.86825481E-02 0.18343803E+03</pdfrwt>
<totfact> 0.61554979E+04</totfact>
</mgrwt>
</event>
<event>
 4    1  0.4090208E+000  0.2176457E+03  0.7546771E-02  0.1135651E+00
         21   -1    0    0  503  502  0.00000000000E+00  0.00000000000E+00  0.41388112096E+02  0.41388112096E+02  0.00000000000E+00 0.  1.
         21   -1    0    0  501  503 -0.00000000000E+00 -0.00000000000E+00 -0.11558509484E+04  0.11558509484E+04  0.00000000000E+00 0. -1.
          6    1    1    2  501    0  0.87453215412E+02  0.98957495707E+02 -0.61649302956E+03  0.65378383762E+03  0.17300000000E+03 0.  1.
         -6    1    1    2    0  502 -0.87453215412E+02 -0.98957495707E+02 -0.49796980679E+03  0.54345522292E+03  0.17300000000E+03 0. -1.
<mgrwt>
<rscale>  2 0.21764570E+03</rscale>
<asrwt>0</asrwt>
<pdfrwt beam="1">  1       21 0.63674009E-02 0.21764570E+03</pdfrwt>
<pdfrwt beam="2">  1       21 0.17782325E+00 0.21764570E+03</pdfrwt>
<totfact> 0.32996562E+04</totfact>
</mgrwt>
</event>
<event>
 4    1  0.4090208E+000  0.4720023E+03  0.7546771E-02  0.1021357E+00
         21   -1    0    0  501  502  0.00000000000E+00  0.00000000000E+00  0.81086815637E+03  0.81086815637E+03  0.00000000000E+00 0. -1.
         21   -1    0    0  502  503 -0.00000000000E+00 -0.00000000000E+00 -0.49112055034E+03  0.49112055034E+03  0.00000000000E+00 0.  1.
          6    1    1    2  501    0  0.43773082414E+03 -0.35339518546E+02  0.59197162974E+03  0.75711066984E+03  0.17300000000E+03 0. -1.
         -6    1    1    2    0  503 -0.43773082414E+03  0.35339518546E+02 -0.27222402371E+03  0.54487803686E+03  0.17300000000E+03 0.  1.
<mgrwt>
<rscale>  2 0.47200228E+03</rscale>
<asrwt>0</asrwt>
<pdfrwt beam="1">  1       21 0.12474895E+00 0.47200228E+03</pdfrwt>
<pdfrwt beam="2">  1       21 0.75557008E-01 0.47200228E+03</pdfrwt>
<totfact> 0.62386892E+02</totfact>
</mgrwt>
</event>
<event>
 4    1  0.4090208E+000  0.2508442E+03  0.7546771E-02  0.1112772E+00
         21   -1    0    0  501  502  0.00000000000E+00  0.00000000000E+00  0.67457822595E+03  0.67457822595E+03  0.00000000000E+00 0. -1.
         21   -1    0    0  502  503 -0.00000000000E+00 -0.00000000000E+00 -0.10246238740E+03  0.10246238740E+03  0.00000000000E+00 0. -1.
          6    1    1    2  501    0  0.17988081264E+03  0.25232740342E+02  0.40238329188E+03  0.47416780946E+03  0.17300000000E+03 0. -1.
         -6    1    1    2    0  503 -0.17988081264E+03 -0.25232740342E+02  0.16973254667E+03  0.30287280390E+03  0.17300000000E+03 0. -1.
<mgrwt>
<rscale>  2 0.25084417E+03</rscale>
<asrwt>0</asrwt>
<pdfrwt beam="1">  1       21 0.10378126E+00 0.25084417E+03</pdfrwt>
<pdfrwt beam="2">  1       21 0.15763445E-01 0.25084417E+03</pdfrwt>
<totfact> 0.26093211E+04</totfact>
</mgrwt>
</event>
<event>
 4    1  0.4090208E+000  0.2601935E+03  0.7546771E-02  0.1107027E+00
         21   -1    0    0  503  502  0.00000000000E+00  0.00000000000E+00  0.36796832741E+02  0.36796832741E+02  0.00000000000E+00 0.  1.
         21   -1    0    0  501  503 -0.00000000000E+00 -0.00000000000E+00 -0.18398628596E+04  0.18398628596E+04  0.00000000000E+00 0. -1.
          6    1    1    2  501    0 -0.13441458592E+03  0.14037233971E+03 -0.90395552054E+03  0.94065735408E+03  0.17300000000E+03 0.  1.
         -6    1    1    2    0  502  0.13441458592E+03 -0.14037233971E+03 -0.89911050635E+03  0.93600233830E+03  0.17300000000E+03 0. -1.
<mgrwt>
<rscale>  2 0.26019353E+03</rscale>
<asrwt>0</asrwt>
<pdfrwt beam="1">  1       21 0.56610504E-02 0.26019353E+03</pdfrwt>
<pdfrwt beam="2">  1       21 0.28305587E+00 0.26019353E+03</pdfrwt>
<totfact> 0.87510691E+03</totfact>
</mgrwt>
</event>
<event>
 4    1  0.4090208E+000  0.2109695E+03  0.7546771E-02  0.1140801E+00
         21   -1    0    0  503  502  0.00000000000E+00  0.00000000000E+00  0.12136383541E+04  0.12136383541E+04  0.00000000000E+00 0.  1.
         21   -1    0    0  501  503 -0.00000000000E+00 -0.00000000000E+00 -0.37273615088E+02  0.37273615088E+02  0.00000000000E+00 0. -1.
          6    1    1    2  501    0 -0.82785359319E+02 -0.87896036829E+02  0.50880732755E+03  0.55081124314E+03  0.17300000000E+03 0.  1.
         -6    1    1    2    0  502  0.82785359319E+02  0.87896036829E+02  0.66755741149E+03  0.70010072607E+03  0.17300000000E+03 0.  1.
<mgrwt>
<rscale>  2 0.21096950E+03</rscale>
<asrwt>0</asrwt>
<pdfrwt beam="1">  1       21 0.18671356E+00 0.21096950E+03</pdfrwt>
<pdfrwt beam="2">  1       21 0.57344032E-02 0.21096950E+03</pdfrwt>
<totfact> 0.34515544E+04</totfact>
</mgrwt>
</event>
<event>
 4    1  0.4090208E+000  0.2194503E+03  0.7546771E-02  0.1134294E+00
         21   -1    0    0  503  502  0.00000000000E+00  0.00000000000E+00  0.12129781042E+03  0.12129781042E+03  0.00000000000E+00 0.  1.
         21   -1    0    0  501  503 -0.00000000000E+00 -0.00000000000E+00 -0.86912489645E+03  0.86912489645E+03  0.00000000000E+00 0. -1.
          6    1    1    2  501    0  0.31647027871E+02  0.13125512652E+03 -0.73889077221E+03  0.77079051361E+03  0.17300000000E+03 0. -1.
         -6    1    1    2    0  502 -0.31647027871E+02 -0.13125512652E+03 -0.89363138245E+01  0.21963219326E+03  0.17300000000E+03 0.  1.
<mgrwt>
<rscale>  2 0.21945032E+03</rscale>
<asrwt>0</asrwt>
<pdfrwt beam="1">  1       21 0.18661201E-01 0.21945032E+03</pdfrwt>
<pdfrwt beam="2">  1       21 0.13371152E+00 0.21945032E+03</pdfrwt>
<totfact> 0.10372270E+04</totfact>
</mgrwt>
</event>
<event>
 4    1  0.4090208E+000  0.5427047E+03  0.7546771E-02  0.1003197E+00
         21   -1    0    0  501  502  0.00000000000E+00  0.00000000000E+00  0.32782087556E+03  0.32782087556E+03  0.00000000000E+00 0.  1.
         21   -1    0    0  502  503 -0.00000000000E+00 -0.00000000000E+00 -0.95166310002E+03  0.95166310002E+03  0.00000000000E+00 0. -1.
          6    1    1    2  501    0  0.47002890897E+03  0.20897897997E+03 -0.16063437588E+03  0.56597861448E+03  0.17300000000E+03 0.  1.
         -6    1    1    2    0  503 -0.47002890897E+03 -0.20897897997E+03 -0.46320784858E+03  0.71350536110E+03  0.17300000000E+03 0. -1.
<mgrwt>
<rscale>  2 0.54270470E+03</rscale>
<asrwt>0</asrwt>
<pdfrwt beam="1">  1       21 0.50433982E-01 0.54270470E+03</pdfrwt>
<pdfrwt beam="2">  1       21 0.14640970E+00 0.54270470E+03</pdfrwt>
<totfact> 0.97222490E+02</totfact>
</mgrwt>
</event>
<event>
 4    1  0.4090208E+000  0.2047684E+03  0.7546771E-02  0.1145777E+00
         21   -1    0    0  501  502  0.00000000000E+00  0.00000000000E+00  0.44333321505E+02  0.44333321505E+02  0.00000000000E+00 0.  1.
         21   -1    0    0  502  503 -0.00000000000E+00 -0.00000000000E+00 -0.14189896346E+04  0.14189896346E+04  0.00000000000E+00 0.  1.
          6    1    1    2  501    0  0.82629855068E+02  0.71926292126E+02 -0.26481325512E+03  0.33474788204E+03  0.17300000000E+03 0.  1.
         -6    1    1    2    0  503 -0.82629855068E+02 -0.71926292126E+02 -0.11098430579E+04  0.11285750740E+04  0.17300000000E+03 0.  1.
<mgrwt>
<rscale>  2 0.20476837E+03</rscale>
<asrwt>0</asrwt>
<pdfrwt beam="1">  1       21 0.68205119E-02 0.20476837E+03</pdfrwt>
<pdfrwt beam="2">  1       21 0.21830607E+00 0.20476837E+03</pdfrwt>
<totfact> 0.16140732E+04</totfact>
</mgrwt>
</event>
<event>
 4    1  0.4090208E+000  0.2051913E+03  0.7546771E-02  0.1145432E+00
         21   -1    0    0  501  502  0.00000000000E+00  0.00000000000E+00  0.19280538036E+03  0.19280538036E+03  0.00000000000E+00 0. -1.
         21   -1    0    0  502  503 -0.00000000000E+00 -0.00000000000E+00 -0.30707630972E+03  0.30707630972E+03  0.00000000000E+00 0.  1.
          6    1    1    2  501    0 -0.21890993537E+02 -0.10814462774E+03  0.77197981893E+02  0.21923276333E+03  0.17300000000E+03 0. -1.
         -6    1    1    2    0  503  0.21890993537E+02  0.10814462774E+03 -0.19146891126E+03  0.28064892675E+03  0.17300000000E+03 0.  1.
<mgrwt>
<rscale>  2 0.20519132E+03</rscale>
<asrwt>0</asrwt>
<pdfrwt beam="1">  1       21 0.29662366E-01 0.20519132E+03</pdfrwt>
<pdfrwt beam="2">  1       21 0.47242509E-01 0.20519132E+03</pdfrwt>
<totfact> 0.46409345E+04</totfact>
</mgrwt>
</event>
<event>
 4    1  0.4090208E+000  0.1765996E+03  0.7546771E-02  0.1171135E+00
         21   -1    0    0  501  502  0.00000000000E+00  0.00000000000E+00  0.48563958005E+02  0.48563958005E+02  0.00000000000E+00 0.  1.
         21   -1    0    0  502  503 -0.00000000000E+00 -0.00000000000E+00 -0.71351329817E+03  0.71351329817E+03  0.00000000000E+00 0.  1.
          6    1    1    2  501    0 -0.51750025738E+01 -0.35094606187E+02 -0.21200550130E+03  0.27592343977E+03  0.17300000000E+03 0.  1.
         -6    1    1    2    0  503  0.51750025738E+01  0.35094606187E+02 -0.45294383886E+03  0.48615381640E+03  0.17300000000E+03 0.  1.
<mgrwt>
<rscale>  2 0.17659958E+03</rscale>
<asrwt>0</asrwt>
<pdfrwt beam="1">  1       21 0.74713781E-02 0.17659958E+03</pdfrwt>
<pdfrwt beam="2">  1       21 0.10977128E+00 0.17659958E+03</pdfrwt>
<totfact> 0.89328953E+04</totfact>
</mgrwt>
</event>
<event>
 4    1  0.4090208E+000  0.2162439E+03  0.7546771E-02  0.1136715E+00
         21   -1    0    0  501  502  0.00000000000E+00  0.00000000000E+00  0.12113163554E+03  0.12113163554E+03  0.00000000000E+00 0. -1.
         21   -1    0    0  502  503 -0.00000000000E+00 -0.00000000000E+00 -0.41605972227E+03  0.41605972227E+03  0.00000000000E+00 0.  1.
          6    1    1    2  501    0  0.10982950305E+03  0.69064476241E+02 -0.75313675460E+02  0.22898377962E+03  0.17300000000E+03 0. -1.
         -6    1    1    2    0  503 -0.10982950305E+03 -0.69064476241E+02 -0.21961441127E+03  0.30820757819E+03  0.17300000000E+03 0.  1.
<mgrwt>
<rscale>  2 0.21624389E+03</rscale>
<asrwt>0</asrwt>
<pdfrwt beam="1">  1       21 0.18635636E-01 0.21624389E+03</pdfrwt>
<pdfrwt beam="2">  1       21 0.64009188E-01 0.21624389E+03</pdfrwt>
<totfact> 0.58685306E+04</totfact>
</mgrwt>
</event>
<event>
 4    1  0.4090208E+000  0.2613563E+03  0.7546771E-02  0.1106331E+00
         21   -1    0    0  503  502  0.00000000000E+00  0.00000000000E+00  0.39004792369E+03  0.39004792369E+03  0.00000000000E+00 0. -1.
         21   -1    0    0  501  503 -0.00000000000E+00 -0.00000000000E+00 -0.22435330550E+03  0.22435330550E+03  0.00000000000E+00 0.  1.
          6    1    1    2  501    0 -0.93370207333E+02  0.17222106923E+03 -0.61053705719E+02  0.26839271094E+03  0.17300000000E+03 0.  1.
         -6    1    1    2    0  502  0.93370207333E+02 -0.17222106923E+03  0.22674832391E+03  0.34600851825E+03  0.17300000000E+03 0. -1.
<mgrwt>
<rscale>  2 0.26135626E+03</rscale>
<asrwt>0</asrwt>
<pdfrwt beam="1">  1       21 0.60007373E-01 0.26135626E+03</pdfrwt>
<pdfrwt beam="2">  1       21 0.34515893E-01 0.26135626E+03</pdfrwt>
<totfact> 0.20204398E+04</totfact>
</mgrwt>
</event>
<event>
 4    1  0.4090208E+000  0.1798908E+03  0.7546771E-02  0.1167909E+00
         21   -1    0    0  503  502  0.00000000000E+00  0.00000000000E+00  0.13424904470E+03  0.13424904470E+03  0.00000000000E+00 0. -1.
         21   -1    0    0  501  503 -0.00000000000E+00 -0.00000000000E+00 -0.48809371569E+03  0.48809371569E+03  0.00000000000E+00 0. -1.
          6    1    1    2  501    0  0.19242573608E+02  0.45402890815E+02 -0.39830069263E+03  0.43704020511E+03  0.17300000000E+03 0. -1.
         -6    1    1    2    0  502 -0.19242573608E+02 -0.45402890815E+02  0.44456021647E+02  0.18530255528E+03  0.17300000000E+03 0. -1.
<mgrwt>
<rscale>  2 0.17989080E+03</rscale>
<asrwt>0</asrwt>
<pdfrwt beam="1">  1       21 0.20653699E-01 0.17989080E+03</pdfrwt>
<pdfrwt beam="2">  1       21 0.75091342E-01 0.17989080E+03</pdfrwt>
<totfact> 0.34697235E+04</totfact>
</mgrwt>
</event>
<event>
 4    1  0.4090208E+000  0.1771761E+03  0.7546771E-02  0.1170564E+00
         21   -1    0    0  501  502  0.00000000000E+00  0.00000000000E+00  0.32015048346E+03  0.32015048346E+03  0.00000000000E+00 0.  1.
         21   -1    0    0  502  503 -0.00000000000E+00 -0.00000000000E+00 -0.14375686051E+03  0.14375686051E+03  0.00000000000E+00 0.  1.
          6    1    1    2  501    0  0.28520258031E+02  0.25475084500E+02  0.21898493441E+03  0.28168384147E+03  0.17300000000E+03 0.  1.
         -6    1    1    2    0  503 -0.28520258031E+02 -0.25475084500E+02 -0.42591311459E+02  0.18222350249E+03  0.17300000000E+03 0.  1.
<mgrwt>
<rscale>  2 0.17717614E+03</rscale>
<asrwt>0</asrwt>
<pdfrwt beam="1">  1       21 0.49253920E-01 0.17717614E+03</pdfrwt>
<pdfrwt beam="2">  1       21 0.22116440E-01 0.17717614E+03</pdfrwt>
<totfact> 0.75628877E+04</totfact>
</mgrwt>
</event>
<event>
 4    1  0.4090208E+000  0.1799271E+03  0.7546771E-02  0.1167874E+00
         21   -1    0    0  503  502  0.00000000000E+00  0.00000000000E+00  0.72315574352E+02  0.72315574352E+02  0.00000000000E+00 0.  1.
         21   -1    0    0  501  503 -0.00000000000E+00 -0.00000000000E+00 -0.59372025357E+03  0.59372025357E+03  0.00000000000E+00 0. -1.
          6    1    1    2  501    0 -0.52570029986E+01 -0.49164437530E+02 -0.42586899584E+03  0.46231826659E+03  0.17300000000E+03 0. -1.
         -6    1    1    2    0  502  0.52570029986E+01  0.49164437530E+02 -0.95535683370E+02  0.20371756133E+03  0.17300000000E+03 0.  1.
<mgrwt>
<rscale>  2 0.17992715E+03</rscale>
<asrwt>0</asrwt>
<pdfrwt beam="1">  1       21 0.11125474E-01 0.17992715E+03</pdfrwt>
<pdfrwt beam="2">  1       21 0.91341573E-01 0.17992715E+03</pdfrwt>
<totfact> 0.68575583E+04</totfact>
</mgrwt>
</event>
<event>
 4    1  0.4090208E+000  0.2675340E+03  0.7546771E-02  0.1102699E+00
         21   -1    0    0  501  502  0.00000000000E+00  0.00000000000E+00  0.51317713240E+02  0.51317713240E+02  0.00000000000E+00 0.  1.
         21   -1    0    0  502  503 -0.00000000000E+00 -0.00000000000E+00 -0.14045964919E+04  0.14045964919E+04  0.00000000000E+00 0.  1.
          6    1    1    2  501    0 -0.19254717411E+03 -0.67609260081E+02 -0.61563227984E+03  0.67125072088E+03  0.17300000000E+03 0.  1.
         -6    1    1    2    0  503  0.19254717411E+03  0.67609260081E+02 -0.73764649883E+03  0.78466348427E+03  0.17300000000E+03 0.  1.
<mgrwt>
<rscale>  2 0.26753397E+03</rscale>
<asrwt>0</asrwt>
<pdfrwt beam="1">  1       21 0.78950327E-02 0.26753397E+03</pdfrwt>
<pdfrwt beam="2">  1       21 0.21609177E+00 0.26753397E+03</pdfrwt>
<totfact> 0.12357010E+04</totfact>
</mgrwt>
</event>
<event>
 4    1  0.4090208E+000  0.1751526E+03  0.7546771E-02  0.1172579E+00
         21   -1    0    0  501  502  0.00000000000E+00  0.00000000000E+00  0.42985674706E+03  0.42985674706E+03  0.00000000000E+00 0. -1.
         21   -1    0    0  502  503 -0.00000000000E+00 -0.00000000000E+00 -0.72821572354E+02  0.72821572354E+02  0.00000000000E+00 0. -1.
          6    1    1    2  501    0 -0.69739422287E+01  0.26472891191E+02  0.21401508572E+03  0.27655181567E+03  0.17300000000E+03 0. -1.
         -6    1    1    2    0  503  0.69739422287E+01 -0.26472891191E+02  0.14302008899E+03  0.22612650374E+03  0.17300000000E+03 0. -1.
<mgrwt>
<rscale>  2 0.17515265E+03</rscale>
<asrwt>0</asrwt>
<pdfrwt beam="1">  1       21 0.66131806E-01 0.17515265E+03</pdfrwt>
<pdfrwt beam="2">  1       21 0.11203319E-01 0.17515265E+03</pdfrwt>
<totfact> 0.14008414E+05</totfact>
</mgrwt>
</event>
<event>
 4    1  0.4090208E+000  0.2376932E+03  0.7546771E-02  0.1121339E+00
         21   -1    0    0  501  502  0.00000000000E+00  0.00000000000E+00  0.21324941869E+03  0.21324941869E+03  0.00000000000E+00 0.  1.
         21   -1    0    0  502  503 -0.00000000000E+00 -0.00000000000E+00 -0.46301248877E+03  0.46301248877E+03  0.00000000000E+00 0.  1.
          6    1    1    2  501    0  0.12377196681E+03  0.10606393410E+03  0.96276084058E+02  0.25645105234E+03  0.17300000000E+03 0.  1.
         -6    1    1    2    0  503 -0.12377196681E+03 -0.10606393410E+03 -0.34603915413E+03  0.41981085512E+03  0.17300000000E+03 0.  1.
<mgrwt>
<rscale>  2 0.23769320E+03</rscale>
<asrwt>0</asrwt>
<pdfrwt beam="1">  1       21 0.32807603E-01 0.23769320E+03</pdfrwt>
<pdfrwt beam="2">  1       21 0.71232691E-01 0.23769320E+03</pdfrwt>
<totfact> 0.15523617E+04</totfact>
</mgrwt>
</event>
<event>
 4    1  0.4090208E+000  0.1921065E+03  0.7546771E-02  0.1156575E+00
         21   -1    0    0  501  502  0.00000000000E+00  0.00000000000E+00  0.40206614370E+02  0.40206614370E+02  0.00000000000E+00 0. -1.
         21   -1    0    0  502  503 -0.00000000000E+00 -0.00000000000E+00 -0.10269825835E+04  0.10269825835E+04  0.00000000000E+00 0. -1.
          6    1    1    2  501    0  0.82810181917E+02  0.10879529912E+02 -0.31946969146E+03  0.37278113440E+03  0.17300000000E+03 0. -1.
         -6    1    1    2    0  503 -0.82810181917E+02 -0.10879529912E+02 -0.66730627767E+03  0.69440806347E+03  0.17300000000E+03 0. -1.
<mgrwt>
<rscale>  2 0.19210646E+03</rscale>
<asrwt>0</asrwt>
<pdfrwt beam="1">  1       21 0.61856336E-02 0.19210646E+03</pdfrwt>
<pdfrwt beam="2">  1       21 0.15799731E+00 0.19210646E+03</pdfrwt>
<totfact> 0.48746083E+04</totfact>
</mgrwt>
</event>
<event>
 4    1  0.4090208E+000  0.1875729E+03  0.7546771E-02  0.1160669E+00
         21   -1    0    0  503  502  0.00000000000E+00  0.00000000000E+00  0.21548006317E+03  0.21548006317E+03  0.00000000000E+00 0. -1.
         21   -1    0    0  501  503 -0.00000000000E+00 -0.00000000000E+00 -0.31556408096E+03  0.31556408096E+03  0.00000000000E+00 0. -1.
          6    1    1    2  501    0 -0.41799723342E+02  0.59222981934E+02 -0.23449433708E+03  0.30028515212E+03  0.17300000000E+03 0.  1.
         -6    1    1    2    0  502  0.41799723342E+02 -0.59222981934E+02  0.13441031929E+03  0.23075899201E+03  0.17300000000E+03 0.  1.
<mgrwt>
<rscale>  2 0.18757286E+03</rscale>
<asrwt>0</asrwt>
<pdfrwt beam="1">  1       21 0.33150779E-01 0.18757286E+03</pdfrwt>
<pdfrwt beam="2">  1       21 0.48548320E-01 0.18757286E+03</pdfrwt>
<totfact> 0.35588508E+04</totfact>
</mgrwt>
</event>
<event>
 4    1  0.4090208E+000  0.1747390E+03  0.7546771E-02  0.1172994E+00
         21   -1    0    0  501  502  0.00000000000E+00  0.00000000000E+00  0.30078426128E+03  0.30078426128E+03  0.00000000000E+00 0. -1.
         21   -1    0    0  502  503 -0.00000000000E+00 -0.00000000000E+00 -0.17298546488E+03  0.17298546488E+03  0.00000000000E+00 0. -1.
          6    1    1    2  501    0 -0.89863118033E+01 -0.22890466668E+02  0.21616426837E+03  0.27795812307E+03  0.17300000000E+03 0. -1.
         -6    1    1    2    0  503  0.89863118033E+01  0.22890466668E+02 -0.88365471967E+02  0.19581160308E+03  0.17300000000E+03 0. -1.
<mgrwt>
<rscale>  2 0.17473903E+03</rscale>
<asrwt>0</asrwt>
<pdfrwt beam="1">  1       21 0.46274502E-01 0.17473903E+03</pdfrwt>
<pdfrwt beam="2">  1       21 0.26613148E-01 0.17473903E+03</pdfrwt>
<totfact> 0.60603744E+04</totfact>
</mgrwt>
</event>
<event>
 4    1  0.4090208E+000  0.1812821E+03  0.7546771E-02  0.1166568E+00
         21   -1    0    0  501  502  0.00000000000E+00  0.00000000000E+00  0.15747386453E+03  0.15747386453E+03  0.00000000000E+00 0.  1.
         21   -1    0    0  502  503 -0.00000000000E+00 -0.00000000000E+00 -0.43327706332E+03  0.43327706332E+03  0.00000000000E+00 0.  1.
          6    1    1    2  501    0 -0.37535810067E+02  0.39054418241E+02  0.74757591631E+02  0.19609151468E+03  0.17300000000E+03 0.  1.
         -6    1    1    2    0  503  0.37535810067E+02 -0.39054418241E+02 -0.35056079043E+03  0.39465941317E+03  0.17300000000E+03 0.  1.
<mgrwt>
<rscale>  2 0.18128206E+03</rscale>
<asrwt>0</asrwt>
<pdfrwt beam="1">  1       21 0.24226749E-01 0.18128206E+03</pdfrwt>
<pdfrwt beam="2">  1       21 0.66658009E-01 0.18128206E+03</pdfrwt>
<totfact> 0.33376326E+04</totfact>
</mgrwt>
</event>
<event>
 4    1  0.4090208E+000  0.1914698E+03  0.7546771E-02  0.1157142E+00
         21   -1    0    0  501  502  0.00000000000E+00  0.00000000000E+00  0.49664413478E+02  0.49664413478E+02  0.00000000000E+00 0.  1.
         21   -1    0    0  502  503 -0.00000000000E+00 -0.00000000000E+00 -0.11394397573E+04  0.11394397573E+04  0.00000000000E+00 0. -1.
          6    1    1    2  501    0  0.57539951806E+02 -0.58487867607E+02 -0.19205924898E+03  0.27119629760E+03  0.17300000000E+03 0.  1.
         -6    1    1    2    0  503 -0.57539951806E+02  0.58487867607E+02 -0.89771609484E+03  0.91790787318E+03  0.17300000000E+03 0. -1.
<mgrwt>
<rscale>  2 0.19146978E+03</rscale>
<asrwt>0</asrwt>
<pdfrwt beam="1">  1       21 0.76406802E-02 0.19146978E+03</pdfrwt>
<pdfrwt beam="2">  1       21 0.17529840E+00 0.19146978E+03</pdfrwt>
<totfact> 0.25496321E+04</totfact>
</mgrwt>
</event>
<event>
 4    1  0.4090208E+000  0.2376425E+03  0.7546771E-02  0.1121373E+00
         21   -1    0    0  503  502  0.00000000000E+00  0.00000000000E+00  0.53056598392E+03  0.53056598392E+03  0.00000000000E+00 0.  1.
         21   -1    0    0  501  503 -0.00000000000E+00 -0.00000000000E+00 -0.10746834071E+04  0.10746834071E+04  0.00000000000E+00 0.  1.
          6    1    1    2  501    0 -0.39299968708E+02  0.15811530488E+03 -0.10338996599E+04  0.10608592950E+04  0.17300000000E+03 0.  1.
         -6    1    1    2    0  502  0.39299968708E+02 -0.15811530488E+03  0.48978223672E+03  0.54439009596E+03  0.17300000000E+03 0.  1.
<mgrwt>
<rscale>  2 0.23764246E+03</rscale>
<asrwt>0</asrwt>
<pdfrwt beam="1">  1       21 0.81625537E-01 0.23764246E+03</pdfrwt>
<pdfrwt beam="2">  1       21 0.16533591E+00 0.23764246E+03</pdfrwt>
<totfact> 0.28760247E+02</totfact>
</mgrwt>
</event>
<event>
 4    1  0.4090208E+000  0.1897989E+03  0.7546771E-02  0.1158643E+00
         21   -1    0    0  503  502  0.00000000000E+00  0.00000000000E+00  0.12190452476E+04  0.12190452476E+04  0.00000000000E+00 0. -1.
         21   -1    0    0  501  503 -0.00000000000E+00 -0.00000000000E+00 -0.32701217551E+02  0.32701217551E+02  0.00000000000E+00 0. -1.
          6    1    1    2  501    0  0.39654649326E+02 -0.67246810295E+02  0.39890625778E+03  0.44175765665E+03  0.17300000000E+03 0. -1.
         -6    1    1    2    0  502 -0.39654649326E+02  0.67246810295E+02  0.78743777225E+03  0.80998880848E+03  0.17300000000E+03 0. -1.
<mgrwt>
<rscale>  2 0.18979891E+03</rscale>
<asrwt>0</asrwt>
<pdfrwt beam="1">  1       21 0.18754539E+00 0.18979891E+03</pdfrwt>
<pdfrwt beam="2">  1       21 0.50309575E-02 0.18979891E+03</pdfrwt>
<totfact> 0.43177868E+04</totfact>
</mgrwt>
</event>
<event>
 4    1  0.4090208E+000  0.1776504E+03  0.7546771E-02  0.1170097E+00
         21   -1    0    0  501  502  0.00000000000E+00  0.00000000000E+00  0.30491179861E+03  0.30491179861E+03  0.00000000000E+00 0.  1.
         21   -1    0    0  502  503 -0.00000000000E+00 -0.00000000000E+00 -0.12226007580E+03  0.12226007580E+03  0.00000000000E+00 0.  1.
          6    1    1    2  501    0  0.39867611566E+02  0.64227543484E+01  0.17498203468E+03  0.24935595177E+03  0.17300000000E+03 0.  1.
         -6    1    1    2    0  503 -0.39867611566E+02 -0.64227543484E+01  0.76696881314E+01  0.17781592263E+03  0.17300000000E+03 0.  1.
<mgrwt>
<rscale>  2 0.17765044E+03</rscale>
<asrwt>0</asrwt>
<pdfrwt beam="1">  1       21 0.46909507E-01 0.17765044E+03</pdfrwt>
<pdfrwt beam="2">  1       21 0.18809243E-01 0.17765044E+03</pdfrwt>
<totfact> 0.11318638E+05</totfact>
</mgrwt>
</event>
<event>
 4    1  0.4090208E+000  0.2036332E+03  0.7546771E-02  0.1146709E+00
         21   -1    0    0  503  502  0.00000000000E+00  0.00000000000E+00  0.12189482263E+04  0.12189482263E+04  0.00000000000E+00 0.  1.
         21   -1    0    0  501  503 -0.00000000000E+00 -0.00000000000E+00 -0.10930273146E+03  0.10930273146E+03  0.00000000000E+00 0. -1.
          6    1    1    2  501    0 -0.10536706826E+03 -0.20862947393E+02  0.36504574818E+01  0.20366592127E+03  0.17300000000E+03 0. -1.
         -6    1    1    2    0  502  0.10536706826E+03  0.20862947393E+02  0.11059950373E+04  0.11245850365E+04  0.17300000000E+03 0.  1.
<mgrwt>
<rscale>  2 0.20363320E+03</rscale>
<asrwt>0</asrwt>
<pdfrwt beam="1">  1       21 0.18753049E+00 0.20363320E+03</pdfrwt>
<pdfrwt beam="2">  1       21 0.16815806E-01 0.20363320E+03</pdfrwt>
<totfact> 0.51042443E+03</totfact>
</mgrwt>
</event>
<event>
 4    1  0.4090208E+000  0.3057818E+03  0.7546771E-02  0.1082386E+00
         21   -1    0    0  501  502  0.00000000000E+00  0.00000000000E+00  0.64313418860E+03  0.64313418860E+03  0.00000000000E+00 0. -1.
         21   -1    0    0  502  503 -0.00000000000E+00 -0.00000000000E+00 -0.29894490102E+03  0.29894490102E+03  0.00000000000E+00 0. -1.
          6    1    1    2  501    0  0.21416366645E+02 -0.25122668981E+03  0.50969253387E+03  0.59438118200E+03  0.17300000000E+03 0. -1.
         -6    1    1    2    0  503 -0.21416366645E+02  0.25122668981E+03 -0.16550324628E+03  0.34769790762E+03  0.17300000000E+03 0. -1.
<mgrwt>
<rscale>  2 0.30578180E+03</rscale>
<asrwt>0</asrwt>
<pdfrwt beam="1">  1       21 0.98943721E-01 0.30578180E+03</pdfrwt>
<pdfrwt beam="2">  1       21 0.45991523E-01 0.30578180E+03</pdfrwt>
<totfact> 0.35361864E+03</totfact>
</mgrwt>
</event>
<event>
 4    1  0.4090208E+000  0.2683383E+03  0.7546771E-02  0.1102234E+00
         21   -1    0    0  503  502  0.00000000000E+00  0.00000000000E+00  0.51461313626E+02  0.51461313626E+02  0.00000000000E+00 0. -1.
         21   -1    0    0  501  503 -0.00000000000E+00 -0.00000000000E+00 -0.16925189780E+04  0.16925189780E+04  0.00000000000E+00 0.  1.
          6    1    1    2  501    0  0.15219626474E+03  0.13752353146E+03 -0.11835266616E+04  0.12135653190E+04  0.17300000000E+03 0.  1.
         -6    1    1    2    0  502 -0.15219626474E+03 -0.13752353146E+03 -0.45753100276E+03  0.53041497263E+03  0.17300000000E+03 0. -1.
<mgrwt>
<rscale>  2 0.26833827E+03</rscale>
<asrwt>0</asrwt>
<pdfrwt beam="1">  1       21 0.79171262E-02 0.26833827E+03</pdfrwt>
<pdfrwt beam="2">  1       21 0.26038750E+00 0.26833827E+03</pdfrwt>
<totfact> 0.66094153E+03</totfact>
</mgrwt>
</event>
<event>
 4    1  0.4090208E+000  0.1763439E+03  0.7546771E-02  0.1171389E+00
         21   -1    0    0  503  502  0.00000000000E+00  0.00000000000E+00  0.73205758103E+03  0.73205758103E+03  0.00000000000E+00 0. -1.
         21   -1    0    0  501  503 -0.00000000000E+00 -0.00000000000E+00 -0.60240181899E+02  0.60240181899E+02  0.00000000000E+00 0. -1.
          6    1    1    2  501    0 -0.93036422150E+01  0.32887823661E+02  0.12080410876E+03  0.21375406288E+03  0.17300000000E+03 0. -1.
         -6    1    1    2    0  502  0.93036422150E+01 -0.32887823661E+02  0.55101329037E+03  0.57854370005E+03  0.17300000000E+03 0. -1.
<mgrwt>
<rscale>  2 0.17634389E+03</rscale>
<asrwt>0</asrwt>
<pdfrwt beam="1">  1       21 0.11262424E+00 0.17634389E+03</pdfrwt>
<pdfrwt beam="2">  1       21 0.92677208E-02 0.17634389E+03</pdfrwt>
<totfact> 0.57695046E+04</totfact>
</mgrwt>
</event>
<event>
 4    1  0.4090208E+000  0.1859799E+03  0.7546771E-02  0.1162138E+00
         21   -1    0    0  501  502  0.00000000000E+00  0.00000000000E+00  0.10791741696E+03  0.10791741696E+03  0.00000000000E+00 0.  1.
         21   -1    0    0  502  503 -0.00000000000E+00 -0.00000000000E+00 -0.48305809110E+03  0.48305809110E+03  0.00000000000E+00 0.  1.
          6    1    1    2  501    0 -0.36827937928E+02  0.57473793915E+02 -0.16162095174E+02  0.18668087026E+03  0.17300000000E+03 0.  1.
         -6    1    1    2    0  503  0.36827937928E+02 -0.57473793915E+02 -0.35897857897E+03  0.40429463780E+03  0.17300000000E+03 0.  1.
<mgrwt>
<rscale>  2 0.18597993E+03</rscale>
<asrwt>0</asrwt>
<pdfrwt beam="1">  1       21 0.16602680E-01 0.18597993E+03</pdfrwt>
<pdfrwt beam="2">  1       21 0.74316629E-01 0.18597993E+03</pdfrwt>
<totfact> 0.53039117E+04</totfact>
</mgrwt>
</event>
<event>
 4    1  0.4090208E+000  0.1751390E+03  0.7546771E-02  0.1172592E+00
         21   -1    0    0  501  502  0.00000000000E+00  0.00000000000E+00  0.76323194105E+02  0.76323194105E+02  0.00000000000E+00 0.  1.
         21   -1    0    0  502  503 -0.00000000000E+00 -0.00000000000E+00 -0.51362019092E+03  0.51362019092E+03  0.00000000000E+00 0.  1.
          6    1    1    2  501    0  0.45124774544E+01 -0.26912648009E+02 -0.81072905287E+02  0.19299344302E+03  0.17300000000E+03 0.  1.
         -6    1    1    2    0  503 -0.45124774544E+01  0.26912648009E+02 -0.35622409152E+03  0.39694994200E+03  0.17300000000E+03 0.  1.
<mgrwt>
<rscale>  2 0.17513895E+03</rscale>
<asrwt>0</asrwt>
<pdfrwt beam="1">  1       21 0.11742030E-01 0.17513895E+03</pdfrwt>
<pdfrwt beam="2">  1       21 0.79018491E-01 0.17513895E+03</pdfrwt>
<totfact> 0.86907069E+04</totfact>
</mgrwt>
</event>
<event>
 4    1  0.4090208E+000  0.2575333E+03  0.7546771E-02  0.1108634E+00
         21   -1    0    0  501  502  0.00000000000E+00  0.00000000000E+00  0.70682651806E+03  0.70682651806E+03  0.00000000000E+00 0.  1.
         21   -1    0    0  502  503 -0.00000000000E+00 -0.00000000000E+00 -0.11081798755E+03  0.11081798755E+03  0.00000000000E+00 0.  1.
          6    1    1    2  501    0 -0.18915873484E+03  0.24766813700E+02  0.45805813750E+03  0.52549089369E+03  0.17300000000E+03 0.  1.
         -6    1    1    2    0  503  0.18915873484E+03 -0.24766813700E+02  0.13795039301E+03  0.29215361192E+03  0.17300000000E+03 0.  1.
<mgrwt>
<rscale>  2 0.25753334E+03</rscale>
<asrwt>0</asrwt>
<pdfrwt beam="1">  1       21 0.10874254E+00 0.25753334E+03</pdfrwt>
<pdfrwt beam="2">  1       21 0.17048922E-01 0.25753334E+03</pdfrwt>
<totfact> 0.20094465E+04</totfact>
</mgrwt>
</event>
<event>
 4    1  0.4090208E+000  0.1760309E+03  0.7546771E-02  0.1171701E+00
         21   -1    0    0  503  502  0.00000000000E+00  0.00000000000E+00  0.97870244310E+03  0.97870244310E+03  0.00000000000E+00 0. -1.
         21   -1    0    0  501  503 -0.00000000000E+00 -0.00000000000E+00 -0.66871527332E+02  0.66871527332E+02  0.00000000000E+00 0. -1.
          6    1    1    2  501    0 -0.25753032585E+02  0.19865654967E+02  0.76566083897E+02  0.19196152775E+03  0.17300000000E+03 0. -1.
         -6    1    1    2    0  502  0.25753032585E+02 -0.19865654967E+02  0.83526483187E+03  0.85361244267E+03  0.17300000000E+03 0. -1.
<mgrwt>
<rscale>  2 0.17603086E+03</rscale>
<asrwt>0</asrwt>
<pdfrwt beam="1">  1       21 0.15056960E+00 0.17603086E+03</pdfrwt>
<pdfrwt beam="2">  1       21 0.10287928E-01 0.17603086E+03</pdfrwt>
<totfact> 0.23092167E+04</totfact>
</mgrwt>
</event>
<event>
 4    1  0.4090208E+000  0.2116278E+03  0.7546771E-02  0.1140283E+00
         21   -1    0    0  501  502  0.00000000000E+00  0.00000000000E+00  0.41053859238E+02  0.41053859238E+02  0.00000000000E+00 0. -1.
         21   -1    0    0  502  503 -0.00000000000E+00 -0.00000000000E+00 -0.17041208003E+04  0.17041208003E+04  0.00000000000E+00 0. -1.
          6    1    1    2  501    0  0.61973670663E+02  0.10496003127E+03 -0.30810033741E+03  0.37378090097E+03  0.17300000000E+03 0. -1.
         -6    1    1    2    0  503 -0.61973670663E+02 -0.10496003127E+03 -0.13549666036E+04  0.13713937585E+04  0.17300000000E+03 0. -1.
<mgrwt>
<rscale>  2 0.21162784E+03</rscale>
<asrwt>0</asrwt>
<pdfrwt beam="1">  1       21 0.63159783E-02 0.21162784E+03</pdfrwt>
<pdfrwt beam="2">  1       21 0.26217243E+00 0.21162784E+03</pdfrwt>
<totfact> 0.10009034E+04</totfact>
</mgrwt>
</event>
<event>
 4    1  0.4090208E+000  0.2097373E+03  0.7546771E-02  0.1141774E+00
         21   -1    0    0  503  502  0.00000000000E+00  0.00000000000E+00  0.11138634396E+03  0.11138634396E+03  0.00000000000E+00 0.  1.
         21   -1    0    0  501  503 -0.00000000000E+00 -0.00000000000E+00 -0.46399800285E+03  0.46399800285E+03  0.00000000000E+00 0. -1.
          6    1    1    2  501    0 -0.66935272415E+02  0.97879614133E+02 -0.28730254128E+03  0.35571407026E+03  0.17300000000E+03 0. -1.
         -6    1    1    2    0  502  0.66935272415E+02 -0.97879614133E+02 -0.65309117607E+02  0.21967027655E+03  0.17300000000E+03 0.  1.
<mgrwt>
<rscale>  2 0.20973733E+03</rscale>
<asrwt>0</asrwt>
<pdfrwt beam="1">  1       21 0.17136361E-01 0.20973733E+03</pdfrwt>
<pdfrwt beam="2">  1       21 0.71384308E-01 0.20973733E+03</pdfrwt>
<totfact> 0.54103184E+04</totfact>
</mgrwt>
</event>
<event>
 4    1  0.4090208E+000  0.2484856E+03  0.7546771E-02  0.1114266E+00
         21   -1    0    0  503  502  0.00000000000E+00  0.00000000000E+00  0.14222535181E+04  0.14222535181E+04  0.00000000000E+00 0.  1.
         21   -1    0    0  501  503 -0.00000000000E+00 -0.00000000000E+00 -0.64588959974E+03  0.64588959974E+03  0.00000000000E+00 0.  1.
          6    1    1    2  501    0  0.17745405984E+03 -0.18060207116E+02 -0.61053248508E+03  0.65916236981E+03  0.17300000000E+03 0.  1.
         -6    1    1    2    0  502 -0.17745405984E+03  0.18060207116E+02  0.13868964035E+04  0.14089807480E+04  0.17300000000E+03 0.  1.
<mgrwt>
<rscale>  2 0.24848564E+03</rscale>
<asrwt>0</asrwt>
<pdfrwt beam="1">  1       21 0.21880823E+00 0.24848564E+03</pdfrwt>
<pdfrwt beam="2">  1       21 0.99367631E-01 0.24848564E+03</pdfrwt>
<totfact> 0.79151090E+01</totfact>
</mgrwt>
</event>
<event>
 4    1  0.4090208E+000  0.2268884E+03  0.7546771E-02  0.1128849E+00
         21   -1    0    0  501  502  0.00000000000E+00  0.00000000000E+00  0.42290360094E+03  0.42290360094E+03  0.00000000000E+00 0.  1.
         21   -1    0    0  502  503 -0.00000000000E+00 -0.00000000000E+00 -0.13673231150E+03  0.13673231150E+03  0.00000000000E+00 0.  1.
          6    1    1    2  501    0  0.52187401765E+02 -0.13720728830E+03  0.50386240691E+02  0.23241587320E+03  0.17300000000E+03 0.  1.
         -6    1    1    2    0  503 -0.52187401765E+02  0.13720728830E+03  0.23578504875E+03  0.32722003924E+03  0.17300000000E+03 0.  1.
<mgrwt>
<rscale>  2 0.22688844E+03</rscale>
<asrwt>0</asrwt>
<pdfrwt beam="1">  1       21 0.65062092E-01 0.22688844E+03</pdfrwt>
<pdfrwt beam="2">  1       21 0.21035740E-01 0.22688844E+03</pdfrwt>
<totfact> 0.44925558E+04</totfact>
</mgrwt>
</event>
<event>
 4    1  0.4090208E+000  0.1831507E+03  0.7546771E-02  0.1164788E+00
         21   -1    0    0  503  502  0.00000000000E+00  0.00000000000E+00  0.41091436378E+03  0.41091436378E+03  0.00000000000E+00 0. -1.
         21   -1    0    0  501  503 -0.00000000000E+00 -0.00000000000E+00 -0.40156564628E+03  0.40156564628E+03  0.00000000000E+00 0. -1.
          6    1    1    2  501    0 -0.24493240434E+02 -0.54911391624E+02 -0.35793055047E+03  0.40206772902E+03  0.17300000000E+03 0. -1.
         -6    1    1    2    0  502  0.24493240434E+02  0.54911391624E+02  0.36727926797E+03  0.41041228105E+03  0.17300000000E+03 0. -1.
<mgrwt>
<rscale>  2 0.18315070E+03</rscale>
<asrwt>0</asrwt>
<pdfrwt beam="1">  1       21 0.63217594E-01 0.18315070E+03</pdfrwt>
<pdfrwt beam="2">  1       21 0.61779330E-01 0.18315070E+03</pdfrwt>
<totfact> 0.56745562E+03</totfact>
</mgrwt>
</event>
<event>
 4    1  0.4090208E+000  0.2112221E+03  0.7546771E-02  0.1140602E+00
         21   -1    0    0  501  502  0.00000000000E+00  0.00000000000E+00  0.11531197940E+03  0.11531197940E+03  0.00000000000E+00 0. -1.
         21   -1    0    0  502  503 -0.00000000000E+00 -0.00000000000E+00 -0.41401693166E+03  0.41401693166E+03  0.00000000000E+00 0. -1.
          6    1    1    2  501    0  0.72333505131E+02 -0.97229894850E+02 -0.81624778772E+02  0.22644512123E+03  0.17300000000E+03 0. -1.
         -6    1    1    2    0  503 -0.72333505131E+02  0.97229894850E+02 -0.21708017349E+03  0.30288378983E+03  0.17300000000E+03 0. -1.
<mgrwt>
<rscale>  2 0.21122213E+03</rscale>
<asrwt>0</asrwt>
<pdfrwt beam="1">  1       21 0.17740305E-01 0.21122213E+03</pdfrwt>
<pdfrwt beam="2">  1       21 0.63694912E-01 0.21122213E+03</pdfrwt>
<totfact> 0.65134493E+04</totfact>
</mgrwt>
</event>
<event>
 4    1  0.4090208E+000  0.2743024E+03  0.7546771E-02  0.1098842E+00
         21   -1    0    0  501  502  0.00000000000E+00  0.00000000000E+00  0.39510405729E+03  0.39510405729E+03  0.00000000000E+00 0. -1.
         21   -1    0    0  502  503 -0.00000000000E+00 -0.00000000000E+00 -0.30671058849E+03  0.30671058849E+03  0.00000000000E+00 0. -1.
          6    1    1    2  501    0 -0.72320843795E+02 -0.20020611281E+03  0.26025535874E+03  0.37811988020E+03  0.17300000000E+03 0. -1.
         -6    1    1    2    0  503  0.72320843795E+02  0.20020611281E+03 -0.17186188994E+03  0.32369476558E+03  0.17300000000E+03 0. -1.
<mgrwt>
<rscale>  2 0.27430237E+03</rscale>
<asrwt>0</asrwt>
<pdfrwt beam="1">  1       21 0.60785239E-01 0.27430237E+03</pdfrwt>
<pdfrwt beam="2">  1       21 0.47186245E-01 0.27430237E+03</pdfrwt>
<totfact> 0.10320275E+04</totfact>
</mgrwt>
</event>
<event>
 4    1  0.4090208E+000  0.2107527E+03  0.7546771E-02  0.1140971E+00
         21   -1    0    0  503  502  0.00000000000E+00  0.00000000000E+00  0.11238338886E+03  0.11238338886E+03  0.00000000000E+00 0.  1.
         21   -1    0    0  501  503 -0.00000000000E+00 -0.00000000000E+00 -0.54641189974E+03  0.54641189974E+03  0.00000000000E+00 0.  1.
          6    1    1    2  501    0  0.98385283748E+02 -0.69339994506E+02 -0.39028204186E+03  0.44355019005E+03  0.17300000000E+03 0.  1.
         -6    1    1    2    0  502 -0.98385283748E+02  0.69339994506E+02 -0.43746469026E+02  0.21524509855E+03  0.17300000000E+03 0.  1.
<mgrwt>
<rscale>  2 0.21075270E+03</rscale>
<asrwt>0</asrwt>
<pdfrwt beam="1">  1       21 0.17289752E-01 0.21075270E+03</pdfrwt>
<pdfrwt beam="2">  1       21 0.84063368E-01 0.21075270E+03</pdfrwt>
<totfact> 0.36809788E+04</totfact>
</mgrwt>
</event>
<event>
 4    1  0.4090208E+000  0.1771989E+03  0.7546771E-02  0.1170542E+00
         21   -1    0    0  501  502  0.00000000000E+00  0.00000000000E+00  0.11696404639E+04  0.11696404639E+04  0.00000000000E+00 0.  1.
         21   -1    0    0  502  503 -0.00000000000E+00 -0.00000000000E+00 -0.11511873221E+03  0.11511873221E+03  0.00000000000E+00 0.  1.
          6    1    1    2  501    0 -0.27276729630E+02  0.26952205756E+02  0.10897751470E+04  0.11040875474E+04  0.17300000000E+03 0.  1.
         -6    1    1    2    0  503  0.27276729630E+02 -0.26952205756E+02 -0.35253415249E+02  0.18067164875E+03  0.17300000000E+03 0.  1.
<mgrwt>
<rscale>  2 0.17719888E+03</rscale>
<asrwt>0</asrwt>
<pdfrwt beam="1">  1       21 0.17994468E+00 0.17719888E+03</pdfrwt>
<pdfrwt beam="2">  1       21 0.17710575E-01 0.17719888E+03</pdfrwt>
<totfact> 0.53428983E+03</totfact>
</mgrwt>
</event>
<event>
 4    1  0.4090208E+000  0.1820934E+03  0.7546771E-02  0.1165792E+00
         21   -1    0    0  503  502  0.00000000000E+00  0.00000000000E+00  0.11969736184E+03  0.11969736184E+03  0.00000000000E+00 0.  1.
         21   -1    0    0  501  503 -0.00000000000E+00 -0.00000000000E+00 -0.52791742042E+03  0.52791742042E+03  0.00000000000E+00 0.  1.
          6    1    1    2  501    0 -0.30695354937E+02 -0.47820389544E+02 -0.42734178301E+03  0.46452017607E+03  0.17300000000E+03 0.  1.
         -6    1    1    2    0  502  0.30695354937E+02  0.47820389544E+02  0.19121724429E+02  0.18309460619E+03  0.17300000000E+03 0.  1.
<mgrwt>
<rscale>  2 0.18209337E+03</rscale>
<asrwt>0</asrwt>
<pdfrwt beam="1">  1       21 0.18414979E-01 0.18209337E+03</pdfrwt>
<pdfrwt beam="2">  1       21 0.81218066E-01 0.18209337E+03</pdfrwt>
<totfact> 0.35973572E+04</totfact>
</mgrwt>
</event>
<event>
 4    1  0.4090208E+000  0.1736503E+03  0.7546771E-02  0.1174094E+00
         21   -1    0    0  501  502  0.00000000000E+00  0.00000000000E+00  0.23675561060E+03  0.23675561060E+03  0.00000000000E+00 0. -1.
         21   -1    0    0  502  503 -0.00000000000E+00 -0.00000000000E+00 -0.21214909431E+03  0.21214909431E+03  0.00000000000E+00 0. -1.
          6    1    1    2  501    0 -0.12302006467E+02  0.86069569327E+01  0.15419604631E+03  0.23223014397E+03  0.17300000000E+03 0. -1.
         -6    1    1    2    0  503  0.12302006467E+02 -0.86069569327E+01 -0.12958953001E+03  0.21667456094E+03  0.17300000000E+03 0. -1.
<mgrwt>
<rscale>  2 0.17365028E+03</rscale>
<asrwt>0</asrwt>
<pdfrwt beam="1">  1       21 0.36423940E-01 0.17365028E+03</pdfrwt>
<pdfrwt beam="2">  1       21 0.32638322E-01 0.17365028E+03</pdfrwt>
<totfact> 0.66221146E+04</totfact>
</mgrwt>
</event>
<event>
 4    1  0.4090208E+000  0.1830614E+03  0.7546771E-02  0.1164873E+00
         21   -1    0    0  503  502  0.00000000000E+00  0.00000000000E+00  0.60267740268E+03  0.60267740268E+03  0.00000000000E+00 0. -1.
         21   -1    0    0  501  503 -0.00000000000E+00 -0.00000000000E+00 -0.60050850790E+02  0.60050850790E+02  0.00000000000E+00 0. -1.
          6    1    1    2  501    0  0.58280128022E+02 -0.13634066660E+02  0.18114431799E+03  0.25753587135E+03  0.17300000000E+03 0. -1.
         -6    1    1    2    0  502 -0.58280128022E+02  0.13634066660E+02  0.36148223391E+03  0.40519238212E+03  0.17300000000E+03 0. -1.
<mgrwt>
<rscale>  2 0.18306136E+03</rscale>
<asrwt>0</asrwt>
<pdfrwt beam="1">  1       21 0.92719596E-01 0.18306136E+03</pdfrwt>
<pdfrwt beam="2">  1       21 0.92385929E-02 0.18306136E+03</pdfrwt>
<totfact> 0.91833191E+04</totfact>
</mgrwt>
</event>
<event>
 4    1  0.4090208E+000  0.1761677E+03  0.7546771E-02  0.1171564E+00
         21   -1    0    0  503  502  0.00000000000E+00  0.00000000000E+00  0.41377440651E+03  0.41377440651E+03  0.00000000000E+00 0. -1.
         21   -1    0    0  501  503 -0.00000000000E+00 -0.00000000000E+00 -0.23217593476E+03  0.23217593476E+03  0.00000000000E+00 0. -1.
          6    1    1    2  501    0 -0.32171867296E+02 -0.84281903565E+01 -0.17493465098E+03  0.24826839418E+03  0.17300000000E+03 0. -1.
         -6    1    1    2    0  502  0.32171867296E+02  0.84281903565E+01  0.35653312273E+03  0.39768194709E+03  0.17300000000E+03 0. -1.
<mgrwt>
<rscale>  2 0.17616771E+03</rscale>
<asrwt>0</asrwt>
<pdfrwt beam="1">  1       21 0.63657601E-01 0.17616771E+03</pdfrwt>
<pdfrwt beam="2">  1       21 0.35719375E-01 0.17616771E+03</pdfrwt>
<totfact> 0.17413528E+04</totfact>
</mgrwt>
</event>
<event>
 4    1  0.4090208E+000  0.1848483E+03  0.7546771E-02  0.1163192E+00
         21   -1    0    0  501  502  0.00000000000E+00  0.00000000000E+00  0.89554688261E+02  0.89554688261E+02  0.00000000000E+00 0. -1.
         21   -1    0    0  502  503 -0.00000000000E+00 -0.00000000000E+00 -0.38160692479E+03  0.38160692479E+03  0.00000000000E+00 0. -1.
          6    1    1    2  501    0 -0.15258036484E+02  0.63301682396E+02 -0.14908946238E+03  0.23747963800E+03  0.17300000000E+03 0. -1.
         -6    1    1    2    0  503  0.15258036484E+02 -0.63301682396E+02 -0.14296277415E+03  0.23368197505E+03  0.17300000000E+03 0. -1.
<mgrwt>
<rscale>  2 0.18484835E+03</rscale>
<asrwt>0</asrwt>
<pdfrwt beam="1">  1       21 0.13777644E-01 0.18484835E+03</pdfrwt>
<pdfrwt beam="2">  1       21 0.58708758E-01 0.18484835E+03</pdfrwt>
<totfact> 0.12460619E+05</totfact>
</mgrwt>
</event>
<event>
 4    1  0.4090208E+000  0.2479511E+03  0.7546771E-02  0.1114607E+00
         21   -1    0    0  503  502  0.00000000000E+00  0.00000000000E+00  0.13877503520E+04  0.13877503520E+04  0.00000000000E+00 0. -1.
         21   -1    0    0  501  503 -0.00000000000E+00 -0.00000000000E+00 -0.44490744504E+02  0.44490744504E+02  0.00000000000E+00 0.  1.
          6    1    1    2  501    0  0.10012663042E+03 -0.14671542842E+03  0.71830479534E+03  0.75989574157E+03  0.17300000000E+03 0.  1.
         -6    1    1    2    0  502 -0.10012663042E+03  0.14671542842E+03  0.62495481211E+03  0.67234535489E+03  0.17300000000E+03 0. -1.
<mgrwt>
<rscale>  2 0.24795112E+03</rscale>
<asrwt>0</asrwt>
<pdfrwt beam="1">  1       21 0.21350002E+00 0.24795112E+03</pdfrwt>
<pdfrwt beam="2">  1       21 0.68447310E-02 0.24795112E+03</pdfrwt>
<totfact> 0.16662073E+04</totfact>
</mgrwt>
</event>
<event>
 4    1  0.4090208E+000  0.1843041E+03  0.7546771E-02  0.1163701E+00
         21   -1    0    0  503  502  0.00000000000E+00  0.00000000000E+00  0.39895180191E+03  0.39895180191E+03  0.00000000000E+00 0. -1.
         21   -1    0    0  501  503 -0.00000000000E+00 -0.00000000000E+00 -0.12099911129E+03  0.12099911129E+03  0.00000000000E+00 0. -1.
          6    1    1    2  501    0  0.57687079815E+02 -0.26668336431E+02 -0.25450668572E+01  0.18432166642E+03  0.17300000000E+03 0. -1.
         -6    1    1    2    0  502 -0.57687079815E+02  0.26668336431E+02  0.28049775748E+03  0.33562924678E+03  0.17300000000E+03 0. -1.
<mgrwt>
<rscale>  2 0.18430409E+03</rscale>
<asrwt>0</asrwt>
<pdfrwt beam="1">  1       21 0.61377199E-01 0.18430409E+03</pdfrwt>
<pdfrwt beam="2">  1       21 0.18615248E-01 0.18430409E+03</pdfrwt>
<totfact> 0.65341002E+04</totfact>
</mgrwt>
</event>
<event>
 4    1  0.4090208E+000  0.2123085E+03  0.7546771E-02  0.1139751E+00
         21   -1    0    0  501  502  0.00000000000E+00  0.00000000000E+00  0.65285145904E+03  0.65285145904E+03  0.00000000000E+00 0.  1.
         21   -1    0    0  502  503 -0.00000000000E+00 -0.00000000000E+00 -0.14081193732E+03  0.14081193732E+03  0.00000000000E+00 0.  1.
          6    1    1    2  501    0  0.12189592212E+03  0.16949213626E+02  0.53932496976E+03  0.57960876001E+03  0.17300000000E+03 0.  1.
         -6    1    1    2    0  503 -0.12189592212E+03 -0.16949213626E+02 -0.27285448040E+02  0.21405463636E+03  0.17300000000E+03 0.  1.
<mgrwt>
<rscale>  2 0.21230848E+03</rscale>
<asrwt>0</asrwt>
<pdfrwt beam="1">  1       21 0.10043868E+00 0.21230848E+03</pdfrwt>
<pdfrwt beam="2">  1       21 0.21663375E-01 0.21230848E+03</pdfrwt>
<totfact> 0.15943890E+04</totfact>
</mgrwt>
</event>
<event>
 4    1  0.4090208E+000  0.2466235E+03  0.7546771E-02  0.1115457E+00
         21   -1    0    0  501  502  0.00000000000E+00  0.00000000000E+00  0.58522178717E+02  0.58522178717E+02  0.00000000000E+00 0. -1.
         21   -1    0    0  502  503 -0.00000000000E+00 -0.00000000000E+00 -0.11530128135E+04  0.11530128135E+04  0.00000000000E+00 0.  1.
          6    1    1    2  501    0 -0.33298523702E+02 -0.17258440548E+03 -0.73746643908E+03  0.77761167523E+03  0.17300000000E+03 0.  1.
         -6    1    1    2    0  503  0.33298523702E+02  0.17258440548E+03 -0.35702419568E+03  0.43392331695E+03  0.17300000000E+03 0. -1.
<mgrwt>
<rscale>  2 0.24662354E+03</rscale>
<asrwt>0</asrwt>
<pdfrwt beam="1">  1       21 0.90034131E-02 0.24662354E+03</pdfrwt>
<pdfrwt beam="2">  1       21 0.17738657E+00 0.24662354E+03</pdfrwt>
<totfact> 0.17855123E+04</totfact>
</mgrwt>
</event>
<event>
 4    1  0.4090208E+000  0.2343519E+03  0.7546771E-02  0.1123614E+00
         21   -1    0    0  503  502  0.00000000000E+00  0.00000000000E+00  0.26667983325E+03  0.26667983325E+03  0.00000000000E+00 0.  1.
         21   -1    0    0  501  503 -0.00000000000E+00 -0.00000000000E+00 -0.24890542433E+03  0.24890542433E+03  0.00000000000E+00 0.  1.
          6    1    1    2  501    0  0.60529181026E+02 -0.14604123553E+03  0.11598933161E+03  0.26148489302E+03  0.17300000000E+03 0.  1.
         -6    1    1    2    0  502 -0.60529181026E+02  0.14604123553E+03 -0.98214922685E+02  0.25410036456E+03  0.17300000000E+03 0.  1.
<mgrwt>
<rscale>  2 0.23435192E+03</rscale>
<asrwt>0</asrwt>
<pdfrwt beam="1">  1       21 0.41027667E-01 0.23435192E+03</pdfrwt>
<pdfrwt beam="2">  1       21 0.38293142E-01 0.23435192E+03</pdfrwt>
<totfact> 0.36863704E+04</totfact>
</mgrwt>
</event>
<event>
 4    1  0.4090208E+000  0.1786087E+03  0.7546771E-02  0.1169156E+00
         21   -1    0    0  503  502  0.00000000000E+00  0.00000000000E+00  0.75281713770E+02  0.75281713770E+02  0.00000000000E+00 0. -1.
         21   -1    0    0  501  503 -0.00000000000E+00 -0.00000000000E+00 -0.53100110835E+03  0.53100110835E+03  0.00000000000E+00 0. -1.
          6    1    1    2  501    0 -0.44355945545E+02  0.21461513516E+01 -0.36409413158E+03  0.40554357660E+03  0.17300000000E+03 0. -1.
         -6    1    1    2    0  502  0.44355945545E+02 -0.21461513516E+01 -0.91625262994E+02  0.20073924551E+03  0.17300000000E+03 0. -1.
<mgrwt>
<rscale>  2 0.17860867E+03</rscale>
<asrwt>0</asrwt>
<pdfrwt beam="1">  1       21 0.11581802E-01 0.17860867E+03</pdfrwt>
<pdfrwt beam="2">  1       21 0.81692477E-01 0.17860867E+03</pdfrwt>
<totfact> 0.82494013E+04</totfact>
</mgrwt>
</event>
<event>
 4    1  0.4090208E+000  0.1869086E+03  0.7546771E-02  0.1161279E+00
         21   -1    0    0  503  502  0.00000000000E+00  0.00000000000E+00  0.29648583316E+03  0.29648583316E+03  0.00000000000E+00 0.  1.
         21   -1    0    0  501  503 -0.00000000000E+00 -0.00000000000E+00 -0.18559771397E+03  0.18559771397E+03  0.00000000000E+00 0. -1.
          6    1    1    2  501    0  0.70751177058E+02  0.30860875937E+00 -0.90208632765E+02  0.20753896434E+03  0.17300000000E+03 0. -1.
         -6    1    1    2    0  502 -0.70751177058E+02 -0.30860875937E+00  0.20109675195E+03  0.27454458279E+03  0.17300000000E+03 0.  1.
<mgrwt>
<rscale>  2 0.18690860E+03</rscale>
<asrwt>0</asrwt>
<pdfrwt beam="1">  1       21 0.45613205E-01 0.18690860E+03</pdfrwt>
<pdfrwt beam="2">  1       21 0.28553494E-01 0.18690860E+03</pdfrwt>
<totfact> 0.54203443E+04</totfact>
</mgrwt>
</event>
<event>
 4    1  0.4090208E+000  0.2204288E+03  0.7546771E-02  0.1133564E+00
         21   -1    0    0  501  502  0.00000000000E+00  0.00000000000E+00  0.89401496582E+03  0.89401496582E+03  0.00000000000E+00 0. -1.
         21   -1    0    0  502  503 -0.00000000000E+00 -0.00000000000E+00 -0.63767874354E+02  0.63767874354E+02  0.00000000000E+00 0. -1.
          6    1    1    2  501    0 -0.13089756742E+03  0.39059848101E+02  0.59917316775E+03  0.63843349680E+03  0.17300000000E+03 0. -1.
         -6    1    1    2    0  503  0.13089756742E+03 -0.39059848101E+02  0.23107392371E+03  0.31934934337E+03  0.17300000000E+03 0. -1.
<mgrwt>
<rscale>  2 0.22042878E+03</rscale>
<asrwt>0</asrwt>
<pdfrwt beam="1">  1       21 0.13754075E+00 0.22042878E+03</pdfrwt>
<pdfrwt beam="2">  1       21 0.98104429E-02 0.22042878E+03</pdfrwt>
<totfact> 0.30928815E+04</totfact>
</mgrwt>
</event>
<event>
 4    1  0.4090208E+000  0.3204894E+03  0.7546771E-02  0.1075424E+00
         21   -1    0    0  503  502  0.00000000000E+00  0.00000000000E+00  0.52897820115E+03  0.52897820115E+03  0.00000000000E+00 0.  1.
         21   -1    0    0  501  503 -0.00000000000E+00 -0.00000000000E+00 -0.19668008972E+03  0.19668008972E+03  0.00000000000E+00 0. -1.
          6    1    1    2  501    0 -0.12422864370E+03  0.23948210960E+03  0.12518698180E+03  0.34407152911E+03  0.17300000000E+03 0. -1.
         -6    1    1    2    0  502  0.12422864370E+03 -0.23948210960E+03  0.20711112962E+03  0.38158676176E+03  0.17300000000E+03 0. -1.
<mgrwt>
<rscale>  2 0.32048937E+03</rscale>
<asrwt>0</asrwt>
<pdfrwt beam="1">  1       21 0.81381261E-01 0.32048937E+03</pdfrwt>
<pdfrwt beam="2">  1       21 0.30258476E-01 0.32048937E+03</pdfrwt>
<totfact> 0.12970355E+04</totfact>
</mgrwt>
</event>
<event>
 4    1  0.4090208E+000  0.1872652E+03  0.7546771E-02  0.1160951E+00
         21   -1    0    0  503  502  0.00000000000E+00  0.00000000000E+00  0.35782492864E+03  0.35782492864E+03  0.00000000000E+00 0. -1.
         21   -1    0    0  501  503 -0.00000000000E+00 -0.00000000000E+00 -0.13734294843E+03  0.13734294843E+03  0.00000000000E+00 0.  1.
          6    1    1    2  501    0  0.50846361531E+02 -0.50536213459E+02 -0.22263579957E+02  0.18858400872E+03  0.17300000000E+03 0.  1.
         -6    1    1    2    0  502 -0.50846361531E+02  0.50536213459E+02  0.24274556016E+03  0.30658386835E+03  0.17300000000E+03 0. -1.
<mgrwt>
<rscale>  2 0.18726522E+03</rscale>
<asrwt>0</asrwt>
<pdfrwt beam="1">  1       21 0.55049989E-01 0.18726522E+03</pdfrwt>
<pdfrwt beam="2">  1       21 0.21129685E-01 0.18726522E+03</pdfrwt>
<totfact> 0.64987671E+04</totfact>
</mgrwt>
</event>
<event>
 4    1  0.4090208E+000  0.1898872E+03  0.7546771E-02  0.1158563E+00
         21   -1    0    0  503  502  0.00000000000E+00  0.00000000000E+00  0.11420493067E+03  0.11420493067E+03  0.00000000000E+00 0.  1.
         21   -1    0    0  501  503 -0.00000000000E+00 -0.00000000000E+00 -0.41589398285E+03  0.41589398285E+03  0.00000000000E+00 0.  1.
          6    1    1    2  501    0 -0.61945611040E+02  0.47863046131E+02 -0.28092330229E+03  0.33907968338E+03  0.17300000000E+03 0.  1.
         -6    1    1    2    0  502  0.61945611040E+02 -0.47863046131E+02 -0.20765749882E+02  0.19101923013E+03  0.17300000000E+03 0.  1.
<mgrwt>
<rscale>  2 0.18988715E+03</rscale>
<asrwt>0</asrwt>
<pdfrwt beam="1">  1       21 0.17569989E-01 0.18988715E+03</pdfrwt>
<pdfrwt beam="2">  1       21 0.63983690E-01 0.18988715E+03</pdfrwt>
<totfact> 0.66296531E+04</totfact>
</mgrwt>
</event>
<event>
 4    1  0.4090208E+000  0.1904199E+03  0.7546771E-02  0.1158083E+00
         21   -1    0    0  503  502  0.00000000000E+00  0.00000000000E+00  0.94409829112E+03  0.94409829112E+03  0.00000000000E+00 0. -1.
         21   -1    0    0  501  503 -0.00000000000E+00 -0.00000000000E+00 -0.59623510711E+02  0.59623510711E+02  0.00000000000E+00 0.  1.
          6    1    1    2  501    0  0.40039648121E+02 -0.68757159267E+02  0.14286315725E+03  0.23805377979E+03  0.17300000000E+03 0.  1.
         -6    1    1    2    0  502 -0.40039648121E+02  0.68757159267E+02  0.74161162316E+03  0.76566802204E+03  0.17300000000E+03 0.  1.
<mgrwt>
<rscale>  2 0.19041985E+03</rscale>
<asrwt>0</asrwt>
<pdfrwt beam="1">  1       21 0.14524588E+00 0.19041985E+03</pdfrwt>
<pdfrwt beam="2">  1       21 0.91728485E-02 0.19041985E+03</pdfrwt>
<totfact> 0.30767926E+04</totfact>
</mgrwt>
</event>
<event>
 4    1  0.4090208E+000  0.1731521E+03  0.7546771E-02  0.1174600E+00
         21   -1    0    0  501  502  0.00000000000E+00  0.00000000000E+00  0.19300559875E+04  0.19300559875E+04  0.00000000000E+00 0.  1.
         21   -1    0    0  502  503 -0.00000000000E+00 -0.00000000000E+00 -0.17738365917E+02  0.17738365917E+02  0.00000000000E+00 0.  1.
          6    1    1    2  501    0  0.70813981989E+01 -0.15874335117E+01  0.61284668694E+03  0.63683807035E+03  0.17300000000E+03 0.  1.
         -6    1    1    2    0  503 -0.70813981989E+01  0.15874335117E+01  0.12994709346E+04  0.13109562830E+04  0.17300000000E+03 0.  1.
<mgrwt>
<rscale>  2 0.17315215E+03</rscale>
<asrwt>0</asrwt>
<pdfrwt beam="1">  1       21 0.29693153E+00 0.17315215E+03</pdfrwt>
<pdfrwt beam="2">  1       21 0.27289809E-02 0.17315215E+03</pdfrwt>
<totfact> 0.26821180E+04</totfact>
</mgrwt>
</event>
<event>
 4    1  0.4090208E+000  0.1832219E+03  0.7546771E-02  0.1164721E+00
         21   -1    0    0  501  502  0.00000000000E+00  0.00000000000E+00  0.47718575323E+02  0.47718575323E+02  0.00000000000E+00 0.  1.
         21   -1    0    0  502  503 -0.00000000000E+00 -0.00000000000E+00 -0.70810833460E+03  0.70810833460E+03  0.00000000000E+00 0.  1.
          6    1    1    2  501    0  0.59946557329E+02 -0.69054942333E+01 -0.36066398757E+03  0.40453527351E+03  0.17300000000E+03 0.  1.
         -6    1    1    2    0  503 -0.59946557329E+02  0.69054942333E+01 -0.29972577170E+03  0.35129163641E+03  0.17300000000E+03 0.  1.
<mgrwt>
<rscale>  2 0.18322193E+03</rscale>
<asrwt>0</asrwt>
<pdfrwt beam="1">  1       21 0.73413196E-02 0.18322193E+03</pdfrwt>
<pdfrwt beam="2">  1       21 0.10893974E+00 0.18322193E+03</pdfrwt>
<totfact> 0.93515842E+04</totfact>
</mgrwt>
</event>
<event>
 4    1  0.4090208E+000  0.2100246E+03  0.7546771E-02  0.1141546E+00
         21   -1    0    0  503  502  0.00000000000E+00  0.00000000000E+00  0.92613094080E+02  0.92613094080E+02  0.00000000000E+00 0. -1.
         21   -1    0    0  501  503 -0.00000000000E+00 -0.00000000000E+00 -0.61220992610E+03  0.61220992610E+03  0.00000000000E+00 0. -1.
          6    1    1    2  501    0  0.73868109092E+02 -0.93406894343E+02 -0.42585168107E+03  0.47482628373E+03  0.17300000000E+03 0. -1.
         -6    1    1    2    0  502 -0.73868109092E+02  0.93406894343E+02 -0.93745150954E+02  0.22999673645E+03  0.17300000000E+03 0. -1.
<mgrwt>
<rscale>  2 0.21002463E+03</rscale>
<asrwt>0</asrwt>
<pdfrwt beam="1">  1       21 0.14248169E-01 0.21002463E+03</pdfrwt>
<pdfrwt beam="2">  1       21 0.94186141E-01 0.21002463E+03</pdfrwt>
<totfact> 0.40337267E+04</totfact>
</mgrwt>
</event>
<event>
 4    1  0.4090208E+000  0.2014405E+03  0.7546771E-02  0.1148529E+00
         21   -1    0    0  501  502  0.00000000000E+00  0.00000000000E+00  0.21380324011E+03  0.21380324011E+03  0.00000000000E+00 0. -1.
         21   -1    0    0  502  503 -0.00000000000E+00 -0.00000000000E+00 -0.24219357036E+03  0.24219357036E+03  0.00000000000E+00 0.  1.
          6    1    1    2  501    0  0.38486261401E+02 -0.95750069224E+02  0.91857176306E+02  0.22139559370E+03  0.17300000000E+03 0. -1.
         -6    1    1    2    0  503 -0.38486261401E+02  0.95750069224E+02 -0.12024750656E+03  0.23460121676E+03  0.17300000000E+03 0.  1.
<mgrwt>
<rscale>  2 0.20144048E+03</rscale>
<asrwt>0</asrwt>
<pdfrwt beam="1">  1       21 0.32892806E-01 0.20144048E+03</pdfrwt>
<pdfrwt beam="2">  1       21 0.37260549E-01 0.20144048E+03</pdfrwt>
<totfact> 0.61557564E+04</totfact>
</mgrwt>
</event>
<event>
 4    1  0.4090208E+000  0.2051736E+03  0.7546771E-02  0.1145446E+00
         21   -1    0    0  501  502  0.00000000000E+00  0.00000000000E+00  0.47643246831E+03  0.47643246831E+03  0.00000000000E+00 0.  1.
         21   -1    0    0  502  503 -0.00000000000E+00 -0.00000000000E+00 -0.88664696820E+02  0.88664696820E+02  0.00000000000E+00 0.  1.
          6    1    1    2  501    0  0.64897606524E+02  0.89193577128E+02  0.21052587729E+03  0.29396826111E+03  0.17300000000E+03 0.  1.
         -6    1    1    2    0  503 -0.64897606524E+02 -0.89193577128E+02  0.17724189420E+03  0.27112890402E+03  0.17300000000E+03 0.  1.
<mgrwt>
<rscale>  2 0.20517357E+03</rscale>
<asrwt>0</asrwt>
<pdfrwt beam="1">  1       21 0.73297302E-01 0.20517357E+03</pdfrwt>
<pdfrwt beam="2">  1       21 0.13640723E-01 0.20517357E+03</pdfrwt>
<totfact> 0.77556739E+04</totfact>
</mgrwt>
</event>
<event>
 4    1  0.4090208E+000  0.2010189E+03  0.7546771E-02  0.1148882E+00
         21   -1    0    0  501  502  0.00000000000E+00  0.00000000000E+00  0.47970955415E+03  0.47970955415E+03  0.00000000000E+00 0.  1.
         21   -1    0    0  502  503 -0.00000000000E+00 -0.00000000000E+00 -0.13320557769E+03  0.13320557769E+03  0.00000000000E+00 0. -1.
          6    1    1    2  501    0 -0.41251910891E+02  0.93690228715E+02  0.35906430287E+03  0.41150425600E+03  0.17300000000E+03 0.  1.
         -6    1    1    2    0  503  0.41251910891E+02 -0.93690228715E+02 -0.12560326415E+02  0.20141087584E+03  0.17300000000E+03 0. -1.
<mgrwt>
<rscale>  2 0.20101885E+03</rscale>
<asrwt>0</asrwt>
<pdfrwt beam="1">  1       21 0.73801469E-01 0.20101885E+03</pdfrwt>
<pdfrwt beam="2">  1       21 0.20493166E-01 0.20101885E+03</pdfrwt>
<totfact> 0.36185667E+04</totfact>
</mgrwt>
</event>
<event>
 4    1  0.4090208E+000  0.1946945E+03  0.7546771E-02  0.1154294E+00
         21   -1    0    0  501  502  0.00000000000E+00  0.00000000000E+00  0.47672996108E+03  0.47672996108E+03  0.00000000000E+00 0. -1.
         21   -1    0    0  502  503 -0.00000000000E+00 -0.00000000000E+00 -0.93869822196E+02  0.93869822196E+02  0.00000000000E+00 0.  1.
          6    1    1    2  501    0 -0.93322734017E+01 -0.88824973377E+02  0.79852707843E+02  0.21043389027E+03  0.17300000000E+03 0.  1.
         -6    1    1    2    0  503  0.93322734017E+01  0.88824973377E+02  0.30300743104E+03  0.36016589301E+03  0.17300000000E+03 0. -1.
<mgrwt>
<rscale>  2 0.19469455E+03</rscale>
<asrwt>0</asrwt>
<pdfrwt beam="1">  1       21 0.73343070E-01 0.19469455E+03</pdfrwt>
<pdfrwt beam="2">  1       21 0.14441511E-01 0.19469455E+03</pdfrwt>
<totfact> 0.70172981E+04</totfact>
</mgrwt>
</event>
<event>
 4    1  0.4090208E+000  0.2502019E+03  0.7546771E-02  0.1113177E+00
         21   -1    0    0  503  502  0.00000000000E+00  0.00000000000E+00  0.34445963616E+03  0.34445963616E+03  0.00000000000E+00 0.  1.
         21   -1    0    0  501  503 -0.00000000000E+00 -0.00000000000E+00 -0.89978914167E+03  0.89978914167E+03  0.00000000000E+00 0. -1.
          6    1    1    2  501    0  0.10329969957E+03  0.14832795578E+03 -0.83342168483E+03  0.87016821084E+03  0.17300000000E+03 0. -1.
         -6    1    1    2    0  502 -0.10329969957E+03 -0.14832795578E+03  0.27809217933E+03  0.37408056700E+03  0.17300000000E+03 0.  1.
<mgrwt>
<rscale>  2 0.25020194E+03</rscale>
<asrwt>0</asrwt>
<pdfrwt beam="1">  1       21 0.52993790E-01 0.25020194E+03</pdfrwt>
<pdfrwt beam="2">  1       21 0.13842910E+00 0.25020194E+03</pdfrwt>
<totfact> 0.11799346E+03</totfact>
</mgrwt>
</event>
<event>
 4    1  0.4090208E+000  0.2863388E+03  0.7546771E-02  0.1092276E+00
         21   -1    0    0  503  502  0.00000000000E+00  0.00000000000E+00  0.10880674401E+03  0.10880674401E+03  0.00000000000E+00 0. -1.
         21   -1    0    0  501  503 -0.00000000000E+00 -0.00000000000E+00 -0.11183408800E+04  0.11183408800E+04  0.00000000000E+00 0. -1.
          6    1    1    2  501    0 -0.22005586183E+03 -0.60301996864E+02 -0.85520362771E+03  0.90186648568E+03  0.17300000000E+03 0. -1.
         -6    1    1    2    0  502  0.22005586183E+03  0.60301996864E+02 -0.15433050824E+03  0.32528113829E+03  0.17300000000E+03 0. -1.
<mgrwt>
<rscale>  2 0.28633881E+03</rscale>
<asrwt>0</asrwt>
<pdfrwt beam="1">  1       21 0.16739499E-01 0.28633881E+03</pdfrwt>
<pdfrwt beam="2">  1       21 0.17205245E+00 0.28633881E+03</pdfrwt>
<totfact> 0.62006300E+03</totfact>
</mgrwt>
</event>
<event>
 4    1  0.4090208E+000  0.2033715E+03  0.7546771E-02  0.1146925E+00
         21   -1    0    0  501  502  0.00000000000E+00  0.00000000000E+00  0.43195749567E+03  0.43195749567E+03  0.00000000000E+00 0. -1.
         21   -1    0    0  502  503 -0.00000000000E+00 -0.00000000000E+00 -0.19210390305E+03  0.19210390305E+03  0.00000000000E+00 0. -1.
          6    1    1    2  501    0  0.10621577389E+03 -0.12213432941E+02  0.34091227578E+03  0.39696490820E+03  0.17300000000E+03 0. -1.
         -6    1    1    2    0  503 -0.10621577389E+03  0.12213432941E+02 -0.10105868316E+03  0.22709649052E+03  0.17300000000E+03 0. -1.
<mgrwt>
<rscale>  2 0.20337148E+03</rscale>
<asrwt>0</asrwt>
<pdfrwt beam="1">  1       21 0.66454999E-01 0.20337148E+03</pdfrwt>
<pdfrwt beam="2">  1       21 0.29554447E-01 0.20337148E+03</pdfrwt>
<totfact> 0.22641551E+04</totfact>
</mgrwt>
</event>
<event>
 4    1  0.4090208E+000  0.1878428E+03  0.7546771E-02  0.1160421E+00
         21   -1    0    0  501  502  0.00000000000E+00  0.00000000000E+00  0.84998135830E+02  0.84998135830E+02  0.00000000000E+00 0.  1.
         21   -1    0    0  502  503 -0.00000000000E+00 -0.00000000000E+00 -0.41548004670E+03  0.41548004670E+03  0.00000000000E+00 0.  1.
          6    1    1    2  501    0  0.73112394654E+02 -0.32408748645E+01 -0.15793483362E+03  0.24541462302E+03  0.17300000000E+03 0.  1.
         -6    1    1    2    0  503 -0.73112394654E+02  0.32408748645E+01 -0.17254707725E+03  0.25506355951E+03  0.17300000000E+03 0.  1.
<mgrwt>
<rscale>  2 0.18784282E+03</rscale>
<asrwt>0</asrwt>
<pdfrwt beam="1">  1       21 0.13076636E-01 0.18784282E+03</pdfrwt>
<pdfrwt beam="2">  1       21 0.63920008E-01 0.18784282E+03</pdfrwt>
<totfact> 0.11388581E+05</totfact>
</mgrwt>
</event>
<event>
 4    1  0.4090208E+000  0.2013676E+03  0.7546771E-02  0.1148590E+00
         21   -1    0    0  503  502  0.00000000000E+00  0.00000000000E+00  0.22749971741E+03  0.22749971741E+03  0.00000000000E+00 0. -1.
         21   -1    0    0  501  503 -0.00000000000E+00 -0.00000000000E+00 -0.25934474799E+03  0.25934474799E+03  0.00000000000E+00 0. -1.
          6    1    1    2  501    0  0.98108797315E+02  0.31537027197E+02 -0.15205195589E+03  0.25232660875E+03  0.17300000000E+03 0. -1.
         -6    1    1    2    0  502 -0.98108797315E+02 -0.31537027197E+02  0.12020692531E+03  0.23451785665E+03  0.17300000000E+03 0. -1.
<mgrwt>
<rscale>  2 0.20136762E+03</rscale>
<asrwt>0</asrwt>
<pdfrwt beam="1">  1       21 0.34999956E-01 0.20136762E+03</pdfrwt>
<pdfrwt beam="2">  1       21 0.39899192E-01 0.20136762E+03</pdfrwt>
<totfact> 0.47439065E+04</totfact>
</mgrwt>
</event>
<event>
 4    1  0.4090208E+000  0.1959816E+03  0.7546771E-02  0.1153174E+00
         21   -1    0    0  501  502  0.00000000000E+00  0.00000000000E+00  0.10484577373E+03  0.10484577373E+03  0.00000000000E+00 0. -1.
         21   -1    0    0  502  503 -0.00000000000E+00 -0.00000000000E+00 -0.48839160636E+03  0.48839160636E+03  0.00000000000E+00 0. -1.
          6    1    1    2  501    0 -0.46783536777E+02  0.79316347788E+02 -0.43489266671E+02  0.20074884472E+03  0.17300000000E+03 0. -1.
         -6    1    1    2    0  503  0.46783536777E+02 -0.79316347788E+02 -0.34005656597E+03  0.39248853537E+03  0.17300000000E+03 0. -1.
<mgrwt>
<rscale>  2 0.19598159E+03</rscale>
<asrwt>0</asrwt>
<pdfrwt beam="1">  1       21 0.16130119E-01 0.19598159E+03</pdfrwt>
<pdfrwt beam="2">  1       21 0.75137172E-01 0.19598159E+03</pdfrwt>
<totfact> 0.54312493E+04</totfact>
</mgrwt>
</event>
<event>
 4    1  0.4090208E+000  0.2007778E+03  0.7546771E-02  0.1149084E+00
         21   -1    0    0  503  502  0.00000000000E+00  0.00000000000E+00  0.91628282058E+03  0.91628282058E+03  0.00000000000E+00 0. -1.
         21   -1    0    0  501  503 -0.00000000000E+00 -0.00000000000E+00 -0.62898394386E+02  0.62898394386E+02  0.00000000000E+00 0. -1.
          6    1    1    2  501    0 -0.20548795305E+00 -0.10189541796E+03  0.15829067264E+03  0.25567099067E+03  0.17300000000E+03 0. -1.
         -6    1    1    2    0  502  0.20548795305E+00  0.10189541796E+03  0.69509375356E+03  0.72351022430E+03  0.17300000000E+03 0. -1.
<mgrwt>
<rscale>  2 0.20077778E+03</rscale>
<asrwt>0</asrwt>
<pdfrwt beam="1">  1       21 0.14096658E+00 0.20077778E+03</pdfrwt>
<pdfrwt beam="2">  1       21 0.96766767E-02 0.20077778E+03</pdfrwt>
<totfact> 0.30076287E+04</totfact>
</mgrwt>
</event>
<event>
 4    1  0.4090208E+000  0.1749215E+03  0.7546771E-02  0.1172811E+00
         21   -1    0    0  503  502  0.00000000000E+00  0.00000000000E+00  0.31856632244E+03  0.31856632244E+03  0.00000000000E+00 0. -1.
         21   -1    0    0  501  503 -0.00000000000E+00 -0.00000000000E+00 -0.11068312148E+03  0.11068312148E+03  0.00000000000E+00 0. -1.
          6    1    1    2  501    0 -0.81787999606E+01 -0.24528247449E+02  0.18198627749E+03  0.25242134000E+03  0.17300000000E+03 0.  1.
         -6    1    1    2    0  502  0.81787999606E+01  0.24528247449E+02  0.25896923471E+02  0.17682810392E+03  0.17300000000E+03 0.  1.
<mgrwt>
<rscale>  2 0.17492149E+03</rscale>
<asrwt>0</asrwt>
<pdfrwt beam="1">  1       21 0.49010203E-01 0.17492149E+03</pdfrwt>
<pdfrwt beam="2">  1       21 0.17028173E-01 0.17492149E+03</pdfrwt>
<totfact> 0.12432638E+05</totfact>
</mgrwt>
</event>
<event>
 4    1  0.4090208E+000  0.2021934E+03  0.7546771E-02  0.1147902E+00
         21   -1    0    0  501  502  0.00000000000E+00  0.00000000000E+00  0.26870783012E+04  0.26870783012E+04  0.00000000000E+00 0. -1.
         21   -1    0    0  502  503 -0.00000000000E+00 -0.00000000000E+00 -0.19378431730E+02  0.19378431730E+02  0.00000000000E+00 0. -1.
          6    1    1    2  501    0 -0.99811955002E+01  0.10418030526E+03  0.19611440274E+04  0.19715395143E+04  0.17300000000E+03 0. -1.
         -6    1    1    2    0  503  0.99811955002E+01 -0.10418030526E+03  0.70655584209E+03  0.73491721864E+03  0.17300000000E+03 0. -1.
<mgrwt>
<rscale>  2 0.20219337E+03</rscale>
<asrwt>0</asrwt>
<pdfrwt beam="1">  1       21 0.41339637E+00 0.20219337E+03</pdfrwt>
<pdfrwt beam="2">  1       21 0.29812993E-02 0.20219337E+03</pdfrwt>
<totfact> 0.45314642E+03</totfact>
</mgrwt>
</event>
<event>
 4    1  0.4090208E+000  0.1795934E+03  0.7546771E-02  0.1168197E+00
         21   -1    0    0  503  502  0.00000000000E+00  0.00000000000E+00  0.37460802262E+02  0.37460802262E+02  0.00000000000E+00 0. -1.
         21   -1    0    0  501  503 -0.00000000000E+00 -0.00000000000E+00 -0.15212107965E+04  0.15212107965E+04  0.00000000000E+00 0. -1.
          6    1    1    2  501    0 -0.33213711065E+02  0.34952033182E+02 -0.12552927095E+04  0.12680747540E+04  0.17300000000E+03 0. -1.
         -6    1    1    2    0  502  0.33213711065E+02 -0.34952033182E+02 -0.22845728469E+03  0.29059684471E+03  0.17300000000E+03 0. -1.
<mgrwt>
<rscale>  2 0.17959342E+03</rscale>
<asrwt>0</asrwt>
<pdfrwt beam="1">  1       21 0.57632010E-02 0.17959342E+03</pdfrwt>
<pdfrwt beam="2">  1       21 0.23403240E+00 0.17959342E+03</pdfrwt>
<totfact> 0.17668908E+04</totfact>
</mgrwt>
</event>
<event>
 4    1  0.4090208E+000  0.2677952E+03  0.7546771E-02  0.1102548E+00
         21   -1    0    0  501  502  0.00000000000E+00  0.00000000000E+00  0.10517417253E+04  0.10517417253E+04  0.00000000000E+00 0.  1.
         21   -1    0    0  502  503 -0.00000000000E+00 -0.00000000000E+00 -0.72971267328E+02  0.72971267328E+02  0.00000000000E+00 0. -1.
          6    1    1    2  501    0  0.93255001597E+01  0.20420168037E+03  0.63339068717E+03  0.68767583483E+03  0.17300000000E+03 0.  1.
         -6    1    1    2    0  503 -0.93255001597E+01 -0.20420168037E+03  0.34537977083E+03  0.43703715782E+03  0.17300000000E+03 0. -1.
<mgrwt>
<rscale>  2 0.26779524E+03</rscale>
<asrwt>0</asrwt>
<pdfrwt beam="1">  1       21 0.16180641E+00 0.26779524E+03</pdfrwt>
<pdfrwt beam="2">  1       21 0.11226350E-01 0.26779524E+03</pdfrwt>
<totfact> 0.15392462E+04</totfact>
</mgrwt>
</event>
<event>
 4    1  0.4090208E+000  0.1782216E+03  0.7546771E-02  0.1169535E+00
         21   -1    0    0  503  502  0.00000000000E+00  0.00000000000E+00  0.11102723050E+03  0.11102723050E+03  0.00000000000E+00 0. -1.
         21   -1    0    0  501  503 -0.00000000000E+00 -0.00000000000E+00 -0.30487151223E+03  0.30487151223E+03  0.00000000000E+00 0. -1.
          6    1    1    2  501    0  0.39991312410E+02  0.15318297895E+02 -0.45298293559E+02  0.18388825606E+03  0.17300000000E+03 0. -1.
         -6    1    1    2    0  502 -0.39991312410E+02 -0.15318297895E+02 -0.14854598818E+03  0.23201048667E+03  0.17300000000E+03 0. -1.
<mgrwt>
<rscale>  2 0.17822165E+03</rscale>
<asrwt>0</asrwt>
<pdfrwt beam="1">  1       21 0.17081113E-01 0.17822165E+03</pdfrwt>
<pdfrwt beam="2">  1       21 0.46903309E-01 0.17822165E+03</pdfrwt>
<totfact> 0.13521766E+05</totfact>
</mgrwt>
</event>
<event>
 4    1  0.4090208E+000  0.1879671E+03  0.7546771E-02  0.1160308E+00
         21   -1    0    0  503  502  0.00000000000E+00  0.00000000000E+00  0.98535255212E+03  0.98535255212E+03  0.00000000000E+00 0. -1.
         21   -1    0    0  501  503 -0.00000000000E+00 -0.00000000000E+00 -0.10226084196E+03  0.10226084196E+03  0.00000000000E+00 0. -1.
          6    1    1    2  501    0  0.22490212588E+02 -0.69977401740E+02  0.33311590744E+01  0.18799665698E+03  0.17300000000E+03 0. -1.
         -6    1    1    2    0  502 -0.22490212588E+02  0.69977401740E+02  0.87976055109E+03  0.89961673710E+03  0.17300000000E+03 0. -1.
<mgrwt>
<rscale>  2 0.18796714E+03</rscale>
<asrwt>0</asrwt>
<pdfrwt beam="1">  1       21 0.15159269E+00 0.18796714E+03</pdfrwt>
<pdfrwt beam="2">  1       21 0.15732438E-01 0.18796714E+03</pdfrwt>
<totfact> 0.10490625E+04</totfact>
</mgrwt>
</event>
<event>
 4    1  0.4090208E+000  0.3181279E+03  0.7546771E-02  0.1076514E+00
         21   -1    0    0  501  502  0.00000000000E+00  0.00000000000E+00  0.10191953422E+04  0.10191953422E+04  0.00000000000E+00 0. -1.
         21   -1    0    0  502  503 -0.00000000000E+00 -0.00000000000E+00 -0.13001295961E+03  0.13001295961E+03  0.00000000000E+00 0.  1.
          6    1    1    2  501    0  0.99853334175E+02 -0.24759983898E+03  0.72387215037E+03  0.79069353019E+03  0.17300000000E+03 0. -1.
         -6    1    1    2    0  503 -0.99853334175E+02  0.24759983898E+03  0.16531023227E+03  0.35851477167E+03  0.17300000000E+03 0.  1.
<mgrwt>
<rscale>  2 0.31812791E+03</rscale>
<asrwt>0</asrwt>
<pdfrwt beam="1">  1       21 0.15679928E+00 0.31812791E+03</pdfrwt>
<pdfrwt beam="2">  1       21 0.20001994E-01 0.31812791E+03</pdfrwt>
<totfact> 0.56486346E+03</totfact>
</mgrwt>
</event>
<event>
 4    1  0.4090208E+000  0.2114076E+03  0.7546771E-02  0.1140456E+00
         21   -1    0    0  503  502  0.00000000000E+00  0.00000000000E+00  0.71912427788E+02  0.71912427788E+02  0.00000000000E+00 0.  1.
         21   -1    0    0  501  503 -0.00000000000E+00 -0.00000000000E+00 -0.65745335098E+03  0.65745335098E+03  0.00000000000E+00 0. -1.
          6    1    1    2  501    0  0.74743002839E+02 -0.95800021796E+02 -0.37805833877E+03  0.43315270767E+03  0.17300000000E+03 0. -1.
         -6    1    1    2    0  502 -0.74743002839E+02  0.95800021796E+02 -0.20748258441E+03  0.29621307109E+03  0.17300000000E+03 0. -1.
<mgrwt>
<rscale>  2 0.21140757E+03</rscale>
<asrwt>0</asrwt>
<pdfrwt beam="1">  1       21 0.11063450E-01 0.21140757E+03</pdfrwt>
<pdfrwt beam="2">  1       21 0.10114667E+00 0.21140757E+03</pdfrwt>
<totfact> 0.53694163E+04</totfact>
</mgrwt>
</event>
<event>
 4    1  0.4090208E+000  0.2031236E+03  0.7546771E-02  0.1147130E+00
         21   -1    0    0  501  502  0.00000000000E+00  0.00000000000E+00  0.36343849284E+02  0.36343849284E+02  0.00000000000E+00 0.  1.
         21   -1    0    0  502  503 -0.00000000000E+00 -0.00000000000E+00 -0.28127406830E+04  0.28127406830E+04  0.00000000000E+00 0.  1.
          6    1    1    2  501    0 -0.73538549866E+02  0.76956364482E+02 -0.28807578101E+03  0.35248667487E+03  0.17300000000E+03 0.  1.
         -6    1    1    2    0  503  0.73538549866E+02 -0.76956364482E+02 -0.24883210527E+04  0.24965978574E+04  0.17300000000E+03 0.  1.
<mgrwt>
<rscale>  2 0.20312361E+03</rscale>
<asrwt>0</asrwt>
<pdfrwt beam="1">  1       21 0.55913617E-02 0.20312361E+03</pdfrwt>
<pdfrwt beam="2">  1       21 0.43272931E+00 0.20312361E+03</pdfrwt>
<totfact> 0.11821226E+03</totfact>
</mgrwt>
</event>
<event>
 4    1  0.4090208E+000  0.2515292E+03  0.7546771E-02  0.1112342E+00
         21   -1    0    0  501  502  0.00000000000E+00  0.00000000000E+00  0.51960825130E+02  0.51960825130E+02  0.00000000000E+00 0. -1.
         21   -1    0    0  502  503 -0.00000000000E+00 -0.00000000000E+00 -0.15834583691E+04  0.15834583691E+04  0.00000000000E+00 0.  1.
          6    1    1    2  501    0 -0.17646211483E+03  0.46894216268E+02 -0.37268899023E+03  0.44962654385E+03  0.17300000000E+03 0.  1.
         -6    1    1    2    0  503  0.17646211483E+03 -0.46894216268E+02 -0.11588085537E+04  0.11857926503E+04  0.17300000000E+03 0.  1.
<mgrwt>
<rscale>  2 0.25152921E+03</rscale>
<asrwt>0</asrwt>
<pdfrwt beam="1">  1       21 0.79939732E-02 0.25152921E+03</pdfrwt>
<pdfrwt beam="2">  1       21 0.24360898E+00 0.25152921E+03</pdfrwt>
<totfact> 0.82870361E+03</totfact>
</mgrwt>
</event>
<event>
 4    1  0.4090208E+000  0.2275608E+03  0.7546771E-02  0.1128368E+00
         21   -1    0    0  503  502  0.00000000000E+00  0.00000000000E+00  0.31021494249E+03  0.31021494249E+03  0.00000000000E+00 0.  1.
         21   -1    0    0  501  503 -0.00000000000E+00 -0.00000000000E+00 -0.36207717120E+03  0.36207717120E+03  0.00000000000E+00 0.  1.
          6    1    1    2  501    0 -0.25402825007E+02  0.14563520054E+03 -0.27271087048E+03  0.35518324008E+03  0.17300000000E+03 0.  1.
         -6    1    1    2    0  502  0.25402825007E+02 -0.14563520054E+03  0.22084864177E+03  0.31710887362E+03  0.17300000000E+03 0.  1.
<mgrwt>
<rscale>  2 0.22756079E+03</rscale>
<asrwt>0</asrwt>
<pdfrwt beam="1">  1       21 0.47725376E-01 0.22756079E+03</pdfrwt>
<pdfrwt beam="2">  1       21 0.55704180E-01 0.22756079E+03</pdfrwt>
<totfact> 0.12467853E+04</totfact>
</mgrwt>
</event>
<event>
 4    1  0.4090208E+000  0.1790917E+03  0.7546771E-02  0.1168685E+00
         21   -1    0    0  503  502  0.00000000000E+00  0.00000000000E+00  0.26334925576E+03  0.26334925576E+03  0.00000000000E+00 0.  1.
         21   -1    0    0  501  503 -0.00000000000E+00 -0.00000000000E+00 -0.15929990645E+03  0.15929990645E+03  0.00000000000E+00 0.  1.
          6    1    1    2  501    0  0.45722376468E+02 -0.73687989967E+01  0.15456710745E+03  0.23656886020E+03  0.17300000000E+03 0.  1.
         -6    1    1    2    0  502 -0.45722376468E+02  0.73687989967E+01 -0.50517758146E+02  0.18608030201E+03  0.17300000000E+03 0.  1.
<mgrwt>
<rscale>  2 0.17909169E+03</rscale>
<asrwt>0</asrwt>
<pdfrwt beam="1">  1       21 0.40515270E-01 0.17909169E+03</pdfrwt>
<pdfrwt beam="2">  1       21 0.24507678E-01 0.17909169E+03</pdfrwt>
<totfact> 0.92828257E+04</totfact>
</mgrwt>
</event>
<event>
 4    1  0.4090208E+000  0.3536567E+03  0.7546771E-02  0.1061124E+00
         21   -1    0    0  503  502  0.00000000000E+00  0.00000000000E+00  0.49502561679E+03  0.49502561679E+03  0.00000000000E+00 0. -1.
         21   -1    0    0  501  503 -0.00000000000E+00 -0.00000000000E+00 -0.35824904927E+03  0.35824904927E+03  0.00000000000E+00 0.  1.
          6    1    1    2  501    0 -0.15797867414E+03 -0.26492793699E+03 -0.16323178374E+03  0.38950954867E+03  0.17300000000E+03 0.  1.
         -6    1    1    2    0  502  0.15797867414E+03  0.26492793699E+03  0.30000835125E+03  0.46376511739E+03  0.17300000000E+03 0. -1.
<mgrwt>
<rscale>  2 0.35365672E+03</rscale>
<asrwt>0</asrwt>
<pdfrwt beam="1">  1       21 0.76157787E-01 0.35365672E+03</pdfrwt>
<pdfrwt beam="2">  1       21 0.55115238E-01 0.35365672E+03</pdfrwt>
<totfact> 0.43397098E+03</totfact>
</mgrwt>
</event>
<event>
 4    1  0.4090208E+000  0.1900114E+03  0.7546771E-02  0.1158451E+00
         21   -1    0    0  501  502  0.00000000000E+00  0.00000000000E+00  0.17089981093E+03  0.17089981093E+03  0.00000000000E+00 0. -1.
         21   -1    0    0  502  503 -0.00000000000E+00 -0.00000000000E+00 -0.21227766452E+03  0.21227766452E+03  0.00000000000E+00 0. -1.
          6    1    1    2  501    0  0.17183540897E+02  0.76681654351E+02 -0.33952179470E+02  0.19302098508E+03  0.17300000000E+03 0. -1.
         -6    1    1    2    0  503 -0.17183540897E+02 -0.76681654351E+02 -0.74256741218E+01  0.19015649036E+03  0.17300000000E+03 0. -1.
<mgrwt>
<rscale>  2 0.19001145E+03</rscale>
<asrwt>0</asrwt>
<pdfrwt beam="1">  1       21 0.26292279E-01 0.19001145E+03</pdfrwt>
<pdfrwt beam="2">  1       21 0.32658102E-01 0.19001145E+03</pdfrwt>
<totfact> 0.12422837E+05</totfact>
</mgrwt>
</event>
<event>
 4    1  0.4090208E+000  0.1964203E+03  0.7546771E-02  0.1152795E+00
         21   -1    0    0  503  502  0.00000000000E+00  0.00000000000E+00  0.76746569889E+02  0.76746569889E+02  0.00000000000E+00 0. -1.
         21   -1    0    0  501  503 -0.00000000000E+00 -0.00000000000E+00 -0.55152904355E+03  0.55152904355E+03  0.00000000000E+00 0. -1.
          6    1    1    2  501    0 -0.53488943776E+01  0.92861761953E+02 -0.14392581547E+03  0.24350679223E+03  0.17300000000E+03 0. -1.
         -6    1    1    2    0  502  0.53488943776E+01 -0.92861761953E+02 -0.33085665819E+03  0.38476882121E+03  0.17300000000E+03 0. -1.
<mgrwt>
<rscale>  2 0.19642026E+03</rscale>
<asrwt>0</asrwt>
<pdfrwt beam="1">  1       21 0.11807165E-01 0.19642026E+03</pdfrwt>
<pdfrwt beam="2">  1       21 0.84850623E-01 0.19642026E+03</pdfrwt>
<totfact> 0.72550508E+04</totfact>
</mgrwt>
</event>
<event>
 4    1  0.4090208E+000  0.1974377E+03  0.7546771E-02  0.1151919E+00
         21   -1    0    0  501  502  0.00000000000E+00  0.00000000000E+00  0.52383328930E+03  0.52383328930E+03  0.00000000000E+00 0. -1.
         21   -1    0    0  502  503 -0.00000000000E+00 -0.00000000000E+00 -0.75917729467E+02  0.75917729467E+02  0.00000000000E+00 0. -1.
          6    1    1    2  501    0 -0.95050444464E+02  0.42504629766E+01  0.26613174537E+03  0.33137253857E+03  0.17300000000E+03 0. -1.
         -6    1    1    2    0  503  0.95050444464E+02 -0.42504629766E+01  0.18178381446E+03  0.26837848019E+03  0.17300000000E+03 0. -1.
<mgrwt>
<rscale>  2 0.19743772E+03</rscale>
<asrwt>0</asrwt>
<pdfrwt beam="1">  1       21 0.80589735E-01 0.19743772E+03</pdfrwt>
<pdfrwt beam="2">  1       21 0.11679651E-01 0.19743772E+03</pdfrwt>
<totfact> 0.83138093E+04</totfact>
</mgrwt>
</event>
<event>
 4    1  0.4090208E+000  0.2197218E+03  0.7546771E-02  0.1134091E+00
         21   -1    0    0  501  502  0.00000000000E+00  0.00000000000E+00  0.58673000919E+02  0.58673000919E+02  0.00000000000E+00 0.  1.
         21   -1    0    0  502  503 -0.00000000000E+00 -0.00000000000E+00 -0.83082877806E+03  0.83082877806E+03  0.00000000000E+00 0.  1.
          6    1    1    2  501    0 -0.11090398114E+03 -0.77775152573E+02 -0.34242801849E+03  0.40685945391E+03  0.17300000000E+03 0.  1.
         -6    1    1    2    0  503  0.11090398114E+03  0.77775152573E+02 -0.42972775866E+03  0.48264232507E+03  0.17300000000E+03 0.  1.
<mgrwt>
<rscale>  2 0.21972180E+03</rscale>
<asrwt>0</asrwt>
<pdfrwt beam="1">  1       21 0.90266165E-02 0.21972180E+03</pdfrwt>
<pdfrwt beam="2">  1       21 0.12781980E+00 0.21972180E+03</pdfrwt>
<totfact> 0.43196336E+04</totfact>
</mgrwt>
</event>
<event>
 4    1  0.4090208E+000  0.2256535E+03  0.7546771E-02  0.1129737E+00
         21   -1    0    0  503  502  0.00000000000E+00  0.00000000000E+00  0.35477139084E+03  0.35477139084E+03  0.00000000000E+00 0.  1.
         21   -1    0    0  501  503 -0.00000000000E+00 -0.00000000000E+00 -0.15871020540E+03  0.15871020540E+03  0.00000000000E+00 0.  1.
          6    1    1    2  501    0  0.97099109794E+02 -0.10752799940E+03  0.17743868191E+03  0.28706095801E+03  0.17300000000E+03 0.  1.
         -6    1    1    2    0  502 -0.97099109794E+02  0.10752799940E+03  0.18622503534E+02  0.22642063823E+03  0.17300000000E+03 0.  1.
<mgrwt>
<rscale>  2 0.22565351E+03</rscale>
<asrwt>0</asrwt>
<pdfrwt beam="1">  1       21 0.54580214E-01 0.22565351E+03</pdfrwt>
<pdfrwt beam="2">  1       21 0.24416955E-01 0.22565351E+03</pdfrwt>
<totfact> 0.49452074E+04</totfact>
</mgrwt>
</event>
<event>
 4    1  0.4090208E+000  0.1818150E+03  0.7546771E-02  0.1166058E+00
         21   -1    0    0  503  502  0.00000000000E+00  0.00000000000E+00  0.18364790862E+03  0.18364790862E+03  0.00000000000E+00 0. -1.
         21   -1    0    0  501  503 -0.00000000000E+00 -0.00000000000E+00 -0.18630253384E+03  0.18630253384E+03  0.00000000000E+00 0. -1.
          6    1    1    2  501    0 -0.46728862594E+02 -0.30726592204E+02  0.32693566810E+02  0.18473110019E+03  0.17300000000E+03 0.  1.
         -6    1    1    2    0  502  0.46728862594E+02  0.30726592204E+02 -0.35348192031E+02  0.18521934226E+03  0.17300000000E+03 0.  1.
<mgrwt>
<rscale>  2 0.18181504E+03</rscale>
<asrwt>0</asrwt>
<pdfrwt beam="1">  1       21 0.28253524E-01 0.18181504E+03</pdfrwt>
<pdfrwt beam="2">  1       21 0.28661928E-01 0.18181504E+03</pdfrwt>
<totfact> 0.13991692E+05</totfact>
</mgrwt>
</event>
<event>
 4    1  0.4090208E+000  0.2256595E+03  0.7546771E-02  0.1129733E+00
         21   -1    0    0  501  502  0.00000000000E+00  0.00000000000E+00  0.38648488044E+03  0.38648488044E+03  0.00000000000E+00 0.  1.
         21   -1    0    0  502  503 -0.00000000000E+00 -0.00000000000E+00 -0.16856145929E+03  0.16856145929E+03  0.00000000000E+00 0. -1.
          6    1    1    2  501    0  0.14205124943E+03 -0.28541839207E+02  0.23864043024E+03  0.32843789215E+03  0.17300000000E+03 0.  1.
         -6    1    1    2    0  503 -0.14205124943E+03  0.28541839207E+02 -0.20717009089E+02  0.22660844758E+03  0.17300000000E+03 0. -1.
<mgrwt>
<rscale>  2 0.22565946E+03</rscale>
<asrwt>0</asrwt>
<pdfrwt beam="1">  1       21 0.59459212E-01 0.22565946E+03</pdfrwt>
<pdfrwt beam="2">  1       21 0.25932532E-01 0.22565946E+03</pdfrwt>
<totfact> 0.36692211E+04</totfact>
</mgrwt>
</event>
<event>
 4    1  0.4090208E+000  0.1944717E+03  0.7546771E-02  0.1154489E+00
         21   -1    0    0  501  502  0.00000000000E+00  0.00000000000E+00  0.90091766286E+03  0.90091766286E+03  0.00000000000E+00 0. -1.
         21   -1    0    0  502  503 -0.00000000000E+00 -0.00000000000E+00 -0.52792276591E+02  0.52792276591E+02  0.00000000000E+00 0. -1.
          6    1    1    2  501    0 -0.86334406328E+02 -0.20894974587E+02  0.63988112424E+03  0.66878029489E+03  0.17300000000E+03 0. -1.
         -6    1    1    2    0  503  0.86334406328E+02  0.20894974587E+02  0.20824426203E+03  0.28492964455E+03  0.17300000000E+03 0. -1.
<mgrwt>
<rscale>  2 0.19447167E+03</rscale>
<asrwt>0</asrwt>
<pdfrwt beam="1">  1       21 0.13860271E+00 0.19447167E+03</pdfrwt>
<pdfrwt beam="2">  1       21 0.81218894E-02 0.19447167E+03</pdfrwt>
<totfact> 0.42878236E+04</totfact>
</mgrwt>
</event>
<event>
 4    1  0.4090208E+000  0.2241315E+03  0.7546771E-02  0.1130840E+00
         21   -1    0    0  503  502  0.00000000000E+00  0.00000000000E+00  0.91423474949E+03  0.91423474949E+03  0.00000000000E+00 0.  1.
         21   -1    0    0  501  503 -0.00000000000E+00 -0.00000000000E+00 -0.13971942479E+03  0.13971942479E+03  0.00000000000E+00 0.  1.
          6    1    1    2  501    0  0.37810408880E+02 -0.13739097843E+03 -0.23219856680E+02  0.22533102254E+03  0.17300000000E+03 0.  1.
         -6    1    1    2    0  502 -0.37810408880E+02  0.13739097843E+03  0.79773518138E+03  0.82862315173E+03  0.17300000000E+03 0.  1.
<mgrwt>
<rscale>  2 0.22413145E+03</rscale>
<asrwt>0</asrwt>
<pdfrwt beam="1">  1       21 0.14065150E+00 0.22413145E+03</pdfrwt>
<pdfrwt beam="2">  1       21 0.21495297E-01 0.22413145E+03</pdfrwt>
<totfact> 0.69622851E+03</totfact>
</mgrwt>
</event>
<event>
 4    1  0.4090208E+000  0.2042471E+03  0.7546771E-02  0.1146204E+00
         21   -1    0    0  503  502  0.00000000000E+00  0.00000000000E+00  0.50100707984E+03  0.50100707984E+03  0.00000000000E+00 0.  1.
         21   -1    0    0  501  503 -0.00000000000E+00 -0.00000000000E+00 -0.85308761418E+02  0.85308761418E+02  0.00000000000E+00 0.  1.
          6    1    1    2  501    0 -0.38470827783E+02 -0.10152761209E+03  0.16248503236E+03  0.26099472475E+03  0.17300000000E+03 0.  1.
         -6    1    1    2    0  502  0.38470827783E+02  0.10152761209E+03  0.25321328606E+03  0.32532111650E+03  0.17300000000E+03 0.  1.
<mgrwt>
<rscale>  2 0.20424706E+03</rscale>
<asrwt>0</asrwt>
<pdfrwt beam="1">  1       21 0.77078011E-01 0.20424706E+03</pdfrwt>
<pdfrwt beam="2">  1       21 0.13124425E-01 0.20424706E+03</pdfrwt>
<totfact> 0.74338363E+04</totfact>
</mgrwt>
</event>
<event>
 4    1  0.4090208E+000  0.1735125E+03  0.7546771E-02  0.1174234E+00
         21   -1    0    0  503  502  0.00000000000E+00  0.00000000000E+00  0.43096360247E+02  0.43096360247E+02  0.00000000000E+00 0. -1.
         21   -1    0    0  501  503 -0.00000000000E+00 -0.00000000000E+00 -0.72645878049E+03  0.72645878049E+03  0.00000000000E+00 0. -1.
          6    1    1    2  501    0  0.40252063915E+01 -0.12704373983E+02 -0.41704768971E+03  0.45170275502E+03  0.17300000000E+03 0.  1.
         -6    1    1    2    0  502 -0.40252063915E+01  0.12704373983E+02 -0.26631473054E+03  0.31785238572E+03  0.17300000000E+03 0.  1.
<mgrwt>
<rscale>  2 0.17351255E+03</rscale>
<asrwt>0</asrwt>
<pdfrwt beam="1">  1       21 0.66302092E-02 0.17351255E+03</pdfrwt>
<pdfrwt beam="2">  1       21 0.11176289E+00 0.17351255E+03</pdfrwt>
<totfact> 0.10523289E+05</totfact>
</mgrwt>
</event>
<event>
 4    1  0.4090208E+000  0.1749136E+03  0.7546771E-02  0.1172818E+00
         21   -1    0    0  501  502  0.00000000000E+00  0.00000000000E+00  0.40235716892E+03  0.40235716892E+03  0.00000000000E+00 0. -1.
         21   -1    0    0  502  503 -0.00000000000E+00 -0.00000000000E+00 -0.81642162604E+02  0.81642162604E+02  0.00000000000E+00 0. -1.
          6    1    1    2  501    0  0.23461484063E+01  0.25695509461E+02  0.96958683190E+02  0.19998937438E+03  0.17300000000E+03 0. -1.
         -6    1    1    2    0  503 -0.23461484063E+01 -0.25695509461E+02  0.22375632313E+03  0.28400995715E+03  0.17300000000E+03 0. -1.
<mgrwt>
<rscale>  2 0.17491359E+03</rscale>
<asrwt>0</asrwt>
<pdfrwt beam="1">  1       21 0.61901102E-01 0.17491359E+03</pdfrwt>
<pdfrwt beam="2">  1       21 0.12560333E-01 0.17491359E+03</pdfrwt>
<totfact> 0.13183436E+05</totfact>
</mgrwt>
</event>
<event>
 4    1  0.4090208E+000  0.2019332E+03  0.7546771E-02  0.1148118E+00
         21   -1    0    0  501  502  0.00000000000E+00  0.00000000000E+00  0.79171826315E+03  0.79171826315E+03  0.00000000000E+00 0.  1.
         21   -1    0    0  502  503 -0.00000000000E+00 -0.00000000000E+00 -0.65007797939E+02  0.65007797939E+02  0.00000000000E+00 0.  1.
          6    1    1    2  501    0  0.90034805312E+02  0.52361725621E+02  0.55858674900E+03  0.59396647434E+03  0.17300000000E+03 0.  1.
         -6    1    1    2    0  503 -0.90034805312E+02 -0.52361725621E+02  0.16812371621E+03  0.26275958675E+03  0.17300000000E+03 0.  1.
<mgrwt>
<rscale>  2 0.20193320E+03</rscale>
<asrwt>0</asrwt>
<pdfrwt beam="1">  1       21 0.12180280E+00 0.20193320E+03</pdfrwt>
<pdfrwt beam="2">  1       21 0.10001200E-01 0.20193320E+03</pdfrwt>
<totfact> 0.41072526E+04</totfact>
</mgrwt>
</event>
<event>
 4    1  0.4090208E+000  0.2488059E+03  0.7546771E-02  0.1114062E+00
         21   -1    0    0  503  502  0.00000000000E+00  0.00000000000E+00  0.38821734941E+03  0.38821734941E+03  0.00000000000E+00 0. -1.
         21   -1    0    0  501  503 -0.00000000000E+00 -0.00000000000E+00 -0.16726042373E+03  0.16726042373E+03  0.00000000000E+00 0.  1.
          6    1    1    2  501    0 -0.13417276906E+03 -0.11820767406E+03  0.17046490923E+03  0.30160018475E+03  0.17300000000E+03 0. -1.
         -6    1    1    2    0  502  0.13417276906E+03  0.11820767406E+03  0.50492016461E+02  0.25387758839E+03  0.17300000000E+03 0. -1.
<mgrwt>
<rscale>  2 0.24880592E+03</rscale>
<asrwt>0</asrwt>
<pdfrwt beam="1">  1       21 0.59725746E-01 0.24880592E+03</pdfrwt>
<pdfrwt beam="2">  1       21 0.25732373E-01 0.24880592E+03</pdfrwt>
<totfact> 0.36505320E+04</totfact>
</mgrwt>
</event>
<event>
 4    1  0.4090208E+000  0.1864608E+03  0.7546771E-02  0.1161693E+00
         21   -1    0    0  503  502  0.00000000000E+00  0.00000000000E+00  0.10937431121E+04  0.10937431121E+04  0.00000000000E+00 0. -1.
         21   -1    0    0  501  503 -0.00000000000E+00 -0.00000000000E+00 -0.32030748168E+02  0.32030748168E+02  0.00000000000E+00 0. -1.
          6    1    1    2  501    0 -0.55919684985E+02 -0.41371489261E+02  0.57988557777E+03  0.60912633714E+03  0.17300000000E+03 0.  1.
         -6    1    1    2    0  502  0.55919684985E+02  0.41371489261E+02  0.48182678618E+03  0.51664752314E+03  0.17300000000E+03 0.  1.
<mgrwt>
<rscale>  2 0.18646075E+03</rscale>
<asrwt>0</asrwt>
<pdfrwt beam="1">  1       21 0.16826814E+00 0.18646075E+03</pdfrwt>
<pdfrwt beam="2">  1       21 0.49278083E-02 0.18646075E+03</pdfrwt>
<totfact> 0.60719787E+04</totfact>
</mgrwt>
</event>
<event>
 4    1  0.4090208E+000  0.1761860E+03  0.7546771E-02  0.1171546E+00
         21   -1    0    0  501  502  0.00000000000E+00  0.00000000000E+00  0.76983660503E+02  0.76983660503E+02  0.00000000000E+00 0. -1.
         21   -1    0    0  502  503 -0.00000000000E+00 -0.00000000000E+00 -0.54968497300E+03  0.54968497300E+03  0.00000000000E+00 0. -1.
          6    1    1    2  501    0 -0.13993322776E+02 -0.30276945337E+02 -0.74611589017E+02  0.19133320600E+03  0.17300000000E+03 0. -1.
         -6    1    1    2    0  503  0.13993322776E+02  0.30276945337E+02 -0.39808972348E+03  0.43533542750E+03  0.17300000000E+03 0. -1.
<mgrwt>
<rscale>  2 0.17618600E+03</rscale>
<asrwt>0</asrwt>
<pdfrwt beam="1">  1       21 0.11843640E-01 0.17618600E+03</pdfrwt>
<pdfrwt beam="2">  1       21 0.84566918E-01 0.17618600E+03</pdfrwt>
<totfact> 0.73360578E+04</totfact>
</mgrwt>
</event>
<event>
 4    1  0.4090208E+000  0.2764896E+03  0.7546771E-02  0.1097622E+00
         21   -1    0    0  503  502  0.00000000000E+00  0.00000000000E+00  0.26890935519E+03  0.26890935519E+03  0.00000000000E+00 0. -1.
         21   -1    0    0  501  503 -0.00000000000E+00 -0.00000000000E+00 -0.29320708426E+03  0.29320708426E+03  0.00000000000E+00 0. -1.
          6    1    1    2  501    0 -0.10627414515E+03 -0.18767877353E+03  0.36882797933E+02  0.27893880466E+03  0.17300000000E+03 0. -1.
         -6    1    1    2    0  502  0.10627414515E+03  0.18767877353E+03 -0.61180527004E+02  0.28317763479E+03  0.17300000000E+03 0. -1.
<mgrwt>
<rscale>  2 0.27648963E+03</rscale>
<asrwt>0</asrwt>
<pdfrwt beam="1">  1       21 0.41370670E-01 0.27648963E+03</pdfrwt>
<pdfrwt beam="2">  1       21 0.45108782E-01 0.27648963E+03</pdfrwt>
<totfact> 0.25459863E+04</totfact>
</mgrwt>
</event>
<event>
 4    1  0.4090208E+000  0.2096561E+03  0.7546771E-02  0.1141839E+00
         21   -1    0    0  503  502  0.00000000000E+00  0.00000000000E+00  0.87932882756E+02  0.87932882756E+02  0.00000000000E+00 0.  1.
         21   -1    0    0  501  503 -0.00000000000E+00 -0.00000000000E+00 -0.75988263556E+03  0.75988263556E+03  0.00000000000E+00 0. -1.
          6    1    1    2  501    0  0.56180012129E+02 -0.10426155344E+03 -0.58393914832E+03  0.62043580992E+03  0.17300000000E+03 0.  1.
         -6    1    1    2    0  502 -0.56180012129E+02  0.10426155344E+03 -0.88010604483E+02  0.22737970840E+03  0.17300000000E+03 0.  1.
<mgrwt>
<rscale>  2 0.20965606E+03</rscale>
<asrwt>0</asrwt>
<pdfrwt beam="1">  1       21 0.13528136E-01 0.20965606E+03</pdfrwt>
<pdfrwt beam="2">  1       21 0.11690502E+00 0.20965606E+03</pdfrwt>
<totfact> 0.26375637E+04</totfact>
</mgrwt>
</event>
<event>
 4    1  0.4090208E+000  0.2164045E+03  0.7546771E-02  0.1136592E+00
         21   -1    0    0  503  502  0.00000000000E+00  0.00000000000E+00  0.13076646479E+04  0.13076646479E+04  0.00000000000E+00 0.  1.
         21   -1    0    0  501  503 -0.00000000000E+00 -0.00000000000E+00 -0.11039647865E+03  0.11039647865E+03  0.00000000000E+00 0. -1.
          6    1    1    2  501    0  0.95770832811E+02 -0.87919591382E+02  0.15847229065E+02  0.21698396631E+03  0.17300000000E+03 0. -1.
         -6    1    1    2    0  502 -0.95770832811E+02  0.87919591382E+02  0.11814209401E+04  0.12010771602E+04  0.17300000000E+03 0.  1.
<mgrwt>
<rscale>  2 0.21640450E+03</rscale>
<asrwt>0</asrwt>
<pdfrwt beam="1">  1       21 0.20117917E+00 0.21640450E+03</pdfrwt>
<pdfrwt beam="2">  1       21 0.16984075E-01 0.21640450E+03</pdfrwt>
<totfact> 0.40344641E+03</totfact>
</mgrwt>
</event>
<event>
 4    1  0.4090208E+000  0.1834549E+03  0.7546771E-02  0.1164501E+00
         21   -1    0    0  501  502  0.00000000000E+00  0.00000000000E+00  0.23116237940E+03  0.23116237940E+03  0.00000000000E+00 0.  1.
         21   -1    0    0  502  503 -0.00000000000E+00 -0.00000000000E+00 -0.14898856274E+03  0.14898856274E+03  0.00000000000E+00 0.  1.
          6    1    1    2  501    0  0.10790653137E+02 -0.60085349456E+02  0.12393110771E+02  0.18387299043E+03  0.17300000000E+03 0.  1.
         -6    1    1    2    0  503 -0.10790653137E+02  0.60085349456E+02  0.69780705890E+02  0.19627795171E+03  0.17300000000E+03 0.  1.
<mgrwt>
<rscale>  2 0.18345486E+03</rscale>
<asrwt>0</asrwt>
<pdfrwt beam="1">  1       21 0.35563443E-01 0.18345486E+03</pdfrwt>
<pdfrwt beam="2">  1       21 0.22921317E-01 0.18345486E+03</pdfrwt>
<totfact> 0.13660504E+05</totfact>
</mgrwt>
</event>
<event>
 4    1  0.4090208E+000  0.1819359E+03  0.7546771E-02  0.1165943E+00
         21   -1    0    0  503  502  0.00000000000E+00  0.00000000000E+00  0.22937279549E+03  0.22937279549E+03  0.00000000000E+00 0. -1.
         21   -1    0    0  501  503 -0.00000000000E+00 -0.00000000000E+00 -0.22216088309E+03  0.22216088309E+03  0.00000000000E+00 0. -1.
          6    1    1    2  501    0  0.50681957372E+02 -0.24556099911E+02 -0.13004117825E+03  0.22363222238E+03  0.17300000000E+03 0. -1.
         -6    1    1    2    0  502 -0.50681957372E+02  0.24556099911E+02  0.13725309065E+03  0.22790145620E+03  0.17300000000E+03 0. -1.
<mgrwt>
<rscale>  2 0.18193588E+03</rscale>
<asrwt>0</asrwt>
<pdfrwt beam="1">  1       21 0.35288122E-01 0.18193588E+03</pdfrwt>
<pdfrwt beam="2">  1       21 0.34178597E-01 0.18193588E+03</pdfrwt>
<totfact> 0.64161448E+04</totfact>
</mgrwt>
</event>
<event>
 4    1  0.4090208E+000  0.1753819E+03  0.7546771E-02  0.1172349E+00
         21   -1    0    0  503  502  0.00000000000E+00  0.00000000000E+00  0.36809599873E+03  0.36809599873E+03  0.00000000000E+00 0. -1.
         21   -1    0    0  501  503 -0.00000000000E+00 -0.00000000000E+00 -0.10682804310E+03  0.10682804310E+03  0.00000000000E+00 0. -1.
          6    1    1    2  501    0 -0.28802552175E+02  0.46009389249E+00  0.19815091910E+02  0.17649769564E+03  0.17300000000E+03 0. -1.
         -6    1    1    2    0  502  0.28802552175E+02 -0.46009389249E+00  0.24145286372E+03  0.29842634619E+03  0.17300000000E+03 0. -1.
<mgrwt>
<rscale>  2 0.17538187E+03</rscale>
<asrwt>0</asrwt>
<pdfrwt beam="1">  1       21 0.56630153E-01 0.17538187E+03</pdfrwt>
<pdfrwt beam="2">  1       21 0.16435084E-01 0.17538187E+03</pdfrwt>
<totfact> 0.97977274E+04</totfact>
</mgrwt>
</event>
<event>
 4    1  0.4090208E+000  0.1843778E+03  0.7546771E-02  0.1163632E+00
         21   -1    0    0  503  502  0.00000000000E+00  0.00000000000E+00  0.25298856049E+03  0.25298856049E+03  0.00000000000E+00 0. -1.
         21   -1    0    0  501  503 -0.00000000000E+00 -0.00000000000E+00 -0.25173367695E+03  0.25173367695E+03  0.00000000000E+00 0. -1.
          6    1    1    2  501    0  0.60587172348E+02  0.19883541240E+02 -0.17168263754E+03  0.25193270668E+03  0.17300000000E+03 0. -1.
         -6    1    1    2    0  502 -0.60587172348E+02 -0.19883541240E+02  0.17293752107E+03  0.25278953076E+03  0.17300000000E+03 0. -1.
<mgrwt>
<rscale>  2 0.18437777E+03</rscale>
<asrwt>0</asrwt>
<pdfrwt beam="1">  1       21 0.38921317E-01 0.18437777E+03</pdfrwt>
<pdfrwt beam="2">  1       21 0.38728258E-01 0.18437777E+03</pdfrwt>
<totfact> 0.41085799E+04</totfact>
</mgrwt>
</event>
<event>
 4    1  0.4090208E+000  0.2410391E+03  0.7546771E-02  0.1119103E+00
         21   -1    0    0  503  502  0.00000000000E+00  0.00000000000E+00  0.11140609884E+03  0.11140609884E+03  0.00000000000E+00 0. -1.
         21   -1    0    0  501  503 -0.00000000000E+00 -0.00000000000E+00 -0.81325582369E+03  0.81325582369E+03  0.00000000000E+00 0. -1.
          6    1    1    2  501    0  0.34965773757E+02 -0.16415918472E+03 -0.62783490961E+03  0.67251506823E+03  0.17300000000E+03 0. -1.
         -6    1    1    2    0  502 -0.34965773757E+02  0.16415918472E+03 -0.74014815232E+02  0.25214685430E+03  0.17300000000E+03 0. -1.
<mgrwt>
<rscale>  2 0.24103909E+03</rscale>
<asrwt>0</asrwt>
<pdfrwt beam="1">  1       21 0.17139400E-01 0.24103909E+03</pdfrwt>
<pdfrwt beam="2">  1       21 0.12511628E+00 0.24103909E+03</pdfrwt>
<totfact> 0.14184647E+04</totfact>
</mgrwt>
</event>
<event>
 4    1  0.4090208E+000  0.2672381E+03  0.7546771E-02  0.1102871E+00
         21   -1    0    0  501  502  0.00000000000E+00  0.00000000000E+00  0.68512693916E+02  0.68512693916E+02  0.00000000000E+00 0.  1.
         21   -1    0    0  502  503 -0.00000000000E+00 -0.00000000000E+00 -0.10628314534E+04  0.10628314534E+04  0.00000000000E+00 0. -1.
          6    1    1    2  501    0  0.16808455942E+03  0.11504258624E+03 -0.41868971902E+03  0.49670644910E+03  0.17300000000E+03 0.  1.
         -6    1    1    2    0  503 -0.16808455942E+03 -0.11504258624E+03 -0.57562904043E+03  0.63463769818E+03  0.17300000000E+03 0.  1.
<mgrwt>
<rscale>  2 0.26723813E+03</rscale>
<asrwt>0</asrwt>
<pdfrwt beam="1">  1       21 0.10540414E-01 0.26723813E+03</pdfrwt>
<pdfrwt beam="2">  1       21 0.16351253E+00 0.26723813E+03</pdfrwt>
<totfact> 0.16746766E+04</totfact>
</mgrwt>
</event>
<event>
 4    1  0.4090208E+000  0.1932322E+03  0.7546771E-02  0.1155578E+00
         21   -1    0    0  501  502  0.00000000000E+00  0.00000000000E+00  0.52863509587E+03  0.52863509587E+03  0.00000000000E+00 0. -1.
         21   -1    0    0  502  503 -0.00000000000E+00 -0.00000000000E+00 -0.95588211865E+02  0.95588211865E+02  0.00000000000E+00 0. -1.
          6    1    1    2  501    0 -0.51042208769E+02 -0.69313579494E+02  0.37599935091E+03  0.42274601272E+03  0.17300000000E+03 0. -1.
         -6    1    1    2    0  503  0.51042208769E+02  0.69313579494E+02  0.57047533095E+02  0.20147729502E+03  0.17300000000E+03 0. -1.
<mgrwt>
<rscale>  2 0.19323219E+03</rscale>
<asrwt>0</asrwt>
<pdfrwt beam="1">  1       21 0.81328474E-01 0.19323219E+03</pdfrwt>
<pdfrwt beam="2">  1       21 0.14705879E-01 0.19323219E+03</pdfrwt>
<totfact> 0.53873806E+04</totfact>
</mgrwt>
</event>
<event>
 4    1  0.4090208E+000  0.1764956E+03  0.7546771E-02  0.1171238E+00
         21   -1    0    0  503  502  0.00000000000E+00  0.00000000000E+00  0.79399519296E+02  0.79399519296E+02  0.00000000000E+00 0.  1.
         21   -1    0    0  501  503 -0.00000000000E+00 -0.00000000000E+00 -0.19154598182E+04  0.19154598182E+04  0.00000000000E+00 0.  1.
          6    1    1    2  501    0  0.27797154667E+02 -0.21189818347E+02 -0.18074656111E+04  0.18160623958E+04  0.17300000000E+03 0.  1.
         -6    1    1    2    0  502 -0.27797154667E+02  0.21189818347E+02 -0.28594687896E+02  0.17879694177E+03  0.17300000000E+03 0.  1.
<mgrwt>
<rscale>  2 0.17649558E+03</rscale>
<asrwt>0</asrwt>
<pdfrwt beam="1">  1       21 0.12215312E-01 0.17649558E+03</pdfrwt>
<pdfrwt beam="2">  1       21 0.29468610E+00 0.17649558E+03</pdfrwt>
<totfact> 0.21262488E+03</totfact>
</mgrwt>
</event>
<event>
 4    1  0.4090208E+000  0.3788141E+03  0.7546771E-02  0.1051373E+00
         21   -1    0    0  501  502  0.00000000000E+00  0.00000000000E+00  0.56298005863E+03  0.56298005863E+03  0.00000000000E+00 0.  1.
         21   -1    0    0  502  503 -0.00000000000E+00 -0.00000000000E+00 -0.54558331738E+03  0.54558331738E+03  0.00000000000E+00 0. -1.
          6    1    1    2  501    0  0.23807993575E+03  0.23851421791E+03 -0.39589123993E+03  0.54793244274E+03  0.17300000000E+03 0. -1.
         -6    1    1    2    0  503 -0.23807993575E+03 -0.23851421791E+03  0.41328798119E+03  0.56063093327E+03  0.17300000000E+03 0.  1.
<mgrwt>
<rscale>  2 0.37881405E+03</rscale>
<asrwt>0</asrwt>
<pdfrwt beam="1">  1       21 0.86612317E-01 0.37881405E+03</pdfrwt>
<pdfrwt beam="2">  1       21 0.83935895E-01 0.37881405E+03</pdfrwt>
<totfact> 0.12473501E+03</totfact>
</mgrwt>
</event>
<event>
 4    1  0.4090208E+000  0.2266428E+03  0.7546771E-02  0.1129025E+00
         21   -1    0    0  501  502  0.00000000000E+00  0.00000000000E+00  0.65281960758E+02  0.65281960758E+02  0.00000000000E+00 0.  1.
         21   -1    0    0  502  503 -0.00000000000E+00 -0.00000000000E+00 -0.85978206195E+03  0.85978206195E+03  0.00000000000E+00 0. -1.
          6    1    1    2  501    0 -0.14453470522E+03  0.23402583009E+02 -0.26253576789E+03  0.34683135863E+03  0.17300000000E+03 0.  1.
         -6    1    1    2    0  503  0.14453470522E+03 -0.23402583009E+02 -0.53196433330E+03  0.57823266408E+03  0.17300000000E+03 0. -1.
<mgrwt>
<rscale>  2 0.22664281E+03</rscale>
<asrwt>0</asrwt>
<pdfrwt beam="1">  1       21 0.10043378E-01 0.22664281E+03</pdfrwt>
<pdfrwt beam="2">  1       21 0.13227417E+00 0.22664281E+03</pdfrwt>
<totfact> 0.32676891E+04</totfact>
</mgrwt>
</event>
<event>
 4    1  0.4090208E+000  0.1733276E+03  0.7546771E-02  0.1174422E+00
         21   -1    0    0  503  502  0.00000000000E+00  0.00000000000E+00  0.13885261772E+03  0.13885261772E+03  0.00000000000E+00 0.  1.
         21   -1    0    0  501  503 -0.00000000000E+00 -0.00000000000E+00 -0.27403036335E+03  0.27403036335E+03  0.00000000000E+00 0.  1.
          6    1    1    2  501    0  0.98066326693E+01 -0.41556894851E+01 -0.16229240824E+03  0.23744739538E+03  0.17300000000E+03 0.  1.
         -6    1    1    2    0  502 -0.98066326693E+01  0.41556894851E+01  0.27114662611E+02  0.17543558569E+03  0.17300000000E+03 0.  1.
<mgrwt>
<rscale>  2 0.17332755E+03</rscale>
<asrwt>0</asrwt>
<pdfrwt beam="1">  1       21 0.21361941E-01 0.17332755E+03</pdfrwt>
<pdfrwt beam="2">  1       21 0.42158517E-01 0.17332755E+03</pdfrwt>
<totfact> 0.11125872E+05</totfact>
</mgrwt>
</event>
<event>
 4    1  0.4090208E+000  0.1939114E+03  0.7546771E-02  0.1154980E+00
         21   -1    0    0  501  502  0.00000000000E+00  0.00000000000E+00  0.70867905672E+03  0.70867905672E+03  0.00000000000E+00 0. -1.
         21   -1    0    0  502  503 -0.00000000000E+00 -0.00000000000E+00 -0.17725979858E+03  0.17725979858E+03  0.00000000000E+00 0. -1.
          6    1    1    2  501    0  0.87579538842E+02 -0.15717011791E+01  0.63650235640E+03  0.66538477257E+03  0.17300000000E+03 0. -1.
         -6    1    1    2    0  503 -0.87579538842E+02  0.15717011791E+01 -0.10508309826E+03  0.22055408273E+03  0.17300000000E+03 0. -1.
<mgrwt>
<rscale>  2 0.19391144E+03</rscale>
<asrwt>0</asrwt>
<pdfrwt beam="1">  1       21 0.10902755E+00 0.19391144E+03</pdfrwt>
<pdfrwt beam="2">  1       21 0.27270739E-01 0.19391144E+03</pdfrwt>
<totfact> 0.85474210E+03</totfact>
</mgrwt>
</event>
<event>
 4    1  0.4090208E+000  0.2012005E+03  0.7546771E-02  0.1148730E+00
         21   -1    0    0  501  502  0.00000000000E+00  0.00000000000E+00  0.16953309105E+03  0.16953309105E+03  0.00000000000E+00 0. -1.
         21   -1    0    0  502  503 -0.00000000000E+00 -0.00000000000E+00 -0.77838395887E+03  0.77838395887E+03  0.00000000000E+00 0. -1.
          6    1    1    2  501    0 -0.33602730004E+00 -0.10272553085E+03  0.90195110688E+02  0.22049218942E+03  0.17300000000E+03 0. -1.
         -6    1    1    2    0  503  0.33602730004E+00  0.10272553085E+03 -0.69904597851E+03  0.72742486050E+03  0.17300000000E+03 0. -1.
<mgrwt>
<rscale>  2 0.20120052E+03</rscale>
<asrwt>0</asrwt>
<pdfrwt beam="1">  1       21 0.26082014E-01 0.20120052E+03</pdfrwt>
<pdfrwt beam="2">  1       21 0.11975138E+00 0.20120052E+03</pdfrwt>
<totfact> 0.73661920E+03</totfact>
</mgrwt>
</event>
<event>
 4    1  0.4090208E+000  0.2139455E+03  0.7546771E-02  0.1138479E+00
         21   -1    0    0  501  502  0.00000000000E+00  0.00000000000E+00  0.28193732987E+03  0.28193732987E+03  0.00000000000E+00 0.  1.
         21   -1    0    0  502  503 -0.00000000000E+00 -0.00000000000E+00 -0.17829752362E+03  0.17829752362E+03  0.00000000000E+00 0. -1.
          6    1    1    2  501    0 -0.41866517444E+02 -0.11870496239E+03  0.12064016779E+03  0.24561499031E+03  0.17300000000E+03 0.  1.
         -6    1    1    2    0  503  0.41866517444E+02  0.11870496239E+03 -0.17000361539E+02  0.21461986318E+03  0.17300000000E+03 0. -1.
<mgrwt>
<rscale>  2 0.21394549E+03</rscale>
<asrwt>0</asrwt>
<pdfrwt beam="1">  1       21 0.43374974E-01 0.21394549E+03</pdfrwt>
<pdfrwt beam="2">  1       21 0.27430388E-01 0.21394549E+03</pdfrwt>
<totfact> 0.64154961E+04</totfact>
</mgrwt>
</event>
<event>
 4    1  0.4090208E+000  0.1999433E+03  0.7546771E-02  0.1149787E+00
         21   -1    0    0  503  502  0.00000000000E+00  0.00000000000E+00  0.23243746042E+03  0.23243746042E+03  0.00000000000E+00 0.  1.
         21   -1    0    0  501  503 -0.00000000000E+00 -0.00000000000E+00 -0.21415826918E+03  0.21415826918E+03  0.00000000000E+00 0. -1.
          6    1    1    2  501    0  0.89466345394E+02  0.45211660810E+02 -0.89943854056E+02  0.21924237299E+03  0.17300000000E+03 0.  1.
         -6    1    1    2    0  502 -0.89466345394E+02 -0.45211660810E+02  0.10822304529E+03  0.22735335661E+03  0.17300000000E+03 0.  1.
<mgrwt>
<rscale>  2 0.19994330E+03</rscale>
<asrwt>0</asrwt>
<pdfrwt beam="1">  1       21 0.35759610E-01 0.19994330E+03</pdfrwt>
<pdfrwt beam="2">  1       21 0.32947426E-01 0.19994330E+03</pdfrwt>
<totfact> 0.66653531E+04</totfact>
</mgrwt>
</event>
<event>
 4    1  0.4090208E+000  0.1734461E+03  0.7546771E-02  0.1174301E+00
         21   -1    0    0  503  502  0.00000000000E+00  0.00000000000E+00  0.25069081256E+03  0.25069081256E+03  0.00000000000E+00 0. -1.
         21   -1    0    0  501  503 -0.00000000000E+00 -0.00000000000E+00 -0.12411184263E+03  0.12411184263E+03  0.00000000000E+00 0. -1.
          6    1    1    2  501    0 -0.11927442166E+02 -0.35026974368E+01  0.29189795059E+02  0.17588512416E+03  0.17300000000E+03 0. -1.
         -6    1    1    2    0  502  0.11927442166E+02  0.35026974368E+01  0.97389174872E+02  0.19891753102E+03  0.17300000000E+03 0. -1.
<mgrwt>
<rscale>  2 0.17344605E+03</rscale>
<asrwt>0</asrwt>
<pdfrwt beam="1">  1       21 0.38567817E-01 0.17344605E+03</pdfrwt>
<pdfrwt beam="2">  1       21 0.19094130E-01 0.17344605E+03</pdfrwt>
<totfact> 0.16412939E+05</totfact>
</mgrwt>
</event>
<event>
 4    1  0.4090208E+000  0.1791431E+03  0.7546771E-02  0.1168635E+00
         21   -1    0    0  503  502  0.00000000000E+00  0.00000000000E+00  0.52512060222E+03  0.52512060222E+03  0.00000000000E+00 0. -1.
         21   -1    0    0  501  503 -0.00000000000E+00 -0.00000000000E+00 -0.80137593473E+02  0.80137593473E+02  0.00000000000E+00 0. -1.
          6    1    1    2  501    0  0.42806004319E+02  0.18190863027E+02  0.75043831818E+02  0.19422625517E+03  0.17300000000E+03 0. -1.
         -6    1    1    2    0  502 -0.42806004319E+02 -0.18190863027E+02  0.36993917693E+03  0.41103194053E+03  0.17300000000E+03 0. -1.
<mgrwt>
<rscale>  2 0.17914313E+03</rscale>
<asrwt>0</asrwt>
<pdfrwt beam="1">  1       21 0.80787783E-01 0.17914313E+03</pdfrwt>
<pdfrwt beam="2">  1       21 0.12328861E-01 0.17914313E+03</pdfrwt>
<totfact> 0.75647635E+04</totfact>
</mgrwt>
</event>
<event>
 4    1  0.4090208E+000  0.1915169E+03  0.7546771E-02  0.1157100E+00
         21   -1    0    0  501  502  0.00000000000E+00  0.00000000000E+00  0.76590385892E+02  0.76590385892E+02  0.00000000000E+00 0.  1.
         21   -1    0    0  502  503 -0.00000000000E+00 -0.00000000000E+00 -0.53162448441E+03  0.53162448441E+03  0.00000000000E+00 0. -1.
          6    1    1    2  501    0 -0.10769089242E+02  0.81447726994E+02 -0.13174167479E+03  0.23245338112E+03  0.17300000000E+03 0. -1.
         -6    1    1    2    0  503  0.10769089242E+02 -0.81447726994E+02 -0.32329242372E+03  0.37576148918E+03  0.17300000000E+03 0.  1.
<mgrwt>
<rscale>  2 0.19151685E+03</rscale>
<asrwt>0</asrwt>
<pdfrwt beam="1">  1       21 0.11783136E-01 0.19151685E+03</pdfrwt>
<pdfrwt beam="2">  1       21 0.81788385E-01 0.19151685E+03</pdfrwt>
<totfact> 0.79352246E+04</totfact>
</mgrwt>
</event>
<event>
 4    1  0.4090208E+000  0.2046287E+03  0.7546771E-02  0.1145892E+00
         21   -1    0    0  503  502  0.00000000000E+00  0.00000000000E+00  0.15361266497E+03  0.15361266497E+03  0.00000000000E+00 0.  1.
         21   -1    0    0  501  503 -0.00000000000E+00 -0.00000000000E+00 -0.27260707654E+03  0.27260707654E+03  0.00000000000E+00 0. -1.
          6    1    1    2  501    0  0.63463833433E+02 -0.88973188460E+02 -0.57689498204E+02  0.21260518484E+03  0.17300000000E+03 0. -1.
         -6    1    1    2    0  502 -0.63463833433E+02  0.88973188460E+02 -0.61304913370E+02  0.21361455667E+03  0.17300000000E+03 0. -1.
<mgrwt>
<rscale>  2 0.20462865E+03</rscale>
<asrwt>0</asrwt>
<pdfrwt beam="1">  1       21 0.23632718E-01 0.20462865E+03</pdfrwt>
<pdfrwt beam="2">  1       21 0.41939550E-01 0.20462865E+03</pdfrwt>
<totfact> 0.91798087E+04</totfact>
</mgrwt>
</event>
<event>
 4    1  0.4090208E+000  0.1898931E+03  0.7546771E-02  0.1158558E+00
         21   -1    0    0  501  502  0.00000000000E+00  0.00000000000E+00  0.59148035585E+03  0.59148035585E+03  0.00000000000E+00 0. -1.
         21   -1    0    0  502  503 -0.00000000000E+00 -0.00000000000E+00 -0.64537673123E+02  0.64537673123E+02  0.00000000000E+00 0. -1.
          6    1    1    2  501    0 -0.16845648142E+02 -0.76463115487E+02  0.34065013117E+03  0.39000243045E+03  0.17300000000E+03 0. -1.
         -6    1    1    2    0  503  0.16845648142E+02  0.76463115487E+02  0.18629255155E+03  0.26601559852E+03  0.17300000000E+03 0. -1.
<mgrwt>
<rscale>  2 0.18989309E+03</rscale>
<asrwt>0</asrwt>
<pdfrwt beam="1">  1       21 0.90996974E-01 0.18989309E+03</pdfrwt>
<pdfrwt beam="2">  1       21 0.99288732E-02 0.18989309E+03</pdfrwt>
<totfact> 0.84255381E+04</totfact>
</mgrwt>
</event>
<event>
 4    1  0.4090208E+000  0.2006975E+03  0.7546771E-02  0.1149152E+00
         21   -1    0    0  501  502  0.00000000000E+00  0.00000000000E+00  0.40588294443E+03  0.40588294443E+03  0.00000000000E+00 0.  1.
         21   -1    0    0  502  503 -0.00000000000E+00 -0.00000000000E+00 -0.10011428681E+03  0.10011428681E+03  0.00000000000E+00 0.  1.
          6    1    1    2  501    0  0.51087395582E+02 -0.87980546232E+02  0.17653785020E+03  0.26729218293E+03  0.17300000000E+03 0.  1.
         -6    1    1    2    0  503 -0.51087395582E+02  0.87980546232E+02  0.12923080742E+03  0.23870504831E+03  0.17300000000E+03 0.  1.
<mgrwt>
<rscale>  2 0.20069753E+03</rscale>
<asrwt>0</asrwt>
<pdfrwt beam="1">  1       21 0.62443529E-01 0.20069753E+03</pdfrwt>
<pdfrwt beam="2">  1       21 0.15402198E-01 0.20069753E+03</pdfrwt>
<totfact> 0.88577345E+04</totfact>
</mgrwt>
</event>
<event>
 4    1  0.4090208E+000  0.2019348E+03  0.7546771E-02  0.1148117E+00
         21   -1    0    0  501  502  0.00000000000E+00  0.00000000000E+00  0.70266368104E+02  0.70266368104E+02  0.00000000000E+00 0. -1.
         21   -1    0    0  502  503 -0.00000000000E+00 -0.00000000000E+00 -0.58610664979E+03  0.58610664979E+03  0.00000000000E+00 0. -1.
          6    1    1    2  501    0 -0.10238449832E+03 -0.19133469451E+02 -0.29050184263E+03  0.35379230591E+03  0.17300000000E+03 0. -1.
         -6    1    1    2    0  503  0.10238449832E+03  0.19133469451E+02 -0.22533843906E+03  0.30258071199E+03  0.17300000000E+03 0. -1.
<mgrwt>
<rscale>  2 0.20193483E+03</rscale>
<asrwt>0</asrwt>
<pdfrwt beam="1">  1       21 0.10810210E-01 0.20193483E+03</pdfrwt>
<pdfrwt beam="2">  1       21 0.90170256E-01 0.20193483E+03</pdfrwt>
<totfact> 0.73621470E+04</totfact>
</mgrwt>
</event>
<event>
 4    1  0.4090208E+000  0.1920495E+03  0.7546771E-02  0.1156626E+00
         21   -1    0    0  501  502  0.00000000000E+00  0.00000000000E+00  0.11020869789E+03  0.11020869789E+03  0.00000000000E+00 0.  1.
         21   -1    0    0  502  503 -0.00000000000E+00 -0.00000000000E+00 -0.39875216449E+03  0.39875216449E+03  0.00000000000E+00 0.  1.
          6    1    1    2  501    0  0.53360535979E+02  0.64083334703E+02 -0.24629226263E+03  0.31231858609E+03  0.17300000000E+03 0.  1.
         -6    1    1    2    0  503 -0.53360535979E+02 -0.64083334703E+02 -0.42251203969E+02  0.19664227629E+03  0.17300000000E+03 0.  1.
<mgrwt>
<rscale>  2 0.19204953E+03</rscale>
<asrwt>0</asrwt>
<pdfrwt beam="1">  1       21 0.16955185E-01 0.19204953E+03</pdfrwt>
<pdfrwt beam="2">  1       21 0.61346486E-01 0.19204953E+03</pdfrwt>
<totfact> 0.77467623E+04</totfact>
</mgrwt>
</event>
<event>
 4    1  0.4090208E+000  0.2325934E+03  0.7546771E-02  0.1124828E+00
         21   -1    0    0  503  502  0.00000000000E+00  0.00000000000E+00  0.10812291997E+03  0.10812291997E+03  0.00000000000E+00 0. -1.
         21   -1    0    0  501  503 -0.00000000000E+00 -0.00000000000E+00 -0.50803693247E+03  0.50803693247E+03  0.00000000000E+00 0.  1.
          6    1    1    2  501    0  0.59477676176E+02 -0.14364219649E+03 -0.16206957240E+03  0.28348936642E+03  0.17300000000E+03 0.  1.
         -6    1    1    2    0  502 -0.59477676176E+02  0.14364219649E+03 -0.23784444011E+03  0.33267048602E+03  0.17300000000E+03 0. -1.
<mgrwt>
<rscale>  2 0.23259337E+03</rscale>
<asrwt>0</asrwt>
<pdfrwt beam="1">  1       21 0.16634295E-01 0.23259337E+03</pdfrwt>
<pdfrwt beam="2">  1       21 0.78159531E-01 0.23259337E+03</pdfrwt>
<totfact> 0.46167995E+04</totfact>
</mgrwt>
</event>
<event>
 4    1  0.4090208E+000  0.2528756E+03  0.7546771E-02  0.1111501E+00
         21   -1    0    0  503  502  0.00000000000E+00  0.00000000000E+00  0.38536372823E+02  0.38536372823E+02  0.00000000000E+00 0.  1.
         21   -1    0    0  501  503 -0.00000000000E+00 -0.00000000000E+00 -0.17746031431E+04  0.17746031431E+04  0.00000000000E+00 0. -1.
          6    1    1    2  501    0  0.15997119177E+03  0.91794701913E+02 -0.10990492605E+04  0.11277656345E+04  0.17300000000E+03 0. -1.
         -6    1    1    2    0  502 -0.15997119177E+03 -0.91794701913E+02 -0.63701750987E+03  0.68537388145E+03  0.17300000000E+03 0.  1.
<mgrwt>
<rscale>  2 0.25287556E+03</rscale>
<asrwt>0</asrwt>
<pdfrwt beam="1">  1       21 0.59286727E-02 0.25287556E+03</pdfrwt>
<pdfrwt beam="2">  1       21 0.27301587E+00 0.25287556E+03</pdfrwt>
<totfact> 0.93096013E+03</totfact>
</mgrwt>
</event>
<event>
 4    1  0.4090208E+000  0.1968176E+03  0.7546771E-02  0.1152452E+00
         21   -1    0    0  501  502  0.00000000000E+00  0.00000000000E+00  0.12100527039E+03  0.12100527039E+03  0.00000000000E+00 0. -1.
         21   -1    0    0  502  503 -0.00000000000E+00 -0.00000000000E+00 -0.44164518080E+03  0.44164518080E+03  0.00000000000E+00 0. -1.
          6    1    1    2  501    0 -0.80765097852E+02 -0.47803563316E+02 -0.12752470548E+02  0.19723034047E+03  0.17300000000E+03 0. -1.
         -6    1    1    2    0  503  0.80765097852E+02  0.47803563316E+02 -0.30788743986E+03  0.36542011072E+03  0.17300000000E+03 0. -1.
<mgrwt>
<rscale>  2 0.19681764E+03</rscale>
<asrwt>0</asrwt>
<pdfrwt beam="1">  1       21 0.18616195E-01 0.19681764E+03</pdfrwt>
<pdfrwt beam="2">  1       21 0.67945415E-01 0.19681764E+03</pdfrwt>
<totfact> 0.52082457E+04</totfact>
</mgrwt>
</event>
<event>
 4    1  0.4090208E+000  0.1846111E+03  0.7546771E-02  0.1163414E+00
         21   -1    0    0  501  502  0.00000000000E+00  0.00000000000E+00  0.11320433306E+04  0.11320433306E+04  0.00000000000E+00 0.  1.
         21   -1    0    0  502  503 -0.00000000000E+00 -0.00000000000E+00 -0.67725903115E+02  0.67725903115E+02  0.00000000000E+00 0.  1.
          6    1    1    2  501    0 -0.47687615897E+01  0.64261365226E+02  0.97925321041E+03  0.99650294241E+03  0.17300000000E+03 0.  1.
         -6    1    1    2    0  503  0.47687615897E+01 -0.64261365226E+02  0.85064217059E+02  0.20326629128E+03  0.17300000000E+03 0.  1.
<mgrwt>
<rscale>  2 0.18461112E+03</rscale>
<asrwt>0</asrwt>
<pdfrwt beam="1">  1       21 0.17416050E+00 0.18461112E+03</pdfrwt>
<pdfrwt beam="2">  1       21 0.10419371E-01 0.18461112E+03</pdfrwt>
<totfact> 0.15150764E+04</totfact>
</mgrwt>
</event>
<event>
 4    1  0.4090208E+000  0.2483735E+03  0.7546771E-02  0.1114337E+00
         21   -1    0    0  501  502  0.00000000000E+00  0.00000000000E+00  0.13277169607E+04  0.13277169607E+04  0.00000000000E+00 0.  1.
         21   -1    0    0  502  503 -0.00000000000E+00 -0.00000000000E+00 -0.49255143181E+02  0.49255143181E+02  0.00000000000E+00 0.  1.
          6    1    1    2  501    0 -0.86437629867E+01 -0.17800476521E+03  0.80315994629E+03  0.84068740350E+03  0.17300000000E+03 0.  1.
         -6    1    1    2    0  503  0.86437629867E+01  0.17800476521E+03  0.47530187126E+03  0.53628470042E+03  0.17300000000E+03 0.  1.
<mgrwt>
<rscale>  2 0.24837353E+03</rscale>
<asrwt>0</asrwt>
<pdfrwt beam="1">  1       21 0.20426412E+00 0.24837353E+03</pdfrwt>
<pdfrwt beam="2">  1       21 0.75777153E-02 0.24837353E+03</pdfrwt>
<totfact> 0.15976631E+04</totfact>
</mgrwt>
</event>
<event>
 4    1  0.4090208E+000  0.1835239E+03  0.7546771E-02  0.1164436E+00
         21   -1    0    0  501  502  0.00000000000E+00  0.00000000000E+00  0.10498557616E+03  0.10498557616E+03  0.00000000000E+00 0. -1.
         21   -1    0    0  502  503 -0.00000000000E+00 -0.00000000000E+00 -0.42782602136E+03  0.42782602136E+03  0.00000000000E+00 0. -1.
          6    1    1    2  501    0  0.60571933405E+02  0.91129676799E+01 -0.28183722636E+02  0.18567532824E+03  0.17300000000E+03 0. -1.
         -6    1    1    2    0  503 -0.60571933405E+02 -0.91129676799E+01 -0.29465672256E+03  0.34713626927E+03  0.17300000000E+03 0. -1.
<mgrwt>
<rscale>  2 0.18352385E+03</rscale>
<asrwt>0</asrwt>
<pdfrwt beam="1">  1       21 0.16151627E-01 0.18352385E+03</pdfrwt>
<pdfrwt beam="2">  1       21 0.65819387E-01 0.18352385E+03</pdfrwt>
<totfact> 0.72964894E+04</totfact>
</mgrwt>
</event>
<event>
 4    1  0.4090208E+000  0.1842907E+03  0.7546771E-02  0.1163714E+00
         21   -1    0    0  503  502  0.00000000000E+00  0.00000000000E+00  0.20124009050E+03  0.20124009050E+03  0.00000000000E+00 0. -1.
         21   -1    0    0  501  503 -0.00000000000E+00 -0.00000000000E+00 -0.22982657029E+03  0.22982657029E+03  0.00000000000E+00 0.  1.
          6    1    1    2  501    0  0.63259653143E+02 -0.56822619863E+01 -0.12538564811E+03  0.22290049926E+03  0.17300000000E+03 0.  1.
         -6    1    1    2    0  502 -0.63259653143E+02  0.56822619863E+01  0.96799168320E+02  0.20816616153E+03  0.17300000000E+03 0. -1.
<mgrwt>
<rscale>  2 0.18429073E+03</rscale>
<asrwt>0</asrwt>
<pdfrwt beam="1">  1       21 0.30960014E-01 0.18429073E+03</pdfrwt>
<pdfrwt beam="2">  1       21 0.35357934E-01 0.18429073E+03</pdfrwt>
<totfact> 0.77542117E+04</totfact>
</mgrwt>
</event>
<event>
 4    1  0.4090208E+000  0.1839437E+03  0.7546771E-02  0.1164040E+00
         21   -1    0    0  503  502  0.00000000000E+00  0.00000000000E+00  0.45226275373E+03  0.45226275373E+03  0.00000000000E+00 0. -1.
         21   -1    0    0  501  503 -0.00000000000E+00 -0.00000000000E+00 -0.95584401139E+02  0.95584401139E+02  0.00000000000E+00 0. -1.
          6    1    1    2  501    0  0.48202166317E+02  0.39784823657E+02  0.50646677131E+02  0.19078880191E+03  0.17300000000E+03 0. -1.
         -6    1    1    2    0  502 -0.48202166317E+02 -0.39784823657E+02  0.30603167546E+03  0.35705835295E+03  0.17300000000E+03 0. -1.
<mgrwt>
<rscale>  2 0.18394369E+03</rscale>
<asrwt>0</asrwt>
<pdfrwt beam="1">  1       21 0.69578884E-01 0.18394369E+03</pdfrwt>
<pdfrwt beam="2">  1       21 0.14705293E-01 0.18394369E+03</pdfrwt>
<totfact> 0.76647351E+04</totfact>
</mgrwt>
</event>
<event>
 4    1  0.4090208E+000  0.2054019E+03  0.7546771E-02  0.1145260E+00
         21   -1    0    0  501  502  0.00000000000E+00  0.00000000000E+00  0.19293457167E+03  0.19293457167E+03  0.00000000000E+00 0.  1.
         21   -1    0    0  502  503 -0.00000000000E+00 -0.00000000000E+00 -0.21942295845E+03  0.21942295845E+03  0.00000000000E+00 0.  1.
          6    1    1    2  501    0  0.19103750833E+02 -0.10906872780E+03 -0.12054284950E+01  0.20540543746E+03  0.17300000000E+03 0.  1.
         -6    1    1    2    0  503 -0.19103750833E+02  0.10906872780E+03 -0.25282958281E+02  0.20695209267E+03  0.17300000000E+03 0.  1.
<mgrwt>
<rscale>  2 0.20540190E+03</rscale>
<asrwt>0</asrwt>
<pdfrwt beam="1">  1       21 0.29682242E-01 0.20540190E+03</pdfrwt>
<pdfrwt beam="2">  1       21 0.33757378E-01 0.20540190E+03</pdfrwt>
<totfact> 0.91486978E+04</totfact>
</mgrwt>
</event>
<event>
 4    1  0.4090208E+000  0.1868461E+03  0.7546771E-02  0.1161337E+00
         21   -1    0    0  501  502  0.00000000000E+00  0.00000000000E+00  0.44490998902E+03  0.44490998902E+03  0.00000000000E+00 0. -1.
         21   -1    0    0  502  503 -0.00000000000E+00 -0.00000000000E+00 -0.78581816317E+02  0.78581816317E+02  0.00000000000E+00 0. -1.
          6    1    1    2  501    0  0.35193544586E+02  0.61187304143E+02  0.19309844251E+03  0.26869774891E+03  0.17300000000E+03 0. -1.
         -6    1    1    2    0  503 -0.35193544586E+02 -0.61187304143E+02  0.17322973019E+03  0.25479405643E+03  0.17300000000E+03 0. -1.
<mgrwt>
<rscale>  2 0.18684612E+03</rscale>
<asrwt>0</asrwt>
<pdfrwt beam="1">  1       21 0.68447689E-01 0.18684612E+03</pdfrwt>
<pdfrwt beam="2">  1       21 0.12089511E-01 0.18684612E+03</pdfrwt>
<totfact> 0.11296621E+05</totfact>
</mgrwt>
</event>
<event>
 4    1  0.4090208E+000  0.2440257E+03  0.7546771E-02  0.1117140E+00
         21   -1    0    0  503  502  0.00000000000E+00  0.00000000000E+00  0.17113190945E+03  0.17113190945E+03  0.00000000000E+00 0.  1.
         21   -1    0    0  501  503 -0.00000000000E+00 -0.00000000000E+00 -0.36257024395E+03  0.36257024395E+03  0.00000000000E+00 0.  1.
          6    1    1    2  501    0 -0.16456034817E+03 -0.50392664470E+02 -0.42167383443E+02  0.24764211485E+03  0.17300000000E+03 0.  1.
         -6    1    1    2    0  502  0.16456034817E+03  0.50392664470E+02 -0.14927095105E+03  0.28606003854E+03  0.17300000000E+03 0.  1.
<mgrwt>
<rscale>  2 0.24402567E+03</rscale>
<asrwt>0</asrwt>
<pdfrwt beam="1">  1       21 0.26327986E-01 0.24402567E+03</pdfrwt>
<pdfrwt beam="2">  1       21 0.55780037E-01 0.24402567E+03</pdfrwt>
<totfact> 0.40530783E+04</totfact>
</mgrwt>
</event>
<event>
 4    1  0.4090208E+000  0.1772274E+03  0.7546771E-02  0.1170514E+00
         21   -1    0    0  503  502  0.00000000000E+00  0.00000000000E+00  0.15966120765E+03  0.15966120765E+03  0.00000000000E+00 0. -1.
         21   -1    0    0  501  503 -0.00000000000E+00 -0.00000000000E+00 -0.24377136538E+03  0.24377136538E+03  0.00000000000E+00 0. -1.
          6    1    1    2  501    0  0.20417356964E+02  0.32614236161E+02 -0.13066997012E+03  0.22019127584E+03  0.17300000000E+03 0. -1.
         -6    1    1    2    0  502 -0.20417356964E+02 -0.32614236161E+02  0.46559812391E+02  0.18324129719E+03  0.17300000000E+03 0. -1.
<mgrwt>
<rscale>  2 0.17722742E+03</rscale>
<asrwt>0</asrwt>
<pdfrwt beam="1">  1       21 0.24563263E-01 0.17722742E+03</pdfrwt>
<pdfrwt beam="2">  1       21 0.37503287E-01 0.17722742E+03</pdfrwt>
<totfact> 0.10802264E+05</totfact>
</mgrwt>
</event>
<event>
 4    1  0.4090208E+000  0.1882475E+03  0.7546771E-02  0.1160052E+00
         21   -1    0    0  501  502  0.00000000000E+00  0.00000000000E+00  0.68492621553E+03  0.68492621553E+03  0.00000000000E+00 0. -1.
         21   -1    0    0  502  503 -0.00000000000E+00 -0.00000000000E+00 -0.87703288096E+02  0.87703288096E+02  0.00000000000E+00 0. -1.
          6    1    1    2  501    0  0.68910730867E+02 -0.27557923802E+02  0.54599538199E+03  0.57753621977E+03  0.17300000000E+03 0. -1.
         -6    1    1    2    0  503 -0.68910730867E+02  0.27557923802E+02  0.51227545442E+02  0.19509328385E+03  0.17300000000E+03 0. -1.
<mgrwt>
<rscale>  2 0.18824752E+03</rscale>
<asrwt>0</asrwt>
<pdfrwt beam="1">  1       21 0.10537326E+00 0.18824752E+03</pdfrwt>
<pdfrwt beam="2">  1       21 0.13492814E-01 0.18824752E+03</pdfrwt>
<totfact> 0.34516511E+04</totfact>
</mgrwt>
</event>
<event>
 4    1  0.4090208E+000  0.2644633E+03  0.7546771E-02  0.1104491E+00
         21   -1    0    0  503  502  0.00000000000E+00  0.00000000000E+00  0.47151507595E+03  0.47151507595E+03  0.00000000000E+00 0. -1.
         21   -1    0    0  501  503 -0.00000000000E+00 -0.00000000000E+00 -0.17583655742E+03  0.17583655742E+03  0.00000000000E+00 0. -1.
          6    1    1    2  501    0 -0.12496341760E+03  0.15619209395E+03  0.19825358600E+02  0.26520533704E+03  0.17300000000E+03 0. -1.
         -6    1    1    2    0  502  0.12496341760E+03 -0.15619209395E+03  0.27585315994E+03  0.38214629633E+03  0.17300000000E+03 0. -1.
<mgrwt>
<rscale>  2 0.26446328E+03</rscale>
<asrwt>0</asrwt>
<pdfrwt beam="1">  1       21 0.72540780E-01 0.26446328E+03</pdfrwt>
<pdfrwt beam="2">  1       21 0.27051778E-01 0.26446328E+03</pdfrwt>
<totfact> 0.21471216E+04</totfact>
</mgrwt>
</event>
<event>
 4    1  0.4090208E+000  0.2292949E+03  0.7546771E-02  0.1127137E+00
         21   -1    0    0  503  502  0.00000000000E+00  0.00000000000E+00  0.19042208124E+03  0.19042208124E+03  0.00000000000E+00 0.  1.
         21   -1    0    0  501  503 -0.00000000000E+00 -0.00000000000E+00 -0.36592964537E+03  0.36592964537E+03  0.00000000000E+00 0.  1.
          6    1    1    2  501    0 -0.77194947345E+02 -0.12918237959E+03 -0.22557711244E+03  0.32165382129E+03  0.17300000000E+03 0.  1.
         -6    1    1    2    0  502  0.77194947345E+02  0.12918237959E+03  0.50069548313E+02  0.23469790532E+03  0.17300000000E+03 0.  1.
<mgrwt>
<rscale>  2 0.22929489E+03</rscale>
<asrwt>0</asrwt>
<pdfrwt beam="1">  1       21 0.29295705E-01 0.22929489E+03</pdfrwt>
<pdfrwt beam="2">  1       21 0.56296867E-01 0.22929489E+03</pdfrwt>
<totfact> 0.32513559E+04</totfact>
</mgrwt>
</event>
<event>
 4    1  0.4090208E+000  0.1759285E+03  0.7546771E-02  0.1171803E+00
         21   -1    0    0  501  502  0.00000000000E+00  0.00000000000E+00  0.14763970096E+03  0.14763970096E+03  0.00000000000E+00 0.  1.
         21   -1    0    0  502  503 -0.00000000000E+00 -0.00000000000E+00 -0.30054726742E+03  0.30054726742E+03  0.00000000000E+00 0.  1.
          6    1    1    2  501    0 -0.31881946162E+02  0.23218045097E+01  0.46793570043E+02  0.18204528960E+03  0.17300000000E+03 0.  1.
         -6    1    1    2    0  503  0.31881946162E+02 -0.23218045097E+01 -0.19970113650E+03  0.26614167879E+03  0.17300000000E+03 0.  1.
<mgrwt>
<rscale>  2 0.17592853E+03</rscale>
<asrwt>0</asrwt>
<pdfrwt beam="1">  1       21 0.22713800E-01 0.17592853E+03</pdfrwt>
<pdfrwt beam="2">  1       21 0.46238041E-01 0.17592853E+03</pdfrwt>
<totfact> 0.81999446E+04</totfact>
</mgrwt>
</event>
<event>
 4    1  0.4090208E+000  0.1876524E+03  0.7546771E-02  0.1160596E+00
         21   -1    0    0  501  502  0.00000000000E+00  0.00000000000E+00  0.39276175033E+02  0.39276175033E+02  0.00000000000E+00 0. -1.
         21   -1    0    0  502  503 -0.00000000000E+00 -0.00000000000E+00 -0.16549670339E+04  0.16549670339E+04  0.00000000000E+00 0. -1.
          6    1    1    2  501    0 -0.16579640296E+02  0.70778008461E+02 -0.23438622658E+03  0.30025041909E+03  0.17300000000E+03 0. -1.
         -6    1    1    2    0  503  0.16579640296E+02 -0.70778008461E+02 -0.13813046323E+04  0.13939927899E+04  0.17300000000E+03 0. -1.
<mgrwt>
<rscale>  2 0.18765237E+03</rscale>
<asrwt>0</asrwt>
<pdfrwt beam="1">  1       21 0.60424894E-02 0.18765237E+03</pdfrwt>
<pdfrwt beam="2">  1       21 0.25461027E+00 0.18765237E+03</pdfrwt>
<totfact> 0.12229352E+04</totfact>
</mgrwt>
</event>
<event>
 4    1  0.4090208E+000  0.1867137E+03  0.7546771E-02  0.1161459E+00
         21   -1    0    0  503  502  0.00000000000E+00  0.00000000000E+00  0.12246856128E+03  0.12246856128E+03  0.00000000000E+00 0. -1.
         21   -1    0    0  501  503 -0.00000000000E+00 -0.00000000000E+00 -0.35908668346E+03  0.35908668346E+03  0.00000000000E+00 0.  1.
          6    1    1    2  501    0 -0.70805348136E+01  0.69877554622E+02 -0.22792615412E+03  0.29463933605E+03  0.17300000000E+03 0. -1.
         -6    1    1    2    0  502  0.70805348136E+01 -0.69877554622E+02 -0.86919680632E+01  0.18691590869E+03  0.17300000000E+03 0. -1.
<mgrwt>
<rscale>  2 0.18671370E+03</rscale>
<asrwt>0</asrwt>
<pdfrwt beam="1">  1       21 0.18841318E-01 0.18671370E+03</pdfrwt>
<pdfrwt beam="2">  1       21 0.55244104E-01 0.18671370E+03</pdfrwt>
<totfact> 0.79909436E+04</totfact>
</mgrwt>
</event>
<event>
 4    1  0.4090208E+000  0.1777931E+03  0.7546771E-02  0.1169956E+00
         21   -1    0    0  501  502  0.00000000000E+00  0.00000000000E+00  0.12633500312E+03  0.12633500312E+03  0.00000000000E+00 0.  1.
         21   -1    0    0  502  503 -0.00000000000E+00 -0.00000000000E+00 -0.30920197458E+03  0.30920197458E+03  0.00000000000E+00 0.  1.
          6    1    1    2  501    0 -0.36497394096E+02 -0.18690033031E+02 -0.18655255194E+03  0.25770570763E+03  0.17300000000E+03 0.  1.
         -6    1    1    2    0  503  0.36497394096E+02  0.18690033031E+02  0.36855804821E+01  0.17783127007E+03  0.17300000000E+03 0.  1.
<mgrwt>
<rscale>  2 0.17779307E+03</rscale>
<asrwt>0</asrwt>
<pdfrwt beam="1">  1       21 0.19436154E-01 0.17779307E+03</pdfrwt>
<pdfrwt beam="2">  1       21 0.47569535E-01 0.17779307E+03</pdfrwt>
<totfact> 0.10347011E+05</totfact>
</mgrwt>
</event>
<event>
 4    1  0.4090208E+000  0.2483049E+03  0.7546771E-02  0.1114381E+00
         21   -1    0    0  503  502  0.00000000000E+00  0.00000000000E+00  0.49939369331E+03  0.49939369331E+03  0.00000000000E+00 0. -1.
         21   -1    0    0  501  503 -0.00000000000E+00 -0.00000000000E+00 -0.13251497961E+03  0.13251497961E+03  0.00000000000E+00 0.  1.
          6    1    1    2  501    0 -0.61651815930E+02 -0.16710893531E+03  0.10084961714E+03  0.26800370883E+03  0.17300000000E+03 0.  1.
         -6    1    1    2    0  502  0.61651815930E+02  0.16710893531E+03  0.26602909656E+03  0.36390496409E+03  0.17300000000E+03 0. -1.
<mgrwt>
<rscale>  2 0.24830494E+03</rscale>
<asrwt>0</asrwt>
<pdfrwt beam="1">  1       21 0.76829798E-01 0.24830494E+03</pdfrwt>
<pdfrwt beam="2">  1       21 0.20386920E-01 0.24830494E+03</pdfrwt>
<totfact> 0.32627501E+04</totfact>
</mgrwt>
</event>
<event>
 4    1  0.4090208E+000  0.2463771E+03  0.7546771E-02  0.1115616E+00
         21   -1    0    0  503  502  0.00000000000E+00  0.00000000000E+00  0.43278869216E+03  0.43278869216E+03  0.00000000000E+00 0. -1.
         21   -1    0    0  501  503 -0.00000000000E+00 -0.00000000000E+00 -0.15736828586E+03  0.15736828586E+03  0.00000000000E+00 0. -1.
          6    1    1    2  501    0  0.10627995120E+03 -0.13956083285E+03  0.23501179812E+03  0.34048817799E+03  0.17300000000E+03 0. -1.
         -6    1    1    2    0  502 -0.10627995120E+03  0.13956083285E+03  0.40408608181E+02  0.24966880003E+03  0.17300000000E+03 0. -1.
<mgrwt>
<rscale>  2 0.24637706E+03</rscale>
<asrwt>0</asrwt>
<pdfrwt beam="1">  1       21 0.66582875E-01 0.24637706E+03</pdfrwt>
<pdfrwt beam="2">  1       21 0.24210506E-01 0.24637706E+03</pdfrwt>
<totfact> 0.32418226E+04</totfact>
</mgrwt>
</event>
<event>
 4    1  0.4090208E+000  0.2025024E+03  0.7546771E-02  0.1147645E+00
         21   -1    0    0  503  502  0.00000000000E+00  0.00000000000E+00  0.26263201113E+03  0.26263201113E+03  0.00000000000E+00 0. -1.
         21   -1    0    0  501  503 -0.00000000000E+00 -0.00000000000E+00 -0.29407169787E+03  0.29407169787E+03  0.00000000000E+00 0. -1.
          6    1    1    2  501    0  0.61164936627E+02 -0.85656803103E+02 -0.20635381411E+03  0.28911785484E+03  0.17300000000E+03 0. -1.
         -6    1    1    2    0  502 -0.61164936627E+02  0.85656803103E+02  0.17491412737E+03  0.26758585415E+03  0.17300000000E+03 0. -1.
<mgrwt>
<rscale>  2 0.20250244E+03</rscale>
<asrwt>0</asrwt>
<pdfrwt beam="1">  1       21 0.40404925E-01 0.20250244E+03</pdfrwt>
<pdfrwt beam="2">  1       21 0.45241800E-01 0.20250244E+03</pdfrwt>
<totfact> 0.27509137E+04</totfact>
</mgrwt>
</event>
<event>
 4    1  0.4090208E+000  0.2075632E+03  0.7546771E-02  0.1143510E+00
         21   -1    0    0  503  502  0.00000000000E+00  0.00000000000E+00  0.19381379446E+03  0.19381379446E+03  0.00000000000E+00 0. -1.
         21   -1    0    0  501  503 -0.00000000000E+00 -0.00000000000E+00 -0.50787855678E+03  0.50787855678E+03  0.00000000000E+00 0.  1.
          6    1    1    2  501    0  0.11464888363E+03  0.30158631865E+01 -0.42012508470E+03  0.46860169520E+03  0.17300000000E+03 0.  1.
         -6    1    1    2    0  502 -0.11464888363E+03 -0.30158631865E+01  0.10606032239E+03  0.23309065604E+03  0.17300000000E+03 0. -1.
<mgrwt>
<rscale>  2 0.20756315E+03</rscale>
<asrwt>0</asrwt>
<pdfrwt beam="1">  1       21 0.29817507E-01 0.20756315E+03</pdfrwt>
<pdfrwt beam="2">  1       21 0.78135162E-01 0.20756315E+03</pdfrwt>
<totfact> 0.15494141E+04</totfact>
</mgrwt>
</event>
<event>
 4    1  0.4090208E+000  0.2128821E+03  0.7546771E-02  0.1139304E+00
         21   -1    0    0  501  502  0.00000000000E+00  0.00000000000E+00  0.11478177790E+03  0.11478177790E+03  0.00000000000E+00 0.  1.
         21   -1    0    0  502  503 -0.00000000000E+00 -0.00000000000E+00 -0.48395369405E+03  0.48395369405E+03  0.00000000000E+00 0. -1.
          6    1    1    2  501    0 -0.34137438212E+02  0.11926612671E+03 -0.56113325252E+02  0.22015330781E+03  0.17300000000E+03 0.  1.
         -6    1    1    2    0  503  0.34137438212E+02 -0.11926612671E+03 -0.31305859089E+03  0.37858216414E+03  0.17300000000E+03 0. -1.
<mgrwt>
<rscale>  2 0.21288207E+03</rscale>
<asrwt>0</asrwt>
<pdfrwt beam="1">  1       21 0.17658735E-01 0.21288207E+03</pdfrwt>
<pdfrwt beam="2">  1       21 0.74454415E-01 0.21288207E+03</pdfrwt>
<totfact> 0.46533425E+04</totfact>
</mgrwt>
</event>
<event>
 4    1  0.4090208E+000  0.1731584E+03  0.7546771E-02  0.1174594E+00
         21   -1    0    0  501  502  0.00000000000E+00  0.00000000000E+00  0.66423286928E+03  0.66423286928E+03  0.00000000000E+00 0. -1.
         21   -1    0    0  502  503 -0.00000000000E+00 -0.00000000000E+00 -0.72147811325E+02  0.72147811325E+02  0.00000000000E+00 0. -1.
          6    1    1    2  501    0  0.46106615945E+00 -0.73903234118E+01  0.52131139615E+03  0.54931721365E+03  0.17300000000E+03 0. -1.
         -6    1    1    2    0  503 -0.46106615945E+00  0.73903234118E+01  0.70773661806E+02  0.18706346695E+03  0.17300000000E+03 0. -1.
<mgrwt>
<rscale>  2 0.17315839E+03</rscale>
<asrwt>0</asrwt>
<pdfrwt beam="1">  1       21 0.10218967E+00 0.17315839E+03</pdfrwt>
<pdfrwt beam="2">  1       21 0.11099664E-01 0.17315839E+03</pdfrwt>
<totfact> 0.53098524E+04</totfact>
</mgrwt>
</event>
<event>
 4    1  0.4090208E+000  0.1900191E+03  0.7546771E-02  0.1158444E+00
         21   -1    0    0  501  502  0.00000000000E+00  0.00000000000E+00  0.18586920202E+03  0.18586920202E+03  0.00000000000E+00 0. -1.
         21   -1    0    0  502  503 -0.00000000000E+00 -0.00000000000E+00 -0.39494059200E+03  0.39494059200E+03  0.00000000000E+00 0.  1.
          6    1    1    2  501    0 -0.76614671462E+02  0.17562884224E+02  0.10247315933E+03  0.21588888616E+03  0.17300000000E+03 0. -1.
         -6    1    1    2    0  503  0.76614671462E+02 -0.17562884224E+02 -0.31154454931E+03  0.36492090785E+03  0.17300000000E+03 0.  1.
<mgrwt>
<rscale>  2 0.19001911E+03</rscale>
<asrwt>0</asrwt>
<pdfrwt beam="1">  1       21 0.28595262E-01 0.19001911E+03</pdfrwt>
<pdfrwt beam="2">  1       21 0.60760091E-01 0.19001911E+03</pdfrwt>
<totfact> 0.29543558E+04</totfact>
</mgrwt>
</event>
<event>
 4    1  0.4090208E+000  0.1808994E+03  0.7546771E-02  0.1166935E+00
         21   -1    0    0  501  502  0.00000000000E+00  0.00000000000E+00  0.98062218648E+02  0.98062218648E+02  0.00000000000E+00 0.  1.
         21   -1    0    0  502  503 -0.00000000000E+00 -0.00000000000E+00 -0.34297638474E+03  0.34297638474E+03  0.00000000000E+00 0.  1.
          6    1    1    2  501    0  0.42884148421E+02  0.30927923539E+02 -0.86215143672E+02  0.20039370658E+03  0.17300000000E+03 0.  1.
         -6    1    1    2    0  503 -0.42884148421E+02 -0.30927923539E+02 -0.15869902242E+03  0.24064489680E+03  0.17300000000E+03 0.  1.
<mgrwt>
<rscale>  2 0.18089938E+03</rscale>
<asrwt>0</asrwt>
<pdfrwt beam="1">  1       21 0.15086495E-01 0.18089938E+03</pdfrwt>
<pdfrwt beam="2">  1       21 0.52765598E-01 0.18089938E+03</pdfrwt>
<totfact> 0.13268534E+05</totfact>
</mgrwt>
</event>
<event>
 4    1  0.4090208E+000  0.1745369E+03  0.7546771E-02  0.1173197E+00
         21   -1    0    0  503  502  0.00000000000E+00  0.00000000000E+00  0.31895763696E+03  0.31895763696E+03  0.00000000000E+00 0. -1.
         21   -1    0    0  501  503 -0.00000000000E+00 -0.00000000000E+00 -0.95677791905E+02  0.95677791905E+02  0.00000000000E+00 0. -1.
          6    1    1    2  501    0 -0.11416854551E+02  0.20094618001E+02  0.12036277261E+03  0.21201494115E+03  0.17300000000E+03 0.  1.
         -6    1    1    2    0  502  0.11416854551E+02 -0.20094618001E+02  0.10291707244E+03  0.20262048771E+03  0.17300000000E+03 0.  1.
<mgrwt>
<rscale>  2 0.17453693E+03</rscale>
<asrwt>0</asrwt>
<pdfrwt beam="1">  1       21 0.49070405E-01 0.17453693E+03</pdfrwt>
<pdfrwt beam="2">  1       21 0.14719660E-01 0.17453693E+03</pdfrwt>
<totfact> 0.16179258E+05</totfact>
</mgrwt>
</event>
<event>
 4    1  0.4090208E+000  0.1945836E+03  0.7546771E-02  0.1154391E+00
         21   -1    0    0  501  502  0.00000000000E+00  0.00000000000E+00  0.14447339651E+04  0.14447339651E+04  0.00000000000E+00 0.  1.
         21   -1    0    0  502  503 -0.00000000000E+00 -0.00000000000E+00 -0.34543490674E+02  0.34543490674E+02  0.00000000000E+00 0.  1.
          6    1    1    2  501    0 -0.43260812184E+02  0.77860751511E+02  0.34175255280E+03  0.39326530719E+03  0.17300000000E+03 0.  1.
         -6    1    1    2    0  503  0.43260812184E+02 -0.77860751511E+02  0.10684379216E+04  0.10860121486E+04  0.17300000000E+03 0.  1.
<mgrwt>
<rscale>  2 0.19458364E+03</rscale>
<asrwt>0</asrwt>
<pdfrwt beam="1">  1       21 0.22226672E+00 0.19458364E+03</pdfrwt>
<pdfrwt beam="2">  1       21 0.53143843E-02 0.19458364E+03</pdfrwt>
<totfact> 0.23594726E+04</totfact>
</mgrwt>
</event>
<event>
 4    1  0.4090208E+000  0.2504965E+03  0.7546771E-02  0.1112991E+00
         21   -1    0    0  503  502  0.00000000000E+00  0.00000000000E+00  0.45242835096E+03  0.45242835096E+03  0.00000000000E+00 0. -1.
         21   -1    0    0  501  503 -0.00000000000E+00 -0.00000000000E+00 -0.18223485489E+03  0.18223485489E+03  0.00000000000E+00 0.  1.
          6    1    1    2  501    0  0.12035862601E+03 -0.13540055345E+03  0.29021131011E+03  0.38336811715E+03  0.17300000000E+03 0. -1.
         -6    1    1    2    0  502 -0.12035862601E+03  0.13540055345E+03 -0.20017814041E+02  0.25129508871E+03  0.17300000000E+03 0.  1.
<mgrwt>
<rscale>  2 0.25049652E+03</rscale>
<asrwt>0</asrwt>
<pdfrwt beam="1">  1       21 0.69604362E-01 0.25049652E+03</pdfrwt>
<pdfrwt beam="2">  1       21 0.28036132E-01 0.25049652E+03</pdfrwt>
<totfact> 0.22103967E+04</totfact>
</mgrwt>
</event>
<event>
 4    1  0.4090208E+000  0.1891718E+03  0.7546771E-02  0.1159210E+00
         21   -1    0    0  503  502  0.00000000000E+00  0.00000000000E+00  0.37281811410E+03  0.37281811410E+03  0.00000000000E+00 0. -1.
         21   -1    0    0  501  503 -0.00000000000E+00 -0.00000000000E+00 -0.26185485678E+03  0.26185485678E+03  0.00000000000E+00 0. -1.
          6    1    1    2  501    0 -0.68673638005E+02 -0.33777352594E+02 -0.19708141568E+03  0.27317954263E+03  0.17300000000E+03 0. -1.
         -6    1    1    2    0  502  0.68673638005E+02  0.33777352594E+02  0.30804467300E+03  0.36149342825E+03  0.17300000000E+03 0. -1.
<mgrwt>
<rscale>  2 0.18917182E+03</rscale>
<asrwt>0</asrwt>
<pdfrwt beam="1">  1       21 0.57356633E-01 0.18917182E+03</pdfrwt>
<pdfrwt beam="2">  1       21 0.40285363E-01 0.18917182E+03</pdfrwt>
<totfact> 0.16978779E+04</totfact>
</mgrwt>
</event>
<event>
 4    1  0.4090208E+000  0.1856579E+03  0.7546771E-02  0.1162437E+00
         21   -1    0    0  501  502  0.00000000000E+00  0.00000000000E+00  0.50697819256E+03  0.50697819256E+03  0.00000000000E+00 0. -1.
         21   -1    0    0  502  503 -0.00000000000E+00 -0.00000000000E+00 -0.15981590426E+03  0.15981590426E+03  0.00000000000E+00 0. -1.
          6    1    1    2  501    0 -0.41102362018E+02 -0.53389481778E+02  0.42629973295E+03  0.46497344359E+03  0.17300000000E+03 0. -1.
         -6    1    1    2    0  503  0.41102362018E+02  0.53389481778E+02 -0.79137444647E+02  0.20182065324E+03  0.17300000000E+03 0. -1.
<mgrwt>
<rscale>  2 0.18565786E+03</rscale>
<asrwt>0</asrwt>
<pdfrwt beam="1">  1       21 0.77996644E-01 0.18565786E+03</pdfrwt>
<pdfrwt beam="2">  1       21 0.24587062E-01 0.18565786E+03</pdfrwt>
<totfact> 0.22862976E+04</totfact>
</mgrwt>
</event>
<event>
 4    1  0.4090208E+000  0.4265121E+03  0.7546771E-02  0.1034967E+00
         21   -1    0    0  503  502  0.00000000000E+00  0.00000000000E+00  0.22831942867E+04  0.22831942867E+04  0.00000000000E+00 0.  1.
         21   -1    0    0  501  503 -0.00000000000E+00 -0.00000000000E+00 -0.88028587954E+02  0.88028587954E+02  0.00000000000E+00 0. -1.
          6    1    1    2  501    0  0.13046548563E+03 -0.36737220841E+03  0.14628221798E+04  0.15237326905E+04  0.17300000000E+03 0. -1.
         -6    1    1    2    0  502 -0.13046548563E+03  0.36737220841E+03  0.73234351895E+03  0.84749018413E+03  0.17300000000E+03 0.  1.
<mgrwt>
<rscale>  2 0.42651211E+03</rscale>
<asrwt>0</asrwt>
<pdfrwt beam="1">  1       21 0.35126061E+00 0.42651211E+03</pdfrwt>
<pdfrwt beam="2">  1       21 0.13542861E-01 0.42651211E+03</pdfrwt>
<totfact> 0.64896722E+02</totfact>
</mgrwt>
</event>
<event>
 4    1  0.4090208E+000  0.1815167E+03  0.7546771E-02  0.1166343E+00
         21   -1    0    0  503  502  0.00000000000E+00  0.00000000000E+00  0.13783587378E+03  0.13783587378E+03  0.00000000000E+00 0. -1.
         21   -1    0    0  501  503 -0.00000000000E+00 -0.00000000000E+00 -0.53043864433E+03  0.53043864433E+03  0.00000000000E+00 0. -1.
          6    1    1    2  501    0  0.12229972399E+02 -0.53569900507E+02 -0.44395860166E+03  0.47963272038E+03  0.17300000000E+03 0. -1.
         -6    1    1    2    0  502 -0.12229972399E+02  0.53569900507E+02  0.51355831114E+02  0.18864179774E+03  0.17300000000E+03 0. -1.
<mgrwt>
<rscale>  2 0.18151668E+03</rscale>
<asrwt>0</asrwt>
<pdfrwt beam="1">  1       21 0.21205519E-01 0.18151668E+03</pdfrwt>
<pdfrwt beam="2">  1       21 0.81605946E-01 0.18151668E+03</pdfrwt>
<totfact> 0.27369914E+04</totfact>
</mgrwt>
</event>
<event>
 4    1  0.4090208E+000  0.1780807E+03  0.7546771E-02  0.1169674E+00
         21   -1    0    0  503  502  0.00000000000E+00  0.00000000000E+00  0.57091809315E+02  0.57091809315E+02  0.00000000000E+00 0. -1.
         21   -1    0    0  501  503 -0.00000000000E+00 -0.00000000000E+00 -0.59085866080E+03  0.59085866080E+03  0.00000000000E+00 0. -1.
          6    1    1    2  501    0  0.22351927330E+02 -0.35834738043E+02 -0.18759542419E+03  0.25865958378E+03  0.17300000000E+03 0.  1.
         -6    1    1    2    0  502 -0.22351927330E+02  0.35834738043E+02 -0.34617142730E+03  0.38929088633E+03  0.17300000000E+03 0.  1.
<mgrwt>
<rscale>  2 0.17808070E+03</rscale>
<asrwt>0</asrwt>
<pdfrwt beam="1">  1       21 0.87833559E-02 0.17808070E+03</pdfrwt>
<pdfrwt beam="2">  1       21 0.90901326E-01 0.17808070E+03</pdfrwt>
<totfact> 0.10526482E+05</totfact>
</mgrwt>
</event>
<event>
 4    1  0.4090208E+000  0.2206603E+03  0.7546771E-02  0.1133392E+00
         21   -1    0    0  503  502  0.00000000000E+00  0.00000000000E+00  0.54891425843E+03  0.54891425843E+03  0.00000000000E+00 0.  1.
         21   -1    0    0  501  503 -0.00000000000E+00 -0.00000000000E+00 -0.11685465510E+03  0.11685465510E+03  0.00000000000E+00 0.  1.
          6    1    1    2  501    0 -0.30431949817E+02 -0.13355094273E+03  0.52644188310E+02  0.22685318697E+03  0.17300000000E+03 0.  1.
         -6    1    1    2    0  502  0.30431949817E+02  0.13355094273E+03  0.37941541502E+03  0.43891572657E+03  0.17300000000E+03 0.  1.
<mgrwt>
<rscale>  2 0.22066028E+03</rscale>
<asrwt>0</asrwt>
<pdfrwt beam="1">  1       21 0.84448346E-01 0.22066028E+03</pdfrwt>
<pdfrwt beam="2">  1       21 0.17977640E-01 0.22066028E+03</pdfrwt>
<totfact> 0.33718926E+04</totfact>
</mgrwt>
</event>
<event>
 4    1  0.4090208E+000  0.2096119E+03  0.7546771E-02  0.1141874E+00
         21   -1    0    0  503  502  0.00000000000E+00  0.00000000000E+00  0.20620079733E+03  0.20620079733E+03  0.00000000000E+00 0.  1.
         21   -1    0    0  501  503 -0.00000000000E+00 -0.00000000000E+00 -0.24814012157E+03  0.24814012157E+03  0.00000000000E+00 0.  1.
          6    1    1    2  501    0 -0.11412230708E+03 -0.31372686089E+02 -0.10636096872E+03  0.23505276444E+03  0.17300000000E+03 0.  1.
         -6    1    1    2    0  502  0.11412230708E+03  0.31372686089E+02  0.64421644481E+02  0.21928815445E+03  0.17300000000E+03 0.  1.
<mgrwt>
<rscale>  2 0.20961189E+03</rscale>
<asrwt>0</asrwt>
<pdfrwt beam="1">  1       21 0.31723200E-01 0.20961189E+03</pdfrwt>
<pdfrwt beam="2">  1       21 0.38175403E-01 0.20961189E+03</pdfrwt>
<totfact> 0.62732747E+04</totfact>
</mgrwt>
</event>
<event>
 4    1  0.4090208E+000  0.1768919E+03  0.7546771E-02  0.1170845E+00
         21   -1    0    0  501  502  0.00000000000E+00  0.00000000000E+00  0.26304590465E+03  0.26304590465E+03  0.00000000000E+00 0. -1.
         21   -1    0    0  502  503 -0.00000000000E+00 -0.00000000000E+00 -0.70669684282E+03  0.70669684282E+03  0.00000000000E+00 0. -1.
          6    1    1    2  501    0 -0.30129703296E+02 -0.21305955076E+02  0.22035861815E+03  0.28257505788E+03  0.17300000000E+03 0. -1.
         -6    1    1    2    0  503  0.30129703296E+02  0.21305955076E+02 -0.66400955632E+03  0.68716768960E+03  0.17300000000E+03 0. -1.
<mgrwt>
<rscale>  2 0.17689190E+03</rscale>
<asrwt>0</asrwt>
<pdfrwt beam="1">  1       21 0.40468601E-01 0.17689190E+03</pdfrwt>
<pdfrwt beam="2">  1       21 0.10872259E+00 0.17689190E+03</pdfrwt>
<totfact> 0.40057478E+03</totfact>
</mgrwt>
</event>
<event>
 4    1  0.4090208E+000  0.2188330E+03  0.7546771E-02  0.1134756E+00
         21   -1    0    0  501  502  0.00000000000E+00  0.00000000000E+00  0.22942406077E+03  0.22942406077E+03  0.00000000000E+00 0. -1.
         21   -1    0    0  502  503 -0.00000000000E+00 -0.00000000000E+00 -0.22278428618E+03  0.22278428618E+03  0.00000000000E+00 0. -1.
          6    1    1    2  501    0  0.11827895882E+03 -0.62999678170E+02  0.60108084290E+02  0.22693799450E+03  0.17300000000E+03 0.  1.
         -6    1    1    2    0  503 -0.11827895882E+03  0.62999678170E+02 -0.53468309702E+02  0.22527035245E+03  0.17300000000E+03 0.  1.
<mgrwt>
<rscale>  2 0.21883298E+03</rscale>
<asrwt>0</asrwt>
<pdfrwt beam="1">  1       21 0.35296009E-01 0.21883298E+03</pdfrwt>
<pdfrwt beam="2">  1       21 0.34274506E-01 0.21883298E+03</pdfrwt>
<totfact> 0.62743055E+04</totfact>
</mgrwt>
</event>
<event>
 4    1  0.4090208E+000  0.1854757E+03  0.7546771E-02  0.1162606E+00
         21   -1    0    0  501  502  0.00000000000E+00  0.00000000000E+00  0.15882528951E+04  0.15882528951E+04  0.00000000000E+00 0. -1.
         21   -1    0    0  502  503 -0.00000000000E+00 -0.00000000000E+00 -0.25298409033E+02  0.25298409033E+02  0.00000000000E+00 0. -1.
          6    1    1    2  501    0 -0.61207121974E+02  0.26943144313E+02  0.10874436146E+04  0.11031477053E+04  0.17300000000E+03 0. -1.
         -6    1    1    2    0  503  0.61207121974E+02 -0.26943144313E+02  0.47551087148E+03  0.51040359883E+03  0.17300000000E+03 0. -1.
<mgrwt>
<rscale>  2 0.18547573E+03</rscale>
<asrwt>0</asrwt>
<pdfrwt beam="1">  1       21 0.24434652E+00 0.18547573E+03</pdfrwt>
<pdfrwt beam="2">  1       21 0.38920642E-02 0.18547573E+03</pdfrwt>
<totfact> 0.29628678E+04</totfact>
</mgrwt>
</event>
<event>
 4    1  0.4090208E+000  0.2063262E+03  0.7546771E-02  0.1144509E+00
         21   -1    0    0  501  502  0.00000000000E+00  0.00000000000E+00  0.65709133515E+02  0.65709133515E+02  0.00000000000E+00 0.  1.
         21   -1    0    0  502  503 -0.00000000000E+00 -0.00000000000E+00 -0.68132788654E+03  0.68132788654E+03  0.00000000000E+00 0.  1.
          6    1    1    2  501    0  0.68862446772E+02 -0.88879018315E+02 -0.22502874902E+03  0.30530059672E+03  0.17300000000E+03 0.  1.
         -6    1    1    2    0  503 -0.68862446772E+02  0.88879018315E+02 -0.39059000401E+03  0.44173642334E+03  0.17300000000E+03 0.  1.
<mgrwt>
<rscale>  2 0.20632624E+03</rscale>
<asrwt>0</asrwt>
<pdfrwt beam="1">  1       21 0.10109097E-01 0.20632624E+03</pdfrwt>
<pdfrwt beam="2">  1       21 0.10481968E+00 0.20632624E+03</pdfrwt>
<totfact> 0.58003494E+04</totfact>
</mgrwt>
</event>
<event>
 4    1  0.4090208E+000  0.1985946E+03  0.7546771E-02  0.1150930E+00
         21   -1    0    0  501  502  0.00000000000E+00  0.00000000000E+00  0.51004954159E+03  0.51004954159E+03  0.00000000000E+00 0. -1.
         21   -1    0    0  502  503 -0.00000000000E+00 -0.00000000000E+00 -0.78446044601E+02  0.78446044601E+02  0.00000000000E+00 0. -1.
          6    1    1    2  501    0 -0.58736090968E+02  0.77851797913E+02  0.18063403234E+03  0.26845574023E+03  0.17300000000E+03 0. -1.
         -6    1    1    2    0  503  0.58736090968E+02 -0.77851797913E+02  0.25096946465E+03  0.32003984597E+03  0.17300000000E+03 0. -1.
<mgrwt>
<rscale>  2 0.19859464E+03</rscale>
<asrwt>0</asrwt>
<pdfrwt beam="1">  1       21 0.78469158E-01 0.19859464E+03</pdfrwt>
<pdfrwt beam="2">  1       21 0.12068623E-01 0.19859464E+03</pdfrwt>
<totfact> 0.83231546E+04</totfact>
</mgrwt>
</event>
<event>
 4    1  0.4090208E+000  0.1770513E+03  0.7546771E-02  0.1170688E+00
         21   -1    0    0  503  502  0.00000000000E+00  0.00000000000E+00  0.93291607544E+02  0.93291607544E+02  0.00000000000E+00 0. -1.
         21   -1    0    0  501  503 -0.00000000000E+00 -0.00000000000E+00 -0.33657511317E+03  0.33657511317E+03  0.00000000000E+00 0. -1.
          6    1    1    2  501    0  0.33577561340E+02  0.17050310543E+02 -0.11285583061E+03  0.20996095879E+03  0.17300000000E+03 0. -1.
         -6    1    1    2    0  502 -0.33577561340E+02 -0.17050310543E+02 -0.13042767502E+03  0.21990576192E+03  0.17300000000E+03 0. -1.
<mgrwt>
<rscale>  2 0.17705131E+03</rscale>
<asrwt>0</asrwt>
<pdfrwt beam="1">  1       21 0.14352555E-01 0.17705131E+03</pdfrwt>
<pdfrwt beam="2">  1       21 0.51780786E-01 0.17705131E+03</pdfrwt>
<totfact> 0.15130179E+05</totfact>
</mgrwt>
</event>
<event>
 4    1  0.4090208E+000  0.3504846E+03  0.7546771E-02  0.1062416E+00
         21   -1    0    0  503  502  0.00000000000E+00  0.00000000000E+00  0.44322990981E+03  0.44322990981E+03  0.00000000000E+00 0.  1.
         21   -1    0    0  501  503 -0.00000000000E+00 -0.00000000000E+00 -0.36548735127E+03  0.36548735127E+03  0.00000000000E+00 0. -1.
          6    1    1    2  501    0  0.28840325319E+03 -0.98661211841E+02 -0.15992678284E+03  0.38524803315E+03  0.17300000000E+03 0. -1.
         -6    1    1    2    0  502 -0.28840325319E+03  0.98661211841E+02  0.23766934138E+03  0.42346922793E+03  0.17300000000E+03 0.  1.
<mgrwt>
<rscale>  2 0.35048462E+03</rscale>
<asrwt>0</asrwt>
<pdfrwt beam="1">  1       21 0.68189217E-01 0.35048462E+03</pdfrwt>
<pdfrwt beam="2">  1       21 0.56228823E-01 0.35048462E+03</pdfrwt>
<totfact> 0.53383741E+03</totfact>
</mgrwt>
</event>
<event>
 4    1  0.4090208E+000  0.2739388E+03  0.7546771E-02  0.1099046E+00
         21   -1    0    0  501  502  0.00000000000E+00  0.00000000000E+00  0.52469490167E+03  0.52469490167E+03  0.00000000000E+00 0. -1.
         21   -1    0    0  502  503 -0.00000000000E+00 -0.00000000000E+00 -0.30985204298E+03  0.30985204298E+03  0.00000000000E+00 0.  1.
          6    1    1    2  501    0  0.18614998437E+03 -0.10228208578E+03  0.41360500940E+03  0.49609630673E+03  0.17300000000E+03 0. -1.
         -6    1    1    2    0  503 -0.18614998437E+03  0.10228208578E+03 -0.19876215071E+03  0.33845063791E+03  0.17300000000E+03 0.  1.
<mgrwt>
<rscale>  2 0.27393876E+03</rscale>
<asrwt>0</asrwt>
<pdfrwt beam="1">  1       21 0.80722292E-01 0.27393876E+03</pdfrwt>
<pdfrwt beam="2">  1       21 0.47669545E-01 0.27393876E+03</pdfrwt>
<totfact> 0.53734570E+03</totfact>
</mgrwt>
</event>
<event>
 4    1  0.4090208E+000  0.1928750E+03  0.7546771E-02  0.1155894E+00
         21   -1    0    0  501  502  0.00000000000E+00  0.00000000000E+00  0.11025642006E+03  0.11025642006E+03  0.00000000000E+00 0. -1.
         21   -1    0    0  502  503 -0.00000000000E+00 -0.00000000000E+00 -0.75021084172E+03  0.75021084172E+03  0.00000000000E+00 0. -1.
          6    1    1    2  501    0 -0.71565583032E+02 -0.46369394077E+02 -0.83290282854E+00  0.19287676664E+03  0.17300000000E+03 0. -1.
         -6    1    1    2    0  503  0.71565583032E+02  0.46369394077E+02 -0.63912151883E+03  0.66759049515E+03  0.17300000000E+03 0. -1.
<mgrwt>
<rscale>  2 0.19287497E+03</rscale>
<asrwt>0</asrwt>
<pdfrwt beam="1">  1       21 0.16962527E-01 0.19287497E+03</pdfrwt>
<pdfrwt beam="2">  1       21 0.11541705E+00 0.19287497E+03</pdfrwt>
<totfact> 0.18201057E+04</totfact>
</mgrwt>
</event>
<event>
 4    1  0.4090208E+000  0.2128368E+03  0.7546771E-02  0.1139339E+00
         21   -1    0    0  503  502  0.00000000000E+00  0.00000000000E+00  0.32823531799E+03  0.32823531799E+03  0.00000000000E+00 0. -1.
         21   -1    0    0  501  503 -0.00000000000E+00 -0.00000000000E+00 -0.16489854502E+03  0.16489854502E+03  0.00000000000E+00 0. -1.
          6    1    1    2  501    0 -0.11787747709E+03  0.38410960246E+02 -0.17898823536E+02  0.21358808337E+03  0.17300000000E+03 0. -1.
         -6    1    1    2    0  502  0.11787747709E+03 -0.38410960246E+02  0.18123559650E+03  0.27954577964E+03  0.17300000000E+03 0. -1.
<mgrwt>
<rscale>  2 0.21283680E+03</rscale>
<asrwt>0</asrwt>
<pdfrwt beam="1">  1       21 0.50497741E-01 0.21283680E+03</pdfrwt>
<pdfrwt beam="2">  1       21 0.25369007E-01 0.21283680E+03</pdfrwt>
<totfact> 0.54453522E+04</totfact>
</mgrwt>
</event>
<event>
 4    1  0.4090208E+000  0.2297300E+03  0.7546771E-02  0.1126830E+00
         21   -1    0    0  501  502  0.00000000000E+00  0.00000000000E+00  0.36228739872E+03  0.36228739872E+03  0.00000000000E+00 0. -1.
         21   -1    0    0  502  503 -0.00000000000E+00 -0.00000000000E+00 -0.25264165079E+03  0.25264165079E+03  0.00000000000E+00 0.  1.
          6    1    1    2  501    0  0.17407810419E+02 -0.15014610566E+03  0.25488671272E+03  0.34313717553E+03  0.17300000000E+03 0. -1.
         -6    1    1    2    0  503 -0.17407810419E+02  0.15014610566E+03 -0.14524096479E+03  0.27179187398E+03  0.17300000000E+03 0.  1.
<mgrwt>
<rscale>  2 0.22973003E+03</rscale>
<asrwt>0</asrwt>
<pdfrwt beam="1">  1       21 0.55736523E-01 0.22973003E+03</pdfrwt>
<pdfrwt beam="2">  1       21 0.38867946E-01 0.22973003E+03</pdfrwt>
<totfact> 0.18945062E+04</totfact>
</mgrwt>
</event>
<event>
 4    1  0.4090208E+000  0.3147025E+03  0.7546771E-02  0.1078114E+00
         21   -1    0    0  503  502  0.00000000000E+00  0.00000000000E+00  0.80913965185E+03  0.80913965185E+03  0.00000000000E+00 0. -1.
         21   -1    0    0  501  503 -0.00000000000E+00 -0.00000000000E+00 -0.15673297033E+03  0.15673297033E+03  0.00000000000E+00 0. -1.
          6    1    1    2  501    0  0.30153760868E+02 -0.26115016442E+03  0.10016950079E+03  0.33025987730E+03  0.17300000000E+03 0. -1.
         -6    1    1    2    0  502 -0.30153760868E+02  0.26115016442E+03  0.55223718074E+03  0.63561274488E+03  0.17300000000E+03 0. -1.
<mgrwt>
<rscale>  2 0.31470249E+03</rscale>
<asrwt>0</asrwt>
<pdfrwt beam="1">  1       21 0.12448302E+00 0.31470249E+03</pdfrwt>
<pdfrwt beam="2">  1       21 0.24112765E-01 0.31470249E+03</pdfrwt>
<totfact> 0.72632924E+03</totfact>
</mgrwt>
</event>
<event>
 4    1  0.4090208E+000  0.2147618E+03  0.7546771E-02  0.1137850E+00
         21   -1    0    0  501  502  0.00000000000E+00  0.00000000000E+00  0.20805347905E+03  0.20805347905E+03  0.00000000000E+00 0. -1.
         21   -1    0    0  502  503 -0.00000000000E+00 -0.00000000000E+00 -0.22509976297E+03  0.22509976297E+03  0.00000000000E+00 0. -1.
          6    1    1    2  501    0 -0.54902773896E+01  0.12713573064E+03 -0.35192472816E+02  0.21762616408E+03  0.17300000000E+03 0. -1.
         -6    1    1    2    0  503  0.54902773896E+01 -0.12713573064E+03  0.18146188900E+02  0.21552707793E+03  0.17300000000E+03 0. -1.
<mgrwt>
<rscale>  2 0.21476181E+03</rscale>
<asrwt>0</asrwt>
<pdfrwt beam="1">  1       21 0.32008228E-01 0.21476181E+03</pdfrwt>
<pdfrwt beam="2">  1       21 0.34630733E-01 0.21476181E+03</pdfrwt>
<totfact> 0.74730712E+04</totfact>
</mgrwt>
</event>
<event>
 4    1  0.4090208E+000  0.1752131E+03  0.7546771E-02  0.1172518E+00
         21   -1    0    0  503  502  0.00000000000E+00  0.00000000000E+00  0.17483446089E+03  0.17483446089E+03  0.00000000000E+00 0. -1.
         21   -1    0    0  501  503 -0.00000000000E+00 -0.00000000000E+00 -0.53872718776E+03  0.53872718776E+03  0.00000000000E+00 0. -1.
          6    1    1    2  501    0  0.21025411593E+02  0.18126541864E+02 -0.47486760050E+03  0.50616092052E+03  0.17300000000E+03 0. -1.
         -6    1    1    2    0  502 -0.21025411593E+02 -0.18126541864E+02  0.11097487364E+03  0.20740072814E+03  0.17300000000E+03 0. -1.
<mgrwt>
<rscale>  2 0.17521313E+03</rscale>
<asrwt>0</asrwt>
<pdfrwt beam="1">  1       21 0.26897610E-01 0.17521313E+03</pdfrwt>
<pdfrwt beam="2">  1       21 0.82881105E-01 0.17521313E+03</pdfrwt>
<totfact> 0.16897153E+04</totfact>
</mgrwt>
</event>
<event>
 4    1  0.4090208E+000  0.1921482E+03  0.7546771E-02  0.1156538E+00
         21   -1    0    0  503  502  0.00000000000E+00  0.00000000000E+00  0.11775225326E+04  0.11775225326E+04  0.00000000000E+00 0.  1.
         21   -1    0    0  501  503 -0.00000000000E+00 -0.00000000000E+00 -0.34250269710E+02  0.34250269710E+02  0.00000000000E+00 0.  1.
          6    1    1    2  501    0 -0.61663797594E+02  0.56475832316E+02  0.39547046805E+03  0.43967924066E+03  0.17300000000E+03 0. -1.
         -6    1    1    2    0  502  0.61663797594E+02 -0.56475832316E+02  0.74780179481E+03  0.77209356162E+03  0.17300000000E+03 0. -1.
<mgrwt>
<rscale>  2 0.19214823E+03</rscale>
<asrwt>0</asrwt>
<pdfrwt beam="1">  1       21 0.18115728E+00 0.19214823E+03</pdfrwt>
<pdfrwt beam="2">  1       21 0.52692732E-02 0.19214823E+03</pdfrwt>
<totfact> 0.43987299E+04</totfact>
</mgrwt>
</event>
<event>
 4    1  0.4090208E+000  0.3787739E+03  0.7546771E-02  0.1051388E+00
         21   -1    0    0  503  502  0.00000000000E+00  0.00000000000E+00  0.39875198018E+03  0.39875198018E+03  0.00000000000E+00 0. -1.
         21   -1    0    0  501  503 -0.00000000000E+00 -0.00000000000E+00 -0.41633502526E+03  0.41633502526E+03  0.00000000000E+00 0.  1.
          6    1    1    2  501    0 -0.19024460314E+03  0.27811449654E+03 -0.15897550843E+03  0.41078326949E+03  0.17300000000E+03 0. -1.
         -6    1    1    2    0  502  0.19024460314E+03 -0.27811449654E+03  0.14139246335E+03  0.40430373595E+03  0.17300000000E+03 0. -1.
<mgrwt>
<rscale>  2 0.37877392E+03</rscale>
<asrwt>0</asrwt>
<pdfrwt beam="1">  1       21 0.61346458E-01 0.37877392E+03</pdfrwt>
<pdfrwt beam="2">  1       21 0.64051543E-01 0.37877392E+03</pdfrwt>
<totfact> 0.50174238E+03</totfact>
</mgrwt>
</event>
<event>
 4    1  0.4090208E+000  0.2462309E+03  0.7546771E-02  0.1115710E+00
         21   -1    0    0  501  502  0.00000000000E+00  0.00000000000E+00  0.70191833775E+03  0.70191833775E+03  0.00000000000E+00 0. -1.
         21   -1    0    0  502  503 -0.00000000000E+00 -0.00000000000E+00 -0.10836750369E+03  0.10836750369E+03  0.00000000000E+00 0. -1.
          6    1    1    2  501    0  0.14125982407E+03 -0.10366443860E+03  0.47928074867E+03  0.53883178245E+03  0.17300000000E+03 0. -1.
         -6    1    1    2    0  503 -0.14125982407E+03  0.10366443860E+03  0.11427008539E+03  0.27145405899E+03  0.17300000000E+03 0. -1.
<mgrwt>
<rscale>  2 0.24623090E+03</rscale>
<asrwt>0</asrwt>
<pdfrwt beam="1">  1       21 0.10798743E+00 0.24623090E+03</pdfrwt>
<pdfrwt beam="2">  1       21 0.16671924E-01 0.24623090E+03</pdfrwt>
<totfact> 0.21420844E+04</totfact>
</mgrwt>
</event>
<event>
 4    1  0.4090208E+000  0.1746527E+03  0.7546771E-02  0.1173081E+00
         21   -1    0    0  501  502  0.00000000000E+00  0.00000000000E+00  0.25764193851E+03  0.25764193851E+03  0.00000000000E+00 0.  1.
         21   -1    0    0  502  503 -0.00000000000E+00 -0.00000000000E+00 -0.12104850083E+03  0.12104850083E+03  0.00000000000E+00 0.  1.
          6    1    1    2  501    0 -0.11157217002E+02 -0.21215392534E+02  0.96329455102E+02  0.19945661255E+03  0.17300000000E+03 0.  1.
         -6    1    1    2    0  503  0.11157217002E+02  0.21215392534E+02  0.40263982573E+02  0.17923382679E+03  0.17300000000E+03 0.  1.
<mgrwt>
<rscale>  2 0.17465273E+03</rscale>
<asrwt>0</asrwt>
<pdfrwt beam="1">  1       21 0.39637221E-01 0.17465273E+03</pdfrwt>
<pdfrwt beam="2">  1       21 0.18622846E-01 0.17465273E+03</pdfrwt>
<totfact> 0.16265748E+05</totfact>
</mgrwt>
</event>
<event>
 4    1  0.4090208E+000  0.2531204E+03  0.7546771E-02  0.1111349E+00
         21   -1    0    0  501  502  0.00000000000E+00  0.00000000000E+00  0.15428676693E+03  0.15428676693E+03  0.00000000000E+00 0. -1.
         21   -1    0    0  502  503 -0.00000000000E+00 -0.00000000000E+00 -0.44205174665E+03  0.44205174665E+03  0.00000000000E+00 0.  1.
          6    1    1    2  501    0  0.16285014694E+03 -0.87297040883E+02 -0.70484579638E+02  0.26275086998E+03  0.17300000000E+03 0.  1.
         -6    1    1    2    0  503 -0.16285014694E+03  0.87297040883E+02 -0.21728040008E+03  0.33358764360E+03  0.17300000000E+03 0.  1.
<mgrwt>
<rscale>  2 0.25312041E+03</rscale>
<asrwt>0</asrwt>
<pdfrwt beam="1">  1       21 0.23736426E-01 0.25312041E+03</pdfrwt>
<pdfrwt beam="2">  1       21 0.68007961E-01 0.25312041E+03</pdfrwt>
<totfact> 0.32037433E+04</totfact>
</mgrwt>
</event>
<event>
 4    1  0.4090208E+000  0.2273735E+03  0.7546771E-02  0.1128502E+00
         21   -1    0    0  503  502  0.00000000000E+00  0.00000000000E+00  0.19459703215E+04  0.19459703215E+04  0.00000000000E+00 0. -1.
         21   -1    0    0  501  503 -0.00000000000E+00 -0.00000000000E+00 -0.63264319679E+02  0.63264319679E+02  0.00000000000E+00 0. -1.
          6    1    1    2  501    0 -0.30316252320E+02 -0.14439746858E+03  0.17621798633E+03  0.28766557457E+03  0.17300000000E+03 0. -1.
         -6    1    1    2    0  502  0.30316252320E+02  0.14439746858E+03  0.17064880155E+04  0.17215690666E+04  0.17300000000E+03 0. -1.
<mgrwt>
<rscale>  2 0.22737349E+03</rscale>
<asrwt>0</asrwt>
<pdfrwt beam="1">  1       21 0.29938000E+00 0.22737349E+03</pdfrwt>
<pdfrwt beam="2">  1       21 0.97329738E-02 0.22737349E+03</pdfrwt>
<totfact> 0.28155728E+03</totfact>
</mgrwt>
</event>
<event>
 4    1  0.4090208E+000  0.2040427E+03  0.7546771E-02  0.1146372E+00
         21   -1    0    0  501  502  0.00000000000E+00  0.00000000000E+00  0.25086309600E+03  0.25086309600E+03  0.00000000000E+00 0. -1.
         21   -1    0    0  502  503 -0.00000000000E+00 -0.00000000000E+00 -0.39718467771E+03  0.39718467771E+03  0.00000000000E+00 0. -1.
          6    1    1    2  501    0  0.74319300523E+02 -0.78619744226E+02  0.17406694399E+03  0.26820276583E+03  0.17300000000E+03 0. -1.
         -6    1    1    2    0  503 -0.74319300523E+02  0.78619744226E+02 -0.32038852569E+03  0.37984500787E+03  0.17300000000E+03 0. -1.
<mgrwt>
<rscale>  2 0.20404270E+03</rscale>
<asrwt>0</asrwt>
<pdfrwt beam="1">  1       21 0.38594322E-01 0.20404270E+03</pdfrwt>
<pdfrwt beam="2">  1       21 0.61105335E-01 0.20404270E+03</pdfrwt>
<totfact> 0.16013808E+04</totfact>
</mgrwt>
</event>
<event>
 4    1  0.4090208E+000  0.1818892E+03  0.7546771E-02  0.1165987E+00
         21   -1    0    0  501  502  0.00000000000E+00  0.00000000000E+00  0.11114848312E+03  0.11114848312E+03  0.00000000000E+00 0. -1.
         21   -1    0    0  502  503 -0.00000000000E+00 -0.00000000000E+00 -0.37215003956E+03  0.37215003956E+03  0.00000000000E+00 0. -1.
          6    1    1    2  501    0  0.55177871073E+02  0.10492115399E+02 -0.22383307073E+02  0.18326127353E+03  0.17300000000E+03 0. -1.
         -6    1    1    2    0  503 -0.55177871073E+02 -0.10492115399E+02 -0.23861824937E+03  0.30003724914E+03  0.17300000000E+03 0. -1.
<mgrwt>
<rscale>  2 0.18188920E+03</rscale>
<asrwt>0</asrwt>
<pdfrwt beam="1">  1       21 0.17099766E-01 0.18188920E+03</pdfrwt>
<pdfrwt beam="2">  1       21 0.57253853E-01 0.18188920E+03</pdfrwt>
<totfact> 0.88778970E+04</totfact>
</mgrwt>
</event>
<event>
 4    1  0.4090208E+000  0.2198046E+03  0.7546771E-02  0.1134029E+00
         21   -1    0    0  503  502  0.00000000000E+00  0.00000000000E+00  0.33705165653E+03  0.33705165653E+03  0.00000000000E+00 0. -1.
         21   -1    0    0  501  503 -0.00000000000E+00 -0.00000000000E+00 -0.21543609957E+03  0.21543609957E+03  0.00000000000E+00 0. -1.
          6    1    1    2  501    0 -0.67133074353E+02 -0.11780579699E+03 -0.98993311528E+02  0.24106789750E+03  0.17300000000E+03 0. -1.
         -6    1    1    2    0  502  0.67133074353E+02  0.11780579699E+03  0.22060886849E+03  0.31141985860E+03  0.17300000000E+03 0. -1.
<mgrwt>
<rscale>  2 0.21980458E+03</rscale>
<asrwt>0</asrwt>
<pdfrwt beam="1">  1       21 0.51854101E-01 0.21980458E+03</pdfrwt>
<pdfrwt beam="2">  1       21 0.33144015E-01 0.21980458E+03</pdfrwt>
<totfact> 0.30505746E+04</totfact>
</mgrwt>
</event>
