<event>
 4    1  0.9508302E-005  0.4027641E+03  0.7818608E-02  0.1042827E+00
         -2   -1    0    0    0  501 -0.00000000000E+00  0.00000000000E+00  0.29230678052E+02  0.29230678163E+02  0.25500000000E-02 0. -1.
          2   -1    0    0  501    0  0.00000000000E+00 -0.00000000000E+00 -0.13874033069E+04  0.13874033069E+04  0.25500000000E-02 0.  1.
    5000001    1    1    2    0    0 -0.98470876678E+02  0.12054392592E+03 -0.72862727036E+03  0.75581350262E+03  0.12700000000E+03 0.  0.
   -5000001    1    1    2    0    0  0.98470876678E+02 -0.12054392592E+03 -0.62954535853E+03  0.66082048249E+03  0.12700000000E+03 0.  0.
<mgrwt>
<rscale>  0 0.40276415E+03</rscale>
<asrwt>0</asrwt>
<pdfrwt beam="1">  1        2 0.19820043E+00 0.40276415E+03</pdfrwt>
<pdfrwt beam="2">  1       -2 0.41758120E-02 0.40276415E+03</pdfrwt>
<totfact> 0.46069284E+03</totfact>
</mgrwt>
</event>
<event>
 4    1  0.9508302E-005  0.3053821E+03  0.7818608E-02  0.1082581E+00
          2   -1    0    0  501    0  0.00000000000E+00  0.00000000000E+00  0.24380019245E+04  0.24380019245E+04  0.25500000000E-02 0.  1.
         -2   -1    0    0    0  501 -0.00000000000E+00 -0.00000000000E+00 -0.95629795873E+01  0.95629799272E+01  0.25500000000E-02 0. -1.
    5000001    1    1    2    0    0 -0.66886733104E+02  0.20490897198E+02  0.83052655511E+03  0.84308781908E+03  0.12700000000E+03 0.  0.
   -5000001    1    1    2    0    0  0.66886733104E+02 -0.20490897198E+02  0.15979123898E+04  0.16044770854E+04  0.12700000000E+03 0.  0.
<mgrwt>
<rscale>  0 0.30538214E+03</rscale>
<asrwt>0</asrwt>
<pdfrwt beam="1">  1        2 0.34828588E+00 0.30538214E+03</pdfrwt>
<pdfrwt beam="2">  1       -2 0.13661404E-02 0.30538214E+03</pdfrwt>
<totfact> 0.72862716E+03</totfact>
</mgrwt>
</event>
<event>
 4    1  0.9508302E-005  0.2927677E+03  0.7818608E-02  0.1088913E+00
         -2   -1    0    0    0  501 -0.00000000000E+00  0.00000000000E+00  0.15723219650E+02  0.15723219857E+02  0.25500000000E-02 0. -1.
          2   -1    0    0  501    0  0.00000000000E+00 -0.00000000000E+00 -0.13628399057E+04  0.13628399057E+04  0.25500000000E-02 0.  1.
    5000001    1    1    2    0    0 -0.12266407343E+02  0.70378993082E+02 -0.73940714202E+03  0.75362828310E+03  0.12700000000E+03 0.  0.
   -5000001    1    1    2    0    0  0.12266407343E+02 -0.70378993082E+02 -0.60770954405E+03  0.62493484248E+03  0.12700000000E+03 0.  0.
<mgrwt>
<rscale>  0 0.29276770E+03</rscale>
<asrwt>0</asrwt>
<pdfrwt beam="1">  1        2 0.19469134E+00 0.29276770E+03</pdfrwt>
<pdfrwt beam="2">  1       -2 0.22461751E-02 0.29276770E+03</pdfrwt>
<totfact> 0.11963704E+04</totfact>
</mgrwt>
</event>
<event>
 4    1  0.9508302E-005  0.3572778E+03  0.7818608E-02  0.1059667E+00
         -2   -1    0    0    0  501 -0.00000000000E+00  0.00000000000E+00  0.58245664230E+02  0.58245664285E+02  0.25500000000E-02 0. -1.
          2   -1    0    0  501    0  0.00000000000E+00 -0.00000000000E+00 -0.54788369285E+03  0.54788369286E+03  0.25500000000E-02 0.  1.
    5000001    1    1    2    0    0  0.40281240065E+01 -0.12556493159E+03 -0.24527361171E+03  0.30343190740E+03  0.12700000000E+03 0.  0.
   -5000001    1    1    2    0    0 -0.40281240065E+01  0.12556493159E+03 -0.24436441691E+03  0.30269744974E+03  0.12700000000E+03 0.  0.
<mgrwt>
<rscale>  0 0.35727776E+03</rscale>
<asrwt>0</asrwt>
<pdfrwt beam="1">  1        2 0.78269096E-01 0.35727776E+03</pdfrwt>
<pdfrwt beam="2">  1       -2 0.83208095E-02 0.35727776E+03</pdfrwt>
<totfact> 0.54514375E+03</totfact>
</mgrwt>
</event>
<event>
 4    1  0.9508302E-005  0.7250426E+03  0.7818608E-02  0.9675339E-01
         -2   -1    0    0    0  501 -0.00000000000E+00  0.00000000000E+00  0.14278804246E+03  0.14278804249E+03  0.25500000000E-02 0. -1.
          2   -1    0    0  501    0  0.00000000000E+00 -0.00000000000E+00 -0.92039715251E+03  0.92039715251E+03  0.25500000000E-02 0.  1.
    5000001    1    1    2    0    0 -0.67130852070E+02 -0.22764376242E+03 -0.74487881910E+03  0.79202379321E+03  0.12700000000E+03 0.  0.
   -5000001    1    1    2    0    0  0.67130852070E+02  0.22764376242E+03 -0.32730290942E+02  0.27116140178E+03  0.12700000000E+03 0.  0.
<mgrwt>
<rscale>  0 0.72504264E+03</rscale>
<asrwt>0</asrwt>
<pdfrwt beam="1">  1        2 0.13148530E+00 0.72504264E+03</pdfrwt>
<pdfrwt beam="2">  1       -2 0.20398292E-01 0.72504264E+03</pdfrwt>
<totfact> 0.65237242E+02</totfact>
</mgrwt>
</event>
<event>
 4    1  0.9508302E-005  0.2939429E+03  0.7818608E-02  0.1088308E+00
         -2   -1    0    0    0  501 -0.00000000000E+00  0.00000000000E+00  0.53010965744E+02  0.53010965806E+02  0.25500000000E-02 0. -1.
          2   -1    0    0  501    0  0.00000000000E+00 -0.00000000000E+00 -0.40747439560E+03  0.40747439560E+03  0.25500000000E-02 0.  1.
    5000001    1    1    2    0    0  0.25568725479E+02 -0.63169166937E+02 -0.13216676647E+03  0.19555346464E+03  0.12700000000E+03 0.  0.
   -5000001    1    1    2    0    0 -0.25568725479E+02  0.63169166937E+02 -0.22229666338E+03  0.26493189677E+03  0.12700000000E+03 0.  0.
<mgrwt>
<rscale>  0 0.29394293E+03</rscale>
<asrwt>0</asrwt>
<pdfrwt beam="1">  1        2 0.58210626E-01 0.29394293E+03</pdfrwt>
<pdfrwt beam="2">  1       -2 0.75729953E-02 0.29394293E+03</pdfrwt>
<totfact> 0.87147259E+03</totfact>
</mgrwt>
</event>
<event>
 4    1  0.9508302E-005  0.2966811E+03  0.7818608E-02  0.1086912E+00
         -2   -1    0    0    0  501 -0.00000000000E+00  0.00000000000E+00  0.92355658818E+01  0.92355662338E+01  0.25500000000E-02 0. -1.
          2   -1    0    0  501    0  0.00000000000E+00 -0.00000000000E+00 -0.23826273415E+04  0.23826273415E+04  0.25500000000E-02 0.  1.
    5000001    1    1    2    0    0  0.39280687493E+01 -0.69443857540E+02 -0.14464438064E+04  0.14536734723E+04  0.12700000000E+03 0.  0.
   -5000001    1    1    2    0    0 -0.39280687493E+01  0.69443857540E+02 -0.92694796924E+03  0.93818943543E+03  0.12700000000E+03 0.  0.
<mgrwt>
<rscale>  0 0.29668106E+03</rscale>
<asrwt>0</asrwt>
<pdfrwt beam="1">  1        2 0.34037494E+00 0.29668106E+03</pdfrwt>
<pdfrwt beam="2">  1       -2 0.13193681E-02 0.29668106E+03</pdfrwt>
<totfact> 0.81685479E+03</totfact>
</mgrwt>
</event>
<event>
 4    1  0.9508302E-005  0.3510362E+03  0.7818608E-02  0.1062191E+00
          2   -1    0    0  501    0  0.00000000000E+00  0.00000000000E+00  0.11424137479E+04  0.11424137479E+04  0.25500000000E-02 0.  1.
         -2   -1    0    0    0  501 -0.00000000000E+00 -0.00000000000E+00 -0.26966232905E+02  0.26966233025E+02  0.25500000000E-02 0. -1.
    5000001    1    1    2    0    0  0.75041662892E+02  0.53149994222E+02  0.82047733959E+03  0.83532522878E+03  0.12700000000E+03 0.  0.
   -5000001    1    1    2    0    0 -0.75041662892E+02 -0.53149994222E+02  0.29497017542E+03  0.33405475216E+03  0.12700000000E+03 0.  0.
<mgrwt>
<rscale>  0 0.35103615E+03</rscale>
<asrwt>0</asrwt>
<pdfrwt beam="1">  1        2 0.16320200E+00 0.35103615E+03</pdfrwt>
<pdfrwt beam="2">  1       -2 0.38523182E-02 0.35103615E+03</pdfrwt>
<totfact> 0.70495516E+03</totfact>
</mgrwt>
</event>
<event>
 4    1  0.9508302E-005  0.6263811E+03  0.7818608E-02  0.9852136E-01
          2   -1    0    0  501    0  0.00000000000E+00  0.00000000000E+00  0.19321178757E+04  0.19321178757E+04  0.25500000000E-02 0.  1.
         -2   -1    0    0    0  501 -0.00000000000E+00 -0.00000000000E+00 -0.50767260582E+02  0.50767260646E+02  0.25500000000E-02 0. -1.
    5000001    1    1    2    0    0 -0.58867793325E+02  0.26602080238E+03  0.12189412489E+04  0.12554597774E+04  0.12700000000E+03 0.  0.
   -5000001    1    1    2    0    0  0.58867793325E+02 -0.26602080238E+03  0.66240936623E+03  0.72742535896E+03  0.12700000000E+03 0.  0.
<mgrwt>
<rscale>  0 0.62638114E+03</rscale>
<asrwt>0</asrwt>
<pdfrwt beam="1">  1        2 0.27601681E+00 0.62638114E+03</pdfrwt>
<pdfrwt beam="2">  1       -2 0.72524665E-02 0.62638114E+03</pdfrwt>
<totfact> 0.10253839E+03</totfact>
</mgrwt>
</event>
<event>
 4    1  0.9508302E-005  0.4044726E+03  0.7818608E-02  0.1042242E+00
          2   -1    0    0  501    0  0.00000000000E+00  0.00000000000E+00  0.57319592936E+03  0.57319592937E+03  0.25500000000E-02 0.  1.
         -2   -1    0    0    0  501 -0.00000000000E+00 -0.00000000000E+00 -0.71353460428E+02  0.71353460473E+02  0.25500000000E-02 0. -1.
    5000001    1    1    2    0    0 -0.13936449786E+03 -0.56973837812E+02  0.32398242749E+03  0.37915972199E+03  0.12700000000E+03 0.  0.
   -5000001    1    1    2    0    0  0.13936449786E+03  0.56973837812E+02  0.17786004144E+03  0.26538966785E+03  0.12700000000E+03 0.  0.
<mgrwt>
<rscale>  0 0.40447256E+03</rscale>
<asrwt>0</asrwt>
<pdfrwt beam="1">  1        2 0.81885129E-01 0.40447256E+03</pdfrwt>
<pdfrwt beam="2">  1       -2 0.10193352E-01 0.40447256E+03</pdfrwt>
<totfact> 0.37571890E+03</totfact>
</mgrwt>
</event>
<event>
 4    1  0.9508302E-005  0.3001101E+03  0.7818608E-02  0.1085186E+00
         -2   -1    0    0    0  501 -0.00000000000E+00  0.00000000000E+00  0.17908336596E+02  0.17908336777E+02  0.25500000000E-02 0. -1.
          2   -1    0    0  501    0  0.00000000000E+00 -0.00000000000E+00 -0.12573200794E+04  0.12573200794E+04  0.25500000000E-02 0.  1.
    5000001    1    1    2    0    0  0.69017332269E+02  0.12778078703E+02 -0.45729737710E+03  0.47976719621E+03  0.12700000000E+03 0.  0.
   -5000001    1    1    2    0    0 -0.69017332269E+02 -0.12778078703E+02 -0.78211436574E+03  0.79546122002E+03  0.12700000000E+03 0.  0.
<mgrwt>
<rscale>  0 0.30011006E+03</rscale>
<asrwt>0</asrwt>
<pdfrwt beam="1">  1        2 0.17961710E+00 0.30011006E+03</pdfrwt>
<pdfrwt beam="2">  1       -2 0.25583346E-02 0.30011006E+03</pdfrwt>
<totfact> 0.11221780E+04</totfact>
</mgrwt>
</event>
<event>
 4    1  0.9508302E-005  0.4894745E+03  0.7818608E-02  0.1016563E+00
         -2   -1    0    0    0  501 -0.00000000000E+00  0.00000000000E+00  0.47430545702E+02  0.47430545770E+02  0.25500000000E-02 0. -1.
          2   -1    0    0  501    0  0.00000000000E+00 -0.00000000000E+00 -0.12628214439E+04  0.12628214439E+04  0.25500000000E-02 0.  1.
    5000001    1    1    2    0    0  0.20445059658E+03  0.18594730647E+01 -0.48907102752E+03  0.54508987703E+03  0.12700000000E+03 0.  0.
   -5000001    1    1    2    0    0 -0.20445059658E+03 -0.18594730647E+01 -0.72631987072E+03  0.76516211269E+03  0.12700000000E+03 0.  0.
<mgrwt>
<rscale>  0 0.48947445E+03</rscale>
<asrwt>0</asrwt>
<pdfrwt beam="1">  1        2 0.18040304E+00 0.48947445E+03</pdfrwt>
<pdfrwt beam="2">  1       -2 0.67757930E-02 0.48947445E+03</pdfrwt>
<totfact> 0.25419378E+03</totfact>
</mgrwt>
</event>
<event>
 4    1  0.9508302E-005  0.2837769E+03  0.7818608E-02  0.1093644E+00
         -2   -1    0    0    0  501 -0.00000000000E+00  0.00000000000E+00  0.37803135293E+02  0.37803135379E+02  0.25500000000E-02 0. -1.
          2   -1    0    0  501    0  0.00000000000E+00 -0.00000000000E+00 -0.53255728917E+03  0.53255728918E+03  0.25500000000E-02 0.  1.
    5000001    1    1    2    0    0  0.46061560729E+02 -0.29888555001E+02 -0.18419033297E+03  0.23036942474E+03  0.12700000000E+03 0.  0.
   -5000001    1    1    2    0    0 -0.46061560729E+02  0.29888555001E+02 -0.31056382091E+03  0.33999099981E+03  0.12700000000E+03 0.  0.
<mgrwt>
<rscale>  0 0.28377692E+03</rscale>
<asrwt>0</asrwt>
<pdfrwt beam="1">  1        2 0.76079608E-01 0.28377692E+03</pdfrwt>
<pdfrwt beam="2">  1       -2 0.54004482E-02 0.28377692E+03</pdfrwt>
<totfact> 0.10923248E+04</totfact>
</mgrwt>
</event>
<event>
 4    1  0.9508302E-005  0.2897532E+03  0.7818608E-02  0.1090478E+00
         -2   -1    0    0    0  501 -0.00000000000E+00  0.00000000000E+00  0.12121392000E+02  0.12121392268E+02  0.25500000000E-02 0. -1.
          2   -1    0    0  501    0  0.00000000000E+00 -0.00000000000E+00 -0.17315856048E+04  0.17315856048E+04  0.25500000000E-02 0.  1.
    5000001    1    1    2    0    0 -0.21900156515E+02 -0.52922959133E+02 -0.62054242411E+03  0.63598927395E+03  0.12700000000E+03 0.  0.
   -5000001    1    1    2    0    0  0.21900156515E+02  0.52922959133E+02 -0.10989217887E+04  0.11077177231E+04  0.12700000000E+03 0.  0.
<mgrwt>
<rscale>  0 0.28975319E+03</rscale>
<asrwt>0</asrwt>
<pdfrwt beam="1">  1        2 0.24736921E+00 0.28975319E+03</pdfrwt>
<pdfrwt beam="2">  1       -2 0.17316286E-02 0.28975319E+03</pdfrwt>
<totfact> 0.11439417E+04</totfact>
</mgrwt>
</event>
<event>
 4    1  0.9508302E-005  0.1081648E+04  0.7818608E-02  0.9223266E-01
         -2   -1    0    0    0  501 -0.00000000000E+00  0.00000000000E+00  0.27187932525E+03  0.27187932526E+03  0.25500000000E-02 0. -1.
          2   -1    0    0  501    0  0.00000000000E+00 -0.00000000000E+00 -0.10758099560E+04  0.10758099560E+04  0.25500000000E-02 0.  1.
    5000001    1    1    2    0    0 -0.46938091518E+03  0.18886131218E+03 -0.22411820495E+03  0.56775435583E+03  0.12700000000E+03 0.  0.
   -5000001    1    1    2    0    0  0.46938091518E+03 -0.18886131218E+03 -0.57981242576E+03  0.77993492539E+03  0.12700000000E+03 0.  0.
<mgrwt>
<rscale>  0 0.10816478E+04</rscale>
<asrwt>0</asrwt>
<pdfrwt beam="1">  1        2 0.15368713E+00 0.10816478E+04</pdfrwt>
<pdfrwt beam="2">  1       -2 0.38839904E-01 0.10816478E+04</pdfrwt>
<totfact> 0.15702992E+02</totfact>
</mgrwt>
</event>
<event>
 4    1  0.9508302E-005  0.4406747E+03  0.7818608E-02  0.1030540E+00
         -2   -1    0    0    0  501 -0.00000000000E+00  0.00000000000E+00  0.28891738328E+02  0.28891738440E+02  0.25500000000E-02 0. -1.
          2   -1    0    0  501    0  0.00000000000E+00 -0.00000000000E+00 -0.16803608918E+04  0.16803608918E+04  0.25500000000E-02 0.  1.
    5000001    1    1    2    0    0 -0.58022263932E+02 -0.16377184657E+03 -0.64249867625E+03  0.67758493919E+03  0.12700000000E+03 0.  0.
   -5000001    1    1    2    0    0  0.58022263932E+02  0.16377184657E+03 -0.10089704772E+04  0.10316676911E+04  0.12700000000E+03 0.  0.
<mgrwt>
<rscale>  0 0.44067470E+03</rscale>
<asrwt>0</asrwt>
<pdfrwt beam="1">  1        2 0.24005149E+00 0.44067470E+03</pdfrwt>
<pdfrwt beam="2">  1       -2 0.41273923E-02 0.44067470E+03</pdfrwt>
<totfact> 0.33191955E+03</totfact>
</mgrwt>
</event>
<event>
 4    1  0.9508302E-005  0.3973819E+03  0.7818608E-02  0.1044690E+00
         -2   -1    0    0    0  501 -0.00000000000E+00  0.00000000000E+00  0.61212330189E+02  0.61212330242E+02  0.25500000000E-02 0. -1.
          2   -1    0    0  501    0  0.00000000000E+00 -0.00000000000E+00 -0.64493688930E+03  0.64493688930E+03  0.25500000000E-02 0.  1.
    5000001    1    1    2    0    0  0.84185674908E+02 -0.12545206811E+03 -0.25119875000E+03  0.31946089159E+03  0.12700000000E+03 0.  0.
   -5000001    1    1    2    0    0 -0.84185674908E+02  0.12545206811E+03 -0.33252580910E+03  0.38668832795E+03  0.12700000000E+03 0.  0.
<mgrwt>
<rscale>  0 0.39738188E+03</rscale>
<asrwt>0</asrwt>
<pdfrwt beam="1">  1        2 0.92133838E-01 0.39738188E+03</pdfrwt>
<pdfrwt beam="2">  1       -2 0.87446189E-02 0.39738188E+03</pdfrwt>
<totfact> 0.41835150E+03</totfact>
</mgrwt>
</event>
<event>
 4    1  0.9508302E-005  0.4332798E+03  0.7818608E-02  0.1032829E+00
          2   -1    0    0  501    0  0.00000000000E+00  0.00000000000E+00  0.51694091535E+02  0.51694091598E+02  0.25500000000E-02 0.  1.
         -2   -1    0    0    0  501 -0.00000000000E+00 -0.00000000000E+00 -0.90789580485E+03  0.90789580485E+03  0.25500000000E-02 0. -1.
    5000001    1    1    2    0    0 -0.10910387751E+03  0.11757666736E+03 -0.58588908505E+03  0.62058274934E+03  0.12700000000E+03 0.  0.
   -5000001    1    1    2    0    0  0.10910387751E+03 -0.11757666736E+03 -0.27031262826E+03  0.33900714711E+03  0.12700000000E+03 0.  0.
<mgrwt>
<rscale>  0 0.43327981E+03</rscale>
<asrwt>0</asrwt>
<pdfrwt beam="1">  1        2 0.73848708E-02 0.43327981E+03</pdfrwt>
<pdfrwt beam="2">  1       -2 0.12969939E+00 0.43327981E+03</pdfrwt>
<totfact> 0.43451639E+02</totfact>
</mgrwt>
</event>
<event>
 4    1  0.9508302E-005  0.3753907E+03  0.7818608E-02  0.1052651E+00
          2   -1    0    0  501    0  0.00000000000E+00  0.00000000000E+00  0.18460329449E+04  0.18460329449E+04  0.25500000000E-02 0.  1.
         -2   -1    0    0    0  501 -0.00000000000E+00 -0.00000000000E+00 -0.19083924114E+02  0.19083924285E+02  0.25500000000E-02 0. -1.
    5000001    1    1    2    0    0  0.38405575569E+02 -0.94921886239E+01  0.25554236326E+03  0.28809024506E+03  0.12700000000E+03 0.  0.
   -5000001    1    1    2    0    0 -0.38405575569E+02  0.94921886239E+01  0.15714066576E+04  0.15770266242E+04  0.12700000000E+03 0.  0.
<mgrwt>
<rscale>  0 0.37539074E+03</rscale>
<asrwt>0</asrwt>
<pdfrwt beam="1">  1        2 0.26371894E+00 0.37539074E+03</pdfrwt>
<pdfrwt beam="2">  1       -2 0.27262754E-02 0.37539074E+03</pdfrwt>
<totfact> 0.51378525E+03</totfact>
</mgrwt>
</event>
<event>
 4    1  0.9508302E-005  0.2989047E+03  0.7818608E-02  0.1085789E+00
         -2   -1    0    0    0  501 -0.00000000000E+00  0.00000000000E+00  0.27903023562E+02  0.27903023679E+02  0.25500000000E-02 0. -1.
          2   -1    0    0  501    0  0.00000000000E+00 -0.00000000000E+00 -0.80048675460E+03  0.80048675461E+03  0.25500000000E-02 0.  1.
    5000001    1    1    2    0    0 -0.36947053333E+02 -0.68141640736E+02 -0.34723228372E+03  0.37776663009E+03  0.12700000000E+03 0.  0.
   -5000001    1    1    2    0    0  0.36947053333E+02  0.68141640736E+02 -0.42535144732E+03  0.45062314819E+03  0.12700000000E+03 0.  0.
<mgrwt>
<rscale>  0 0.29890467E+03</rscale>
<asrwt>0</asrwt>
<pdfrwt beam="1">  1        2 0.11435524E+00 0.29890467E+03</pdfrwt>
<pdfrwt beam="2">  1       -2 0.39861467E-02 0.29890467E+03</pdfrwt>
<totfact> 0.10760178E+04</totfact>
</mgrwt>
</event>
<event>
 4    1  0.9508302E-005  0.3577698E+03  0.7818608E-02  0.1059470E+00
          2   -1    0    0  501    0  0.00000000000E+00  0.00000000000E+00  0.29287069976E+03  0.29287069977E+03  0.25500000000E-02 0.  1.
         -2   -1    0    0    0  501 -0.00000000000E+00 -0.00000000000E+00 -0.10926259711E+03  0.10926259714E+03  0.25500000000E-02 0. -1.
    5000001    1    1    2    0    0 -0.10268785153E+03 -0.61231044137E+02  0.47171517146E+02  0.18068809492E+03  0.12700000000E+03 0.  0.
   -5000001    1    1    2    0    0  0.10268785153E+03  0.61231044137E+02  0.13643658551E+03  0.22144520198E+03  0.12700000000E+03 0.  0.
<mgrwt>
<rscale>  0 0.35776983E+03</rscale>
<asrwt>0</asrwt>
<pdfrwt beam="1">  1        2 0.41838671E-01 0.35776983E+03</pdfrwt>
<pdfrwt beam="2">  1       -2 0.15608943E-01 0.35776983E+03</pdfrwt>
<totfact> 0.39143938E+03</totfact>
</mgrwt>
</event>
<event>
 4    1  0.9508302E-005  0.3358125E+03  0.7818608E-02  0.1068594E+00
          2   -1    0    0  501    0  0.00000000000E+00  0.00000000000E+00  0.10677646984E+04  0.10677646984E+04  0.25500000000E-02 0.  1.
         -2   -1    0    0    0  501 -0.00000000000E+00 -0.00000000000E+00 -0.26403290232E+02  0.26403290356E+02  0.25500000000E-02 0. -1.
    5000001    1    1    2    0    0  0.11553557157E+02 -0.10664993066E+03  0.59749639762E+03  0.62019241979E+03  0.12700000000E+03 0.  0.
   -5000001    1    1    2    0    0 -0.11553557157E+02  0.10664993066E+03  0.44386501053E+03  0.47397556895E+03  0.12700000000E+03 0.  0.
<mgrwt>
<rscale>  0 0.33581246E+03</rscale>
<asrwt>0</asrwt>
<pdfrwt beam="1">  1        2 0.15253783E+00 0.33581246E+03</pdfrwt>
<pdfrwt beam="2">  1       -2 0.37718982E-02 0.33581246E+03</pdfrwt>
<totfact> 0.80166631E+03</totfact>
</mgrwt>
</event>
<event>
 4    1  0.9508302E-005  0.1055373E+04  0.7818608E-02  0.9249814E-01
          2   -1    0    0  501    0  0.00000000000E+00  0.00000000000E+00  0.12142590986E+04  0.12142590986E+04  0.25500000000E-02 0.  1.
         -2   -1    0    0    0  501 -0.00000000000E+00 -0.00000000000E+00 -0.22931947589E+03  0.22931947591E+03  0.25500000000E-02 0. -1.
    5000001    1    1    2    0    0  0.45330753884E+03 -0.20485179373E+03  0.65928017343E+03  0.83560237508E+03  0.12700000000E+03 0.  0.
   -5000001    1    1    2    0    0 -0.45330753884E+03  0.20485179373E+03  0.32565944926E+03  0.60797619941E+03  0.12700000000E+03 0.  0.
<mgrwt>
<rscale>  0 0.10553734E+04</rscale>
<asrwt>0</asrwt>
<pdfrwt beam="1">  1        2 0.17346559E+00 0.10553734E+04</pdfrwt>
<pdfrwt beam="2">  1       -2 0.32759925E-01 0.10553734E+04</pdfrwt>
<totfact> 0.18103392E+02</totfact>
</mgrwt>
</event>
<event>
 4    1  0.9508302E-005  0.3156290E+03  0.7818608E-02  0.1077679E+00
         -2   -1    0    0    0  501 -0.00000000000E+00  0.00000000000E+00  0.30318051344E+02  0.30318051452E+02  0.25500000000E-02 0. -1.
          2   -1    0    0  501    0  0.00000000000E+00 -0.00000000000E+00 -0.82147132192E+03  0.82147132193E+03  0.25500000000E-02 0.  1.
    5000001    1    1    2    0    0 -0.72937022227E+02 -0.56099644709E+02 -0.34810470660E+03  0.38180212952E+03  0.12700000000E+03 0.  0.
   -5000001    1    1    2    0    0  0.72937022227E+02  0.56099644709E+02 -0.44304856398E+03  0.46998724386E+03  0.12700000000E+03 0.  0.
<mgrwt>
<rscale>  0 0.31562896E+03</rscale>
<asrwt>0</asrwt>
<pdfrwt beam="1">  1        2 0.11735303E+00 0.31562896E+03</pdfrwt>
<pdfrwt beam="2">  1       -2 0.43311507E-02 0.31562896E+03</pdfrwt>
<totfact> 0.92056254E+03</totfact>
</mgrwt>
</event>
<event>
 4    1  0.9508302E-005  0.3872949E+03  0.7818608E-02  0.1048270E+00
         -2   -1    0    0    0  501 -0.00000000000E+00  0.00000000000E+00  0.53300175930E+02  0.53300175991E+02  0.25500000000E-02 0. -1.
          2   -1    0    0  501    0  0.00000000000E+00 -0.00000000000E+00 -0.70354977641E+03  0.70354977642E+03  0.25500000000E-02 0.  1.
    5000001    1    1    2    0    0 -0.65121038404E+02 -0.15601307417E+02 -0.71183278535E+02  0.16025045890E+03  0.12700000000E+03 0.  0.
   -5000001    1    1    2    0    0  0.65121038404E+02  0.15601307417E+02 -0.57906632195E+03  0.59659949351E+03  0.12700000000E+03 0.  0.
<mgrwt>
<rscale>  0 0.38729486E+03</rscale>
<asrwt>0</asrwt>
<pdfrwt beam="1">  1        2 0.10050711E+00 0.38729486E+03</pdfrwt>
<pdfrwt beam="2">  1       -2 0.76143113E-02 0.38729486E+03</pdfrwt>
<totfact> 0.46909163E+03</totfact>
</mgrwt>
</event>
<event>
 4    1  0.9508302E-005  0.3224409E+03  0.7818608E-02  0.1074531E+00
         -2   -1    0    0    0  501 -0.00000000000E+00  0.00000000000E+00  0.10981009590E+03  0.10981009593E+03  0.25500000000E-02 0. -1.
          2   -1    0    0  501    0  0.00000000000E+00 -0.00000000000E+00 -0.23669991622E+03  0.23669991623E+03  0.25500000000E-02 0.  1.
    5000001    1    1    2    0    0 -0.13275994311E+02 -0.49176244717E+02 -0.15506433622E+03  0.20680547245E+03  0.12700000000E+03 0.  0.
   -5000001    1    1    2    0    0  0.13275994311E+02  0.49176244717E+02  0.28174515907E+02  0.13970453971E+03  0.12700000000E+03 0.  0.
<mgrwt>
<rscale>  0 0.32244094E+03</rscale>
<asrwt>0</asrwt>
<pdfrwt beam="1">  1        2 0.33814274E-01 0.32244094E+03</pdfrwt>
<pdfrwt beam="2">  1       -2 0.15687157E-01 0.32244094E+03</pdfrwt>
<totfact> 0.48821055E+03</totfact>
</mgrwt>
</event>
<event>
 4    1  0.9508302E-005  0.6286813E+03  0.7818608E-02  0.9847625E-01
          2   -1    0    0  501    0  0.00000000000E+00  0.00000000000E+00  0.22936894759E+04  0.22936894759E+04  0.25500000000E-02 0. -1.
         -2   -1    0    0    0  501 -0.00000000000E+00 -0.00000000000E+00 -0.43079091898E+02  0.43079091974E+02  0.25500000000E-02 0.  1.
    5000001    1    1    2    0    0  0.47457286887E+02 -0.28359417359E+03  0.11186453027E+04  0.11619699491E+04  0.12700000000E+03 0.  0.
   -5000001    1    1    2    0    0 -0.47457286887E+02  0.28359417359E+03  0.11319650813E+04  0.11747986188E+04  0.12700000000E+03 0.  0.
<mgrwt>
<rscale>  0 0.62868135E+03</rscale>
<asrwt>0</asrwt>
<pdfrwt beam="1">  1        2 0.32766997E+00 0.62868135E+03</pdfrwt>
<pdfrwt beam="2">  1       -2 0.61541552E-02 0.62868135E+03</pdfrwt>
<totfact> 0.87324548E+02</totfact>
</mgrwt>
</event>
<event>
 4    1  0.9508302E-005  0.4985812E+03  0.7818608E-02  0.1014150E+00
         -2   -1    0    0    0  501 -0.00000000000E+00  0.00000000000E+00  0.33371855645E+02  0.33371855742E+02  0.25500000000E-02 0. -1.
          2   -1    0    0  501    0  0.00000000000E+00 -0.00000000000E+00 -0.18622223250E+04  0.18622223250E+04  0.25500000000E-02 0.  1.
    5000001    1    1    2    0    0 -0.12421073253E+03  0.60341471793E+02 -0.15385450724E+04  0.15499417212E+04  0.12700000000E+03 0.  0.
   -5000001    1    1    2    0    0  0.12421073253E+03 -0.60341471793E+02 -0.29030539697E+03  0.34565245956E+03  0.12700000000E+03 0.  0.
<mgrwt>
<rscale>  0 0.49858125E+03</rscale>
<asrwt>0</asrwt>
<pdfrwt beam="1">  1        2 0.26603170E+00 0.49858125E+03</pdfrwt>
<pdfrwt beam="2">  1       -2 0.47674091E-02 0.49858125E+03</pdfrwt>
<totfact> 0.21535329E+03</totfact>
</mgrwt>
</event>
<event>
 4    1  0.9508302E-005  0.2949909E+03  0.7818608E-02  0.1087772E+00
         -2   -1    0    0    0  501 -0.00000000000E+00  0.00000000000E+00  0.17573473852E+02  0.17573474037E+02  0.25500000000E-02 0. -1.
          2   -1    0    0  501    0  0.00000000000E+00 -0.00000000000E+00 -0.12379397429E+04  0.12379397429E+04  0.25500000000E-02 0.  1.
    5000001    1    1    2    0    0  0.23715068640E+02  0.66940411197E+02 -0.71290259972E+03  0.72760053588E+03  0.12700000000E+03 0.  0.
   -5000001    1    1    2    0    0 -0.23715068640E+02 -0.66940411197E+02 -0.50746366935E+03  0.52791268108E+03  0.12700000000E+03 0.  0.
<mgrwt>
<rscale>  0 0.29499086E+03</rscale>
<asrwt>0</asrwt>
<pdfrwt beam="1">  1        2 0.17684848E+00 0.29499086E+03</pdfrwt>
<pdfrwt beam="2">  1       -2 0.25104971E-02 0.29499086E+03</pdfrwt>
<totfact> 0.11814465E+04</totfact>
</mgrwt>
</event>
<event>
 4    1  0.9508302E-005  0.3804739E+03  0.7818608E-02  0.1050759E+00
          2   -1    0    0  501    0  0.00000000000E+00  0.00000000000E+00  0.12648427723E+03  0.12648427726E+03  0.25500000000E-02 0.  1.
         -2   -1    0    0    0  501 -0.00000000000E+00 -0.00000000000E+00 -0.28612329451E+03  0.28612329452E+03  0.25500000000E-02 0. -1.
    5000001    1    1    2    0    0 -0.10527983433E+03 -0.85605053758E+02 -0.12385739970E+03  0.22334216844E+03  0.12700000000E+03 0.  0.
   -5000001    1    1    2    0    0  0.10527983433E+03  0.85605053758E+02 -0.35781617581E+02  0.18926540334E+03  0.12700000000E+03 0.  0.
<mgrwt>
<rscale>  0 0.38047391E+03</rscale>
<asrwt>0</asrwt>
<pdfrwt beam="1">  1        2 0.18069183E-01 0.38047391E+03</pdfrwt>
<pdfrwt beam="2">  1       -2 0.40874756E-01 0.38047391E+03</pdfrwt>
<totfact> 0.17986846E+03</totfact>
</mgrwt>
</event>
<event>
 4    1  0.9508302E-005  0.3521412E+03  0.7818608E-02  0.1061740E+00
         -2   -1    0    0    0  501 -0.00000000000E+00  0.00000000000E+00  0.15799931811E+02  0.15799932016E+02  0.25500000000E-02 0. -1.
          2   -1    0    0  501    0  0.00000000000E+00 -0.00000000000E+00 -0.19620875215E+04  0.19620875215E+04  0.25500000000E-02 0.  1.
    5000001    1    1    2    0    0  0.80825295707E+02 -0.80354140555E+02 -0.72945643475E+03  0.74914965563E+03  0.12700000000E+03 0.  0.
   -5000001    1    1    2    0    0 -0.80825295707E+02  0.80354140555E+02 -0.12168311549E+04  0.12287377979E+04  0.12700000000E+03 0.  0.
<mgrwt>
<rscale>  0 0.35214116E+03</rscale>
<asrwt>0</asrwt>
<pdfrwt beam="1">  1        2 0.28029806E+00 0.35214116E+03</pdfrwt>
<pdfrwt beam="2">  1       -2 0.22571344E-02 0.35214116E+03</pdfrwt>
<totfact> 0.59680494E+03</totfact>
</mgrwt>
</event>
<event>
 4    1  0.9508302E-005  0.3105348E+03  0.7818608E-02  0.1080090E+00
         -2   -1    0    0    0  501 -0.00000000000E+00  0.00000000000E+00  0.19225326097E+02  0.19225326266E+02  0.25500000000E-02 0. -1.
          2   -1    0    0  501    0  0.00000000000E+00 -0.00000000000E+00 -0.12539689322E+04  0.12539689322E+04  0.25500000000E-02 0.  1.
    5000001    1    1    2    0    0 -0.66404384931E+02 -0.53745725986E+02 -0.72435102047E+03  0.74034555868E+03  0.12700000000E+03 0.  0.
   -5000001    1    1    2    0    0  0.66404384931E+02  0.53745725986E+02 -0.51039258568E+03  0.53284869984E+03  0.12700000000E+03 0.  0.
<mgrwt>
<rscale>  0 0.31053478E+03</rscale>
<asrwt>0</asrwt>
<pdfrwt beam="1">  1        2 0.17913837E+00 0.31053478E+03</pdfrwt>
<pdfrwt beam="2">  1       -2 0.27464760E-02 0.31053478E+03</pdfrwt>
<totfact> 0.10148848E+04</totfact>
</mgrwt>
</event>
<event>
 4    1  0.9508302E-005  0.4744937E+03  0.7818608E-02  0.1020660E+00
         -2   -1    0    0    0  501 -0.00000000000E+00  0.00000000000E+00  0.45364202881E+02  0.45364202952E+02  0.25500000000E-02 0. -1.
          2   -1    0    0  501    0  0.00000000000E+00 -0.00000000000E+00 -0.12407593276E+04  0.12407593276E+04  0.25500000000E-02 0.  1.
    5000001    1    1    2    0    0  0.42783039309E+01 -0.13055801888E+03 -0.10096013764E+04  0.10259082022E+04  0.12700000000E+03 0.  0.
   -5000001    1    1    2    0    0 -0.42783039309E+01  0.13055801888E+03 -0.18579374831E+03  0.26021532831E+03  0.12700000000E+03 0.  0.
<mgrwt>
<rscale>  0 0.47449366E+03</rscale>
<asrwt>0</asrwt>
<pdfrwt beam="1">  1        2 0.17725131E+00 0.47449366E+03</pdfrwt>
<pdfrwt beam="2">  1       -2 0.64806012E-02 0.47449366E+03</pdfrwt>
<totfact> 0.28027073E+03</totfact>
</mgrwt>
</event>
<event>
 4    1  0.9508302E-005  0.3925013E+03  0.7818608E-02  0.1046408E+00
         -2   -1    0    0    0  501 -0.00000000000E+00  0.00000000000E+00  0.47589285015E+02  0.47589285083E+02  0.25500000000E-02 0. -1.
          2   -1    0    0  501    0  0.00000000000E+00 -0.00000000000E+00 -0.80930651914E+03  0.80930651914E+03  0.25500000000E-02 0.  1.
    5000001    1    1    2    0    0  0.27664243204E+02 -0.13543623683E+03 -0.50583483772E+03  0.53954255407E+03  0.12700000000E+03 0.  0.
   -5000001    1    1    2    0    0 -0.27664243204E+02  0.13543623683E+03 -0.25588239640E+03  0.31735325016E+03  0.12700000000E+03 0.  0.
<mgrwt>
<rscale>  0 0.39250131E+03</rscale>
<asrwt>0</asrwt>
<pdfrwt beam="1">  1        2 0.11561521E+00 0.39250131E+03</pdfrwt>
<pdfrwt beam="2">  1       -2 0.67984698E-02 0.39250131E+03</pdfrwt>
<totfact> 0.47150189E+03</totfact>
</mgrwt>
</event>
<event>
 4    1  0.9508302E-005  0.2857399E+03  0.7818608E-02  0.1092595E+00
          2   -1    0    0  501    0  0.00000000000E+00  0.00000000000E+00  0.11462538607E+04  0.11462538607E+04  0.25500000000E-02 0.  1.
         -2   -1    0    0    0  501 -0.00000000000E+00 -0.00000000000E+00 -0.17807413112E+02  0.17807413294E+02  0.25500000000E-02 0. -1.
    5000001    1    1    2    0    0 -0.10144817765E+02  0.56146439401E+02  0.69480750332E+03  0.70861964879E+03  0.12700000000E+03 0.  0.
   -5000001    1    1    2    0    0  0.10144817765E+02 -0.56146439401E+02  0.43363894431E+03  0.45544162525E+03  0.12700000000E+03 0.  0.
<mgrwt>
<rscale>  0 0.28573985E+03</rscale>
<asrwt>0</asrwt>
<pdfrwt beam="1">  1        2 0.16375060E+00 0.28573985E+03</pdfrwt>
<pdfrwt beam="2">  1       -2 0.25439154E-02 0.28573985E+03</pdfrwt>
<totfact> 0.12986851E+04</totfact>
</mgrwt>
</event>
<event>
 4    1  0.9508302E-005  0.5173416E+03  0.7818608E-02  0.1009349E+00
          2   -1    0    0  501    0  0.00000000000E+00  0.00000000000E+00  0.12615137692E+04  0.12615137692E+04  0.25500000000E-02 0.  1.
         -2   -1    0    0    0  501 -0.00000000000E+00 -0.00000000000E+00 -0.53039906343E+02  0.53039906404E+02  0.25500000000E-02 0. -1.
    5000001    1    1    2    0    0 -0.18231429512E+03  0.13214283326E+03  0.62715391075E+03  0.67834449828E+03  0.12700000000E+03 0.  0.
   -5000001    1    1    2    0    0  0.18231429512E+03 -0.13214283326E+03  0.58131995211E+03  0.63620917733E+03  0.12700000000E+03 0.  0.
<mgrwt>
<rscale>  0 0.51734156E+03</rscale>
<asrwt>0</asrwt>
<pdfrwt beam="1">  1        2 0.18021624E+00 0.51734156E+03</pdfrwt>
<pdfrwt beam="2">  1       -2 0.75771299E-02 0.51734156E+03</pdfrwt>
<totfact> 0.21341187E+03</totfact>
</mgrwt>
</event>
<event>
 4    1  0.9508302E-005  0.3694834E+03  0.7818608E-02  0.1054891E+00
         -2   -1    0    0    0  501 -0.00000000000E+00  0.00000000000E+00  0.19215683951E+02  0.19215684121E+02  0.25500000000E-02 0. -1.
          2   -1    0    0  501    0  0.00000000000E+00 -0.00000000000E+00 -0.17761265529E+04  0.17761265529E+04  0.25500000000E-02 0.  1.
    5000001    1    1    2    0    0 -0.12002606470E+03 -0.40298135552E+02 -0.10941392363E+04  0.11087379601E+04  0.12700000000E+03 0.  0.
   -5000001    1    1    2    0    0  0.12002606470E+03  0.40298135552E+02 -0.66277163271E+03  0.68660427690E+03  0.12700000000E+03 0.  0.
<mgrwt>
<rscale>  0 0.36948335E+03</rscale>
<asrwt>0</asrwt>
<pdfrwt beam="1">  1        2 0.25373226E+00 0.36948335E+03</pdfrwt>
<pdfrwt beam="2">  1       -2 0.27450988E-02 0.36948335E+03</pdfrwt>
<totfact> 0.55074294E+03</totfact>
</mgrwt>
</event>
<event>
 4    1  0.9508302E-005  0.4417386E+03  0.7818608E-02  0.1030215E+00
         -2   -1    0    0    0  501 -0.00000000000E+00  0.00000000000E+00  0.35204757958E+02  0.35204758050E+02  0.25500000000E-02 0. -1.
          2   -1    0    0  501    0  0.00000000000E+00 -0.00000000000E+00 -0.13857001237E+04  0.13857001237E+04  0.25500000000E-02 0.  1.
    5000001    1    1    2    0    0  0.10469250582E+03 -0.13839369451E+03 -0.51310637772E+03  0.55634565723E+03  0.12700000000E+03 0.  0.
   -5000001    1    1    2    0    0 -0.10469250582E+03  0.13839369451E+03 -0.83738898802E+03  0.86455922452E+03  0.12700000000E+03 0.  0.
<mgrwt>
<rscale>  0 0.44173855E+03</rscale>
<asrwt>0</asrwt>
<pdfrwt beam="1">  1        2 0.19795713E+00 0.44173855E+03</pdfrwt>
<pdfrwt beam="2">  1       -2 0.50292520E-02 0.44173855E+03</pdfrwt>
<totfact> 0.34729144E+03</totfact>
</mgrwt>
</event>
<event>
 4    1  0.9508302E-005  0.4689030E+03  0.7818608E-02  0.1022230E+00
          2   -1    0    0  501    0  0.00000000000E+00  0.00000000000E+00  0.13700942772E+04  0.13700942772E+04  0.25500000000E-02 0.  1.
         -2   -1    0    0    0  501 -0.00000000000E+00 -0.00000000000E+00 -0.40119504690E+02  0.40119504771E+02  0.25500000000E-02 0. -1.
    5000001    1    1    2    0    0  0.17622775792E+03 -0.38626365439E+02  0.42646062287E+03  0.48015193598E+03  0.12700000000E+03 0.  0.
   -5000001    1    1    2    0    0 -0.17622775792E+03  0.38626365439E+02  0.90351414965E+03  0.93006184600E+03  0.12700000000E+03 0.  0.
<mgrwt>
<rscale>  0 0.46890299E+03</rscale>
<asrwt>0</asrwt>
<pdfrwt beam="1">  1        2 0.19572778E+00 0.46890299E+03</pdfrwt>
<pdfrwt beam="2">  1       -2 0.57313570E-02 0.46890299E+03</pdfrwt>
<totfact> 0.28914624E+03</totfact>
</mgrwt>
</event>
<event>
 4    1  0.9508302E-005  0.2973181E+03  0.7818608E-02  0.1086589E+00
         -2   -1    0    0    0  501 -0.00000000000E+00  0.00000000000E+00  0.49574734160E+02  0.49574734225E+02  0.25500000000E-02 0. -1.
          2   -1    0    0  501    0  0.00000000000E+00 -0.00000000000E+00 -0.44578180618E+03  0.44578180618E+03  0.25500000000E-02 0.  1.
    5000001    1    1    2    0    0  0.27247877728E+02 -0.44310386736E+02 -0.10290827236E+03  0.17153707976E+03  0.12700000000E+03 0.  0.
   -5000001    1    1    2    0    0 -0.27247877728E+02  0.44310386736E+02 -0.29329879966E+03  0.32381946065E+03  0.12700000000E+03 0.  0.
<mgrwt>
<rscale>  0 0.29731811E+03</rscale>
<asrwt>0</asrwt>
<pdfrwt beam="1">  1        2 0.63683113E-01 0.29731811E+03</pdfrwt>
<pdfrwt beam="2">  1       -2 0.70821051E-02 0.29731811E+03</pdfrwt>
<totfact> 0.87745770E+03</totfact>
</mgrwt>
</event>
<event>
 4    1  0.9508302E-005  0.4508139E+03  0.7818608E-02  0.1027480E+00
         -2   -1    0    0    0  501 -0.00000000000E+00  0.00000000000E+00  0.20208997083E+02  0.20208997243E+02  0.25500000000E-02 0. -1.
          2   -1    0    0  501    0  0.00000000000E+00 -0.00000000000E+00 -0.25141427791E+04  0.25141427791E+04  0.25500000000E-02 0.  1.
    5000001    1    1    2    0    0 -0.74447783780E+02  0.96111548937E+02 -0.20399967916E+04  0.20475585003E+04  0.12700000000E+03 0.  0.
   -5000001    1    1    2    0    0  0.74447783780E+02 -0.96111548937E+02 -0.45393699043E+03  0.48679327607E+03  0.12700000000E+03 0.  0.
<mgrwt>
<rscale>  0 0.45081395E+03</rscale>
<asrwt>0</asrwt>
<pdfrwt beam="1">  1        2 0.35916306E+00 0.45081395E+03</pdfrwt>
<pdfrwt beam="2">  1       -2 0.28870012E-02 0.45081395E+03</pdfrwt>
<totfact> 0.21844108E+03</totfact>
</mgrwt>
</event>
<event>
 4    1  0.9508302E-005  0.3258543E+03  0.7818608E-02  0.1072986E+00
          2   -1    0    0  501    0  0.00000000000E+00  0.00000000000E+00  0.93085235696E+03  0.93085235696E+03  0.25500000000E-02 0.  1.
         -2   -1    0    0    0  501 -0.00000000000E+00 -0.00000000000E+00 -0.28517150673E+02  0.28517150787E+02  0.25500000000E-02 0. -1.
    5000001    1    1    2    0    0  0.90989486232E+02 -0.23725495335E+02  0.56798357569E+03  0.58955604313E+03  0.12700000000E+03 0.  0.
   -5000001    1    1    2    0    0 -0.90989486232E+02  0.23725495335E+02  0.33435163059E+03  0.36981346462E+03  0.12700000000E+03 0.  0.
<mgrwt>
<rscale>  0 0.32585430E+03</rscale>
<asrwt>0</asrwt>
<pdfrwt beam="1">  1        2 0.13297890E+00 0.32585430E+03</pdfrwt>
<pdfrwt beam="2">  1       -2 0.40738789E-02 0.32585430E+03</pdfrwt>
<totfact> 0.86039526E+03</totfact>
</mgrwt>
</event>
<event>
 4    1  0.9508302E-005  0.4217784E+03  0.7818608E-02  0.1036489E+00
         -2   -1    0    0    0  501 -0.00000000000E+00  0.00000000000E+00  0.32230461991E+03  0.32230461992E+03  0.25500000000E-02 0. -1.
          2   -1    0    0  501    0  0.00000000000E+00 -0.00000000000E+00 -0.13798825587E+03  0.13798825589E+03  0.25500000000E-02 0.  1.
    5000001    1    1    2    0    0  0.14862003249E+03  0.62465278295E+02  0.39193693432E+02  0.20893771956E+03  0.12700000000E+03 0.  0.
   -5000001    1    1    2    0    0 -0.14862003249E+03 -0.62465278295E+02  0.14512267061E+03  0.25135515625E+03  0.12700000000E+03 0.  0.
<mgrwt>
<rscale>  0 0.42177839E+03</rscale>
<asrwt>0</asrwt>
<pdfrwt beam="1">  1        2 0.19712608E-01 0.42177839E+03</pdfrwt>
<pdfrwt beam="2">  1       -2 0.46043517E-01 0.42177839E+03</pdfrwt>
<totfact> 0.12890654E+03</totfact>
</mgrwt>
</event>
<event>
 4    1  0.9508302E-005  0.3728103E+03  0.7818608E-02  0.1053624E+00
         -2   -1    0    0    0  501 -0.00000000000E+00  0.00000000000E+00  0.86338536021E+02  0.86338536058E+02  0.25500000000E-02 0. -1.
          2   -1    0    0  501    0  0.00000000000E+00 -0.00000000000E+00 -0.40244921341E+03  0.40244921342E+03  0.25500000000E-02 0.  1.
    5000001    1    1    2    0    0 -0.11854596346E+02 -0.13424266805E+03 -0.13005043198E+03  0.22628243467E+03  0.12700000000E+03 0.  0.
   -5000001    1    1    2    0    0  0.11854596346E+02  0.13424266805E+03 -0.18606024541E+03  0.26250531481E+03  0.12700000000E+03 0.  0.
<mgrwt>
<rscale>  0 0.37281028E+03</rscale>
<asrwt>0</asrwt>
<pdfrwt beam="1">  1        2 0.57492744E-01 0.37281028E+03</pdfrwt>
<pdfrwt beam="2">  1       -2 0.12334077E-01 0.37281028E+03</pdfrwt>
<totfact> 0.40891319E+03</totfact>
</mgrwt>
</event>
<event>
 4    1  0.9508302E-005  0.4755435E+03  0.7818608E-02  0.1020367E+00
         -2   -1    0    0    0  501 -0.00000000000E+00  0.00000000000E+00  0.25312037094E+02  0.25312037222E+02  0.25500000000E-02 0. -1.
          2   -1    0    0  501    0  0.00000000000E+00 -0.00000000000E+00 -0.22335387297E+04  0.22335387297E+04  0.25500000000E-02 0.  1.
    5000001    1    1    2    0    0  0.18066845550E+03  0.86987819233E+02 -0.11710271987E+04  0.11948396008E+04  0.12700000000E+03 0.  0.
   -5000001    1    1    2    0    0 -0.18066845550E+03 -0.86987819233E+02 -0.10371994939E+04  0.10640111661E+04  0.12700000000E+03 0.  0.
<mgrwt>
<rscale>  0 0.47554354E+03</rscale>
<asrwt>0</asrwt>
<pdfrwt beam="1">  1        2 0.31907684E+00 0.47554354E+03</pdfrwt>
<pdfrwt beam="2">  1       -2 0.36160067E-02 0.47554354E+03</pdfrwt>
<totfact> 0.21482462E+03</totfact>
</mgrwt>
</event>
<event>
 4    1  0.9508302E-005  0.1212682E+04  0.7818608E-02  0.9101828E-01
          2   -1    0    0  501    0  0.00000000000E+00  0.00000000000E+00  0.10010103778E+04  0.10010103778E+04  0.25500000000E-02 0.  1.
         -2   -1    0    0    0  501 -0.00000000000E+00 -0.00000000000E+00 -0.36727832727E+03  0.36727832728E+03  0.25500000000E-02 0. -1.
    5000001    1    1    2    0    0  0.11662186728E+03 -0.58055051881E+03  0.35035349673E+03  0.69965429855E+03  0.12700000000E+03 0.  0.
   -5000001    1    1    2    0    0 -0.11662186728E+03  0.58055051881E+03  0.28337855375E+03  0.66863440649E+03  0.12700000000E+03 0.  0.
<mgrwt>
<rscale>  0 0.12126820E+04</rscale>
<asrwt>0</asrwt>
<pdfrwt beam="1">  1        2 0.14300148E+00 0.12126820E+04</pdfrwt>
<pdfrwt beam="2">  1       -2 0.52468333E-01 0.12126820E+04</pdfrwt>
<totfact> 0.94806502E+01</totfact>
</mgrwt>
</event>
<event>
 4    1  0.9508302E-005  0.5013027E+03  0.7818608E-02  0.1013439E+00
          2   -1    0    0  501    0  0.00000000000E+00  0.00000000000E+00  0.12947965877E+04  0.12947965877E+04  0.25500000000E-02 0.  1.
         -2   -1    0    0    0  501 -0.00000000000E+00 -0.00000000000E+00 -0.48521987600E+02  0.48521987667E+02  0.25500000000E-02 0. -1.
    5000001    1    1    2    0    0 -0.20662548236E+03 -0.44056485071E+02  0.50145496874E+03  0.55876752726E+03  0.12700000000E+03 0.  0.
   -5000001    1    1    2    0    0  0.20662548236E+03  0.44056485071E+02  0.74481963133E+03  0.78455104808E+03  0.12700000000E+03 0.  0.
<mgrwt>
<rscale>  0 0.50130272E+03</rscale>
<asrwt>0</asrwt>
<pdfrwt beam="1">  1        2 0.18497096E+00 0.50130272E+03</pdfrwt>
<pdfrwt beam="2">  1       -2 0.69317117E-02 0.50130272E+03</pdfrwt>
<totfact> 0.23562423E+03</totfact>
</mgrwt>
</event>
<event>
 4    1  0.9508302E-005  0.3884243E+03  0.7818608E-02  0.1047863E+00
         -2   -1    0    0    0  501 -0.00000000000E+00  0.00000000000E+00  0.42916878314E+02  0.42916878390E+02  0.25500000000E-02 0. -1.
          2   -1    0    0  501    0  0.00000000000E+00 -0.00000000000E+00 -0.87886987969E+03  0.87886987969E+03  0.25500000000E-02 0.  1.
    5000001    1    1    2    0    0  0.86300237799E+02 -0.26869618447E+02 -0.14306391772E+03  0.21157975327E+03  0.12700000000E+03 0.  0.
   -5000001    1    1    2    0    0 -0.86300237799E+02  0.26869618447E+02 -0.69288908366E+03  0.71020700482E+03  0.12700000000E+03 0.  0.
<mgrwt>
<rscale>  0 0.38842426E+03</rscale>
<asrwt>0</asrwt>
<pdfrwt beam="1">  1        2 0.12555283E+00 0.38842426E+03</pdfrwt>
<pdfrwt beam="2">  1       -2 0.61309831E-02 0.38842426E+03</pdfrwt>
<totfact> 0.49812175E+03</totfact>
</mgrwt>
</event>
<event>
 4    1  0.9508302E-005  0.3558160E+03  0.7818608E-02  0.1060253E+00
          2   -1    0    0  501    0  0.00000000000E+00  0.00000000000E+00  0.11366264746E+03  0.11366264749E+03  0.25500000000E-02 0.  1.
         -2   -1    0    0    0  501 -0.00000000000E+00 -0.00000000000E+00 -0.27846658796E+03  0.27846658797E+03  0.25500000000E-02 0. -1.
    5000001    1    1    2    0    0  0.35299725142E+01 -0.99135001976E+02 -0.16547421602E+03  0.23097819267E+03  0.12700000000E+03 0.  0.
   -5000001    1    1    2    0    0 -0.35299725142E+01  0.99135001976E+02  0.67027552501E+00  0.16115104279E+03  0.12700000000E+03 0.  0.
<mgrwt>
<rscale>  0 0.35581596E+03</rscale>
<asrwt>0</asrwt>
<pdfrwt beam="1">  1        2 0.16237521E-01 0.35581596E+03</pdfrwt>
<pdfrwt beam="2">  1       -2 0.39780941E-01 0.35581596E+03</pdfrwt>
<totfact> 0.21468203E+03</totfact>
</mgrwt>
</event>
<event>
 4    1  0.9508302E-005  0.4112921E+03  0.7818608E-02  0.1039938E+00
          2   -1    0    0  501    0  0.00000000000E+00  0.00000000000E+00  0.86439973877E+03  0.86439973877E+03  0.25500000000E-02 0.  1.
         -2   -1    0    0    0  501 -0.00000000000E+00 -0.00000000000E+00 -0.48924473017E+02  0.48924473084E+02  0.25500000000E-02 0. -1.
    5000001    1    1    2    0    0  0.23708660543E+02  0.11182573836E+03  0.15363207889E+03  0.22978013841E+03  0.12700000000E+03 0.  0.
   -5000001    1    1    2    0    0 -0.23708660543E+02 -0.11182573836E+03  0.66184318687E+03  0.68354407345E+03  0.12700000000E+03 0.  0.
<mgrwt>
<rscale>  0 0.41129212E+03</rscale>
<asrwt>0</asrwt>
<pdfrwt beam="1">  1        2 0.12348567E+00 0.41129212E+03</pdfrwt>
<pdfrwt beam="2">  1       -2 0.69892108E-02 0.41129212E+03</pdfrwt>
<totfact> 0.41535761E+03</totfact>
</mgrwt>
</event>
<event>
 4    1  0.9508302E-005  0.4218376E+03  0.7818608E-02  0.1036470E+00
         -2   -1    0    0    0  501 -0.00000000000E+00  0.00000000000E+00  0.55853362301E+02  0.55853362359E+02  0.25500000000E-02 0. -1.
          2   -1    0    0  501    0  0.00000000000E+00 -0.00000000000E+00 -0.79649154965E+03  0.79649154966E+03  0.25500000000E-02 0.  1.
    5000001    1    1    2    0    0  0.14952771781E+03  0.29877533527E+02 -0.51470768902E+03  0.55163775300E+03  0.12700000000E+03 0.  0.
   -5000001    1    1    2    0    0 -0.14952771781E+03 -0.29877533527E+02 -0.22593049833E+03  0.30070715901E+03  0.12700000000E+03 0.  0.
<mgrwt>
<rscale>  0 0.42183756E+03</rscale>
<asrwt>0</asrwt>
<pdfrwt beam="1">  1        2 0.11378450E+00 0.42183756E+03</pdfrwt>
<pdfrwt beam="2">  1       -2 0.79790522E-02 0.42183756E+03</pdfrwt>
<totfact> 0.37451966E+03</totfact>
</mgrwt>
</event>
<event>
 4    1  0.9508302E-005  0.4268012E+03  0.7818608E-02  0.1034875E+00
          2   -1    0    0  501    0  0.00000000000E+00  0.00000000000E+00  0.11352730254E+04  0.11352730254E+04  0.25500000000E-02 0.  1.
         -2   -1    0    0    0  501 -0.00000000000E+00 -0.00000000000E+00 -0.40113540871E+02  0.40113540952E+02  0.25500000000E-02 0. -1.
    5000001    1    1    2    0    0  0.35667965469E+02 -0.16609547489E+03  0.61221888079E+03  0.64792041837E+03  0.12700000000E+03 0.  0.
   -5000001    1    1    2    0    0 -0.35667965469E+02  0.16609547489E+03  0.48294060376E+03  0.52746614801E+03  0.12700000000E+03 0.  0.
<mgrwt>
<rscale>  0 0.42680122E+03</rscale>
<asrwt>0</asrwt>
<pdfrwt beam="1">  1        2 0.16218185E+00 0.42680122E+03</pdfrwt>
<pdfrwt beam="2">  1       -2 0.57305062E-02 0.42680122E+03</pdfrwt>
<totfact> 0.38846261E+03</totfact>
</mgrwt>
</event>
<event>
 4    1  0.9508302E-005  0.3216938E+03  0.7818608E-02  0.1074872E+00
          2   -1    0    0  501    0  0.00000000000E+00  0.00000000000E+00  0.26495554808E+04  0.26495554808E+04  0.25500000000E-02 0.  1.
         -2   -1    0    0    0  501 -0.00000000000E+00 -0.00000000000E+00 -0.97645557354E+01  0.97645560684E+01  0.25500000000E-02 0. -1.
    5000001    1    1    2    0    0  0.71773905236E+02  0.60247896156E+02  0.10635729680E+04  0.10752198662E+04  0.12700000000E+03 0.  0.
   -5000001    1    1    2    0    0 -0.71773905236E+02 -0.60247896156E+02  0.15762179571E+04  0.15841001707E+04  0.12700000000E+03 0.  0.
<mgrwt>
<rscale>  0 0.32169385E+03</rscale>
<asrwt>0</asrwt>
<pdfrwt beam="1">  1        2 0.37850783E+00 0.32169385E+03</pdfrwt>
<pdfrwt beam="2">  1       -2 0.13949369E-02 0.32169385E+03</pdfrwt>
<totfact> 0.55280197E+03</totfact>
</mgrwt>
</event>
<event>
 4    1  0.9508302E-005  0.3781860E+03  0.7818608E-02  0.1051606E+00
          2   -1    0    0  501    0  0.00000000000E+00  0.00000000000E+00  0.20256717186E+04  0.20256717186E+04  0.25500000000E-02 0.  1.
         -2   -1    0    0    0  501 -0.00000000000E+00 -0.00000000000E+00 -0.17651506119E+02  0.17651506304E+02  0.25500000000E-02 0. -1.
    5000001    1    1    2    0    0 -0.31398511963E+02 -0.34830929695E+02  0.29073570325E+03  0.32071063181E+03  0.12700000000E+03 0.  0.
   -5000001    1    1    2    0    0  0.31398511963E+02  0.34830929695E+02  0.17172845092E+04  0.17226125930E+04  0.12700000000E+03 0.  0.
<mgrwt>
<rscale>  0 0.37818597E+03</rscale>
<asrwt>0</asrwt>
<pdfrwt beam="1">  1        2 0.28938144E+00 0.37818597E+03</pdfrwt>
<pdfrwt beam="2">  1       -2 0.25216458E-02 0.37818597E+03</pdfrwt>
<totfact> 0.47067640E+03</totfact>
</mgrwt>
</event>
<event>
 4    1  0.9508302E-005  0.3261039E+03  0.7818608E-02  0.1072874E+00
         -2   -1    0    0    0  501 -0.00000000000E+00  0.00000000000E+00  0.12115789553E+02  0.12115789822E+02  0.25500000000E-02 0. -1.
          2   -1    0    0  501    0  0.00000000000E+00 -0.00000000000E+00 -0.21943214448E+04  0.21943214448E+04  0.25500000000E-02 0.  1.
    5000001    1    1    2    0    0 -0.49975954776E+02 -0.88504427765E+02 -0.10150614636E+04  0.10280123563E+04  0.12700000000E+03 0.  0.
   -5000001    1    1    2    0    0  0.49975954776E+02  0.88504427765E+02 -0.11671441916E+04  0.11784248783E+04  0.12700000000E+03 0.  0.
<mgrwt>
<rscale>  0 0.32610389E+03</rscale>
<asrwt>0</asrwt>
<pdfrwt beam="1">  1        2 0.31347424E+00 0.32610389E+03</pdfrwt>
<pdfrwt beam="2">  1       -2 0.17308285E-02 0.32610389E+03</pdfrwt>
<totfact> 0.67951632E+03</totfact>
</mgrwt>
</event>
<event>
 4    1  0.9508302E-005  0.2711356E+03  0.7818608E-02  0.1100631E+00
         -2   -1    0    0    0  501 -0.00000000000E+00  0.00000000000E+00  0.10022835068E+02  0.10022835392E+02  0.25500000000E-02 0. -1.
          2   -1    0    0  501    0  0.00000000000E+00 -0.00000000000E+00 -0.18336756638E+04  0.18336756638E+04  0.25500000000E-02 0.  1.
    5000001    1    1    2    0    0 -0.29915544086E+01 -0.30846198507E+02 -0.66767339544E+03  0.68035079212E+03  0.12700000000E+03 0.  0.
   -5000001    1    1    2    0    0  0.29915544086E+01  0.30846198507E+02 -0.11559794333E+04  0.11633477071E+04  0.12700000000E+03 0.  0.
<mgrwt>
<rscale>  0 0.27113560E+03</rscale>
<asrwt>0</asrwt>
<pdfrwt beam="1">  1        2 0.26195345E+00 0.27113560E+03</pdfrwt>
<pdfrwt beam="2">  1       -2 0.14318348E-02 0.27113560E+03</pdfrwt>
<totfact> 0.13446003E+04</totfact>
</mgrwt>
</event>
<event>
 4    1  0.9508302E-005  0.3329831E+03  0.7818608E-02  0.1069825E+00
         -2   -1    0    0    0  501 -0.00000000000E+00  0.00000000000E+00  0.13023801395E+02  0.13023801644E+02  0.25500000000E-02 0. -1.
          2   -1    0    0  501    0  0.00000000000E+00 -0.00000000000E+00 -0.21283671082E+04  0.21283671082E+04  0.25500000000E-02 0.  1.
    5000001    1    1    2    0    0 -0.21328823284E+02 -0.10544478973E+03 -0.10312277826E+04  0.10445732439E+04  0.12700000000E+03 0.  0.
   -5000001    1    1    2    0    0  0.21328823284E+02  0.10544478973E+03 -0.10841155242E+04  0.10968176659E+04  0.12700000000E+03 0.  0.
<mgrwt>
<rscale>  0 0.33298307E+03</rscale>
<asrwt>0</asrwt>
<pdfrwt beam="1">  1        2 0.30405222E+00 0.33298307E+03</pdfrwt>
<pdfrwt beam="2">  1       -2 0.18605444E-02 0.33298307E+03</pdfrwt>
<totfact> 0.65820213E+03</totfact>
</mgrwt>
</event>
<event>
 4    1  0.9508302E-005  0.4988655E+03  0.7818608E-02  0.1014075E+00
         -2   -1    0    0    0  501 -0.00000000000E+00  0.00000000000E+00  0.17774347518E+03  0.17774347520E+03  0.25500000000E-02 0. -1.
          2   -1    0    0  501    0  0.00000000000E+00 -0.00000000000E+00 -0.35003651478E+03  0.35003651479E+03  0.25500000000E-02 0.  1.
    5000001    1    1    2    0    0  0.12642466975E+03  0.89350894413E+02  0.71205049425E+02  0.21252279529E+03  0.12700000000E+03 0.  0.
   -5000001    1    1    2    0    0 -0.12642466975E+03 -0.89350894413E+02 -0.24349808902E+03  0.31525719470E+03  0.12700000000E+03 0.  0.
<mgrwt>
<rscale>  0 0.49886554E+03</rscale>
<asrwt>0</asrwt>
<pdfrwt beam="1">  1        2 0.50005216E-01 0.49886554E+03</pdfrwt>
<pdfrwt beam="2">  1       -2 0.25391925E-01 0.49886554E+03</pdfrwt>
<totfact> 0.13957743E+03</totfact>
</mgrwt>
</event>
<event>
 4    1  0.9508302E-005  0.3710034E+03  0.7818608E-02  0.1054310E+00
         -2   -1    0    0    0  501 -0.00000000000E+00  0.00000000000E+00  0.10849807385E+03  0.10849807388E+03  0.25500000000E-02 0. -1.
          2   -1    0    0  501    0  0.00000000000E+00 -0.00000000000E+00 -0.31715664734E+03  0.31715664735E+03  0.25500000000E-02 0.  1.
    5000001    1    1    2    0    0  0.44789574653E+02 -0.12730276128E+03 -0.94744891657E+02  0.20812903094E+03  0.12700000000E+03 0.  0.
   -5000001    1    1    2    0    0 -0.44789574653E+02  0.12730276128E+03 -0.11391368183E+03  0.21752569029E+03  0.12700000000E+03 0.  0.
<mgrwt>
<rscale>  0 0.37100343E+03</rscale>
<asrwt>0</asrwt>
<pdfrwt beam="1">  1        2 0.45308092E-01 0.37100343E+03</pdfrwt>
<pdfrwt beam="2">  1       -2 0.15499725E-01 0.37100343E+03</pdfrwt>
<totfact> 0.36351863E+03</totfact>
</mgrwt>
</event>
<event>
 4    1  0.9508302E-005  0.2983429E+03  0.7818608E-02  0.1086072E+00
         -2   -1    0    0    0  501 -0.00000000000E+00  0.00000000000E+00  0.34986735084E+02  0.34986735177E+02  0.25500000000E-02 0. -1.
          2   -1    0    0  501    0  0.00000000000E+00 -0.00000000000E+00 -0.63601584773E+03  0.63601584773E+03  0.25500000000E-02 0.  1.
    5000001    1    1    2    0    0 -0.60377001623E+02  0.46613228312E+02 -0.33978968245E+03  0.37068073012E+03  0.12700000000E+03 0.  0.
   -5000001    1    1    2    0    0  0.60377001623E+02 -0.46613228312E+02 -0.26123943019E+03  0.30032185279E+03  0.12700000000E+03 0.  0.
<mgrwt>
<rscale>  0 0.29834288E+03</rscale>
<asrwt>0</asrwt>
<pdfrwt beam="1">  1        2 0.90859400E-01 0.29834288E+03</pdfrwt>
<pdfrwt beam="2">  1       -2 0.49981054E-02 0.29834288E+03</pdfrwt>
<totfact> 0.10062095E+04</totfact>
</mgrwt>
</event>
<event>
 4    1  0.9508302E-005  0.2726984E+03  0.7818608E-02  0.1099745E+00
         -2   -1    0    0    0  501 -0.00000000000E+00  0.00000000000E+00  0.82190460787E+03  0.82190460788E+03  0.25500000000E-02 0. -1.
          2   -1    0    0  501    0  0.00000000000E+00 -0.00000000000E+00 -0.22619544007E+02  0.22619544151E+02  0.25500000000E-02 0.  1.
    5000001    1    1    2    0    0  0.25735463849E+02 -0.29167119653E+02  0.49504929283E+03  0.51255813065E+03  0.12700000000E+03 0.  0.
   -5000001    1    1    2    0    0 -0.25735463849E+02  0.29167119653E+02  0.30423577104E+03  0.33196602137E+03  0.12700000000E+03 0.  0.
<mgrwt>
<rscale>  0 0.27269842E+03</rscale>
<asrwt>0</asrwt>
<pdfrwt beam="1">  1        2 0.32313629E-02 0.27269842E+03</pdfrwt>
<pdfrwt beam="2">  1       -2 0.11741496E+00 0.27269842E+03</pdfrwt>
<totfact> 0.16568768E+03</totfact>
</mgrwt>
</event>
<event>
 4    1  0.9508302E-005  0.5259717E+03  0.7818608E-02  0.1007214E+00
          2   -1    0    0  501    0  0.00000000000E+00  0.00000000000E+00  0.83612815723E+03  0.83612815723E+03  0.25500000000E-02 0.  1.
         -2   -1    0    0    0  501 -0.00000000000E+00 -0.00000000000E+00 -0.82716463268E+02  0.82716463307E+02  0.25500000000E-02 0. -1.
    5000001    1    1    2    0    0 -0.87250142529E+02  0.15753668262E+03  0.12595860509E+03  0.25382073189E+03  0.12700000000E+03 0.  0.
   -5000001    1    1    2    0    0  0.87250142529E+02 -0.15753668262E+03  0.62745308887E+03  0.66502388865E+03  0.12700000000E+03 0.  0.
<mgrwt>
<rscale>  0 0.52597173E+03</rscale>
<asrwt>0</asrwt>
<pdfrwt beam="1">  1        2 0.11944689E+00 0.52597173E+03</pdfrwt>
<pdfrwt beam="2">  1       -2 0.11816637E-01 0.52597173E+03</pdfrwt>
<totfact> 0.18739593E+03</totfact>
</mgrwt>
</event>
<event>
 4    1  0.9508302E-005  0.2730109E+03  0.7818608E-02  0.1099569E+00
          2   -1    0    0  501    0  0.00000000000E+00  0.00000000000E+00  0.65333235419E+02  0.65333235469E+02  0.25500000000E-02 0. -1.
         -2   -1    0    0    0  501 -0.00000000000E+00 -0.00000000000E+00 -0.28521067964E+03  0.28521067965E+03  0.25500000000E-02 0.  1.
    5000001    1    1    2    0    0 -0.23112744540E+01  0.43847697112E+02 -0.79102207595E+02  0.15592986173E+03  0.12700000000E+03 0.  0.
   -5000001    1    1    2    0    0  0.23112744540E+01 -0.43847697112E+02 -0.14077523663E+03  0.19461405340E+03  0.12700000000E+03 0.  0.
<mgrwt>
<rscale>  0 0.27301089E+03</rscale>
<asrwt>0</asrwt>
<pdfrwt beam="1">  1        2 0.93333195E-02 0.27301089E+03</pdfrwt>
<pdfrwt beam="2">  1       -2 0.40744382E-01 0.27301089E+03</pdfrwt>
<totfact> 0.39970728E+03</totfact>
</mgrwt>
</event>
<event>
 4    1  0.9508302E-005  0.4671544E+03  0.7818608E-02  0.1022726E+00
          2   -1    0    0  501    0  0.00000000000E+00  0.00000000000E+00  0.60888184721E+03  0.60888184722E+03  0.25500000000E-02 0.  1.
         -2   -1    0    0    0  501 -0.00000000000E+00 -0.00000000000E+00 -0.89604106941E+02  0.89604106977E+02  0.25500000000E-02 0. -1.
    5000001    1    1    2    0    0 -0.15605833040E+03 -0.11146677880E+03  0.32037883950E+03  0.39439909491E+03  0.12700000000E+03 0.  0.
   -5000001    1    1    2    0    0  0.15605833040E+03  0.11146677880E+03  0.19889890077E+03  0.30408685929E+03  0.12700000000E+03 0.  0.
<mgrwt>
<rscale>  0 0.46715442E+03</rscale>
<asrwt>0</asrwt>
<pdfrwt beam="1">  1        2 0.86983121E-01 0.46715442E+03</pdfrwt>
<pdfrwt beam="2">  1       -2 0.12800587E-01 0.46715442E+03</pdfrwt>
<totfact> 0.24226831E+03</totfact>
</mgrwt>
</event>
<event>
 4    1  0.9508302E-005  0.2815163E+03  0.7818608E-02  0.1094864E+00
         -2   -1    0    0    0  501 -0.00000000000E+00  0.00000000000E+00  0.39410245414E+02  0.39410245496E+02  0.25500000000E-02 0. -1.
          2   -1    0    0  501    0  0.00000000000E+00 -0.00000000000E+00 -0.50273381047E+03  0.50273381047E+03  0.25500000000E-02 0.  1.
    5000001    1    1    2    0    0 -0.58925785194E+02  0.14543508185E+02 -0.23104950704E+03  0.27054876916E+03  0.12700000000E+03 0.  0.
   -5000001    1    1    2    0    0  0.58925785194E+02 -0.14543508185E+02 -0.23227405801E+03  0.27159528681E+03  0.12700000000E+03 0.  0.
<mgrwt>
<rscale>  0 0.28151634E+03</rscale>
<asrwt>0</asrwt>
<pdfrwt beam="1">  1        2 0.71819112E-01 0.28151634E+03</pdfrwt>
<pdfrwt beam="2">  1       -2 0.56300353E-02 0.28151634E+03</pdfrwt>
<totfact> 0.10925366E+04</totfact>
</mgrwt>
</event>
<event>
 4    1  0.9508302E-005  0.2871429E+03  0.7818608E-02  0.1091850E+00
         -2   -1    0    0    0  501 -0.00000000000E+00  0.00000000000E+00  0.11755712428E+02  0.11755712704E+02  0.25500000000E-02 0. -1.
          2   -1    0    0  501    0  0.00000000000E+00 -0.00000000000E+00 -0.17534247406E+04  0.17534247406E+04  0.25500000000E-02 0.  1.
    5000001    1    1    2    0    0  0.24212213485E+01  0.56620669826E+02 -0.10900815444E+04  0.10989169832E+04  0.12700000000E+03 0.  0.
   -5000001    1    1    2    0    0 -0.24212213485E+01 -0.56620669826E+02 -0.65158748377E+03  0.66626347008E+03  0.12700000000E+03 0.  0.
<mgrwt>
<rscale>  0 0.28714287E+03</rscale>
<asrwt>0</asrwt>
<pdfrwt beam="1">  1        2 0.25048908E+00 0.28714287E+03</pdfrwt>
<pdfrwt beam="2">  1       -2 0.16793886E-02 0.28714287E+03</pdfrwt>
<totfact> 0.11670750E+04</totfact>
</mgrwt>
</event>
<event>
 4    1  0.9508302E-005  0.5955346E+03  0.7818608E-02  0.9914714E-01
         -2   -1    0    0    0  501 -0.00000000000E+00  0.00000000000E+00  0.19412349741E+04  0.19412349741E+04  0.25500000000E-02 0. -1.
          2   -1    0    0  501    0  0.00000000000E+00 -0.00000000000E+00 -0.45674722754E+02  0.45674722825E+02  0.25500000000E-02 0.  1.
    5000001    1    1    2    0    0 -0.15555539624E+03 -0.98571999031E+02  0.29210150326E+03  0.36792147056E+03  0.12700000000E+03 0.  0.
   -5000001    1    1    2    0    0  0.15555539624E+03  0.98571999031E+02  0.16034587481E+04  0.16189882264E+04  0.12700000000E+03 0.  0.
<mgrwt>
<rscale>  0 0.59553461E+03</rscale>
<asrwt>0</asrwt>
<pdfrwt beam="1">  1        2 0.65249591E-02 0.59553461E+03</pdfrwt>
<pdfrwt beam="2">  1       -2 0.27731934E+00 0.59553461E+03</pdfrwt>
<totfact> 0.53116457E+01</totfact>
</mgrwt>
</event>
<event>
 4    1  0.9508302E-005  0.3582419E+03  0.7818608E-02  0.1059282E+00
         -2   -1    0    0    0  501 -0.00000000000E+00  0.00000000000E+00  0.49075394467E+03  0.49075394468E+03  0.25500000000E-02 0. -1.
          2   -1    0    0  501    0  0.00000000000E+00 -0.00000000000E+00 -0.65377586476E+02  0.65377586526E+02  0.25500000000E-02 0.  1.
    5000001    1    1    2    0    0 -0.11928362421E+03  0.27658478542E+02  0.16454567523E+03  0.24124231320E+03  0.12700000000E+03 0.  0.
   -5000001    1    1    2    0    0  0.11928362421E+03 -0.27658478542E+02  0.26083068297E+03  0.31488921801E+03  0.12700000000E+03 0.  0.
<mgrwt>
<rscale>  0 0.35824187E+03</rscale>
<asrwt>0</asrwt>
<pdfrwt beam="1">  1        2 0.93396551E-02 0.35824187E+03</pdfrwt>
<pdfrwt beam="2">  1       -2 0.70107707E-01 0.35824187E+03</pdfrwt>
<totfact> 0.13360774E+03</totfact>
</mgrwt>
</event>
<event>
 4    1  0.9508302E-005  0.7120013E+03  0.7818608E-02  0.9696926E-01
         -2   -1    0    0    0  501 -0.00000000000E+00  0.00000000000E+00  0.73844641292E+02  0.73844641337E+02  0.25500000000E-02 0. -1.
          2   -1    0    0  501    0  0.00000000000E+00 -0.00000000000E+00 -0.17162582166E+04  0.17162582166E+04  0.25500000000E-02 0.  1.
    5000001    1    1    2    0    0  0.49807848356E+02  0.30078848271E+03 -0.48716123270E+03  0.58856571403E+03  0.12700000000E+03 0.  0.
   -5000001    1    1    2    0    0 -0.49807848356E+02 -0.30078848271E+03 -0.11552523426E+04  0.12015371439E+04  0.12700000000E+03 0.  0.
<mgrwt>
<rscale>  0 0.71200133E+03</rscale>
<asrwt>0</asrwt>
<pdfrwt beam="1">  1        2 0.24517972E+00 0.71200133E+03</pdfrwt>
<pdfrwt beam="2">  1       -2 0.10549236E-01 0.71200133E+03</pdfrwt>
<totfact> 0.71867829E+02</totfact>
</mgrwt>
</event>
<event>
 4    1  0.9508302E-005  0.4312054E+03  0.7818608E-02  0.1033480E+00
          2   -1    0    0  501    0  0.00000000000E+00  0.00000000000E+00  0.46484913775E+03  0.46484913776E+03  0.25500000000E-02 0.  1.
         -2   -1    0    0    0  501 -0.00000000000E+00 -0.00000000000E+00 -0.99999149189E+02  0.99999149222E+02  0.25500000000E-02 0. -1.
    5000001    1    1    2    0    0  0.10253138059E+03 -0.88955853193E+01  0.36657927163E+03  0.40137411206E+03  0.12700000000E+03 0.  0.
   -5000001    1    1    2    0    0 -0.10253138059E+03  0.88955853193E+01 -0.17292830721E+01  0.16347417491E+03  0.12700000000E+03 0.  0.
<mgrwt>
<rscale>  0 0.43120537E+03</rscale>
<asrwt>0</asrwt>
<pdfrwt beam="1">  1        2 0.66407020E-01 0.43120537E+03</pdfrwt>
<pdfrwt beam="2">  1       -2 0.14285593E-01 0.43120537E+03</pdfrwt>
<totfact> 0.27455027E+03</totfact>
</mgrwt>
</event>
<event>
 4    1  0.9508302E-005  0.4877924E+03  0.7818608E-02  0.1017015E+00
         -2   -1    0    0    0  501 -0.00000000000E+00  0.00000000000E+00  0.21669055333E+03  0.21669055334E+03  0.25500000000E-02 0. -1.
          2   -1    0    0  501    0  0.00000000000E+00 -0.00000000000E+00 -0.27451757411E+03  0.27451757412E+03  0.25500000000E-02 0.  1.
    5000001    1    1    2    0    0  0.10662789066E+03 -0.17722064975E+03 -0.46679703979E+01  0.24274978005E+03  0.12700000000E+03 0.  0.
   -5000001    1    1    2    0    0 -0.10662789066E+03  0.17722064975E+03 -0.53159050387E+02  0.24845834742E+03  0.12700000000E+03 0.  0.
<mgrwt>
<rscale>  0 0.48779244E+03</rscale>
<asrwt>0</asrwt>
<pdfrwt beam="1">  1        2 0.39216796E-01 0.48779244E+03</pdfrwt>
<pdfrwt beam="2">  1       -2 0.30955794E-01 0.48779244E+03</pdfrwt>
<totfact> 0.12706237E+03</totfact>
</mgrwt>
</event>
<event>
 4    1  0.9508302E-005  0.5188958E+03  0.7818608E-02  0.1008961E+00
         -2   -1    0    0    0  501 -0.00000000000E+00  0.00000000000E+00  0.95573947062E+02  0.95573947096E+02  0.25500000000E-02 0. -1.
          2   -1    0    0  501    0  0.00000000000E+00 -0.00000000000E+00 -0.70430492687E+03  0.70430492688E+03  0.25500000000E-02 0.  1.
    5000001    1    1    2    0    0 -0.26601285099E+02 -0.21886793618E+03 -0.38256386904E+03  0.45945066737E+03  0.12700000000E+03 0.  0.
   -5000001    1    1    2    0    0  0.26601285099E+02  0.21886793618E+03 -0.22616711077E+03  0.34042820660E+03  0.12700000000E+03 0.  0.
<mgrwt>
<rscale>  0 0.51889576E+03</rscale>
<asrwt>0</asrwt>
<pdfrwt beam="1">  1        2 0.10061499E+00 0.51889576E+03</pdfrwt>
<pdfrwt beam="2">  1       -2 0.13653421E-01 0.51889576E+03</pdfrwt>
<totfact> 0.18309061E+03</totfact>
</mgrwt>
</event>
<event>
 4    1  0.9508302E-005  0.3825551E+03  0.7818608E-02  0.1049993E+00
         -2   -1    0    0    0  501 -0.00000000000E+00  0.00000000000E+00  0.32365654572E+02  0.32365654672E+02  0.25500000000E-02 0. -1.
          2   -1    0    0  501    0  0.00000000000E+00 -0.00000000000E+00 -0.11304297595E+04  0.11304297595E+04  0.25500000000E-02 0.  1.
    5000001    1    1    2    0    0 -0.49348852734E+01 -0.14252344603E+03 -0.58244131634E+03  0.61294712067E+03  0.12700000000E+03 0.  0.
   -5000001    1    1    2    0    0  0.49348852734E+01  0.14252344603E+03 -0.51562278863E+03  0.54984829355E+03  0.12700000000E+03 0.  0.
<mgrwt>
<rscale>  0 0.38255509E+03</rscale>
<asrwt>0</asrwt>
<pdfrwt beam="1">  1        2 0.16148994E+00 0.38255509E+03</pdfrwt>
<pdfrwt beam="2">  1       -2 0.46236657E-02 0.38255509E+03</pdfrwt>
<totfact> 0.54324570E+03</totfact>
</mgrwt>
</event>
<event>
 4    1  0.9508302E-005  0.4932592E+03  0.7818608E-02  0.1015553E+00
          2   -1    0    0  501    0  0.00000000000E+00  0.00000000000E+00  0.36843004805E+04  0.36843004805E+04  0.25500000000E-02 0.  1.
         -2   -1    0    0    0  501 -0.00000000000E+00 -0.00000000000E+00 -0.16509551643E+02  0.16509551840E+02  0.25500000000E-02 0. -1.
    5000001    1    1    2    0    0 -0.13878545232E+03 -0.15670164116E+03  0.16112839283E+04  0.16297796489E+04  0.12700000000E+03 0.  0.
   -5000001    1    1    2    0    0  0.13878545232E+03  0.15670164116E+03  0.20565070005E+04  0.20710303835E+04  0.12700000000E+03 0.  0.
<mgrwt>
<rscale>  0 0.49325916E+03</rscale>
<asrwt>0</asrwt>
<pdfrwt beam="1">  1        2 0.52632882E+00 0.49325916E+03</pdfrwt>
<pdfrwt beam="2">  1       -2 0.23585066E-02 0.49325916E+03</pdfrwt>
<totfact> 0.66528776E+02</totfact>
</mgrwt>
</event>
<event>
 4    1  0.9508302E-005  0.3346893E+03  0.7818608E-02  0.1069081E+00
          2   -1    0    0  501    0  0.00000000000E+00  0.00000000000E+00  0.37058883974E+02  0.37058884061E+02  0.25500000000E-02 0.  1.
         -2   -1    0    0    0  501 -0.00000000000E+00 -0.00000000000E+00 -0.75566830886E+03  0.75566830887E+03  0.25500000000E-02 0. -1.
    5000001    1    1    2    0    0  0.19604718476E+02 -0.58995593772E+02 -0.14731779207E+03  0.20419685828E+03  0.12700000000E+03 0.  0.
   -5000001    1    1    2    0    0 -0.19604718476E+02  0.58995593772E+02 -0.57129163282E+03  0.58853033465E+03  0.12700000000E+03 0.  0.
<mgrwt>
<rscale>  0 0.33468925E+03</rscale>
<asrwt>0</asrwt>
<pdfrwt beam="1">  1        2 0.52941268E-02 0.33468925E+03</pdfrwt>
<pdfrwt beam="2">  1       -2 0.10795261E+00 0.33468925E+03</pdfrwt>
<totfact> 0.10491847E+03</totfact>
</mgrwt>
</event>
<event>
 4    1  0.9508302E-005  0.4156263E+03  0.7818608E-02  0.1038499E+00
         -2   -1    0    0    0  501 -0.00000000000E+00  0.00000000000E+00  0.78889602435E+02  0.78889602476E+02  0.25500000000E-02 0. -1.
          2   -1    0    0  501    0  0.00000000000E+00 -0.00000000000E+00 -0.54742700182E+03  0.54742700183E+03  0.25500000000E-02 0.  1.
    5000001    1    1    2    0    0 -0.76995241373E+02  0.80904497080E+02 -0.41624788973E+03  0.44929401348E+03  0.12700000000E+03 0.  0.
   -5000001    1    1    2    0    0  0.76995241373E+02 -0.80904497080E+02 -0.52289509651E+02  0.17702259082E+03  0.12700000000E+03 0.  0.
<mgrwt>
<rscale>  0 0.41562627E+03</rscale>
<asrwt>0</asrwt>
<pdfrwt beam="1">  1        2 0.78203855E-01 0.41562627E+03</pdfrwt>
<pdfrwt beam="2">  1       -2 0.11269944E-01 0.41562627E+03</pdfrwt>
<totfact> 0.33688674E+03</totfact>
</mgrwt>
</event>
<event>
 4    1  0.9508302E-005  0.3989403E+03  0.7818608E-02  0.1044147E+00
         -2   -1    0    0    0  501 -0.00000000000E+00  0.00000000000E+00  0.58590550544E+03  0.58590550544E+03  0.25500000000E-02 0. -1.
          2   -1    0    0  501    0  0.00000000000E+00 -0.00000000000E+00 -0.67909158872E+02  0.67909158920E+02  0.25500000000E-02 0.  1.
    5000001    1    1    2    0    0 -0.12547566285E+02  0.12171450885E+03  0.41175259125E+03  0.44792974838E+03  0.12700000000E+03 0.  0.
   -5000001    1    1    2    0    0  0.12547566285E+02 -0.12171450885E+03  0.10624375532E+03  0.20588491598E+03  0.12700000000E+03 0.  0.
<mgrwt>
<rscale>  0 0.39894035E+03</rscale>
<asrwt>0</asrwt>
<pdfrwt beam="1">  1        2 0.97013077E-02 0.39894035E+03</pdfrwt>
<pdfrwt beam="2">  1       -2 0.83700793E-01 0.39894035E+03</pdfrwt>
<totfact> 0.86369941E+02</totfact>
</mgrwt>
</event>
<event>
 4    1  0.9508302E-005  0.4948209E+03  0.7818608E-02  0.1015140E+00
         -2   -1    0    0    0  501 -0.00000000000E+00  0.00000000000E+00  0.55961070653E+03  0.55961070653E+03  0.25500000000E-02 0. -1.
          2   -1    0    0  501    0  0.00000000000E+00 -0.00000000000E+00 -0.10938307919E+03  0.10938307922E+03  0.25500000000E-02 0.  1.
    5000001    1    1    2    0    0 -0.52943141346E+02  0.98682687841E+02  0.46900386262E+03  0.49863300357E+03  0.12700000000E+03 0.  0.
   -5000001    1    1    2    0    0  0.52943141346E+02 -0.98682687841E+02 -0.18776235283E+02  0.17036078218E+03  0.12700000000E+03 0.  0.
<mgrwt>
<rscale>  0 0.49482095E+03</rscale>
<asrwt>0</asrwt>
<pdfrwt beam="1">  1        2 0.15626154E-01 0.49482095E+03</pdfrwt>
<pdfrwt beam="2">  1       -2 0.79944386E-01 0.49482095E+03</pdfrwt>
<totfact> 0.53262972E+02</totfact>
</mgrwt>
</event>
<event>
 4    1  0.9508302E-005  0.5752725E+03  0.7818608E-02  0.9958079E-01
          2   -1    0    0  501    0  0.00000000000E+00  0.00000000000E+00  0.16168293380E+03  0.16168293382E+03  0.25500000000E-02 0.  1.
         -2   -1    0    0    0  501 -0.00000000000E+00 -0.00000000000E+00 -0.51170895288E+03  0.51170895289E+03  0.25500000000E-02 0. -1.
    5000001    1    1    2    0    0  0.15231362643E+03  0.77339103874E+02  0.51437960916E+02  0.21898776588E+03  0.12700000000E+03 0.  0.
   -5000001    1    1    2    0    0 -0.15231362643E+03 -0.77339103874E+02 -0.40146398000E+03  0.45440412082E+03  0.12700000000E+03 0.  0.
<mgrwt>
<rscale>  0 0.57527247E+03</rscale>
<asrwt>0</asrwt>
<pdfrwt beam="1">  1        2 0.23097562E-01 0.57527247E+03</pdfrwt>
<pdfrwt beam="2">  1       -2 0.73101278E-01 0.57527247E+03</pdfrwt>
<totfact> 0.40972270E+02</totfact>
</mgrwt>
</event>
<event>
 4    1  0.9508302E-005  0.3169676E+03  0.7818608E-02  0.1077053E+00
          2   -1    0    0  501    0  0.00000000000E+00  0.00000000000E+00  0.13731525373E+04  0.13731525373E+04  0.25500000000E-02 0.  1.
         -2   -1    0    0    0  501 -0.00000000000E+00 -0.00000000000E+00 -0.18291574826E+02  0.18291575004E+02  0.25500000000E-02 0. -1.
    5000001    1    1    2    0    0 -0.33211043100E+02  0.85702007769E+02  0.77947139477E+03  0.79508016123E+03  0.12700000000E+03 0.  0.
   -5000001    1    1    2    0    0  0.33211043100E+02 -0.85702007769E+02  0.57538956771E+03  0.59636395108E+03  0.12700000000E+03 0.  0.
<mgrwt>
<rscale>  0 0.31696765E+03</rscale>
<asrwt>0</asrwt>
<pdfrwt beam="1">  1        2 0.19616470E+00 0.31696765E+03</pdfrwt>
<pdfrwt beam="2">  1       -2 0.26130814E-02 0.31696765E+03</pdfrwt>
<totfact> 0.94596576E+03</totfact>
</mgrwt>
</event>
<event>
 4    1  0.9508302E-005  0.3405035E+03  0.7818608E-02  0.1066582E+00
          2   -1    0    0  501    0  0.00000000000E+00  0.00000000000E+00  0.24988143505E+04  0.24988143505E+04  0.25500000000E-02 0.  1.
         -2   -1    0    0    0  501 -0.00000000000E+00 -0.00000000000E+00 -0.11599762671E+02  0.11599762951E+02  0.25500000000E-02 0. -1.
    5000001    1    1    2    0    0 -0.10663703144E+03 -0.25866514662E+02  0.10329866071E+04  0.10465327819E+04  0.12700000000E+03 0.  0.
   -5000001    1    1    2    0    0  0.10663703144E+03  0.25866514662E+02  0.14542279807E+04  0.14638813315E+04  0.12700000000E+03 0.  0.
<mgrwt>
<rscale>  0 0.34050347E+03</rscale>
<asrwt>0</asrwt>
<pdfrwt beam="1">  1        2 0.35697348E+00 0.34050347E+03</pdfrwt>
<pdfrwt beam="2">  1       -2 0.16571090E-02 0.34050347E+03</pdfrwt>
<totfact> 0.51121680E+03</totfact>
</mgrwt>
</event>
<event>
 4    1  0.9508302E-005  0.3417585E+03  0.7818608E-02  0.1066049E+00
          2   -1    0    0  501    0  0.00000000000E+00  0.00000000000E+00  0.91097951603E+02  0.91097951639E+02  0.25500000000E-02 0.  1.
         -2   -1    0    0    0  501 -0.00000000000E+00 -0.00000000000E+00 -0.32053095110E+03  0.32053095111E+03  0.25500000000E-02 0. -1.
    5000001    1    1    2    0    0  0.79953726139E+02  0.73676291100E+02 -0.72134359217E+02  0.18208009219E+03  0.12700000000E+03 0.  0.
   -5000001    1    1    2    0    0 -0.79953726139E+02 -0.73676291100E+02 -0.15729864028E+03  0.22954881056E+03  0.12700000000E+03 0.  0.
<mgrwt>
<rscale>  0 0.34175847E+03</rscale>
<asrwt>0</asrwt>
<pdfrwt beam="1">  1        2 0.13013993E-01 0.34175847E+03</pdfrwt>
<pdfrwt beam="2">  1       -2 0.45790135E-01 0.34175847E+03</pdfrwt>
<totfact> 0.21276589E+03</totfact>
</mgrwt>
</event>
<event>
 4    1  0.9508302E-005  0.5021774E+03  0.7818608E-02  0.1013212E+00
         -2   -1    0    0    0  501 -0.00000000000E+00  0.00000000000E+00  0.32861311022E+02  0.32861311120E+02  0.25500000000E-02 0. -1.
          2   -1    0    0  501    0  0.00000000000E+00 -0.00000000000E+00 -0.19185340175E+04  0.19185340175E+04  0.25500000000E-02 0.  1.
    5000001    1    1    2    0    0 -0.34322378563E+02 -0.21369572565E+03 -0.97595852426E+03  0.10077042869E+04  0.12700000000E+03 0.  0.
   -5000001    1    1    2    0    0  0.34322378563E+02  0.21369572565E+03 -0.90971418222E+03  0.94369104169E+03  0.12700000000E+03 0.  0.
<mgrwt>
<rscale>  0 0.50217743E+03</rscale>
<asrwt>0</asrwt>
<pdfrwt beam="1">  1        2 0.27407622E+00 0.50217743E+03</pdfrwt>
<pdfrwt beam="2">  1       -2 0.46944742E-02 0.50217743E+03</pdfrwt>
<totfact> 0.20666428E+03</totfact>
</mgrwt>
</event>
<event>
 4    1  0.9508302E-005  0.5098201E+03  0.7818608E-02  0.1011247E+00
          2   -1    0    0  501    0  0.00000000000E+00  0.00000000000E+00  0.59715844769E+03  0.59715844770E+03  0.25500000000E-02 0. -1.
         -2   -1    0    0    0  501 -0.00000000000E+00 -0.00000000000E+00 -0.10881388542E+03  0.10881388545E+03  0.25500000000E-02 0.  1.
    5000001    1    1    2    0    0 -0.18221213291E+03  0.81439333594E+02  0.37566140694E+03  0.44394157172E+03  0.12700000000E+03 0.  0.
   -5000001    1    1    2    0    0  0.18221213291E+03 -0.81439333594E+02  0.11268315534E+03  0.26203076143E+03  0.12700000000E+03 0.  0.
<mgrwt>
<rscale>  0 0.50982009E+03</rscale>
<asrwt>0</asrwt>
<pdfrwt beam="1">  1        2 0.85308352E-01 0.50982009E+03</pdfrwt>
<pdfrwt beam="2">  1       -2 0.15544840E-01 0.50982009E+03</pdfrwt>
<totfact> 0.17943167E+03</totfact>
</mgrwt>
</event>
<event>
 4    1  0.9508302E-005  0.2863987E+03  0.7818608E-02  0.1092245E+00
         -2   -1    0    0    0  501 -0.00000000000E+00  0.00000000000E+00  0.82079894125E+02  0.82079894165E+02  0.25500000000E-02 0. -1.
          2   -1    0    0  501    0  0.00000000000E+00 -0.00000000000E+00 -0.24983037389E+03  0.24983037391E+03  0.25500000000E-02 0.  1.
    5000001    1    1    2    0    0  0.35046876322E+02 -0.49748745149E+02 -0.11395848470E+03  0.18115948062E+03  0.12700000000E+03 0.  0.
   -5000001    1    1    2    0    0 -0.35046876322E+02  0.49748745149E+02 -0.53791995073E+02  0.15075078745E+03  0.12700000000E+03 0.  0.
<mgrwt>
<rscale>  0 0.28639868E+03</rscale>
<asrwt>0</asrwt>
<pdfrwt beam="1">  1        2 0.35690053E-01 0.28639868E+03</pdfrwt>
<pdfrwt beam="2">  1       -2 0.11725699E-01 0.28639868E+03</pdfrwt>
<totfact> 0.73877464E+03</totfact>
</mgrwt>
</event>
<event>
 4    1  0.9508302E-005  0.3303577E+03  0.7818608E-02  0.1070979E+00
         -2   -1    0    0    0  501 -0.00000000000E+00  0.00000000000E+00  0.37955055447E+02  0.37955055533E+02  0.25500000000E-02 0. -1.
          2   -1    0    0  501    0  0.00000000000E+00 -0.00000000000E+00 -0.71885156042E+03  0.71885156042E+03  0.25500000000E-02 0.  1.
    5000001    1    1    2    0    0 -0.93477224211E+02 -0.42976080431E+02 -0.28574891225E+03  0.32919048557E+03  0.12700000000E+03 0.  0.
   -5000001    1    1    2    0    0  0.93477224211E+02  0.42976080431E+02 -0.39514759272E+03  0.42761613039E+03  0.12700000000E+03 0.  0.
<mgrwt>
<rscale>  0 0.33035769E+03</rscale>
<asrwt>0</asrwt>
<pdfrwt beam="1">  1        2 0.10269307E+00 0.33035769E+03</pdfrwt>
<pdfrwt beam="2">  1       -2 0.54221512E-02 0.33035769E+03</pdfrwt>
<totfact> 0.77129352E+03</totfact>
</mgrwt>
</event>
<event>
 4    1  0.9508302E-005  0.3582939E+03  0.7818608E-02  0.1059261E+00
         -2   -1    0    0    0  501 -0.00000000000E+00  0.00000000000E+00  0.14955026835E+02  0.14955027052E+02  0.25500000000E-02 0. -1.
          2   -1    0    0  501    0  0.00000000000E+00 -0.00000000000E+00 -0.21460099479E+04  0.21460099479E+04  0.25500000000E-02 0.  1.
    5000001    1    1    2    0    0 -0.11740118561E+03  0.44660794946E+02 -0.98304862005E+03  0.99914524188E+03  0.12700000000E+03 0.  0.
   -5000001    1    1    2    0    0  0.11740118561E+03 -0.44660794946E+02 -0.11480063010E+04  0.11618197330E+04  0.12700000000E+03 0.  0.
<mgrwt>
<rscale>  0 0.35829394E+03</rscale>
<asrwt>0</asrwt>
<pdfrwt beam="1">  1        2 0.30657265E+00 0.35829394E+03</pdfrwt>
<pdfrwt beam="2">  1       -2 0.21364338E-02 0.35829394E+03</pdfrwt>
<totfact> 0.52564351E+03</totfact>
</mgrwt>
</event>
<event>
 4    1  0.9508302E-005  0.4653322E+03  0.7818608E-02  0.1023246E+00
          2   -1    0    0  501    0  0.00000000000E+00  0.00000000000E+00  0.17417858195E+04  0.17417858195E+04  0.25500000000E-02 0.  1.
         -2   -1    0    0    0  501 -0.00000000000E+00 -0.00000000000E+00 -0.31079316768E+02  0.31079316872E+02  0.25500000000E-02 0. -1.
    5000001    1    1    2    0    0  0.37156365297E+02  0.18993741455E+03  0.94451581318E+03  0.97246899090E+03  0.12700000000E+03 0.  0.
   -5000001    1    1    2    0    0 -0.37156365297E+02 -0.18993741455E+03  0.76619068960E+03  0.80039614552E+03  0.12700000000E+03 0.  0.
<mgrwt>
<rscale>  0 0.46533220E+03</rscale>
<asrwt>0</asrwt>
<pdfrwt beam="1">  1        2 0.24882644E+00 0.46533220E+03</pdfrwt>
<pdfrwt beam="2">  1       -2 0.44399043E-02 0.46533220E+03</pdfrwt>
<totfact> 0.27634107E+03</totfact>
</mgrwt>
</event>
<event>
 4    1  0.9508302E-005  0.3048983E+03  0.7818608E-02  0.1082817E+00
          2   -1    0    0  501    0  0.00000000000E+00  0.00000000000E+00  0.29601619678E+03  0.29601619679E+03  0.25500000000E-02 0.  1.
         -2   -1    0    0    0  501 -0.00000000000E+00 -0.00000000000E+00 -0.78511747156E+02  0.78511747197E+02  0.25500000000E-02 0. -1.
    5000001    1    1    2    0    0 -0.60034195718E+02  0.59071764549E+02  0.11398842204E+03  0.19030485643E+03  0.12700000000E+03 0.  0.
   -5000001    1    1    2    0    0  0.60034195718E+02 -0.59071764549E+02  0.10351602759E+03  0.18422308756E+03  0.12700000000E+03 0.  0.
<mgrwt>
<rscale>  0 0.30489834E+03</rscale>
<asrwt>0</asrwt>
<pdfrwt beam="1">  1        2 0.42288029E-01 0.30489834E+03</pdfrwt>
<pdfrwt beam="2">  1       -2 0.11215964E-01 0.30489834E+03</pdfrwt>
<totfact> 0.66193527E+03</totfact>
</mgrwt>
</event>
<event>
 4    1  0.9508302E-005  0.2757372E+03  0.7818608E-02  0.1098040E+00
          2   -1    0    0  501    0  0.00000000000E+00  0.00000000000E+00  0.24772645135E+03  0.24772645136E+03  0.25500000000E-02 0.  1.
         -2   -1    0    0    0  501 -0.00000000000E+00 -0.00000000000E+00 -0.76728772529E+02  0.76728772571E+02  0.25500000000E-02 0. -1.
    5000001    1    1    2    0    0 -0.17930865892E+01 -0.46764172049E+02  0.54620302380E+02  0.14595369258E+03  0.12700000000E+03 0.  0.
   -5000001    1    1    2    0    0  0.17930865892E+01  0.46764172049E+02  0.11637737644E+03  0.17850153135E+03  0.12700000000E+03 0.  0.
<mgrwt>
<rscale>  0 0.27573717E+03</rscale>
<asrwt>0</asrwt>
<pdfrwt beam="1">  1        2 0.35389493E-01 0.27573717E+03</pdfrwt>
<pdfrwt beam="2">  1       -2 0.10961253E-01 0.27573717E+03</pdfrwt>
<totfact> 0.82967492E+03</totfact>
</mgrwt>
</event>
<event>
 4    1  0.9508302E-005  0.9956114E+03  0.7818608E-02  0.9313371E-01
          2   -1    0    0  501    0  0.00000000000E+00  0.00000000000E+00  0.27154879962E+04  0.27154879962E+04  0.25500000000E-02 0.  1.
         -2   -1    0    0    0  501 -0.00000000000E+00 -0.00000000000E+00 -0.91258189244E+02  0.91258189280E+02  0.25500000000E-02 0. -1.
    5000001    1    1    2    0    0  0.64723222714E+01  0.45152507982E+03  0.84237225048E+03  0.96417674575E+03  0.12700000000E+03 0.  0.
   -5000001    1    1    2    0    0 -0.64723222714E+01 -0.45152507982E+03  0.17818575565E+04  0.18425694398E+04  0.12700000000E+03 0.  0.
<mgrwt>
<rscale>  0 0.99561141E+03</rscale>
<asrwt>0</asrwt>
<pdfrwt beam="1">  1        2 0.38792681E+00 0.99561141E+03</pdfrwt>
<pdfrwt beam="2">  1       -2 0.13036886E-01 0.99561141E+03</pdfrwt>
<totfact> 0.15226107E+02</totfact>
</mgrwt>
</event>
<event>
 4    1  0.9508302E-005  0.2969877E+03  0.7818608E-02  0.1086756E+00
         -2   -1    0    0    0  501 -0.00000000000E+00  0.00000000000E+00  0.29499214080E+02  0.29499214190E+02  0.25500000000E-02 0. -1.
          2   -1    0    0  501    0  0.00000000000E+00 -0.00000000000E+00 -0.74749210501E+03  0.74749210502E+03  0.25500000000E-02 0.  1.
    5000001    1    1    2    0    0  0.33223507803E+01  0.71656988459E+02 -0.43186086108E+03  0.45582734159E+03  0.12700000000E+03 0.  0.
   -5000001    1    1    2    0    0 -0.33223507803E+01 -0.71656988459E+02 -0.28613202985E+03  0.32116397761E+03  0.12700000000E+03 0.  0.
<mgrwt>
<rscale>  0 0.29698774E+03</rscale>
<asrwt>0</asrwt>
<pdfrwt beam="1">  1        2 0.10678457E+00 0.29698774E+03</pdfrwt>
<pdfrwt beam="2">  1       -2 0.42141739E-02 0.29698774E+03</pdfrwt>
<totfact> 0.10759759E+04</totfact>
</mgrwt>
</event>
<event>
 4    1  0.9508302E-005  0.3384621E+03  0.7818608E-02  0.1067453E+00
          2   -1    0    0  501    0  0.00000000000E+00  0.00000000000E+00  0.77066807087E+03  0.77066807087E+03  0.25500000000E-02 0.  1.
         -2   -1    0    0    0  501 -0.00000000000E+00 -0.00000000000E+00 -0.37161458496E+02  0.37161458584E+02  0.25500000000E-02 0. -1.
    5000001    1    1    2    0    0 -0.64797917242E+02 -0.90843967744E+02  0.38504798288E+03  0.42052627228E+03  0.12700000000E+03 0.  0.
   -5000001    1    1    2    0    0  0.64797917242E+02  0.90843967744E+02  0.34845862949E+03  0.38730325717E+03  0.12700000000E+03 0.  0.
<mgrwt>
<rscale>  0 0.33846211E+03</rscale>
<asrwt>0</asrwt>
<pdfrwt beam="1">  1        2 0.11009544E+00 0.33846211E+03</pdfrwt>
<pdfrwt beam="2">  1       -2 0.53087799E-02 0.33846211E+03</pdfrwt>
<totfact> 0.73238997E+03</totfact>
</mgrwt>
</event>
<event>
 4    1  0.9508302E-005  0.5217191E+03  0.7818608E-02  0.1008260E+00
          2   -1    0    0  501    0  0.00000000000E+00  0.00000000000E+00  0.48128413134E+03  0.48128413135E+03  0.25500000000E-02 0.  1.
         -2   -1    0    0    0  501 -0.00000000000E+00 -0.00000000000E+00 -0.14138778029E+03  0.14138778032E+03  0.25500000000E-02 0. -1.
    5000001    1    1    2    0    0 -0.21812252096E+03  0.65769702483E+02  0.16523315145E+03  0.30876217749E+03  0.12700000000E+03 0.  0.
   -5000001    1    1    2    0    0  0.21812252096E+03 -0.65769702483E+02  0.17466319960E+03  0.31390973417E+03  0.12700000000E+03 0.  0.
<mgrwt>
<rscale>  0 0.52171906E+03</rscale>
<asrwt>0</asrwt>
<pdfrwt beam="1">  1        2 0.68754876E-01 0.52171906E+03</pdfrwt>
<pdfrwt beam="2">  1       -2 0.20198254E-01 0.52171906E+03</pdfrwt>
<totfact> 0.14682277E+03</totfact>
</mgrwt>
</event>
<event>
 4    1  0.9508302E-005  0.4980161E+03  0.7818608E-02  0.1014298E+00
         -2   -1    0    0    0  501 -0.00000000000E+00  0.00000000000E+00  0.48384161346E+02  0.48384161413E+02  0.25500000000E-02 0. -1.
          2   -1    0    0  501    0  0.00000000000E+00 -0.00000000000E+00 -0.12815145710E+04  0.12815145710E+04  0.25500000000E-02 0.  1.
    5000001    1    1    2    0    0  0.28594254029E+02 -0.17525853780E+03 -0.93637553519E+03  0.96148912076E+03  0.12700000000E+03 0.  0.
   -5000001    1    1    2    0    0 -0.28594254029E+02  0.17525853780E+03 -0.29675487442E+03  0.36840961161E+03  0.12700000000E+03 0.  0.
<mgrwt>
<rscale>  0 0.49801610E+03</rscale>
<asrwt>0</asrwt>
<pdfrwt beam="1">  1        2 0.18307349E+00 0.49801610E+03</pdfrwt>
<pdfrwt beam="2">  1       -2 0.69120238E-02 0.49801610E+03</pdfrwt>
<totfact> 0.24064534E+03</totfact>
</mgrwt>
</event>
<event>
 4    1  0.9508302E-005  0.3658741E+03  0.7818608E-02  0.1056282E+00
         -2   -1    0    0    0  501 -0.00000000000E+00  0.00000000000E+00  0.14142317090E+03  0.14142317092E+03  0.25500000000E-02 0. -1.
          2   -1    0    0  501    0  0.00000000000E+00 -0.00000000000E+00 -0.23663703521E+03  0.23663703523E+03  0.25500000000E-02 0.  1.
    5000001    1    1    2    0    0  0.95025831978E+02  0.56752651800E+02 -0.12129981013E+03  0.20758953771E+03  0.12700000000E+03 0.  0.
   -5000001    1    1    2    0    0 -0.95025831978E+02 -0.56752651800E+02  0.26085945816E+02  0.17047066844E+03  0.12700000000E+03 0.  0.
<mgrwt>
<rscale>  0 0.36587408E+03</rscale>
<asrwt>0</asrwt>
<pdfrwt beam="1">  1        2 0.33805291E-01 0.36587408E+03</pdfrwt>
<pdfrwt beam="2">  1       -2 0.20203310E-01 0.36587408E+03</pdfrwt>
<totfact> 0.31909319E+03</totfact>
</mgrwt>
</event>
<event>
 4    1  0.9508302E-005  0.3473659E+03  0.7818608E-02  0.1063701E+00
         -2   -1    0    0    0  501 -0.00000000000E+00  0.00000000000E+00  0.49305142728E+02  0.49305142794E+02  0.25500000000E-02 0. -1.
          2   -1    0    0  501    0  0.00000000000E+00 -0.00000000000E+00 -0.61181798161E+03  0.61181798162E+03  0.25500000000E-02 0.  1.
    5000001    1    1    2    0    0  0.88336336732E+02  0.62210429068E+02 -0.37378098129E+03  0.40928555782E+03  0.12700000000E+03 0.  0.
   -5000001    1    1    2    0    0 -0.88336336732E+02 -0.62210429068E+02 -0.18873185760E+03  0.25183756659E+03  0.12700000000E+03 0.  0.
<mgrwt>
<rscale>  0 0.34736593E+03</rscale>
<asrwt>0</asrwt>
<pdfrwt beam="1">  1        2 0.87402564E-01 0.34736593E+03</pdfrwt>
<pdfrwt beam="2">  1       -2 0.70435922E-02 0.34736593E+03</pdfrwt>
<totfact> 0.62344570E+03</totfact>
</mgrwt>
</event>
<event>
 4    1  0.9508302E-005  0.5961972E+03  0.7818608E-02  0.9913327E-01
          2   -1    0    0  501    0  0.00000000000E+00  0.00000000000E+00  0.12975190785E+04  0.12975190785E+04  0.25500000000E-02 0.  1.
         -2   -1    0    0    0  501 -0.00000000000E+00 -0.00000000000E+00 -0.68486671106E+02  0.68486671153E+02  0.25500000000E-02 0. -1.
    5000001    1    1    2    0    0  0.39428863073E+02 -0.24980637124E+03  0.39987724132E+03  0.48988638119E+03  0.12700000000E+03 0.  0.
   -5000001    1    1    2    0    0 -0.39428863073E+02  0.24980637124E+03  0.82915516606E+03  0.87611936844E+03  0.12700000000E+03 0.  0.
<mgrwt>
<rscale>  0 0.59619716E+03</rscale>
<asrwt>0</asrwt>
<pdfrwt beam="1">  1        2 0.18535986E+00 0.59619716E+03</pdfrwt>
<pdfrwt beam="2">  1       -2 0.97838105E-02 0.59619716E+03</pdfrwt>
<totfact> 0.13528302E+03</totfact>
</mgrwt>
</event>
<event>
 4    1  0.9508302E-005  0.2915792E+03  0.7818608E-02  0.1089528E+00
          2   -1    0    0  501    0  0.00000000000E+00  0.00000000000E+00  0.64434613785E+03  0.64434613785E+03  0.25500000000E-02 0.  1.
         -2   -1    0    0    0  501 -0.00000000000E+00 -0.00000000000E+00 -0.32986308535E+02  0.32986308634E+02  0.25500000000E-02 0. -1.
    5000001    1    1    2    0    0  0.10431089192E+02 -0.47260212143E+02  0.18312726340E+03  0.22805027927E+03  0.12700000000E+03 0.  0.
   -5000001    1    1    2    0    0 -0.10431089192E+02  0.47260212143E+02  0.42823256591E+03  0.44928216722E+03  0.12700000000E+03 0.  0.
<mgrwt>
<rscale>  0 0.29157915E+03</rscale>
<asrwt>0</asrwt>
<pdfrwt beam="1">  1        2 0.92049447E-01 0.29157915E+03</pdfrwt>
<pdfrwt beam="2">  1       -2 0.47123299E-02 0.29157915E+03</pdfrwt>
<totfact> 0.10830092E+04</totfact>
</mgrwt>
</event>
<event>
 4    1  0.9508302E-005  0.3378829E+03  0.7818608E-02  0.1067701E+00
         -2   -1    0    0    0  501 -0.00000000000E+00  0.00000000000E+00  0.17774782125E+02  0.17774782307E+02  0.25500000000E-02 0. -1.
          2   -1    0    0  501    0  0.00000000000E+00 -0.00000000000E+00 -0.16057137796E+04  0.16057137796E+04  0.25500000000E-02 0.  1.
    5000001    1    1    2    0    0 -0.10017312208E+03  0.25418322883E+02 -0.99390511335E+03  0.10073019011E+04  0.12700000000E+03 0.  0.
   -5000001    1    1    2    0    0  0.10017312208E+03 -0.25418322883E+02 -0.59403388410E+03  0.61618666083E+03  0.12700000000E+03 0.  0.
<mgrwt>
<rscale>  0 0.33788290E+03</rscale>
<asrwt>0</asrwt>
<pdfrwt beam="1">  1        2 0.22938759E+00 0.33788290E+03</pdfrwt>
<pdfrwt beam="2">  1       -2 0.25392556E-02 0.33788290E+03</pdfrwt>
<totfact> 0.75199903E+03</totfact>
</mgrwt>
</event>
<event>
 4    1  0.9508302E-005  0.4210452E+03  0.7818608E-02  0.1036727E+00
          2   -1    0    0  501    0  0.00000000000E+00  0.00000000000E+00  0.11793775518E+04  0.11793775519E+04  0.25500000000E-02 0.  1.
         -2   -1    0    0    0  501 -0.00000000000E+00 -0.00000000000E+00 -0.37578949695E+02  0.37578949782E+02  0.25500000000E-02 0. -1.
    5000001    1    1    2    0    0  0.13577221162E+03 -0.67827044353E+02  0.36335545701E+03  0.41375208704E+03  0.12700000000E+03 0.  0.
   -5000001    1    1    2    0    0 -0.13577221162E+03  0.67827044353E+02  0.77844314515E+03  0.80320441459E+03  0.12700000000E+03 0.  0.
<mgrwt>
<rscale>  0 0.42104522E+03</rscale>
<asrwt>0</asrwt>
<pdfrwt beam="1">  1        2 0.16848248E+00 0.42104522E+03</pdfrwt>
<pdfrwt beam="2">  1       -2 0.53684224E-02 0.42104522E+03</pdfrwt>
<totfact> 0.40586645E+03</totfact>
</mgrwt>
</event>
<event>
 4    1  0.9508302E-005  0.3515151E+03  0.7818608E-02  0.1061995E+00
         -2   -1    0    0    0  501 -0.00000000000E+00  0.00000000000E+00  0.33211681389E+02  0.33211681487E+02  0.25500000000E-02 0. -1.
          2   -1    0    0  501    0  0.00000000000E+00 -0.00000000000E+00 -0.93011580795E+03  0.93011580796E+03  0.25500000000E-02 0.  1.
    5000001    1    1    2    0    0  0.60339024413E+02 -0.99871622646E+02 -0.54124832849E+03  0.56806152129E+03  0.12700000000E+03 0.  0.
   -5000001    1    1    2    0    0 -0.60339024413E+02  0.99871622646E+02 -0.35565579808E+03  0.39526596816E+03  0.12700000000E+03 0.  0.
<mgrwt>
<rscale>  0 0.35151506E+03</rscale>
<asrwt>0</asrwt>
<pdfrwt beam="1">  1        2 0.13287367E+00 0.35151506E+03</pdfrwt>
<pdfrwt beam="2">  1       -2 0.47445265E-02 0.35151506E+03</pdfrwt>
<totfact> 0.68453265E+03</totfact>
</mgrwt>
</event>
<event>
 4    1  0.9508302E-005  0.3193514E+03  0.7818608E-02  0.1075948E+00
          2   -1    0    0  501    0  0.00000000000E+00  0.00000000000E+00  0.61140667501E+03  0.61140667501E+03  0.25500000000E-02 0.  1.
         -2   -1    0    0    0  501 -0.00000000000E+00 -0.00000000000E+00 -0.41701097364E+02  0.41701097442E+02  0.25500000000E-02 0. -1.
    5000001    1    1    2    0    0  0.50468858910E+02 -0.62695609059E+02  0.39478531005E+03  0.42244796857E+03  0.12700000000E+03 0.  0.
   -5000001    1    1    2    0    0 -0.50468858910E+02  0.62695609059E+02  0.17492026759E+03  0.23065980389E+03  0.12700000000E+03 0.  0.
<mgrwt>
<rscale>  0 0.31935140E+03</rscale>
<asrwt>0</asrwt>
<pdfrwt beam="1">  1        2 0.87343802E-01 0.31935140E+03</pdfrwt>
<pdfrwt beam="2">  1       -2 0.59573002E-02 0.31935140E+03</pdfrwt>
<totfact> 0.80682361E+03</totfact>
</mgrwt>
</event>
<event>
 4    1  0.9508302E-005  0.3479015E+03  0.7818608E-02  0.1063480E+00
          2   -1    0    0  501    0  0.00000000000E+00  0.00000000000E+00  0.14566910962E+04  0.14566910962E+04  0.25500000000E-02 0.  1.
         -2   -1    0    0    0  501 -0.00000000000E+00 -0.00000000000E+00 -0.20772324019E+02  0.20772324175E+02  0.25500000000E-02 0. -1.
    5000001    1    1    2    0    0  0.60881550157E+02 -0.33452605579E+02  0.30832119503E+03  0.34061209502E+03  0.12700000000E+03 0.  0.
   -5000001    1    1    2    0    0 -0.60881550157E+02  0.33452605579E+02  0.11275975772E+04  0.11368513254E+04  0.12700000000E+03 0.  0.
<mgrwt>
<rscale>  0 0.34790148E+03</rscale>
<asrwt>0</asrwt>
<pdfrwt beam="1">  1        2 0.20809881E+00 0.34790148E+03</pdfrwt>
<pdfrwt beam="2">  1       -2 0.29674737E-02 0.34790148E+03</pdfrwt>
<totfact> 0.70945050E+03</totfact>
</mgrwt>
</event>
<event>
 4    1  0.9508302E-005  0.5379931E+03  0.7818608E-02  0.1004312E+00
         -2   -1    0    0    0  501 -0.00000000000E+00  0.00000000000E+00  0.52914215671E+02  0.52914215733E+02  0.25500000000E-02 0. -1.
          2   -1    0    0  501    0  0.00000000000E+00 -0.00000000000E+00 -0.13674802568E+04  0.13674802569E+04  0.25500000000E-02 0.  1.
    5000001    1    1    2    0    0 -0.93233302496E+02  0.21404344733E+03 -0.76687717996E+03  0.81162593304E+03  0.12700000000E+03 0.  0.
   -5000001    1    1    2    0    0  0.93233302496E+02 -0.21404344733E+03 -0.54768886122E+03  0.60876853955E+03  0.12700000000E+03 0.  0.
<mgrwt>
<rscale>  0 0.53799311E+03</rscale>
<asrwt>0</asrwt>
<pdfrwt beam="1">  1        2 0.19535430E+00 0.53799311E+03</pdfrwt>
<pdfrwt beam="2">  1       -2 0.75591745E-02 0.53799311E+03</pdfrwt>
<totfact> 0.18772714E+03</totfact>
</mgrwt>
</event>
<event>
 4    1  0.9508302E-005  0.2889528E+03  0.7818608E-02  0.1090897E+00
          2   -1    0    0  501    0  0.00000000000E+00  0.00000000000E+00  0.11311195529E+04  0.11311195529E+04  0.25500000000E-02 0.  1.
         -2   -1    0    0    0  501 -0.00000000000E+00 -0.00000000000E+00 -0.18453778112E+02  0.18453778288E+02  0.25500000000E-02 0. -1.
    5000001    1    1    2    0    0  0.49966237421E+02 -0.46206021696E+02  0.59858805071E+03  0.61568520834E+03  0.12700000000E+03 0.  0.
   -5000001    1    1    2    0    0 -0.49966237421E+02  0.46206021696E+02  0.51407772409E+03  0.53388812286E+03  0.12700000000E+03 0.  0.
<mgrwt>
<rscale>  0 0.28895279E+03</rscale>
<asrwt>0</asrwt>
<pdfrwt beam="1">  1        2 0.16158856E+00 0.28895279E+03</pdfrwt>
<pdfrwt beam="2">  1       -2 0.26362532E-02 0.28895279E+03</pdfrwt>
<totfact> 0.12563280E+04</totfact>
</mgrwt>
</event>
<event>
 4    1  0.9508302E-005  0.3671579E+03  0.7818608E-02  0.1055785E+00
          2   -1    0    0  501    0  0.00000000000E+00  0.00000000000E+00  0.10458157342E+04  0.10458157342E+04  0.25500000000E-02 0.  1.
         -2   -1    0    0    0  501 -0.00000000000E+00 -0.00000000000E+00 -0.32224822435E+02  0.32224822536E+02  0.25500000000E-02 0. -1.
    5000001    1    1    2    0    0  0.12420223363E+03  0.26262996737E+02  0.39474705279E+03  0.43367058411E+03  0.12700000000E+03 0.  0.
   -5000001    1    1    2    0    0 -0.12420223363E+03 -0.26262996737E+02  0.61884385898E+03  0.64436997264E+03  0.12700000000E+03 0.  0.
<mgrwt>
<rscale>  0 0.36715788E+03</rscale>
<asrwt>0</asrwt>
<pdfrwt beam="1">  1        2 0.14940224E+00 0.36715788E+03</pdfrwt>
<pdfrwt beam="2">  1       -2 0.46035464E-02 0.36715788E+03</pdfrwt>
<totfact> 0.61119941E+03</totfact>
</mgrwt>
</event>
<event>
 4    1  0.9508302E-005  0.4468252E+03  0.7818608E-02  0.1028673E+00
          2   -1    0    0  501    0  0.00000000000E+00  0.00000000000E+00  0.12955206504E+03  0.12955206507E+03  0.25500000000E-02 0.  1.
         -2   -1    0    0    0  501 -0.00000000000E+00 -0.00000000000E+00 -0.38527511269E+03  0.38527511270E+03  0.25500000000E-02 0. -1.
    5000001    1    1    2    0    0 -0.17153479358E+03  0.66012602272E+02 -0.12609999233E+03  0.25653860749E+03  0.12700000000E+03 0.  0.
   -5000001    1    1    2    0    0  0.17153479358E+03 -0.66012602272E+02 -0.12962305531E+03  0.25828857028E+03  0.12700000000E+03 0.  0.
<mgrwt>
<rscale>  0 0.44682518E+03</rscale>
<asrwt>0</asrwt>
<pdfrwt beam="1">  1        2 0.18507438E-01 0.44682518E+03</pdfrwt>
<pdfrwt beam="2">  1       -2 0.55039301E-01 0.44682518E+03</pdfrwt>
<totfact> 0.96848306E+02</totfact>
</mgrwt>
</event>
<event>
 4    1  0.9508302E-005  0.3479085E+03  0.7818608E-02  0.1063477E+00
         -2   -1    0    0    0  501 -0.00000000000E+00  0.00000000000E+00  0.10254977182E+03  0.10254977185E+03  0.25500000000E-02 0. -1.
          2   -1    0    0  501    0  0.00000000000E+00 -0.00000000000E+00 -0.29507707677E+03  0.29507707678E+03  0.25500000000E-02 0.  1.
    5000001    1    1    2    0    0  0.11207838777E+03  0.33290761366E+02 -0.12080946686E+03  0.21069828447E+03  0.12700000000E+03 0.  0.
   -5000001    1    1    2    0    0 -0.11207838777E+03 -0.33290761366E+02 -0.71717838091E+02  0.18692856416E+03  0.12700000000E+03 0.  0.
<mgrwt>
<rscale>  0 0.34790853E+03</rscale>
<asrwt>0</asrwt>
<pdfrwt beam="1">  1        2 0.42153868E-01 0.34790853E+03</pdfrwt>
<pdfrwt beam="2">  1       -2 0.14649967E-01 0.34790853E+03</pdfrwt>
<totfact> 0.43117630E+03</totfact>
</mgrwt>
</event>
<event>
 4    1  0.9508302E-005  0.3059977E+03  0.7818608E-02  0.1082280E+00
         -2   -1    0    0    0  501 -0.00000000000E+00  0.00000000000E+00  0.57975533009E+02  0.57975533065E+02  0.25500000000E-02 0. -1.
          2   -1    0    0  501    0  0.00000000000E+00 -0.00000000000E+00 -0.40376766096E+03  0.40376766096E+03  0.25500000000E-02 0.  1.
    5000001    1    1    2    0    0 -0.38130458824E+02  0.75854211799E+02 -0.18568698729E+03  0.24045051588E+03  0.12700000000E+03 0.  0.
   -5000001    1    1    2    0    0  0.38130458824E+02 -0.75854211799E+02 -0.16010514065E+03  0.22129267815E+03  0.12700000000E+03 0.  0.
<mgrwt>
<rscale>  0 0.30599768E+03</rscale>
<asrwt>0</asrwt>
<pdfrwt beam="1">  1        2 0.57681093E-01 0.30599768E+03</pdfrwt>
<pdfrwt beam="2">  1       -2 0.82822192E-02 0.30599768E+03</pdfrwt>
<totfact> 0.76621914E+03</totfact>
</mgrwt>
</event>
<event>
 4    1  0.9508302E-005  0.4176397E+03  0.7818608E-02  0.1037837E+00
         -2   -1    0    0    0  501 -0.00000000000E+00  0.00000000000E+00  0.18146413654E+03  0.18146413656E+03  0.25500000000E-02 0. -1.
          2   -1    0    0  501    0  0.00000000000E+00 -0.00000000000E+00 -0.24029942062E+03  0.24029942063E+03  0.25500000000E-02 0.  1.
    5000001    1    1    2    0    0 -0.47550016742E+01  0.12119196811E+03 -0.14352281131E+03  0.22679925163E+03  0.12700000000E+03 0.  0.
   -5000001    1    1    2    0    0  0.47550016742E+01 -0.12119196811E+03  0.84687527234E+02  0.19496430556E+03  0.12700000000E+03 0.  0.
<mgrwt>
<rscale>  0 0.41763969E+03</rscale>
<asrwt>0</asrwt>
<pdfrwt beam="1">  1        2 0.34328489E-01 0.41763969E+03</pdfrwt>
<pdfrwt beam="2">  1       -2 0.25923448E-01 0.41763969E+03</pdfrwt>
<totfact> 0.20292676E+03</totfact>
</mgrwt>
</event>
<event>
 4    1  0.9508302E-005  0.4039488E+03  0.7818608E-02  0.1042421E+00
          2   -1    0    0  501    0  0.00000000000E+00  0.00000000000E+00  0.24073202419E+03  0.24073202420E+03  0.25500000000E-02 0.  1.
         -2   -1    0    0    0  501 -0.00000000000E+00 -0.00000000000E+00 -0.16945673101E+03  0.16945673103E+03  0.25500000000E-02 0. -1.
    5000001    1    1    2    0    0  0.21266955556E+02 -0.89618027203E+02 -0.93531836791E+02  0.18264960633E+03  0.12700000000E+03 0.  0.
   -5000001    1    1    2    0    0 -0.21266955556E+02  0.89618027203E+02  0.16480712997E+03  0.22753914891E+03  0.12700000000E+03 0.  0.
<mgrwt>
<rscale>  0 0.40394882E+03</rscale>
<asrwt>0</asrwt>
<pdfrwt beam="1">  1        2 0.34390289E-01 0.40394882E+03</pdfrwt>
<pdfrwt beam="2">  1       -2 0.24208105E-01 0.40394882E+03</pdfrwt>
<totfact> 0.22868986E+03</totfact>
</mgrwt>
</event>
<event>
 4    1  0.9508302E-005  0.5959838E+03  0.7818608E-02  0.9913774E-01
         -2   -1    0    0    0  501 -0.00000000000E+00  0.00000000000E+00  0.78684232676E+02  0.78684232717E+02  0.25500000000E-02 0. -1.
          2   -1    0    0  501    0  0.00000000000E+00 -0.00000000000E+00 -0.11285510833E+04  0.11285510833E+04  0.25500000000E-02 0.  1.
    5000001    1    1    2    0    0 -0.26384044149E+03 -0.52887915876E+02 -0.49219190970E+03  0.57514414384E+03  0.12700000000E+03 0.  0.
   -5000001    1    1    2    0    0  0.26384044149E+03  0.52887915876E+02 -0.55767494088E+03  0.63209117214E+03  0.12700000000E+03 0.  0.
<mgrwt>
<rscale>  0 0.59598381E+03</rscale>
<asrwt>0</asrwt>
<pdfrwt beam="1">  1        2 0.16122157E+00 0.59598381E+03</pdfrwt>
<pdfrwt beam="2">  1       -2 0.11240605E-01 0.59598381E+03</pdfrwt>
<totfact> 0.13413095E+03</totfact>
</mgrwt>
</event>
<event>
 4    1  0.9508302E-005  0.6814044E+03  0.7818608E-02  0.9749572E-01
          2   -1    0    0  501    0  0.00000000000E+00  0.00000000000E+00  0.25731410032E+04  0.25731410032E+04  0.25500000000E-02 0.  1.
         -2   -1    0    0    0  501 -0.00000000000E+00 -0.00000000000E+00 -0.45111404838E+02  0.45111404910E+02  0.25500000000E-02 0. -1.
    5000001    1    1    2    0    0 -0.31485545714E+03  0.10646830961E+02  0.11622307521E+04  0.12108495510E+04  0.12700000000E+03 0.  0.
   -5000001    1    1    2    0    0  0.31485545714E+03 -0.10646830961E+02  0.13657988462E+04  0.14074028571E+04  0.12700000000E+03 0.  0.
<mgrwt>
<rscale>  0 0.68140445E+03</rscale>
<asrwt>0</asrwt>
<pdfrwt beam="1">  1        2 0.36759161E+00 0.68140445E+03</pdfrwt>
<pdfrwt beam="2">  1       -2 0.64444857E-02 0.68140445E+03</pdfrwt>
<totfact> 0.58187532E+02</totfact>
</mgrwt>
</event>
<event>
 4    1  0.9508302E-005  0.3536286E+03  0.7818608E-02  0.1061136E+00
         -2   -1    0    0    0  501 -0.00000000000E+00  0.00000000000E+00  0.42202056860E+02  0.42202056937E+02  0.25500000000E-02 0. -1.
          2   -1    0    0  501    0  0.00000000000E+00 -0.00000000000E+00 -0.74080019822E+03  0.74080019822E+03  0.25500000000E-02 0.  1.
    5000001    1    1    2    0    0 -0.99358180585E+02  0.71897635048E+02 -0.37064901550E+03  0.41054964458E+03  0.12700000000E+03 0.  0.
   -5000001    1    1    2    0    0  0.99358180585E+02 -0.71897635048E+02 -0.32794912586E+03  0.37245261058E+03  0.12700000000E+03 0.  0.
<mgrwt>
<rscale>  0 0.35362857E+03</rscale>
<asrwt>0</asrwt>
<pdfrwt beam="1">  1        2 0.10582859E+00 0.35362857E+03</pdfrwt>
<pdfrwt beam="2">  1       -2 0.60288657E-02 0.35362857E+03</pdfrwt>
<totfact> 0.63277336E+03</totfact>
</mgrwt>
</event>
<event>
 4    1  0.9508302E-005  0.3080485E+03  0.7818608E-02  0.1081285E+00
         -2   -1    0    0    0  501 -0.00000000000E+00  0.00000000000E+00  0.18351950909E+04  0.18351950909E+04  0.25500000000E-02 0. -1.
          2   -1    0    0  501    0  0.00000000000E+00 -0.00000000000E+00 -0.12926943439E+02  0.12926943691E+02  0.25500000000E-02 0.  1.
    5000001    1    1    2    0    0  0.41038054425E+02  0.17991174843E+02  0.46271127096E+03  0.48191132437E+03  0.12700000000E+03 0.  0.
   -5000001    1    1    2    0    0 -0.41038054425E+02 -0.17991174843E+02  0.13595568765E+04  0.13662107102E+04  0.12700000000E+03 0.  0.
<mgrwt>
<rscale>  0 0.30804846E+03</rscale>
<asrwt>0</asrwt>
<pdfrwt beam="1">  1        2 0.18467076E-02 0.30804846E+03</pdfrwt>
<pdfrwt beam="2">  1       -2 0.26217053E+00 0.30804846E+03</pdfrwt>
<totfact> 0.37258910E+02</totfact>
</mgrwt>
</event>
<event>
 4    1  0.9508302E-005  0.6684683E+03  0.7818608E-02  0.9772729E-01
          2   -1    0    0  501    0  0.00000000000E+00  0.00000000000E+00  0.12391241110E+04  0.12391241110E+04  0.25500000000E-02 0.  1.
         -2   -1    0    0    0  501 -0.00000000000E+00 -0.00000000000E+00 -0.90154384745E+02  0.90154384781E+02  0.25500000000E-02 0. -1.
    5000001    1    1    2    0    0 -0.11529318183E+03 -0.18646001079E+03  0.10079856628E+04  0.10393382268E+04  0.12700000000E+03 0.  0.
   -5000001    1    1    2    0    0  0.11529318183E+03  0.18646001079E+03  0.14098406347E+03  0.28994026894E+03  0.12700000000E+03 0.  0.
<mgrwt>
<rscale>  0 0.66846831E+03</rscale>
<asrwt>0</asrwt>
<pdfrwt beam="1">  1        2 0.17701771E+00 0.66846831E+03</pdfrwt>
<pdfrwt beam="2">  1       -2 0.12879199E-01 0.66846831E+03</pdfrwt>
<totfact> 0.92622011E+02</totfact>
</mgrwt>
</event>
<event>
 4    1  0.9508302E-005  0.3350604E+03  0.7818608E-02  0.1068919E+00
          2   -1    0    0  501    0  0.00000000000E+00  0.00000000000E+00  0.94177685585E+03  0.94177685585E+03  0.25500000000E-02 0.  1.
         -2   -1    0    0    0  501 -0.00000000000E+00 -0.00000000000E+00 -0.29801512382E+02  0.29801512491E+02  0.25500000000E-02 0. -1.
    5000001    1    1    2    0    0 -0.77013091530E+02  0.69140814880E+02  0.35446026548E+03  0.39049013861E+03  0.12700000000E+03 0.  0.
   -5000001    1    1    2    0    0  0.77013091530E+02 -0.69140814880E+02  0.55751507799E+03  0.58108822973E+03  0.12700000000E+03 0.  0.
<mgrwt>
<rscale>  0 0.33506044E+03</rscale>
<asrwt>0</asrwt>
<pdfrwt beam="1">  1        2 0.13453956E+00 0.33506044E+03</pdfrwt>
<pdfrwt beam="2">  1       -2 0.42573587E-02 0.33506044E+03</pdfrwt>
<totfact> 0.79306246E+03</totfact>
</mgrwt>
</event>
<event>
 4    1  0.9508302E-005  0.4498045E+03  0.7818608E-02  0.1027780E+00
         -2   -1    0    0    0  501 -0.00000000000E+00  0.00000000000E+00  0.19477665602E+02  0.19477665769E+02  0.25500000000E-02 0. -1.
          2   -1    0    0  501    0  0.00000000000E+00 -0.00000000000E+00 -0.25968729129E+04  0.25968729129E+04  0.25500000000E-02 0.  1.
    5000001    1    1    2    0    0  0.81820115871E+02 -0.10179621461E+03 -0.52153996050E+03  0.55243997960E+03  0.12700000000E+03 0.  0.
   -5000001    1    1    2    0    0 -0.81820115871E+02  0.10179621461E+03 -0.20558552868E+04  0.20639105991E+04  0.12700000000E+03 0.  0.
<mgrwt>
<rscale>  0 0.44980450E+03</rscale>
<asrwt>0</asrwt>
<pdfrwt beam="1">  1        2 0.37098162E+00 0.44980450E+03</pdfrwt>
<pdfrwt beam="2">  1       -2 0.27825253E-02 0.44980450E+03</pdfrwt>
<totfact> 0.20952119E+03</totfact>
</mgrwt>
</event>
<event>
 4    1  0.9508302E-005  0.6024623E+03  0.7818608E-02  0.9900311E-01
          2   -1    0    0  501    0  0.00000000000E+00  0.00000000000E+00  0.67297333494E+03  0.67297333494E+03  0.25500000000E-02 0.  1.
         -2   -1    0    0    0  501 -0.00000000000E+00 -0.00000000000E+00 -0.13483476080E+03  0.13483476082E+03  0.25500000000E-02 0. -1.
    5000001    1    1    2    0    0 -0.15048208537E+03  0.16963057717E+03  0.64874032241E+02  0.26787502830E+03  0.12700000000E+03 0.  0.
   -5000001    1    1    2    0    0  0.15048208537E+03 -0.16963057717E+03  0.47326454190E+03  0.53993306747E+03  0.12700000000E+03 0.  0.
<mgrwt>
<rscale>  0 0.60246228E+03</rscale>
<asrwt>0</asrwt>
<pdfrwt beam="1">  1        2 0.96139047E-01 0.60246228E+03</pdfrwt>
<pdfrwt beam="2">  1       -2 0.19262109E-01 0.60246228E+03</pdfrwt>
<totfact> 0.10788059E+03</totfact>
</mgrwt>
</event>
<event>
 4    1  0.9508302E-005  0.3522250E+03  0.7818608E-02  0.1061705E+00
          2   -1    0    0  501    0  0.00000000000E+00  0.00000000000E+00  0.22041944850E+04  0.22041944850E+04  0.25500000000E-02 0.  1.
         -2   -1    0    0    0  501 -0.00000000000E+00 -0.00000000000E+00 -0.14071180157E+02  0.14071180388E+02  0.25500000000E-02 0. -1.
    5000001    1    1    2    0    0  0.10444359496E+02 -0.11149068851E+03  0.78993287901E+03  0.80787512130E+03  0.12700000000E+03 0.  0.
   -5000001    1    1    2    0    0 -0.10444359496E+02  0.11149068851E+03  0.14001904258E+04  0.14103905440E+04  0.12700000000E+03 0.  0.
<mgrwt>
<rscale>  0 0.35222503E+03</rscale>
<asrwt>0</asrwt>
<pdfrwt beam="1">  1        2 0.31488468E+00 0.35222503E+03</pdfrwt>
<pdfrwt beam="2">  1       -2 0.20101702E-02 0.35222503E+03</pdfrwt>
<totfact> 0.53857307E+03</totfact>
</mgrwt>
</event>
<event>
 4    1  0.9508302E-005  0.4583836E+03  0.7818608E-02  0.1025251E+00
          2   -1    0    0  501    0  0.00000000000E+00  0.00000000000E+00  0.29370056425E+03  0.29370056426E+03  0.25500000000E-02 0.  1.
         -2   -1    0    0    0  501 -0.00000000000E+00 -0.00000000000E+00 -0.17885185422E+03  0.17885185424E+03  0.25500000000E-02 0. -1.
    5000001    1    1    2    0    0  0.97844527706E+01  0.17295970962E+03 -0.24978168921E+02  0.21624917477E+03  0.12700000000E+03 0.  0.
   -5000001    1    1    2    0    0 -0.97844527706E+01 -0.17295970962E+03  0.13982687895E+03  0.25630324372E+03  0.12700000000E+03 0.  0.
<mgrwt>
<rscale>  0 0.45838364E+03</rscale>
<asrwt>0</asrwt>
<pdfrwt beam="1">  1        2 0.41957224E-01 0.45838364E+03</pdfrwt>
<pdfrwt beam="2">  1       -2 0.25550265E-01 0.45838364E+03</pdfrwt>
<totfact> 0.16722816E+03</totfact>
</mgrwt>
</event>
<event>
 4    1  0.9508302E-005  0.4194009E+03  0.7818608E-02  0.1037261E+00
          2   -1    0    0  501    0  0.00000000000E+00  0.00000000000E+00  0.14400078236E+04  0.14400078236E+04  0.25500000000E-02 0.  1.
         -2   -1    0    0    0  501 -0.00000000000E+00 -0.00000000000E+00 -0.30537529878E+02  0.30537529985E+02  0.25500000000E-02 0. -1.
    5000001    1    1    2    0    0  0.16662130504E+03 -0.65759982794E+01  0.72673811356E+03  0.75636181074E+03  0.12700000000E+03 0.  0.
   -5000001    1    1    2    0    0 -0.16662130504E+03  0.65759982794E+01  0.68273218020E+03  0.71418354289E+03  0.12700000000E+03 0.  0.
<mgrwt>
<rscale>  0 0.41940092E+03</rscale>
<asrwt>0</asrwt>
<pdfrwt beam="1">  1        2 0.20571539E+00 0.41940092E+03</pdfrwt>
<pdfrwt beam="2">  1       -2 0.43625045E-02 0.41940092E+03</pdfrwt>
<totfact> 0.40461443E+03</totfact>
</mgrwt>
</event>
<event>
 4    1  0.9508302E-005  0.6340291E+03  0.7818608E-02  0.9837218E-01
          2   -1    0    0  501    0  0.00000000000E+00  0.00000000000E+00  0.19371718907E+04  0.19371718907E+04  0.25500000000E-02 0.  1.
         -2   -1    0    0    0  501 -0.00000000000E+00 -0.00000000000E+00 -0.51878830199E+02  0.51878830262E+02  0.25500000000E-02 0. -1.
    5000001    1    1    2    0    0  0.95874572019E+02 -0.18814255976E+02  0.84512489755E+02  0.18115537727E+03  0.12700000000E+03 0.  0.
   -5000001    1    1    2    0    0 -0.95874572019E+02  0.18814255976E+02  0.18007805707E+04  0.18078953437E+04  0.12700000000E+03 0.  0.
<mgrwt>
<rscale>  0 0.63402906E+03</rscale>
<asrwt>0</asrwt>
<pdfrwt beam="1">  1        2 0.27673881E+00 0.63402906E+03</pdfrwt>
<pdfrwt beam="2">  1       -2 0.74112624E-02 0.63402906E+03</pdfrwt>
<totfact> 0.98455381E+02</totfact>
</mgrwt>
</event>
<event>
 4    1  0.9508302E-005  0.3372013E+03  0.7818608E-02  0.1067994E+00
         -2   -1    0    0    0  501 -0.00000000000E+00  0.00000000000E+00  0.18571403487E+02  0.18571403662E+02  0.25500000000E-02 0.  1.
          2   -1    0    0  501    0  0.00000000000E+00 -0.00000000000E+00 -0.15306420625E+04  0.15306420625E+04  0.25500000000E-02 0. -1.
    5000001    1    1    2    0    0  0.69032673652E+02 -0.30506072221E+02 -0.38276085131E+03  0.41028161032E+03  0.12700000000E+03 0.  0.
   -5000001    1    1    2    0    0 -0.69032673652E+02  0.30506072221E+02 -0.11293098077E+04  0.11389318558E+04  0.12700000000E+03 0.  0.
<mgrwt>
<rscale>  0 0.33720125E+03</rscale>
<asrwt>0</asrwt>
<pdfrwt beam="1">  1        2 0.21866307E+00 0.33720125E+03</pdfrwt>
<pdfrwt beam="2">  1       -2 0.26530586E-02 0.33720125E+03</pdfrwt>
<totfact> 0.76859443E+03</totfact>
</mgrwt>
</event>
<event>
 4    1  0.9508302E-005  0.4928322E+03  0.7818608E-02  0.1015667E+00
          2   -1    0    0  501    0  0.00000000000E+00  0.00000000000E+00  0.23918343043E+04  0.23918343043E+04  0.25500000000E-02 0.  1.
         -2   -1    0    0    0  501 -0.00000000000E+00 -0.00000000000E+00 -0.25386748635E+02  0.25386748763E+02  0.25500000000E-02 0. -1.
    5000001    1    1    2    0    0  0.88444974945E+02 -0.10573795003E+03  0.39863366926E+03  0.44050065827E+03  0.12700000000E+03 0.  0.
   -5000001    1    1    2    0    0 -0.88444974945E+02  0.10573795003E+03  0.19678138864E+04  0.19767203948E+04  0.12700000000E+03 0.  0.
<mgrwt>
<rscale>  0 0.49283221E+03</rscale>
<asrwt>0</asrwt>
<pdfrwt beam="1">  1        2 0.34169059E+00 0.49283221E+03</pdfrwt>
<pdfrwt beam="2">  1       -2 0.36266787E-02 0.49283221E+03</pdfrwt>
<totfact> 0.17788019E+03</totfact>
</mgrwt>
</event>
<event>
 4    1  0.9508302E-005  0.2885014E+03  0.7818608E-02  0.1091134E+00
          2   -1    0    0  501    0  0.00000000000E+00  0.00000000000E+00  0.33962653855E+03  0.33962653856E+03  0.25500000000E-02 0.  1.
         -2   -1    0    0    0  501 -0.00000000000E+00 -0.00000000000E+00 -0.61268095722E+02  0.61268095775E+02  0.25500000000E-02 0. -1.
    5000001    1    1    2    0    0  0.60854476541E+02 -0.31030754513E+02  0.13415052223E+03  0.19695567434E+03  0.12700000000E+03 0.  0.
   -5000001    1    1    2    0    0 -0.60854476541E+02  0.31030754513E+02  0.14420792061E+03  0.20393896000E+03  0.12700000000E+03 0.  0.
<mgrwt>
<rscale>  0 0.28850145E+03</rscale>
<asrwt>0</asrwt>
<pdfrwt beam="1">  1        2 0.48518076E-01 0.28850145E+03</pdfrwt>
<pdfrwt beam="2">  1       -2 0.87525853E-02 0.28850145E+03</pdfrwt>
<totfact> 0.84525555E+03</totfact>
</mgrwt>
</event>
<event>
 4    1  0.9508302E-005  0.3629401E+03  0.7818608E-02  0.1057426E+00
          2   -1    0    0  501    0  0.00000000000E+00  0.00000000000E+00  0.57862714443E+03  0.57862714443E+03  0.25500000000E-02 0.  1.
         -2   -1    0    0    0  501 -0.00000000000E+00 -0.00000000000E+00 -0.56912946497E+02  0.56912946554E+02  0.25500000000E-02 0. -1.
    5000001    1    1    2    0    0 -0.12848237230E+03 -0.15868766991E+02  0.24939609963E+03  0.30836172309E+03  0.12700000000E+03 0.  0.
   -5000001    1    1    2    0    0  0.12848237230E+03  0.15868766991E+02  0.27231809830E+03  0.32717836789E+03  0.12700000000E+03 0.  0.
<mgrwt>
<rscale>  0 0.36294008E+03</rscale>
<asrwt>0</asrwt>
<pdfrwt beam="1">  1        2 0.82661019E-01 0.36294008E+03</pdfrwt>
<pdfrwt beam="2">  1       -2 0.81304211E-02 0.36294008E+03</pdfrwt>
<totfact> 0.53148449E+03</totfact>
</mgrwt>
</event>
<event>
 4    1  0.9508302E-005  0.4404000E+03  0.7818608E-02  0.1030624E+00
          2   -1    0    0  501    0  0.00000000000E+00  0.00000000000E+00  0.24243197641E+04  0.24243197641E+04  0.25500000000E-02 0.  1.
         -2   -1    0    0    0  501 -0.00000000000E+00 -0.00000000000E+00 -0.20000678943E+02  0.20000679106E+02  0.25500000000E-02 0. -1.
    5000001    1    1    2    0    0 -0.10348858001E+03  0.11146642103E+03  0.17352239727E+04  0.17465010406E+04  0.12700000000E+03 0.  0.
   -5000001    1    1    2    0    0  0.10348858001E+03 -0.11146642103E+03  0.66909511245E+03  0.69781940265E+03  0.12700000000E+03 0.  0.
<mgrwt>
<rscale>  0 0.44040001E+03</rscale>
<asrwt>0</asrwt>
<pdfrwt beam="1">  1        2 0.34633139E+00 0.44040001E+03</pdfrwt>
<pdfrwt beam="2">  1       -2 0.28572399E-02 0.44040001E+03</pdfrwt>
<totfact> 0.24653794E+03</totfact>
</mgrwt>
</event>
<event>
 4    1  0.9508302E-005  0.4089512E+03  0.7818608E-02  0.1040724E+00
         -2   -1    0    0    0  501 -0.00000000000E+00  0.00000000000E+00  0.19952081707E+02  0.19952081870E+02  0.25500000000E-02 0. -1.
          2   -1    0    0  501    0  0.00000000000E+00 -0.00000000000E+00 -0.20955339711E+04  0.20955339711E+04  0.25500000000E-02 0.  1.
    5000001    1    1    2    0    0  0.30248652787E+02  0.11149324555E+03 -0.46325421306E+03  0.49404371337E+03  0.12700000000E+03 0.  0.
   -5000001    1    1    2    0    0 -0.30248652787E+02 -0.11149324555E+03 -0.16123276764E+04  0.16214423396E+04  0.12700000000E+03 0.  0.
<mgrwt>
<rscale>  0 0.40895117E+03</rscale>
<asrwt>0</asrwt>
<pdfrwt beam="1">  1        2 0.29936186E+00 0.40895117E+03</pdfrwt>
<pdfrwt beam="2">  1       -2 0.28502987E-02 0.40895117E+03</pdfrwt>
<totfact> 0.36155607E+03</totfact>
</mgrwt>
</event>
<event>
 4    1  0.9508302E-005  0.4901813E+03  0.7818608E-02  0.1016374E+00
         -2   -1    0    0    0  501 -0.00000000000E+00  0.00000000000E+00  0.46209675555E+02  0.46209675625E+02  0.25500000000E-02 0. -1.
          2   -1    0    0  501    0  0.00000000000E+00 -0.00000000000E+00 -0.12999315993E+04  0.12999315993E+04  0.25500000000E-02 0.  1.
    5000001    1    1    2    0    0  0.43315303383E+02 -0.20332118309E+03 -0.55293233914E+03  0.60421758553E+03  0.12700000000E+03 0.  0.
   -5000001    1    1    2    0    0 -0.43315303383E+02  0.20332118309E+03 -0.70078958463E+03  0.74192368942E+03  0.12700000000E+03 0.  0.
<mgrwt>
<rscale>  0 0.49018126E+03</rscale>
<asrwt>0</asrwt>
<pdfrwt beam="1">  1        2 0.18570449E+00 0.49018126E+03</pdfrwt>
<pdfrwt beam="2">  1       -2 0.66013830E-02 0.49018126E+03</pdfrwt>
<totfact> 0.25281017E+03</totfact>
</mgrwt>
</event>
<event>
 4    1  0.9508302E-005  0.4571522E+03  0.7818608E-02  0.1025610E+00
         -2   -1    0    0    0  501 -0.00000000000E+00  0.00000000000E+00  0.38379643739E+03  0.38379643740E+03  0.25500000000E-02 0. -1.
          2   -1    0    0  501    0  0.00000000000E+00 -0.00000000000E+00 -0.13613212189E+03  0.13613212191E+03  0.25500000000E-02 0.  1.
    5000001    1    1    2    0    0  0.16333256446E+01 -0.17345137791E+03  0.35515899120E+02  0.21789545048E+03  0.12700000000E+03 0.  0.
   -5000001    1    1    2    0    0 -0.16333256446E+01  0.17345137791E+03  0.21214841639E+03  0.30203310883E+03  0.12700000000E+03 0.  0.
<mgrwt>
<rscale>  0 0.45715216E+03</rscale>
<asrwt>0</asrwt>
<pdfrwt beam="1">  1        2 0.19447446E-01 0.45715216E+03</pdfrwt>
<pdfrwt beam="2">  1       -2 0.54828062E-01 0.45715216E+03</pdfrwt>
<totfact> 0.92129634E+02</totfact>
</mgrwt>
</event>
<event>
 4    1  0.9508302E-005  0.5953451E+03  0.7818608E-02  0.9915111E-01
         -2   -1    0    0    0  501 -0.00000000000E+00  0.00000000000E+00  0.60502378979E+02  0.60502379033E+02  0.25500000000E-02 0. -1.
          2   -1    0    0  501    0  0.00000000000E+00 -0.00000000000E+00 -0.14645530999E+04  0.14645530999E+04  0.25500000000E-02 0.  1.
    5000001    1    1    2    0    0  0.22517267951E+03 -0.77343974238E+02 -0.38008284306E+03  0.46612958878E+03  0.12700000000E+03 0.  0.
   -5000001    1    1    2    0    0 -0.22517267951E+03  0.77343974238E+02 -0.10239678779E+04  0.10589258901E+04  0.12700000000E+03 0.  0.
<mgrwt>
<rscale>  0 0.59534510E+03</rscale>
<asrwt>0</asrwt>
<pdfrwt beam="1">  1        2 0.20922185E+00 0.59534510E+03</pdfrwt>
<pdfrwt beam="2">  1       -2 0.86431979E-02 0.59534510E+03</pdfrwt>
<totfact> 0.13453063E+03</totfact>
</mgrwt>
</event>
<event>
 4    1  0.9508302E-005  0.3380190E+03  0.7818608E-02  0.1067643E+00
          2   -1    0    0  501    0  0.00000000000E+00  0.00000000000E+00  0.44634627065E+03  0.44634627065E+03  0.25500000000E-02 0.  1.
         -2   -1    0    0    0  501 -0.00000000000E+00 -0.00000000000E+00 -0.63995635041E+02  0.63995635092E+02  0.25500000000E-02 0. -1.
    5000001    1    1    2    0    0  0.71844377451E+02 -0.80470889194E+02  0.23382648591E+03  0.28712541527E+03  0.12700000000E+03 0.  0.
   -5000001    1    1    2    0    0 -0.71844377451E+02  0.80470889194E+02  0.14852414970E+03  0.22321649048E+03  0.12700000000E+03 0.  0.
<mgrwt>
<rscale>  0 0.33801901E+03</rscale>
<asrwt>0</asrwt>
<pdfrwt beam="1">  1        2 0.63763754E-01 0.33801901E+03</pdfrwt>
<pdfrwt beam="2">  1       -2 0.91422334E-02 0.33801901E+03</pdfrwt>
<totfact> 0.58947822E+03</totfact>
</mgrwt>
</event>
<event>
 4    1  0.9508302E-005  0.4848929E+03  0.7818608E-02  0.1017799E+00
         -2   -1    0    0    0  501 -0.00000000000E+00  0.00000000000E+00  0.19477857292E+03  0.19477857294E+03  0.25500000000E-02 0. -1.
          2   -1    0    0  501    0  0.00000000000E+00 -0.00000000000E+00 -0.30178000839E+03  0.30178000840E+03  0.25500000000E-02 0.  1.
    5000001    1    1    2    0    0  0.16573120811E+03  0.99990520450E+02 -0.12724956609E+03  0.26417113694E+03  0.12700000000E+03 0.  0.
   -5000001    1    1    2    0    0 -0.16573120811E+03 -0.99990520450E+02  0.20248130615E+02  0.23238744440E+03  0.12700000000E+03 0.  0.
<mgrwt>
<rscale>  0 0.48489289E+03</rscale>
<asrwt>0</asrwt>
<pdfrwt beam="1">  1        2 0.43111430E-01 0.48489289E+03</pdfrwt>
<pdfrwt beam="2">  1       -2 0.27825510E-01 0.48489289E+03</pdfrwt>
<totfact> 0.13922860E+03</totfact>
</mgrwt>
</event>
<event>
 4    1  0.9508302E-005  0.5742989E+03  0.7818608E-02  0.9960211E-01
         -2   -1    0    0    0  501 -0.00000000000E+00  0.00000000000E+00  0.56440816009E+02  0.56440816067E+02  0.25500000000E-02 0. -1.
          2   -1    0    0  501    0  0.00000000000E+00 -0.00000000000E+00 -0.14609074735E+04  0.14609074735E+04  0.25500000000E-02 0.  1.
    5000001    1    1    2    0    0  0.45756496855E+02  0.20896153755E+03 -0.32332410640E+03  0.40795350098E+03  0.12700000000E+03 0.  0.
   -5000001    1    1    2    0    0 -0.45756496855E+02 -0.20896153755E+03 -0.10811425511E+04  0.11093947886E+04  0.12700000000E+03 0.  0.
<mgrwt>
<rscale>  0 0.57429891E+03</rscale>
<asrwt>0</asrwt>
<pdfrwt beam="1">  1        2 0.20870104E+00 0.57429891E+03</pdfrwt>
<pdfrwt beam="2">  1       -2 0.80629747E-02 0.57429891E+03</pdfrwt>
<totfact> 0.15109408E+03</totfact>
</mgrwt>
</event>
<event>
 4    1  0.9508302E-005  0.4992346E+03  0.7818608E-02  0.1013979E+00
         -2   -1    0    0    0  501 -0.00000000000E+00  0.00000000000E+00  0.52758811733E+02  0.52758811795E+02  0.25500000000E-02 0. -1.
          2   -1    0    0  501    0  0.00000000000E+00 -0.00000000000E+00 -0.11810122575E+04  0.11810122575E+04  0.25500000000E-02 0.  1.
    5000001    1    1    2    0    0  0.17189268325E+03 -0.99383205090E+02 -0.36100112658E+03  0.43113214843E+03  0.12700000000E+03 0.  0.
   -5000001    1    1    2    0    0 -0.17189268325E+03  0.99383205090E+02 -0.76725231922E+03  0.80263892091E+03  0.12700000000E+03 0.  0.
<mgrwt>
<rscale>  0 0.49923463E+03</rscale>
<asrwt>0</asrwt>
<pdfrwt beam="1">  1        2 0.16871602E+00 0.49923463E+03</pdfrwt>
<pdfrwt beam="2">  1       -2 0.75369738E-02 0.49923463E+03</pdfrwt>
<totfact> 0.23850366E+03</totfact>
</mgrwt>
</event>
<event>
 4    1  0.9508302E-005  0.3640860E+03  0.7818608E-02  0.1056978E+00
          2   -1    0    0  501    0  0.00000000000E+00  0.00000000000E+00  0.38052279788E+03  0.38052279789E+03  0.25500000000E-02 0.  1.
         -2   -1    0    0    0  501 -0.00000000000E+00 -0.00000000000E+00 -0.87089802340E+02  0.87089802378E+02  0.25500000000E-02 0. -1.
    5000001    1    1    2    0    0  0.12015691451E+02  0.10364760715E+03  0.46213185805E+02  0.17073916320E+03  0.12700000000E+03 0.  0.
   -5000001    1    1    2    0    0 -0.12015691451E+02 -0.10364760715E+03  0.24721980973E+03  0.29687343706E+03  0.12700000000E+03 0.  0.
<mgrwt>
<rscale>  0 0.36408601E+03</rscale>
<asrwt>0</asrwt>
<pdfrwt beam="1">  1        2 0.54360400E-01 0.36408601E+03</pdfrwt>
<pdfrwt beam="2">  1       -2 0.12441400E-01 0.36408601E+03</pdfrwt>
<totfact> 0.42840495E+03</totfact>
</mgrwt>
</event>
<event>
 4    1  0.9508302E-005  0.3025416E+03  0.7818608E-02  0.1083977E+00
          2   -1    0    0  501    0  0.00000000000E+00  0.00000000000E+00  0.12696200070E+04  0.12696200070E+04  0.25500000000E-02 0.  1.
         -2   -1    0    0    0  501 -0.00000000000E+00 -0.00000000000E+00 -0.18023389341E+02  0.18023389521E+02  0.25500000000E-02 0. -1.
    5000001    1    1    2    0    0  0.70392316702E+02 -0.30502886592E+02  0.50038077084E+03  0.52191514652E+03  0.12700000000E+03 0.  0.
   -5000001    1    1    2    0    0 -0.70392316702E+02  0.30502886592E+02  0.75121584682E+03  0.76572825001E+03  0.12700000000E+03 0.  0.
<mgrwt>
<rscale>  0 0.30254161E+03</rscale>
<asrwt>0</asrwt>
<pdfrwt beam="1">  1        2 0.18137435E+00 0.30254161E+03</pdfrwt>
<pdfrwt beam="2">  1       -2 0.25747691E-02 0.30254161E+03</pdfrwt>
<totfact> 0.10951024E+04</totfact>
</mgrwt>
</event>
<event>
 4    1  0.9508302E-005  0.7750336E+03  0.7818608E-02  0.9596875E-01
          2   -1    0    0  501    0  0.00000000000E+00  0.00000000000E+00  0.43052506142E+03  0.43052506142E+03  0.25500000000E-02 0.  1.
         -2   -1    0    0    0  501 -0.00000000000E+00 -0.00000000000E+00 -0.34880496119E+03  0.34880496120E+03  0.25500000000E-02 0. -1.
    5000001    1    1    2    0    0  0.27411550504E+03 -0.24212763175E+03  0.24179626436E+02  0.38791591163E+03  0.12700000000E+03 0.  0.
   -5000001    1    1    2    0    0 -0.27411550504E+03  0.24212763175E+03  0.57540473789E+02  0.39141411099E+03  0.12700000000E+03 0.  0.
<mgrwt>
<rscale>  0 0.77503362E+03</rscale>
<asrwt>0</asrwt>
<pdfrwt beam="1">  1        2 0.61503580E-01 0.77503362E+03</pdfrwt>
<pdfrwt beam="2">  1       -2 0.49829281E-01 0.77503362E+03</pdfrwt>
<totfact> 0.30546703E+02</totfact>
</mgrwt>
</event>
<event>
 4    1  0.9508302E-005  0.3674497E+03  0.7818608E-02  0.1055672E+00
         -2   -1    0    0    0  501 -0.00000000000E+00  0.00000000000E+00  0.13176219113E+03  0.13176219115E+03  0.25500000000E-02 0. -1.
          2   -1    0    0  501    0  0.00000000000E+00 -0.00000000000E+00 -0.25617983595E+03  0.25617983596E+03  0.25500000000E-02 0.  1.
    5000001    1    1    2    0    0 -0.22864291064E+02  0.12100827876E+03 -0.11457366408E+03  0.21076504415E+03  0.12700000000E+03 0.  0.
   -5000001    1    1    2    0    0  0.22864291064E+02 -0.12100827876E+03 -0.98439807377E+01  0.17717698296E+03  0.12700000000E+03 0.  0.
<mgrwt>
<rscale>  0 0.36744968E+03</rscale>
<asrwt>0</asrwt>
<pdfrwt beam="1">  1        2 0.36597119E-01 0.36744968E+03</pdfrwt>
<pdfrwt beam="2">  1       -2 0.18823170E-01 0.36744968E+03</pdfrwt>
<totfact> 0.33032402E+03</totfact>
</mgrwt>
</event>
<event>
 4    1  0.9508302E-005  0.3336751E+03  0.7818608E-02  0.1069522E+00
         -2   -1    0    0    0  501 -0.00000000000E+00  0.00000000000E+00  0.10030228631E+03  0.10030228634E+03  0.25500000000E-02 0. -1.
          2   -1    0    0  501    0  0.00000000000E+00 -0.00000000000E+00 -0.27750873012E+03  0.27750873013E+03  0.25500000000E-02 0.  1.
    5000001    1    1    2    0    0 -0.46492349233E+02 -0.59227521208E+02 -0.17657372800E+03  0.23016672050E+03  0.12700000000E+03 0.  0.
   -5000001    1    1    2    0    0  0.46492349233E+02  0.59227521208E+02 -0.63271581465E+00  0.14764429598E+03  0.12700000000E+03 0.  0.
<mgrwt>
<rscale>  0 0.33367505E+03</rscale>
<asrwt>0</asrwt>
<pdfrwt beam="1">  1        2 0.39644104E-01 0.33367505E+03</pdfrwt>
<pdfrwt beam="2">  1       -2 0.14328898E-01 0.33367505E+03</pdfrwt>
<totfact> 0.47755469E+03</totfact>
</mgrwt>
</event>
<event>
 4    1  0.9508302E-005  0.3342736E+03  0.7818608E-02  0.1069261E+00
         -2   -1    0    0    0  501 -0.00000000000E+00  0.00000000000E+00  0.27448351606E+03  0.27448351607E+03  0.25500000000E-02 0. -1.
          2   -1    0    0  501    0  0.00000000000E+00 -0.00000000000E+00 -0.10177192356E+03  0.10177192359E+03  0.25500000000E-02 0.  1.
    5000001    1    1    2    0    0 -0.98325511532E+02  0.38338608509E+02  0.57264974309E+02  0.17477423266E+03  0.12700000000E+03 0.  0.
   -5000001    1    1    2    0    0  0.98325511532E+02 -0.38338608509E+02  0.11544661820E+03  0.20148120700E+03  0.12700000000E+03 0.  0.
<mgrwt>
<rscale>  0 0.33427363E+03</rscale>
<asrwt>0</asrwt>
<pdfrwt beam="1">  1        2 0.14538846E-01 0.33427363E+03</pdfrwt>
<pdfrwt beam="2">  1       -2 0.39211930E-01 0.33427363E+03</pdfrwt>
<totfact> 0.25139331E+03</totfact>
</mgrwt>
</event>
<event>
 4    1  0.9508302E-005  0.4291953E+03  0.7818608E-02  0.1034114E+00
          2   -1    0    0  501    0  0.00000000000E+00  0.00000000000E+00  0.66995972543E+03  0.66995972543E+03  0.25500000000E-02 0.  1.
         -2   -1    0    0    0  501 -0.00000000000E+00 -0.00000000000E+00 -0.68738679510E+02  0.68738679558E+02  0.25500000000E-02 0. -1.
    5000001    1    1    2    0    0  0.13883492757E+03  0.19415384115E+01  0.47818050796E+03  0.51387207054E+03  0.12700000000E+03 0.  0.
   -5000001    1    1    2    0    0 -0.13883492757E+03 -0.19415384115E+01  0.12304053796E+03  0.22482633446E+03  0.12700000000E+03 0.  0.
<mgrwt>
<rscale>  0 0.42919528E+03</rscale>
<asrwt>0</asrwt>
<pdfrwt beam="1">  1        2 0.95708531E-01 0.42919528E+03</pdfrwt>
<pdfrwt beam="2">  1       -2 0.98198115E-02 0.42919528E+03</pdfrwt>
<totfact> 0.33266568E+03</totfact>
</mgrwt>
</event>
<event>
 4    1  0.9508302E-005  0.4590290E+03  0.7818608E-02  0.1025063E+00
         -2   -1    0    0    0  501 -0.00000000000E+00  0.00000000000E+00  0.85764870295E+02  0.85764870333E+02  0.25500000000E-02 0. -1.
          2   -1    0    0  501    0  0.00000000000E+00 -0.00000000000E+00 -0.61420150031E+03  0.61420150032E+03  0.25500000000E-02 0.  1.
    5000001    1    1    2    0    0  0.11188966767E+03 -0.14291776849E+03 -0.17268551775E+03  0.28088088992E+03  0.12700000000E+03 0.  0.
   -5000001    1    1    2    0    0 -0.11188966767E+03  0.14291776849E+03 -0.35575111227E+03  0.41908548073E+03  0.12700000000E+03 0.  0.
<mgrwt>
<rscale>  0 0.45902903E+03</rscale>
<asrwt>0</asrwt>
<pdfrwt beam="1">  1        2 0.87743069E-01 0.45902903E+03</pdfrwt>
<pdfrwt beam="2">  1       -2 0.12252125E-01 0.45902903E+03</pdfrwt>
<totfact> 0.25766377E+03</totfact>
</mgrwt>
</event>
<event>
 4    1  0.9508302E-005  0.3137337E+03  0.7818608E-02  0.1078570E+00
         -2   -1    0    0    0  501 -0.00000000000E+00  0.00000000000E+00  0.33993346173E+02  0.33993346269E+02  0.25500000000E-02 0. -1.
          2   -1    0    0  501    0  0.00000000000E+00 -0.00000000000E+00 -0.72388322129E+03  0.72388322129E+03  0.25500000000E-02 0.  1.
    5000001    1    1    2    0    0 -0.36848282842E+01  0.58723445752E+02 -0.17385504942E+03  0.22319632445E+03  0.12700000000E+03 0.  0.
   -5000001    1    1    2    0    0  0.36848282842E+01 -0.58723445752E+02 -0.51603482569E+03  0.53468024311E+03  0.12700000000E+03 0.  0.
<mgrwt>
<rscale>  0 0.31373373E+03</rscale>
<asrwt>0</asrwt>
<pdfrwt beam="1">  1        2 0.10341188E+00 0.31373373E+03</pdfrwt>
<pdfrwt beam="2">  1       -2 0.48561928E-02 0.31373373E+03</pdfrwt>
<totfact> 0.90374366E+03</totfact>
</mgrwt>
</event>
<event>
 4    1  0.9508302E-005  0.4738562E+03  0.7818608E-02  0.1020837E+00
         -2   -1    0    0    0  501 -0.00000000000E+00  0.00000000000E+00  0.84284804830E+02  0.84284804869E+02  0.25500000000E-02 0. -1.
          2   -1    0    0  501    0  0.00000000000E+00 -0.00000000000E+00 -0.66601475052E+03  0.66601475052E+03  0.25500000000E-02 0.  1.
    5000001    1    1    2    0    0  0.14278619056E+03  0.10900389242E+03 -0.15159696360E+03  0.26717107656E+03  0.12700000000E+03 0.  0.
   -5000001    1    1    2    0    0 -0.14278619056E+03 -0.10900389242E+03 -0.43013298209E+03  0.48312847883E+03  0.12700000000E+03 0.  0.
<mgrwt>
<rscale>  0 0.47385619E+03</rscale>
<asrwt>0</asrwt>
<pdfrwt beam="1">  1        2 0.95144961E-01 0.47385619E+03</pdfrwt>
<pdfrwt beam="2">  1       -2 0.12040687E-01 0.47385619E+03</pdfrwt>
<totfact> 0.24094200E+03</totfact>
</mgrwt>
</event>
<event>
 4    1  0.9508302E-005  0.2844741E+03  0.7818608E-02  0.1093270E+00
          2   -1    0    0  501    0  0.00000000000E+00  0.00000000000E+00  0.55591729689E+02  0.55591729747E+02  0.25500000000E-02 0.  1.
         -2   -1    0    0    0  501 -0.00000000000E+00 -0.00000000000E+00 -0.36392788186E+03  0.36392788187E+03  0.25500000000E-02 0. -1.
    5000001    1    1    2    0    0 -0.39312135725E+01  0.40077338704E+02 -0.80716770504E+02  0.15577498053E+03  0.12700000000E+03 0.  0.
   -5000001    1    1    2    0    0  0.39312135725E+01 -0.40077338704E+02 -0.22761938167E+03  0.26374463109E+03  0.12700000000E+03 0.  0.
<mgrwt>
<rscale>  0 0.28447411E+03</rscale>
<asrwt>0</asrwt>
<pdfrwt beam="1">  1        2 0.79416759E-02 0.28447411E+03</pdfrwt>
<pdfrwt beam="2">  1       -2 0.51989696E-01 0.28447411E+03</pdfrwt>
<totfact> 0.30412537E+03</totfact>
</mgrwt>
</event>
<event>
 4    1  0.9508302E-005  0.6923447E+03  0.7818608E-02  0.9730414E-01
         -2   -1    0    0    0  501 -0.00000000000E+00  0.00000000000E+00  0.73842324795E+03  0.73842324796E+03  0.25500000000E-02 0. -1.
          2   -1    0    0  501    0  0.00000000000E+00 -0.00000000000E+00 -0.16228535596E+03  0.16228535598E+03  0.25500000000E-02 0.  1.
    5000001    1    1    2    0    0 -0.16046285451E+03  0.27920884063E+03  0.28727197126E+03  0.44984451740E+03  0.12700000000E+03 0.  0.
   -5000001    1    1    2    0    0  0.16046285451E+03 -0.27920884063E+03  0.28886592074E+03  0.45086408653E+03  0.12700000000E+03 0.  0.
<mgrwt>
<rscale>  0 0.69234465E+03</rscale>
<asrwt>0</asrwt>
<pdfrwt beam="1">  1        2 0.23183622E-01 0.69234465E+03</pdfrwt>
<pdfrwt beam="2">  1       -2 0.10548904E+00 0.69234465E+03</pdfrwt>
<totfact> 0.17563547E+02</totfact>
</mgrwt>
</event>
<event>
 4    1  0.9508302E-005  0.4588416E+03  0.7818608E-02  0.1025118E+00
         -2   -1    0    0    0  501 -0.00000000000E+00  0.00000000000E+00  0.25683578271E+02  0.25683578397E+02  0.25500000000E-02 0. -1.
          2   -1    0    0  501    0  0.00000000000E+00 -0.00000000000E+00 -0.20493209723E+04  0.20493209723E+04  0.25500000000E-02 0.  1.
    5000001    1    1    2    0    0 -0.86485413725E+02 -0.15496014654E+03 -0.69164589078E+03  0.72525541158E+03  0.12700000000E+03 0.  0.
   -5000001    1    1    2    0    0  0.86485413725E+02  0.15496014654E+03 -0.13319915032E+04  0.13497491391E+04  0.12700000000E+03 0.  0.
<mgrwt>
<rscale>  0 0.45884157E+03</rscale>
<asrwt>0</asrwt>
<pdfrwt beam="1">  1        2 0.29276004E+00 0.45884157E+03</pdfrwt>
<pdfrwt beam="2">  1       -2 0.36690839E-02 0.45884157E+03</pdfrwt>
<totfact> 0.25978929E+03</totfact>
</mgrwt>
</event>
<event>
 4    1  0.9508302E-005  0.3898390E+03  0.7818608E-02  0.1047356E+00
         -2   -1    0    0    0  501 -0.00000000000E+00  0.00000000000E+00  0.35816599933E+02  0.35816600024E+02  0.25500000000E-02 0. -1.
          2   -1    0    0  501    0  0.00000000000E+00 -0.00000000000E+00 -0.10607820428E+04  0.10607820428E+04  0.25500000000E-02 0.  1.
    5000001    1    1    2    0    0  0.74661430204E+02  0.11198949038E+03 -0.34025668955E+03  0.38732362424E+03  0.12700000000E+03 0.  0.
   -5000001    1    1    2    0    0 -0.74661430204E+02 -0.11198949038E+03 -0.68470875330E+03  0.70927501857E+03  0.12700000000E+03 0.  0.
<mgrwt>
<rscale>  0 0.38983897E+03</rscale>
<asrwt>0</asrwt>
<pdfrwt beam="1">  1        2 0.15154027E+00 0.38983897E+03</pdfrwt>
<pdfrwt beam="2">  1       -2 0.51166578E-02 0.38983897E+03</pdfrwt>
<totfact> 0.51002312E+03</totfact>
</mgrwt>
</event>
<event>
 4    1  0.9508302E-005  0.2553960E+03  0.7818608E-02  0.1109941E+00
          2   -1    0    0  501    0  0.00000000000E+00  0.00000000000E+00  0.22316161015E+04  0.22316161015E+04  0.25500000000E-02 0. -1.
         -2   -1    0    0    0  501 -0.00000000000E+00 -0.00000000000E+00 -0.73071592488E+01  0.73071596937E+01  0.25500000000E-02 0.  1.
    5000001    1    1    2    0    0  0.99835084891E+01  0.83730481320E+01  0.11369441733E+04  0.11440895207E+04  0.12700000000E+03 0.  0.
   -5000001    1    1    2    0    0 -0.99835084891E+01 -0.83730481320E+01  0.10873647690E+04  0.10948337404E+04  0.12700000000E+03 0.  0.
<mgrwt>
<rscale>  0 0.25539597E+03</rscale>
<asrwt>0</asrwt>
<pdfrwt beam="1">  1        2 0.31880232E+00 0.25539597E+03</pdfrwt>
<pdfrwt beam="2">  1       -2 0.10438798E-02 0.25539597E+03</pdfrwt>
<totfact> 0.13609749E+04</totfact>
</mgrwt>
</event>
<event>
 4    1  0.9508302E-005  0.2801331E+03  0.7818608E-02  0.1095616E+00
          2   -1    0    0  501    0  0.00000000000E+00  0.00000000000E+00  0.17097426440E+04  0.17097426440E+04  0.25500000000E-02 0.  1.
         -2   -1    0    0    0  501 -0.00000000000E+00 -0.00000000000E+00 -0.11474614581E+02  0.11474614864E+02  0.25500000000E-02 0. -1.
    5000001    1    1    2    0    0  0.57866812134E+02 -0.65428441344E+01  0.78822765274E+03  0.80051434047E+03  0.12700000000E+03 0.  0.
   -5000001    1    1    2    0    0 -0.57866812134E+02  0.65428441344E+01  0.91004037671E+03  0.92070291842E+03  0.12700000000E+03 0.  0.
<mgrwt>
<rscale>  0 0.28013310E+03</rscale>
<asrwt>0</asrwt>
<pdfrwt beam="1">  1        2 0.24424841E+00 0.28013310E+03</pdfrwt>
<pdfrwt beam="2">  1       -2 0.16392343E-02 0.28013310E+03</pdfrwt>
<totfact> 0.12699697E+04</totfact>
</mgrwt>
</event>
<event>
 4    1  0.9508302E-005  0.5192655E+03  0.7818608E-02  0.1008869E+00
         -2   -1    0    0    0  501 -0.00000000000E+00  0.00000000000E+00  0.52853520210E+02  0.52853520271E+02  0.25500000000E-02 0. -1.
          2   -1    0    0  501    0  0.00000000000E+00 -0.00000000000E+00 -0.12753960391E+04  0.12753960391E+04  0.25500000000E-02 0.  1.
    5000001    1    1    2    0    0  0.22060800007E+03 -0.90092270875E+01 -0.48258087743E+03  0.54567605695E+03  0.12700000000E+03 0.  0.
   -5000001    1    1    2    0    0 -0.22060800007E+03  0.90092270875E+01 -0.73996164150E+03  0.78257350247E+03  0.12700000000E+03 0.  0.
<mgrwt>
<rscale>  0 0.51926552E+03</rscale>
<asrwt>0</asrwt>
<pdfrwt beam="1">  1        2 0.18219942E+00 0.51926552E+03</pdfrwt>
<pdfrwt beam="2">  1       -2 0.75505037E-02 0.51926552E+03</pdfrwt>
<totfact> 0.21088745E+03</totfact>
</mgrwt>
</event>
<event>
 4    1  0.9508302E-005  0.7960746E+03  0.7818608E-02  0.9565716E-01
          2   -1    0    0  501    0  0.00000000000E+00  0.00000000000E+00  0.16401874831E+04  0.16401874831E+04  0.25500000000E-02 0.  1.
         -2   -1    0    0    0  501 -0.00000000000E+00 -0.00000000000E+00 -0.96594878574E+02  0.96594878608E+02  0.25500000000E-02 0. -1.
    5000001    1    1    2    0    0  0.43166086739E+02  0.19486924752E+03  0.73428167995E+02  0.24770553189E+03  0.12700000000E+03 0.  0.
   -5000001    1    1    2    0    0 -0.43166086739E+02 -0.19486924752E+03  0.14701644365E+04  0.14890768298E+04  0.12700000000E+03 0.  0.
<mgrwt>
<rscale>  0 0.79607465E+03</rscale>
<asrwt>0</asrwt>
<pdfrwt beam="1">  1        2 0.23431251E+00 0.79607465E+03</pdfrwt>
<pdfrwt beam="2">  1       -2 0.13799268E-01 0.79607465E+03</pdfrwt>
<totfact> 0.50193548E+02</totfact>
</mgrwt>
</event>
<event>
 4    1  0.9508302E-005  0.6338031E+03  0.7818608E-02  0.9837655E-01
         -2   -1    0    0    0  501 -0.00000000000E+00  0.00000000000E+00  0.90946109746E+02  0.90946109781E+02  0.25500000000E-02 0. -1.
          2   -1    0    0  501    0  0.00000000000E+00 -0.00000000000E+00 -0.11042428369E+04  0.11042428369E+04  0.25500000000E-02 0.  1.
    5000001    1    1    2    0    0 -0.86229730906E+02 -0.26615324639E+03 -0.65301488517E+03  0.72168591320E+03  0.12700000000E+03 0.  0.
   -5000001    1    1    2    0    0  0.86229730906E+02  0.26615324639E+03 -0.36028184197E+03  0.47350303347E+03  0.12700000000E+03 0.  0.
<mgrwt>
<rscale>  0 0.63380309E+03</rscale>
<asrwt>0</asrwt>
<pdfrwt beam="1">  1        2 0.15774897E+00 0.63380309E+03</pdfrwt>
<pdfrwt beam="2">  1       -2 0.12992302E-01 0.63380309E+03</pdfrwt>
<totfact> 0.10901674E+03</totfact>
</mgrwt>
</event>
<event>
 4    1  0.9508302E-005  0.3091008E+03  0.7818608E-02  0.1080778E+00
         -2   -1    0    0    0  501 -0.00000000000E+00  0.00000000000E+00  0.24862185042E+02  0.24862185173E+02  0.25500000000E-02 0. -1.
          2   -1    0    0  501    0  0.00000000000E+00 -0.00000000000E+00 -0.96072938614E+03  0.96072938614E+03  0.25500000000E-02 0.  1.
    5000001    1    1    2    0    0  0.28767909700E+02  0.83039254510E+02 -0.48644970999E+03  0.51037773342E+03  0.12700000000E+03 0.  0.
   -5000001    1    1    2    0    0 -0.28767909700E+02 -0.83039254510E+02 -0.44941749110E+03  0.47521383789E+03  0.12700000000E+03 0.  0.
<mgrwt>
<rscale>  0 0.30910084E+03</rscale>
<asrwt>0</asrwt>
<pdfrwt beam="1">  1        2 0.13724703E+00 0.30910084E+03</pdfrwt>
<pdfrwt beam="2">  1       -2 0.35517413E-02 0.30910084E+03</pdfrwt>
<totfact> 0.10128546E+04</totfact>
</mgrwt>
</event>
<event>
 4    1  0.9508302E-005  0.3949321E+03  0.7818608E-02  0.1045549E+00
         -2   -1    0    0    0  501 -0.00000000000E+00  0.00000000000E+00  0.52867279875E+02  0.52867279937E+02  0.25500000000E-02 0. -1.
          2   -1    0    0  501    0  0.00000000000E+00 -0.00000000000E+00 -0.73756107307E+03  0.73756107307E+03  0.25500000000E-02 0.  1.
    5000001    1    1    2    0    0  0.68094989120E+02  0.12681355745E+03 -0.43504656137E+03  0.47551352920E+03  0.12700000000E+03 0.  0.
   -5000001    1    1    2    0    0 -0.68094989120E+02 -0.12681355745E+03 -0.24964723182E+03  0.31491482380E+03  0.12700000000E+03 0.  0.
<mgrwt>
<rscale>  0 0.39493213E+03</rscale>
<asrwt>0</asrwt>
<pdfrwt beam="1">  1        2 0.10536586E+00 0.39493213E+03</pdfrwt>
<pdfrwt beam="2">  1       -2 0.75524690E-02 0.39493213E+03</pdfrwt>
<totfact> 0.44882473E+03</totfact>
</mgrwt>
</event>
<event>
 4    1  0.9508302E-005  0.3652677E+03  0.7818608E-02  0.1056517E+00
         -2   -1    0    0    0  501 -0.00000000000E+00  0.00000000000E+00  0.18696431778E+02  0.18696431952E+02  0.25500000000E-02 0. -1.
          2   -1    0    0  501    0  0.00000000000E+00 -0.00000000000E+00 -0.17840365409E+04  0.17840365409E+04  0.25500000000E-02 0.  1.
    5000001    1    1    2    0    0 -0.80176742851E+02 -0.95282147087E+02 -0.10873019199E+04  0.11017538122E+04  0.12700000000E+03 0.  0.
   -5000001    1    1    2    0    0  0.80176742851E+02  0.95282147087E+02 -0.67803818919E+03  0.70097916064E+03  0.12700000000E+03 0.  0.
<mgrwt>
<rscale>  0 0.36526767E+03</rscale>
<asrwt>0</asrwt>
<pdfrwt beam="1">  1        2 0.25486226E+00 0.36526767E+03</pdfrwt>
<pdfrwt beam="2">  1       -2 0.26709200E-02 0.36526767E+03</pdfrwt>
<totfact> 0.56860036E+03</totfact>
</mgrwt>
</event>
<event>
 4    1  0.9508302E-005  0.3806976E+03  0.7818608E-02  0.1050676E+00
          2   -1    0    0  501    0  0.00000000000E+00  0.00000000000E+00  0.10907333581E+04  0.10907333581E+04  0.25500000000E-02 0.  1.
         -2   -1    0    0    0  501 -0.00000000000E+00 -0.00000000000E+00 -0.33218624983E+02  0.33218625081E+02  0.25500000000E-02 0. -1.
    5000001    1    1    2    0    0  0.12427105445E+03 -0.56398925398E+02  0.64231839892E+03  0.66882438603E+03  0.12700000000E+03 0.  0.
   -5000001    1    1    2    0    0 -0.12427105445E+03  0.56398925398E+02  0.41519633419E+03  0.45512759714E+03  0.12700000000E+03 0.  0.
<mgrwt>
<rscale>  0 0.38069758E+03</rscale>
<asrwt>0</asrwt>
<pdfrwt beam="1">  1        2 0.15581901E+00 0.38069758E+03</pdfrwt>
<pdfrwt beam="2">  1       -2 0.47455191E-02 0.38069758E+03</pdfrwt>
<totfact> 0.54989304E+03</totfact>
</mgrwt>
</event>
<event>
 4    1  0.9508302E-005  0.4023611E+03  0.7818608E-02  0.1042965E+00
          2   -1    0    0  501    0  0.00000000000E+00  0.00000000000E+00  0.24417140479E+04  0.24417140479E+04  0.25500000000E-02 0.  1.
         -2   -1    0    0    0  501 -0.00000000000E+00 -0.00000000000E+00 -0.16575902860E+02  0.16575903056E+02  0.25500000000E-02 0. -1.
    5000001    1    1    2    0    0  0.33579601755E+02 -0.14729185256E+03  0.97420335880E+03  0.99399379464E+03  0.12700000000E+03 0.  0.
   -5000001    1    1    2    0    0 -0.33579601755E+02  0.14729185256E+03  0.14509347863E+04  0.14642961564E+04  0.12700000000E+03 0.  0.
<mgrwt>
<rscale>  0 0.40236111E+03</rscale>
<asrwt>0</asrwt>
<pdfrwt beam="1">  1        2 0.34881659E+00 0.40236111E+03</pdfrwt>
<pdfrwt beam="2">  1       -2 0.23679841E-02 0.40236111E+03</pdfrwt>
<totfact> 0.32083487E+03</totfact>
</mgrwt>
</event>
<event>
 4    1  0.9508302E-005  0.4008459E+03  0.7818608E-02  0.1043487E+00
         -2   -1    0    0    0  501 -0.00000000000E+00  0.00000000000E+00  0.13707592616E+02  0.13707592853E+02  0.25500000000E-02 0. -1.
          2   -1    0    0  501    0  0.00000000000E+00 -0.00000000000E+00 -0.29304464214E+04  0.29304464214E+04  0.25500000000E-02 0.  1.
    5000001    1    1    2    0    0  0.40913904967E+02  0.12017133882E+03 -0.80450152085E+03  0.82429775891E+03  0.12700000000E+03 0.  0.
   -5000001    1    1    2    0    0 -0.40913904967E+02 -0.12017133882E+03 -0.21122373079E+04  0.21198562553E+04  0.12700000000E+03 0.  0.
<mgrwt>
<rscale>  0 0.40084594E+03</rscale>
<asrwt>0</asrwt>
<pdfrwt beam="1">  1        2 0.41863480E+00 0.40084594E+03</pdfrwt>
<pdfrwt beam="2">  1       -2 0.19582294E-02 0.40084594E+03</pdfrwt>
<totfact> 0.23823736E+03</totfact>
</mgrwt>
</event>
<event>
 4    1  0.9508302E-005  0.2783945E+03  0.7818608E-02  0.1096569E+00
          2   -1    0    0  501    0  0.00000000000E+00  0.00000000000E+00  0.83234262400E+03  0.83234262400E+03  0.25500000000E-02 0.  1.
         -2   -1    0    0    0  501 -0.00000000000E+00 -0.00000000000E+00 -0.23278729657E+02  0.23278729796E+02  0.25500000000E-02 0. -1.
    5000001    1    1    2    0    0 -0.42441664884E+01  0.47201848460E+02  0.30730072533E+03  0.33587015830E+03  0.12700000000E+03 0.  0.
   -5000001    1    1    2    0    0  0.42441664884E+01 -0.47201848460E+02  0.50176316901E+03  0.51975119549E+03  0.12700000000E+03 0.  0.
<mgrwt>
<rscale>  0 0.27839453E+03</rscale>
<asrwt>0</asrwt>
<pdfrwt beam="1">  1        2 0.11890607E+00 0.27839453E+03</pdfrwt>
<pdfrwt beam="2">  1       -2 0.33255334E-02 0.27839453E+03</pdfrwt>
<totfact> 0.13415490E+04</totfact>
</mgrwt>
</event>
<event>
 4    1  0.9508302E-005  0.3522312E+03  0.7818608E-02  0.1061703E+00
          2   -1    0    0  501    0  0.00000000000E+00  0.00000000000E+00  0.15182893158E+04  0.15182893158E+04  0.25500000000E-02 0.  1.
         -2   -1    0    0    0  501 -0.00000000000E+00 -0.00000000000E+00 -0.20428718205E+02  0.20428718365E+02  0.25500000000E-02 0. -1.
    5000001    1    1    2    0    0  0.86612027736E+02  0.82705643267E+02  0.85099206450E+03  0.86871074624E+03  0.12700000000E+03 0.  0.
   -5000001    1    1    2    0    0 -0.86612027736E+02 -0.82705643267E+02  0.64686853307E+03  0.67000728791E+03  0.12700000000E+03 0.  0.
<mgrwt>
<rscale>  0 0.35223120E+03</rscale>
<asrwt>0</asrwt>
<pdfrwt beam="1">  1        2 0.21689851E+00 0.35223120E+03</pdfrwt>
<pdfrwt beam="2">  1       -2 0.29183878E-02 0.35223120E+03</pdfrwt>
<totfact> 0.67661765E+03</totfact>
</mgrwt>
</event>
<event>
 4    1  0.9508302E-005  0.5434230E+03  0.7818608E-02  0.1003028E+00
          2   -1    0    0  501    0  0.00000000000E+00  0.00000000000E+00  0.14232499681E+04  0.14232499681E+04  0.25500000000E-02 0.  1.
         -2   -1    0    0    0  501 -0.00000000000E+00 -0.00000000000E+00 -0.51872225909E+02  0.51872225971E+02  0.25500000000E-02 0. -1.
    5000001    1    1    2    0    0  0.59513539894E+02  0.23255341556E+03  0.66215062820E+03  0.71567828453E+03  0.12700000000E+03 0.  0.
   -5000001    1    1    2    0    0 -0.59513539894E+02 -0.23255341556E+03  0.70922711398E+03  0.75944390953E+03  0.12700000000E+03 0.  0.
<mgrwt>
<rscale>  0 0.54342302E+03</rscale>
<asrwt>0</asrwt>
<pdfrwt beam="1">  1        2 0.20332144E+00 0.54342302E+03</pdfrwt>
<pdfrwt beam="2">  1       -2 0.74103173E-02 0.54342302E+03</pdfrwt>
<totfact> 0.18097236E+03</totfact>
</mgrwt>
</event>
<event>
 4    1  0.9508302E-005  0.9136069E+03  0.7818608E-02  0.9408730E-01
          2   -1    0    0  501    0  0.00000000000E+00  0.00000000000E+00  0.86347679608E+03  0.86347679609E+03  0.25500000000E-02 0.  1.
         -2   -1    0    0    0  501 -0.00000000000E+00 -0.00000000000E+00 -0.24166184620E+03  0.24166184622E+03  0.25500000000E-02 0. -1.
    5000001    1    1    2    0    0 -0.39382055582E+03 -0.17785012233E+03  0.40315102346E+03  0.60447087929E+03  0.12700000000E+03 0.  0.
   -5000001    1    1    2    0    0  0.39382055582E+03  0.17785012233E+03  0.21866392642E+03  0.50066776301E+03  0.12700000000E+03 0.  0.
<mgrwt>
<rscale>  0 0.91360691E+03</rscale>
<asrwt>0</asrwt>
<pdfrwt beam="1">  1        2 0.12335383E+00 0.91360691E+03</pdfrwt>
<pdfrwt beam="2">  1       -2 0.34523120E-01 0.91360691E+03</pdfrwt>
<totfact> 0.27034879E+02</totfact>
</mgrwt>
</event>
<event>
 4    1  0.9508302E-005  0.4916533E+03  0.7818608E-02  0.1015981E+00
         -2   -1    0    0    0  501 -0.00000000000E+00  0.00000000000E+00  0.17313505495E+02  0.17313505683E+02  0.25500000000E-02 0. -1.
          2   -1    0    0  501    0  0.00000000000E+00 -0.00000000000E+00 -0.34903822747E+04  0.34903822747E+04  0.25500000000E-02 0.  1.
    5000001    1    1    2    0    0  0.40401212135E+02 -0.20325685453E+03 -0.14738004486E+04  0.14937075915E+04  0.12700000000E+03 0.  0.
   -5000001    1    1    2    0    0 -0.40401212135E+02  0.20325685453E+03 -0.19992683206E+04  0.20139881888E+04  0.12700000000E+03 0.  0.
<mgrwt>
<rscale>  0 0.49165335E+03</rscale>
<asrwt>0</asrwt>
<pdfrwt beam="1">  1        2 0.49862559E+00 0.49165335E+03</pdfrwt>
<pdfrwt beam="2">  1       -2 0.24733602E-02 0.49165335E+03</pdfrwt>
<totfact> 0.81037003E+02</totfact>
</mgrwt>
</event>
<event>
 4    1  0.9508302E-005  0.4964991E+03  0.7818608E-02  0.1014697E+00
         -2   -1    0    0    0  501 -0.00000000000E+00  0.00000000000E+00  0.35176881709E+02  0.35176881802E+02  0.25500000000E-02 0. -1.
          2   -1    0    0  501    0  0.00000000000E+00 -0.00000000000E+00 -0.17519418350E+04  0.17519418350E+04  0.25500000000E-02 0.  1.
    5000001    1    1    2    0    0  0.86401128873E+02 -0.17805892791E+03 -0.11447294704E+04  0.11686336882E+04  0.12700000000E+03 0.  0.
   -5000001    1    1    2    0    0 -0.86401128873E+02  0.17805892791E+03 -0.57203548293E+03  0.61848502861E+03  0.12700000000E+03 0.  0.
<mgrwt>
<rscale>  0 0.49649915E+03</rscale>
<asrwt>0</asrwt>
<pdfrwt beam="1">  1        2 0.25027735E+00 0.49649915E+03</pdfrwt>
<pdfrwt beam="2">  1       -2 0.50252699E-02 0.49649915E+03</pdfrwt>
<totfact> 0.22552084E+03</totfact>
</mgrwt>
</event>
<event>
 4    1  0.9508302E-005  0.3651298E+03  0.7818608E-02  0.1056571E+00
         -2   -1    0    0    0  501 -0.00000000000E+00  0.00000000000E+00  0.18259235141E+03  0.18259235143E+03  0.25500000000E-02 0. -1.
          2   -1    0    0  501    0  0.00000000000E+00 -0.00000000000E+00 -0.18253745084E+03  0.18253745086E+03  0.25500000000E-02 0.  1.
    5000001    1    1    2    0    0 -0.68145763171E+02  0.62785027613E+02  0.92845217116E+02  0.18257885713E+03  0.12700000000E+03 0.  0.
   -5000001    1    1    2    0    0  0.68145763171E+02 -0.62785027613E+02 -0.92790316546E+02  0.18255094515E+03  0.12700000000E+03 0.  0.
<mgrwt>
<rscale>  0 0.36512980E+03</rscale>
<asrwt>0</asrwt>
<pdfrwt beam="1">  1        2 0.26076779E-01 0.36512980E+03</pdfrwt>
<pdfrwt beam="2">  1       -2 0.26084622E-01 0.36512980E+03</pdfrwt>
<totfact> 0.27177933E+03</totfact>
</mgrwt>
</event>
<event>
 4    1  0.9508302E-005  0.4260312E+03  0.7818608E-02  0.1035121E+00
          2   -1    0    0  501    0  0.00000000000E+00  0.00000000000E+00  0.89432921624E+03  0.89432921624E+03  0.25500000000E-02 0.  1.
         -2   -1    0    0    0  501 -0.00000000000E+00 -0.00000000000E+00 -0.50737071631E+02  0.50737071695E+02  0.25500000000E-02 0. -1.
    5000001    1    1    2    0    0 -0.11520889250E+03  0.10034844477E+03  0.59224124633E+03  0.62467719115E+03  0.12700000000E+03 0.  0.
   -5000001    1    1    2    0    0  0.11520889250E+03 -0.10034844477E+03  0.25135089827E+03  0.32038909679E+03  0.12700000000E+03 0.  0.
<mgrwt>
<rscale>  0 0.42603120E+03</rscale>
<asrwt>0</asrwt>
<pdfrwt beam="1">  1        2 0.12776133E+00 0.42603120E+03</pdfrwt>
<pdfrwt beam="2">  1       -2 0.72481524E-02 0.42603120E+03</pdfrwt>
<totfact> 0.37540570E+03</totfact>
</mgrwt>
</event>
<event>
 4    1  0.9508302E-005  0.3558175E+03  0.7818608E-02  0.1060252E+00
          2   -1    0    0  501    0  0.00000000000E+00  0.00000000000E+00  0.89889669001E+03  0.89889669002E+03  0.25500000000E-02 0.  1.
         -2   -1    0    0    0  501 -0.00000000000E+00 -0.00000000000E+00 -0.35211521248E+02  0.35211521340E+02  0.25500000000E-02 0. -1.
    5000001    1    1    2    0    0  0.32893593118E+02 -0.75748940179E+02  0.67674617768E+03  0.69349425333E+03  0.12700000000E+03 0.  0.
   -5000001    1    1    2    0    0 -0.32893593118E+02  0.75748940179E+02  0.18693899109E+03  0.24061395802E+03  0.12700000000E+03 0.  0.
<mgrwt>
<rscale>  0 0.35581748E+03</rscale>
<asrwt>0</asrwt>
<pdfrwt beam="1">  1        2 0.12841382E+00 0.35581748E+03</pdfrwt>
<pdfrwt beam="2">  1       -2 0.50302171E-02 0.35581748E+03</pdfrwt>
<totfact> 0.65500325E+03</totfact>
</mgrwt>
</event>
<event>
 4    1  0.9508302E-005  0.8495010E+03  0.7818608E-02  0.9491007E-01
         -2   -1    0    0    0  501 -0.00000000000E+00  0.00000000000E+00  0.45091158810E+03  0.45091158810E+03  0.25500000000E-02 0. -1.
          2   -1    0    0  501    0  0.00000000000E+00 -0.00000000000E+00 -0.40010721155E+03  0.40010721156E+03  0.25500000000E-02 0.  1.
    5000001    1    1    2    0    0  0.31736566014E+03 -0.22620911973E+02  0.27695103390E+03  0.44052643856E+03  0.12700000000E+03 0.  0.
   -5000001    1    1    2    0    0 -0.31736566014E+03  0.22620911973E+02 -0.22614665735E+03  0.41049236110E+03  0.12700000000E+03 0.  0.
<mgrwt>
<rscale>  0 0.84950098E+03</rscale>
<asrwt>0</asrwt>
<pdfrwt beam="1">  1        2 0.57158173E-01 0.84950098E+03</pdfrwt>
<pdfrwt beam="2">  1       -2 0.64415941E-01 0.84950098E+03</pdfrwt>
<totfact> 0.19353051E+02</totfact>
</mgrwt>
</event>
<event>
 4    1  0.9508302E-005  0.3241838E+03  0.7818608E-02  0.1073740E+00
          2   -1    0    0  501    0  0.00000000000E+00  0.00000000000E+00  0.36512495946E+03  0.36512495947E+03  0.25500000000E-02 0.  1.
         -2   -1    0    0    0  501 -0.00000000000E+00 -0.00000000000E+00 -0.71958340069E+02  0.71958340114E+02  0.25500000000E-02 0. -1.
    5000001    1    1    2    0    0  0.67542097589E+02 -0.39452304269E+02  0.61031430457E+02  0.16115909767E+03  0.12700000000E+03 0.  0.
   -5000001    1    1    2    0    0 -0.67542097589E+02  0.39452304269E+02  0.23213518894E+03  0.27592420192E+03  0.12700000000E+03 0.  0.
<mgrwt>
<rscale>  0 0.32418381E+03</rscale>
<asrwt>0</asrwt>
<pdfrwt beam="1">  1        2 0.52160709E-01 0.32418381E+03</pdfrwt>
<pdfrwt beam="2">  1       -2 0.10279763E-01 0.32418381E+03</pdfrwt>
<totfact> 0.60800428E+03</totfact>
</mgrwt>
</event>
<event>
 4    1  0.9508302E-005  0.3283057E+03  0.7818608E-02  0.1071889E+00
          2   -1    0    0  501    0  0.00000000000E+00  0.00000000000E+00  0.90984340142E+02  0.90984340178E+02  0.25500000000E-02 0.  1.
         -2   -1    0    0    0  501 -0.00000000000E+00 -0.00000000000E+00 -0.29616253285E+03  0.29616253286E+03  0.25500000000E-02 0. -1.
    5000001    1    1    2    0    0 -0.37355126576E+02 -0.90960052995E+02 -0.62634078286E+02  0.17239827286E+03  0.12700000000E+03 0.  0.
   -5000001    1    1    2    0    0  0.37355126576E+02  0.90960052995E+02 -0.14254411442E+03  0.21474860018E+03  0.12700000000E+03 0.  0.
<mgrwt>
<rscale>  0 0.32830567E+03</rscale>
<asrwt>0</asrwt>
<pdfrwt beam="1">  1        2 0.12997763E-01 0.32830567E+03</pdfrwt>
<pdfrwt beam="2">  1       -2 0.42308933E-01 0.32830567E+03</pdfrwt>
<totfact> 0.24845911E+03</totfact>
</mgrwt>
</event>
<event>
 4    1  0.9508302E-005  0.2576283E+03  0.7818608E-02  0.1108577E+00
          2   -1    0    0  501    0  0.00000000000E+00  0.00000000000E+00  0.18723526919E+04  0.18723526919E+04  0.25500000000E-02 0.  1.
         -2   -1    0    0    0  501 -0.00000000000E+00 -0.00000000000E+00 -0.88621580910E+01  0.88621584579E+01  0.25500000000E-02 0. -1.
    5000001    1    1    2    0    0 -0.84994324332E+01  0.16289585213E+02  0.10138714130E+04  0.10219598002E+04  0.12700000000E+03 0.  0.
   -5000001    1    1    2    0    0  0.84994324332E+01 -0.16289585213E+02  0.84961912075E+03  0.85925505019E+03  0.12700000000E+03 0.  0.
<mgrwt>
<rscale>  0 0.25762831E+03</rscale>
<asrwt>0</asrwt>
<pdfrwt beam="1">  1        2 0.26747937E+00 0.25762831E+03</pdfrwt>
<pdfrwt beam="2">  1       -2 0.12660207E-02 0.25762831E+03</pdfrwt>
<totfact> 0.15384541E+04</totfact>
</mgrwt>
</event>
<event>
 4    1  0.9508302E-005  0.3388584E+03  0.7818608E-02  0.1067283E+00
          2   -1    0    0  501    0  0.00000000000E+00  0.00000000000E+00  0.33038993246E+04  0.33038993246E+04  0.25500000000E-02 0.  1.
         -2   -1    0    0    0  501 -0.00000000000E+00 -0.00000000000E+00 -0.86885991342E+01  0.86885995084E+01  0.25500000000E-02 0. -1.
    5000001    1    1    2    0    0 -0.66020291207E+02 -0.89932802362E+02  0.17593525188E+04  0.17674549141E+04  0.12700000000E+03 0.  0.
   -5000001    1    1    2    0    0  0.66020291207E+02  0.89932802362E+02  0.15358582066E+04  0.15451330100E+04  0.12700000000E+03 0.  0.
<mgrwt>
<rscale>  0 0.33885842E+03</rscale>
<asrwt>0</asrwt>
<pdfrwt beam="1">  1        2 0.47198523E+00 0.33885842E+03</pdfrwt>
<pdfrwt beam="2">  1       -2 0.12412295E-02 0.33885842E+03</pdfrwt>
<totfact> 0.29355994E+03</totfact>
</mgrwt>
</event>
<event>
 4    1  0.9508302E-005  0.4964492E+03  0.7818608E-02  0.1014710E+00
         -2   -1    0    0    0  501 -0.00000000000E+00  0.00000000000E+00  0.32208342730E+02  0.32208342831E+02  0.25500000000E-02 0. -1.
          2   -1    0    0  501    0  0.00000000000E+00 -0.00000000000E+00 -0.19130280743E+04  0.19130280743E+04  0.25500000000E-02 0.  1.
    5000001    1    1    2    0    0  0.97747961797E+02  0.88034475263E+02 -0.28262880085E+03  0.33661962500E+03  0.12700000000E+03 0.  0.
   -5000001    1    1    2    0    0 -0.97747961797E+02 -0.88034475263E+02 -0.15981909307E+04  0.16086167921E+04  0.12700000000E+03 0.  0.
<mgrwt>
<rscale>  0 0.49644925E+03</rscale>
<asrwt>0</asrwt>
<pdfrwt beam="1">  1        2 0.27328965E+00 0.49644925E+03</pdfrwt>
<pdfrwt beam="2">  1       -2 0.46011930E-02 0.49644925E+03</pdfrwt>
<totfact> 0.21454999E+03</totfact>
</mgrwt>
</event>
<event>
 4    1  0.9508302E-005  0.3549165E+03  0.7818608E-02  0.1060615E+00
         -2   -1    0    0    0  501 -0.00000000000E+00  0.00000000000E+00  0.24910004182E+02  0.24910004312E+02  0.25500000000E-02 0. -1.
          2   -1    0    0  501    0  0.00000000000E+00 -0.00000000000E+00 -0.12642084672E+04  0.12642084672E+04  0.25500000000E-02 0.  1.
    5000001    1    1    2    0    0  0.95790762052E+02  0.70009082037E+02 -0.74986640727E+03  0.76974396420E+03  0.12700000000E+03 0.  0.
   -5000001    1    1    2    0    0 -0.95790762052E+02 -0.70009082037E+02 -0.48943205578E+03  0.51937450735E+03  0.12700000000E+03 0.  0.
<mgrwt>
<rscale>  0 0.35491654E+03</rscale>
<asrwt>0</asrwt>
<pdfrwt beam="1">  1        2 0.18060117E+00 0.35491654E+03</pdfrwt>
<pdfrwt beam="2">  1       -2 0.35585728E-02 0.35491654E+03</pdfrwt>
<totfact> 0.68154168E+03</totfact>
</mgrwt>
</event>
<event>
 4    1  0.9508302E-005  0.2888795E+03  0.7818608E-02  0.1090936E+00
          2   -1    0    0  501    0  0.00000000000E+00  0.00000000000E+00  0.14809828970E+04  0.14809828970E+04  0.25500000000E-02 0.  1.
         -2   -1    0    0    0  501 -0.00000000000E+00 -0.00000000000E+00 -0.14087162764E+02  0.14087162995E+02  0.25500000000E-02 0. -1.
    5000001    1    1    2    0    0  0.44663279270E+02 -0.23352873657E+02  0.49104843270E+03  0.50970356923E+03  0.12700000000E+03 0.  0.
   -5000001    1    1    2    0    0 -0.44663279270E+02  0.23352873657E+02  0.97584730148E+03  0.98536649072E+03  0.12700000000E+03 0.  0.
<mgrwt>
<rscale>  0 0.28887954E+03</rscale>
<asrwt>0</asrwt>
<pdfrwt beam="1">  1        2 0.21156900E+00 0.28887954E+03</pdfrwt>
<pdfrwt beam="2">  1       -2 0.20124517E-02 0.28887954E+03</pdfrwt>
<totfact> 0.12231464E+04</totfact>
</mgrwt>
</event>
<event>
 4    1  0.9508302E-005  0.2725405E+04  0.7818608E-02  0.8326809E-01
          2   -1    0    0  501    0  0.00000000000E+00  0.00000000000E+00  0.15768305457E+04  0.15768305457E+04  0.25500000000E-02 0.  1.
         -2   -1    0    0    0  501 -0.00000000000E+00 -0.00000000000E+00 -0.11776526150E+04  0.11776526150E+04  0.25500000000E-02 0. -1.
    5000001    1    1    2    0    0 -0.17660474925E+03  0.13450738823E+04  0.17895969062E+03  0.13742519991E+04  0.12700000000E+03 0.  0.
   -5000001    1    1    2    0    0  0.17660474925E+03 -0.13450738823E+04  0.22021824008E+03  0.13802311616E+04  0.12700000000E+03 0.  0.
<mgrwt>
<rscale>  0 0.27254054E+04</rscale>
<asrwt>0</asrwt>
<pdfrwt beam="1">  1        2 0.22526151E+00 0.27254054E+04</pdfrwt>
<pdfrwt beam="2">  1       -2 0.16823609E+00 0.27254054E+04</pdfrwt>
<totfact> 0.25744998E+00</totfact>
</mgrwt>
</event>
<event>
 4    1  0.9508302E-005  0.5529474E+03  0.7818608E-02  0.1000814E+00
          2   -1    0    0  501    0  0.00000000000E+00  0.00000000000E+00  0.13177433501E+04  0.13177433501E+04  0.25500000000E-02 0.  1.
         -2   -1    0    0    0  501 -0.00000000000E+00 -0.00000000000E+00 -0.58006513680E+02  0.58006513736E+02  0.25500000000E-02 0. -1.
    5000001    1    1    2    0    0 -0.24091912975E+03  0.46034800520E+02  0.59965469571E+03  0.66020904570E+03  0.12700000000E+03 0.  0.
   -5000001    1    1    2    0    0  0.24091912975E+03 -0.46034800520E+02  0.66008214072E+03  0.71554081815E+03  0.12700000000E+03 0.  0.
<mgrwt>
<rscale>  0 0.55294737E+03</rscale>
<asrwt>0</asrwt>
<pdfrwt beam="1">  1        2 0.18824903E+00 0.55294737E+03</pdfrwt>
<pdfrwt beam="2">  1       -2 0.82866456E-02 0.55294737E+03</pdfrwt>
<totfact> 0.17243352E+03</totfact>
</mgrwt>
</event>
<event>
 4    1  0.9508302E-005  0.3572877E+03  0.7818608E-02  0.1059663E+00
          2   -1    0    0  501    0  0.00000000000E+00  0.00000000000E+00  0.30210090202E+03  0.30210090204E+03  0.25500000000E-02 0.  1.
         -2   -1    0    0    0  501 -0.00000000000E+00 -0.00000000000E+00 -0.10563895975E+03  0.10563895978E+03  0.25500000000E-02 0. -1.
    5000001    1    1    2    0    0 -0.58253052478E+02  0.28469066847E+02  0.22104072794E+03  0.26304355020E+03  0.12700000000E+03 0.  0.
   -5000001    1    1    2    0    0  0.58253052478E+02 -0.28469066847E+02 -0.24578785666E+02  0.14469631161E+03  0.12700000000E+03 0.  0.
<mgrwt>
<rscale>  0 0.35728770E+03</rscale>
<asrwt>0</asrwt>
<pdfrwt beam="1">  1        2 0.43157272E-01 0.35728770E+03</pdfrwt>
<pdfrwt beam="2">  1       -2 0.15091280E-01 0.35728770E+03</pdfrwt>
<totfact> 0.40034680E+03</totfact>
</mgrwt>
</event>
<event>
 4    1  0.9508302E-005  0.3279047E+03  0.7818608E-02  0.1072068E+00
         -2   -1    0    0    0  501 -0.00000000000E+00  0.00000000000E+00  0.13041926339E+02  0.13041926589E+02  0.25500000000E-02 0. -1.
          2   -1    0    0  501    0  0.00000000000E+00 -0.00000000000E+00 -0.20610742160E+04  0.20610742160E+04  0.25500000000E-02 0.  1.
    5000001    1    1    2    0    0  0.48573525104E+02 -0.54128713847E+02 -0.14914973463E+04  0.14986602814E+04  0.12700000000E+03 0.  0.
   -5000001    1    1    2    0    0 -0.48573525104E+02  0.54128713847E+02 -0.55653494331E+03  0.57545586115E+03  0.12700000000E+03 0.  0.
<mgrwt>
<rscale>  0 0.32790473E+03</rscale>
<asrwt>0</asrwt>
<pdfrwt beam="1">  1        2 0.29443897E+00 0.32790473E+03</pdfrwt>
<pdfrwt beam="2">  1       -2 0.18631337E-02 0.32790473E+03</pdfrwt>
<totfact> 0.70879118E+03</totfact>
</mgrwt>
</event>
<event>
 4    1  0.9508302E-005  0.6369687E+03  0.7818608E-02  0.9831543E-01
          2   -1    0    0  501    0  0.00000000000E+00  0.00000000000E+00  0.51824049331E+03  0.51824049332E+03  0.25500000000E-02 0.  1.
         -2   -1    0    0    0  501 -0.00000000000E+00 -0.00000000000E+00 -0.19572435979E+03  0.19572435980E+03  0.25500000000E-02 0. -1.
    5000001    1    1    2    0    0  0.15935708522E+03 -0.23901503092E+03  0.10215443426E+03  0.33028380834E+03  0.12700000000E+03 0.  0.
   -5000001    1    1    2    0    0 -0.15935708522E+03  0.23901503092E+03  0.22036169927E+03  0.38368104478E+03  0.12700000000E+03 0.  0.
<mgrwt>
<rscale>  0 0.63696872E+03</rscale>
<asrwt>0</asrwt>
<pdfrwt beam="1">  1        2 0.74034355E-01 0.63696872E+03</pdfrwt>
<pdfrwt beam="2">  1       -2 0.27960623E-01 0.63696872E+03</pdfrwt>
<totfact> 0.75540383E+02</totfact>
</mgrwt>
</event>
<event>
 4    1  0.9508302E-005  0.3537751E+03  0.7818608E-02  0.1061076E+00
         -2   -1    0    0    0  501 -0.00000000000E+00  0.00000000000E+00  0.20833113413E+02  0.20833113570E+02  0.25500000000E-02 0. -1.
          2   -1    0    0  501    0  0.00000000000E+00 -0.00000000000E+00 -0.15018977793E+04  0.15018977793E+04  0.25500000000E-02 0.  1.
    5000001    1    1    2    0    0  0.74107380834E+02  0.86965930220E+02 -0.54304208345E+03  0.56927908912E+03  0.12700000000E+03 0.  0.
   -5000001    1    1    2    0    0 -0.74107380834E+02 -0.86965930220E+02 -0.93802258241E+03  0.95345180373E+03  0.12700000000E+03 0.  0.
<mgrwt>
<rscale>  0 0.35377511E+03</rscale>
<asrwt>0</asrwt>
<pdfrwt beam="1">  1        2 0.21455676E+00 0.35377511E+03</pdfrwt>
<pdfrwt beam="2">  1       -2 0.29761600E-02 0.35377511E+03</pdfrwt>
<totfact> 0.66982438E+03</totfact>
</mgrwt>
</event>
<event>
 4    1  0.9508302E-005  0.3685749E+03  0.7818608E-02  0.1055239E+00
         -2   -1    0    0    0  501 -0.00000000000E+00  0.00000000000E+00  0.88895288521E+01  0.88895292178E+01  0.25500000000E-02 0. -1.
          2   -1    0    0  501    0  0.00000000000E+00 -0.00000000000E+00 -0.38204351779E+04  0.38204351779E+04  0.25500000000E-02 0.  1.
    5000001    1    1    2    0    0  0.23727066272E+02  0.11966910954E+03 -0.13415527733E+04  0.13530619028E+04  0.12700000000E+03 0.  0.
   -5000001    1    1    2    0    0 -0.23727066272E+02 -0.11966910954E+03 -0.24699928758E+04  0.24762628043E+04  0.12700000000E+03 0.  0.
<mgrwt>
<rscale>  0 0.36857493E+03</rscale>
<asrwt>0</asrwt>
<pdfrwt beam="1">  1        2 0.54577540E+00 0.36857493E+03</pdfrwt>
<pdfrwt beam="2">  1       -2 0.12699352E-02 0.36857493E+03</pdfrwt>
<totfact> 0.13974871E+03</totfact>
</mgrwt>
</event>
<event>
 4    1  0.9508302E-005  0.3083931E+03  0.7818608E-02  0.1081119E+00
         -2   -1    0    0    0  501 -0.00000000000E+00  0.00000000000E+00  0.90000178153E+02  0.90000178189E+02  0.25500000000E-02 0. -1.
          2   -1    0    0  501    0  0.00000000000E+00 -0.00000000000E+00 -0.26418373805E+03  0.26418373806E+03  0.25500000000E-02 0.  1.
    5000001    1    1    2    0    0  0.33573026431E+02  0.63243883174E+02 -0.14475250492E+03  0.20544883680E+03  0.12700000000E+03 0.  0.
   -5000001    1    1    2    0    0 -0.33573026431E+02 -0.63243883174E+02 -0.29431054981E+02  0.14873507945E+03  0.12700000000E+03 0.  0.
<mgrwt>
<rscale>  0 0.30839315E+03</rscale>
<asrwt>0</asrwt>
<pdfrwt beam="1">  1        2 0.37740534E-01 0.30839315E+03</pdfrwt>
<pdfrwt beam="2">  1       -2 0.12857168E-01 0.30839315E+03</pdfrwt>
<totfact> 0.60037327E+03</totfact>
</mgrwt>
</event>
<event>
 4    1  0.9508302E-005  0.4110524E+03  0.7818608E-02  0.1040018E+00
         -2   -1    0    0    0  501 -0.00000000000E+00  0.00000000000E+00  0.10530487372E+03  0.10530487376E+03  0.25500000000E-02 0. -1.
          2   -1    0    0  501    0  0.00000000000E+00 -0.00000000000E+00 -0.40113071129E+03  0.40113071129E+03  0.25500000000E-02 0.  1.
    5000001    1    1    2    0    0 -0.22747055087E+02 -0.14149697386E+03 -0.23988991336E+03  0.30694460845E+03  0.12700000000E+03 0.  0.
   -5000001    1    1    2    0    0  0.22747055087E+02  0.14149697386E+03 -0.55935924203E+02  0.19949097660E+03  0.12700000000E+03 0.  0.
<mgrwt>
<rscale>  0 0.41105240E+03</rscale>
<asrwt>0</asrwt>
<pdfrwt beam="1">  1        2 0.57304387E-01 0.41105240E+03</pdfrwt>
<pdfrwt beam="2">  1       -2 0.15043554E-01 0.41105240E+03</pdfrwt>
<totfact> 0.29627624E+03</totfact>
</mgrwt>
</event>
<event>
 4    1  0.9508302E-005  0.5787626E+03  0.7818608E-02  0.9950474E-01
         -2   -1    0    0    0  501 -0.00000000000E+00  0.00000000000E+00  0.34791630316E+03  0.34791630317E+03  0.25500000000E-02 0. -1.
          2   -1    0    0  501    0  0.00000000000E+00 -0.00000000000E+00 -0.24069449815E+03  0.24069449817E+03  0.25500000000E-02 0.  1.
    5000001    1    1    2    0    0 -0.12783417218E+03  0.21070152561E+03 -0.30720703980E+02  0.27894348912E+03  0.12700000000E+03 0.  0.
   -5000001    1    1    2    0    0  0.12783417218E+03 -0.21070152561E+03  0.13794250899E+03  0.30966731222E+03  0.12700000000E+03 0.  0.
<mgrwt>
<rscale>  0 0.57876261E+03</rscale>
<asrwt>0</asrwt>
<pdfrwt beam="1">  1        2 0.34384928E-01 0.57876261E+03</pdfrwt>
<pdfrwt beam="2">  1       -2 0.49702329E-01 0.57876261E+03</pdfrwt>
<totfact> 0.58861427E+02</totfact>
</mgrwt>
</event>
<event>
 4    1  0.9508302E-005  0.2857069E+03  0.7818608E-02  0.1092612E+00
          2   -1    0    0  501    0  0.00000000000E+00  0.00000000000E+00  0.19468177345E+04  0.19468177345E+04  0.25500000000E-02 0.  1.
         -2   -1    0    0    0  501 -0.00000000000E+00 -0.00000000000E+00 -0.10482290259E+02  0.10482290569E+02  0.25500000000E-02 0. -1.
    5000001    1    1    2    0    0 -0.48098170106E+02 -0.38340194229E+02  0.11205412631E+04  0.11293914852E+04  0.12700000000E+03 0.  0.
   -5000001    1    1    2    0    0  0.48098170106E+02  0.38340194229E+02  0.81579418116E+03  0.82790853992E+03  0.12700000000E+03 0.  0.
<mgrwt>
<rscale>  0 0.28570690E+03</rscale>
<asrwt>0</asrwt>
<pdfrwt beam="1">  1        2 0.27811681E+00 0.28570690E+03</pdfrwt>
<pdfrwt beam="2">  1       -2 0.14974701E-02 0.28570690E+03</pdfrwt>
<totfact> 0.11099982E+04</totfact>
</mgrwt>
</event>
<event>
 4    1  0.9508302E-005  0.6113103E+03  0.7818608E-02  0.9882215E-01
         -2   -1    0    0    0  501 -0.00000000000E+00  0.00000000000E+00  0.69116850786E+03  0.69116850786E+03  0.25500000000E-02 0. -1.
          2   -1    0    0  501    0  0.00000000000E+00 -0.00000000000E+00 -0.13516973987E+03  0.13516973990E+03  0.25500000000E-02 0.  1.
    5000001    1    1    2    0    0  0.21369515994E+03 -0.17757946858E+03  0.26475649106E+03  0.40425869020E+03  0.12700000000E+03 0.  0.
   -5000001    1    1    2    0    0 -0.21369515994E+03  0.17757946858E+03  0.29124227693E+03  0.42207955756E+03  0.12700000000E+03 0.  0.
<mgrwt>
<rscale>  0 0.61131029E+03</rscale>
<asrwt>0</asrwt>
<pdfrwt beam="1">  1        2 0.19309963E-01 0.61131029E+03</pdfrwt>
<pdfrwt beam="2">  1       -2 0.98738359E-01 0.61131029E+03</pdfrwt>
<totfact> 0.25498044E+02</totfact>
</mgrwt>
</event>
<event>
 4    1  0.9508302E-005  0.3264449E+03  0.7818608E-02  0.1072721E+00
          2   -1    0    0  501    0  0.00000000000E+00  0.00000000000E+00  0.14029398276E+04  0.14029398276E+04  0.25500000000E-02 0.  1.
         -2   -1    0    0    0  501 -0.00000000000E+00 -0.00000000000E+00 -0.18989819668E+02  0.18989819840E+02  0.25500000000E-02 0. -1.
    5000001    1    1    2    0    0  0.46800737121E+02 -0.22929836524E+01  0.10892138592E+04  0.10975934575E+04  0.12700000000E+03 0.  0.
   -5000001    1    1    2    0    0 -0.46800737121E+02  0.22929836524E+01  0.29473614875E+03  0.32433619001E+03  0.12700000000E+03 0.  0.
<mgrwt>
<rscale>  0 0.32644494E+03</rscale>
<asrwt>0</asrwt>
<pdfrwt beam="1">  1        2 0.20042006E+00 0.32644494E+03</pdfrwt>
<pdfrwt beam="2">  1       -2 0.27128303E-02 0.32644494E+03</pdfrwt>
<totfact> 0.86384231E+03</totfact>
</mgrwt>
</event>
<event>
 4    1  0.9508302E-005  0.8288194E+03  0.7818608E-02  0.9519214E-01
         -2   -1    0    0    0  501 -0.00000000000E+00  0.00000000000E+00  0.13841197579E+03  0.13841197581E+03  0.25500000000E-02 0. -1.
          2   -1    0    0  501    0  0.00000000000E+00 -0.00000000000E+00 -0.12407552633E+04  0.12407552633E+04  0.25500000000E-02 0.  1.
    5000001    1    1    2    0    0  0.14541940944E+03  0.36527752066E+03 -0.49771777305E+03  0.64685891302E+03  0.12700000000E+03 0.  0.
   -5000001    1    1    2    0    0 -0.14541940944E+03 -0.36527752066E+03 -0.60462551449E+03  0.73230832613E+03  0.12700000000E+03 0.  0.
<mgrwt>
<rscale>  0 0.82881937E+03</rscale>
<asrwt>0</asrwt>
<pdfrwt beam="1">  1        2 0.17725075E+00 0.82881937E+03</pdfrwt>
<pdfrwt beam="2">  1       -2 0.19773140E-01 0.82881937E+03</pdfrwt>
<totfact> 0.44246105E+02</totfact>
</mgrwt>
</event>
<event>
 4    1  0.9508302E-005  0.4237049E+03  0.7818608E-02  0.1035867E+00
         -2   -1    0    0    0  501 -0.00000000000E+00  0.00000000000E+00  0.15406779229E+02  0.15406779440E+02  0.25500000000E-02 0. -1.
          2   -1    0    0  501    0  0.00000000000E+00 -0.00000000000E+00 -0.29130979800E+04  0.29130979800E+04  0.25500000000E-02 0.  1.
    5000001    1    1    2    0    0  0.15913769475E+03  0.35342071927E+02 -0.17714499334E+04  0.17834622885E+04  0.12700000000E+03 0.  0.
   -5000001    1    1    2    0    0 -0.15913769475E+03 -0.35342071927E+02 -0.11262412673E+04  0.11450424709E+04  0.12700000000E+03 0.  0.
<mgrwt>
<rscale>  0 0.42370489E+03</rscale>
<asrwt>0</asrwt>
<pdfrwt beam="1">  1        2 0.41615650E+00 0.42370489E+03</pdfrwt>
<pdfrwt beam="2">  1       -2 0.22009703E-02 0.42370489E+03</pdfrwt>
<totfact> 0.20409309E+03</totfact>
</mgrwt>
</event>
<event>
 4    1  0.9508302E-005  0.7311316E+03  0.7818608E-02  0.9665426E-01
         -2   -1    0    0    0  501 -0.00000000000E+00  0.00000000000E+00  0.80518725010E+02  0.80518725051E+02  0.25500000000E-02 0. -1.
          2   -1    0    0  501    0  0.00000000000E+00 -0.00000000000E+00 -0.16597175197E+04  0.16597175197E+04  0.25500000000E-02 0.  1.
    5000001    1    1    2    0    0  0.12788136214E+03  0.31095014342E+03 -0.94865817939E+03  0.10144579714E+04  0.12700000000E+03 0.  0.
   -5000001    1    1    2    0    0 -0.12788136214E+03 -0.31095014342E+03 -0.63054061527E+03  0.72577827329E+03  0.12700000000E+03 0.  0.
<mgrwt>
<rscale>  0 0.73113156E+03</rscale>
<asrwt>0</asrwt>
<pdfrwt beam="1">  1        2 0.23710248E+00 0.73113156E+03</pdfrwt>
<pdfrwt beam="2">  1       -2 0.11502676E-01 0.73113156E+03</pdfrwt>
<totfact> 0.66596819E+02</totfact>
</mgrwt>
</event>
<event>
 4    1  0.9508302E-005  0.3269039E+03  0.7818608E-02  0.1072515E+00
         -2   -1    0    0    0  501 -0.00000000000E+00  0.00000000000E+00  0.68243194357E+02  0.68243194405E+02  0.25500000000E-02 0. -1.
          2   -1    0    0  501    0  0.00000000000E+00 -0.00000000000E+00 -0.39149016080E+03  0.39149016081E+03  0.25500000000E-02 0.  1.
    5000001    1    1    2    0    0  0.18323139364E+02 -0.29225930426E+02 -0.29795475190E+03  0.32572369675E+03  0.12700000000E+03 0.  0.
   -5000001    1    1    2    0    0 -0.18323139364E+02  0.29225930426E+02 -0.25292214547E+02  0.13400965847E+03  0.12700000000E+03 0.  0.
<mgrwt>
<rscale>  0 0.32690390E+03</rscale>
<asrwt>0</asrwt>
<pdfrwt beam="1">  1        2 0.55927164E-01 0.32690390E+03</pdfrwt>
<pdfrwt beam="2">  1       -2 0.97490280E-02 0.32690390E+03</pdfrwt>
<totfact> 0.61359520E+03</totfact>
</mgrwt>
</event>
<event>
 4    1  0.9508302E-005  0.3236087E+03  0.7818608E-02  0.1074000E+00
          2   -1    0    0  501    0  0.00000000000E+00  0.00000000000E+00  0.17235813082E+04  0.17235813082E+04  0.25500000000E-02 0.  1.
         -2   -1    0    0    0  501 -0.00000000000E+00 -0.00000000000E+00 -0.15189676608E+02  0.15189676822E+02  0.25500000000E-02 0. -1.
    5000001    1    1    2    0    0  0.83899434794E+02 -0.19690542899E+02  0.57891801474E+03  0.59891727344E+03  0.12700000000E+03 0.  0.
   -5000001    1    1    2    0    0 -0.83899434794E+02  0.19690542899E+02  0.11294736169E+04  0.11398537116E+04  0.12700000000E+03 0.  0.
<mgrwt>
<rscale>  0 0.32360867E+03</rscale>
<asrwt>0</asrwt>
<pdfrwt beam="1">  1        2 0.24622590E+00 0.32360867E+03</pdfrwt>
<pdfrwt beam="2">  1       -2 0.21699538E-02 0.32360867E+03</pdfrwt>
<totfact> 0.82910551E+03</totfact>
</mgrwt>
</event>
<event>
 4    1  0.9508302E-005  0.3687960E+03  0.7818608E-02  0.1055154E+00
         -2   -1    0    0    0  501 -0.00000000000E+00  0.00000000000E+00  0.50484633155E+02  0.50484633220E+02  0.25500000000E-02 0. -1.
          2   -1    0    0  501    0  0.00000000000E+00 -0.00000000000E+00 -0.67352413524E+03  0.67352413525E+03  0.25500000000E-02 0.  1.
    5000001    1    1    2    0    0  0.12569476473E+03  0.44166552998E+02 -0.28967993870E+03  0.34321032206E+03  0.12700000000E+03 0.  0.
   -5000001    1    1    2    0    0 -0.12569476473E+03 -0.44166552998E+02 -0.33335956339E+03  0.38079844640E+03  0.12700000000E+03 0.  0.
<mgrwt>
<rscale>  0 0.36879598E+03</rscale>
<asrwt>0</asrwt>
<pdfrwt beam="1">  1        2 0.96217728E-01 0.36879598E+03</pdfrwt>
<pdfrwt beam="2">  1       -2 0.72120909E-02 0.36879598E+03</pdfrwt>
<totfact> 0.53758398E+03</totfact>
</mgrwt>
</event>
<event>
 4    1  0.9508302E-005  0.5117926E+03  0.7818608E-02  0.1010746E+00
          2   -1    0    0  501    0  0.00000000000E+00  0.00000000000E+00  0.22920210999E+03  0.22920211000E+03  0.25500000000E-02 0.  1.
         -2   -1    0    0    0  501 -0.00000000000E+00 -0.00000000000E+00 -0.28569949182E+03  0.28569949183E+03  0.25500000000E-02 0. -1.
    5000001    1    1    2    0    0  0.10005541897E+02  0.12264291968E+03 -0.21433859051E+03  0.27786944416E+03  0.12700000000E+03 0.  0.
   -5000001    1    1    2    0    0 -0.10005541897E+02 -0.12264291968E+03  0.15784120867E+03  0.23703215768E+03  0.12700000000E+03 0.  0.
<mgrwt>
<rscale>  0 0.51179264E+03</rscale>
<asrwt>0</asrwt>
<pdfrwt beam="1">  1        2 0.32743159E-01 0.51179264E+03</pdfrwt>
<pdfrwt beam="2">  1       -2 0.40814213E-01 0.51179264E+03</pdfrwt>
<totfact> 0.91886840E+02</totfact>
</mgrwt>
</event>
<event>
 4    1  0.9508302E-005  0.5997518E+03  0.7818608E-02  0.9905921E-01
         -2   -1    0    0    0  501 -0.00000000000E+00  0.00000000000E+00  0.12282435136E+03  0.12282435139E+03  0.25500000000E-02 0. -1.
          2   -1    0    0  501    0  0.00000000000E+00 -0.00000000000E+00 -0.73214760401E+03  0.73214760402E+03  0.25500000000E-02 0.  1.
    5000001    1    1    2    0    0 -0.16765806554E+03  0.61791534127E+01 -0.60923829934E+03  0.64455233633E+03  0.12700000000E+03 0.  0.
   -5000001    1    1    2    0    0  0.16765806554E+03 -0.61791534127E+01 -0.84953308754E-01  0.21041961908E+03  0.12700000000E+03 0.  0.
<mgrwt>
<rscale>  0 0.59975180E+03</rscale>
<asrwt>0</asrwt>
<pdfrwt beam="1">  1        2 0.10459251E+00 0.59975180E+03</pdfrwt>
<pdfrwt beam="2">  1       -2 0.17546336E-01 0.59975180E+03</pdfrwt>
<totfact> 0.11427010E+03</totfact>
</mgrwt>
</event>
<event>
 4    1  0.9508302E-005  0.3086631E+03  0.7818608E-02  0.1080988E+00
         -2   -1    0    0    0  501 -0.00000000000E+00  0.00000000000E+00  0.26408822134E+02  0.26408822257E+02  0.25500000000E-02 0. -1.
          2   -1    0    0  501    0  0.00000000000E+00 -0.00000000000E+00 -0.90190406178E+03  0.90190406179E+03  0.25500000000E-02 0.  1.
    5000001    1    1    2    0    0  0.76493471675E+02  0.42512495661E+02 -0.42109435463E+03  0.44845068736E+03  0.12700000000E+03 0.  0.
   -5000001    1    1    2    0    0 -0.76493471675E+02 -0.42512495661E+02 -0.45440088502E+03  0.47986219668E+03  0.12700000000E+03 0.  0.
<mgrwt>
<rscale>  0 0.30866308E+03</rscale>
<asrwt>0</asrwt>
<pdfrwt beam="1">  1        2 0.12884342E+00 0.30866308E+03</pdfrwt>
<pdfrwt beam="2">  1       -2 0.37726895E-02 0.30866308E+03</pdfrwt>
<totfact> 0.10054892E+04</totfact>
</mgrwt>
</event>
<event>
 4    1  0.9508302E-005  0.2944931E+03  0.7818608E-02  0.1088026E+00
          2   -1    0    0  501    0  0.00000000000E+00  0.00000000000E+00  0.15837297484E+04  0.15837297484E+04  0.25500000000E-02 0.  1.
         -2   -1    0    0    0  501 -0.00000000000E+00 -0.00000000000E+00 -0.13690183333E+02  0.13690183571E+02  0.25500000000E-02 0. -1.
    5000001    1    1    2    0    0 -0.52214275716E+02  0.52717270987E+02  0.82225024270E+03  0.83530228233E+03  0.12700000000E+03 0.  0.
   -5000001    1    1    2    0    0  0.52214275716E+02 -0.52717270987E+02  0.74778932241E+03  0.76211764969E+03  0.12700000000E+03 0.  0.
<mgrwt>
<rscale>  0 0.29449313E+03</rscale>
<asrwt>0</asrwt>
<pdfrwt beam="1">  1        2 0.22624705E+00 0.29449313E+03</pdfrwt>
<pdfrwt beam="2">  1       -2 0.19557410E-02 0.29449313E+03</pdfrwt>
<totfact> 0.11329124E+04</totfact>
</mgrwt>
</event>
<event>
 4    1  0.9508302E-005  0.2799933E+03  0.7818608E-02  0.1095693E+00
          2   -1    0    0  501    0  0.00000000000E+00  0.00000000000E+00  0.60748281154E+02  0.60748281208E+02  0.25500000000E-02 0.  1.
         -2   -1    0    0    0  501 -0.00000000000E+00 -0.00000000000E+00 -0.32262746909E+03  0.32262746910E+03  0.25500000000E-02 0. -1.
    5000001    1    1    2    0    0 -0.38629865628E+02 -0.43999155541E+02 -0.13979969873E+03  0.19774010209E+03  0.12700000000E+03 0.  0.
   -5000001    1    1    2    0    0  0.38629865628E+02  0.43999155541E+02 -0.12207948920E+03  0.18563564822E+03  0.12700000000E+03 0.  0.
<mgrwt>
<rscale>  0 0.27999332E+03</rscale>
<asrwt>0</asrwt>
<pdfrwt beam="1">  1        2 0.86783261E-02 0.27999332E+03</pdfrwt>
<pdfrwt beam="2">  1       -2 0.46089638E-01 0.27999332E+03</pdfrwt>
<totfact> 0.34513414E+03</totfact>
</mgrwt>
</event>
<event>
 4    1  0.9508302E-005  0.5113111E+03  0.7818608E-02  0.1010868E+00
         -2   -1    0    0    0  501 -0.00000000000E+00  0.00000000000E+00  0.60676864010E+02  0.60676864064E+02  0.25500000000E-02 0.  1.
          2   -1    0    0  501    0  0.00000000000E+00 -0.00000000000E+00 -0.10771778130E+04  0.10771778130E+04  0.25500000000E-02 0. -1.
    5000001    1    1    2    0    0  0.21967101448E+03 -0.10504447118E+02 -0.44279769507E+03  0.51045518586E+03  0.12700000000E+03 0.  0.
   -5000001    1    1    2    0    0 -0.21967101448E+03  0.10504447118E+02 -0.57370325394E+03  0.62739949123E+03  0.12700000000E+03 0.  0.
<mgrwt>
<rscale>  0 0.51131114E+03</rscale>
<asrwt>0</asrwt>
<pdfrwt beam="1">  1        2 0.15388253E+00 0.51131114E+03</pdfrwt>
<pdfrwt beam="2">  1       -2 0.86681241E-02 0.51131114E+03</pdfrwt>
<totfact> 0.21893438E+03</totfact>
</mgrwt>
</event>
<event>
 4    1  0.9508302E-005  0.7710412E+03  0.7818608E-02  0.9602906E-01
         -2   -1    0    0    0  501 -0.00000000000E+00  0.00000000000E+00  0.11736515325E+03  0.11736515328E+03  0.25500000000E-02 0. -1.
          2   -1    0    0  501    0  0.00000000000E+00 -0.00000000000E+00 -0.12663566631E+04  0.12663566631E+04  0.25500000000E-02 0.  1.
    5000001    1    1    2    0    0  0.26747249050E+03  0.19795484755E+03 -0.83928192940E+03  0.91172957167E+03  0.12700000000E+03 0.  0.
   -5000001    1    1    2    0    0 -0.26747249050E+03 -0.19795484755E+03 -0.30970958043E+03  0.47199224469E+03  0.12700000000E+03 0.  0.
<mgrwt>
<rscale>  0 0.77104123E+03</rscale>
<asrwt>0</asrwt>
<pdfrwt beam="1">  1        2 0.18090809E+00 0.77104123E+03</pdfrwt>
<pdfrwt beam="2">  1       -2 0.16766451E-01 0.77104123E+03</pdfrwt>
<totfact> 0.57107919E+02</totfact>
</mgrwt>
</event>
<event>
 4    1  0.9508302E-005  0.5017983E+03  0.7818608E-02  0.1013311E+00
          2   -1    0    0  501    0  0.00000000000E+00  0.00000000000E+00  0.54431895802E+03  0.54431895803E+03  0.25500000000E-02 0.  1.
         -2   -1    0    0    0  501 -0.00000000000E+00 -0.00000000000E+00 -0.11564982638E+03  0.11564982641E+03  0.25500000000E-02 0. -1.
    5000001    1    1    2    0    0 -0.96467619564E+02 -0.14684150735E+03  0.38045186299E+03  0.43788246135E+03  0.12700000000E+03 0.  0.
   -5000001    1    1    2    0    0  0.96467619564E+02  0.14684150735E+03  0.48217268645E+02  0.22208632309E+03  0.12700000000E+03 0.  0.
<mgrwt>
<rscale>  0 0.50179834E+03</rscale>
<asrwt>0</asrwt>
<pdfrwt beam="1">  1        2 0.77759850E-01 0.50179834E+03</pdfrwt>
<pdfrwt beam="2">  1       -2 0.16521404E-01 0.50179834E+03</pdfrwt>
<totfact> 0.18020433E+03</totfact>
</mgrwt>
</event>
<event>
 4    1  0.9508302E-005  0.6291488E+03  0.7818608E-02  0.9846711E-01
          2   -1    0    0  501    0  0.00000000000E+00  0.00000000000E+00  0.11535433318E+04  0.11535433318E+04  0.25500000000E-02 0.  1.
         -2   -1    0    0    0  501 -0.00000000000E+00 -0.00000000000E+00 -0.85785281255E+02  0.85785281293E+02  0.25500000000E-02 0. -1.
    5000001    1    1    2    0    0 -0.89061779305E+02 -0.90109269461E+02  0.10429103394E+04  0.10582261843E+04  0.12700000000E+03 0.  0.
   -5000001    1    1    2    0    0  0.89061779305E+02  0.90109269461E+02  0.24847711099E+02  0.18110242881E+03  0.12700000000E+03 0.  0.
<mgrwt>
<rscale>  0 0.62914876E+03</rscale>
<asrwt>0</asrwt>
<pdfrwt beam="1">  1        2 0.16479189E+00 0.62914876E+03</pdfrwt>
<pdfrwt beam="2">  1       -2 0.12255041E-01 0.62914876E+03</pdfrwt>
<totfact> 0.11249998E+03</totfact>
</mgrwt>
</event>
<event>
 4    1  0.9508302E-005  0.3307453E+03  0.7818608E-02  0.1070808E+00
         -2   -1    0    0    0  501 -0.00000000000E+00  0.00000000000E+00  0.11986953362E+02  0.11986953634E+02  0.25500000000E-02 0. -1.
          2   -1    0    0  501    0  0.00000000000E+00 -0.00000000000E+00 -0.22814903395E+04  0.22814903395E+04  0.25500000000E-02 0.  1.
    5000001    1    1    2    0    0  0.97378548945E+02  0.26365364012E+02 -0.91097728099E+03  0.92530336684E+03  0.12700000000E+03 0.  0.
   -5000001    1    1    2    0    0 -0.97378548945E+02 -0.26365364012E+02 -0.13585261052E+04  0.13681739263E+04  0.12700000000E+03 0.  0.
<mgrwt>
<rscale>  0 0.33074533E+03</rscale>
<asrwt>0</asrwt>
<pdfrwt beam="1">  1        2 0.32592691E+00 0.33074533E+03</pdfrwt>
<pdfrwt beam="2">  1       -2 0.17124234E-02 0.33074533E+03</pdfrwt>
<totfact> 0.62519268E+03</totfact>
</mgrwt>
</event>
<event>
 4    1  0.9508302E-005  0.4395995E+03  0.7818608E-02  0.1030870E+00
         -2   -1    0    0    0  501 -0.00000000000E+00  0.00000000000E+00  0.21962062992E+02  0.21962063140E+02  0.25500000000E-02 0. -1.
          2   -1    0    0  501    0  0.00000000000E+00 -0.00000000000E+00 -0.21997906023E+04  0.21997906023E+04  0.25500000000E-02 0.  1.
    5000001    1    1    2    0    0  0.63448447481E+02  0.12394338426E+03 -0.16606077458E+04  0.16712674093E+04  0.12700000000E+03 0.  0.
   -5000001    1    1    2    0    0 -0.63448447481E+02 -0.12394338426E+03 -0.51722079352E+03  0.55048525615E+03  0.12700000000E+03 0.  0.
<mgrwt>
<rscale>  0 0.43959954E+03</rscale>
<asrwt>0</asrwt>
<pdfrwt beam="1">  1        2 0.31425566E+00 0.43959954E+03</pdfrwt>
<pdfrwt beam="2">  1       -2 0.31374390E-02 0.43959954E+03</pdfrwt>
<totfact> 0.27741072E+03</totfact>
</mgrwt>
</event>
<event>
 4    1  0.9508302E-005  0.3194995E+03  0.7818608E-02  0.1075880E+00
          2   -1    0    0  501    0  0.00000000000E+00  0.00000000000E+00  0.50303484990E+03  0.50303484991E+03  0.25500000000E-02 0.  1.
         -2   -1    0    0    0  501 -0.00000000000E+00 -0.00000000000E+00 -0.50732021967E+02  0.50732022031E+02  0.25500000000E-02 0. -1.
    5000001    1    1    2    0    0 -0.17964225187E+02  0.68242492653E+02  0.11103522515E+03  0.18285943348E+03  0.12700000000E+03 0.  0.
   -5000001    1    1    2    0    0  0.17964225187E+02 -0.68242492653E+02  0.34126760279E+03  0.37090743846E+03  0.12700000000E+03 0.  0.
<mgrwt>
<rscale>  0 0.31949945E+03</rscale>
<asrwt>0</asrwt>
<pdfrwt beam="1">  1        2 0.71862124E-01 0.31949945E+03</pdfrwt>
<pdfrwt beam="2">  1       -2 0.72474314E-02 0.31949945E+03</pdfrwt>
<totfact> 0.74273556E+03</totfact>
</mgrwt>
</event>
<event>
 4    1  0.9508302E-005  0.7955326E+03  0.7818608E-02  0.9566506E-01
          2   -1    0    0  501    0  0.00000000000E+00  0.00000000000E+00  0.26005331652E+04  0.26005331652E+04  0.25500000000E-02 0.  1.
         -2   -1    0    0    0  501 -0.00000000000E+00 -0.00000000000E+00 -0.60840616398E+02  0.60840616452E+02  0.25500000000E-02 0. -1.
    5000001    1    1    2    0    0 -0.83699189513E+01 -0.35962600165E+03  0.16466772440E+04  0.16902886921E+04  0.12700000000E+03 0.  0.
   -5000001    1    1    2    0    0  0.83699189513E+01  0.35962600165E+03  0.89301530473E+03  0.97108508952E+03  0.12700000000E+03 0.  0.
<mgrwt>
<rscale>  0 0.79553263E+03</rscale>
<asrwt>0</asrwt>
<pdfrwt beam="1">  1        2 0.37150479E+00 0.79553263E+03</pdfrwt>
<pdfrwt beam="2">  1       -2 0.86915153E-02 0.79553263E+03</pdfrwt>
<totfact> 0.34634421E+02</totfact>
</mgrwt>
</event>
<event>
 4    1  0.9508302E-005  0.3287858E+03  0.7818608E-02  0.1071675E+00
         -2   -1    0    0    0  501 -0.00000000000E+00  0.00000000000E+00  0.33614988473E+03  0.33614988474E+03  0.25500000000E-02 0. -1.
          2   -1    0    0  501    0  0.00000000000E+00 -0.00000000000E+00 -0.80395743727E+02  0.80395743767E+02  0.25500000000E-02 0.  1.
    5000001    1    1    2    0    0  0.10193346506E+03  0.68941772303E+01  0.15499211318E+03  0.22492113313E+03  0.12700000000E+03 0.  0.
   -5000001    1    1    2    0    0 -0.10193346506E+03 -0.68941772303E+01  0.10076202782E+03  0.19162449538E+03  0.12700000000E+03 0.  0.
<mgrwt>
<rscale>  0 0.32878577E+03</rscale>
<asrwt>0</asrwt>
<pdfrwt beam="1">  1        2 0.11485106E-01 0.32878577E+03</pdfrwt>
<pdfrwt beam="2">  1       -2 0.48021412E-01 0.32878577E+03</pdfrwt>
<totfact> 0.22542059E+03</totfact>
</mgrwt>
</event>
<event>
 4    1  0.9508302E-005  0.3896440E+03  0.7818608E-02  0.1047426E+00
          2   -1    0    0  501    0  0.00000000000E+00  0.00000000000E+00  0.12854914446E+04  0.12854914446E+04  0.25500000000E-02 0.  1.
         -2   -1    0    0    0  501 -0.00000000000E+00 -0.00000000000E+00 -0.29526152705E+02  0.29526152815E+02  0.25500000000E-02 0. -1.
    5000001    1    1    2    0    0  0.77844449182E+02 -0.11392319054E+03  0.80619522944E+03  0.82771855095E+03  0.12700000000E+03 0.  0.
   -5000001    1    1    2    0    0 -0.77844449182E+02  0.11392319054E+03  0.44977006246E+03  0.48729904648E+03  0.12700000000E+03 0.  0.
<mgrwt>
<rscale>  0 0.38964403E+03</rscale>
<asrwt>0</asrwt>
<pdfrwt beam="1">  1        2 0.18364160E+00 0.38964403E+03</pdfrwt>
<pdfrwt beam="2">  1       -2 0.42180226E-02 0.38964403E+03</pdfrwt>
<totfact> 0.51366947E+03</totfact>
</mgrwt>
</event>
<event>
 4    1  0.9508302E-005  0.5857109E+03  0.7818608E-02  0.9935503E-01
         -2   -1    0    0    0  501 -0.00000000000E+00  0.00000000000E+00  0.80897848732E+02  0.80897848772E+02  0.25500000000E-02 0. -1.
          2   -1    0    0  501    0  0.00000000000E+00 -0.00000000000E+00 -0.10601556829E+04  0.10601556829E+04  0.25500000000E-02 0.  1.
    5000001    1    1    2    0    0 -0.25690047207E+03 -0.34857826092E+02 -0.39374515599E+03  0.48823884366E+03  0.12700000000E+03 0.  0.
   -5000001    1    1    2    0    0  0.25690047207E+03  0.34857826092E+02 -0.58551267818E+03  0.65281468802E+03  0.12700000000E+03 0.  0.
<mgrwt>
<rscale>  0 0.58571090E+03</rscale>
<asrwt>0</asrwt>
<pdfrwt beam="1">  1        2 0.15145080E+00 0.58571090E+03</pdfrwt>
<pdfrwt beam="2">  1       -2 0.11556836E-01 0.58571090E+03</pdfrwt>
<totfact> 0.14052641E+03</totfact>
</mgrwt>
</event>
<event>
 4    1  0.9508302E-005  0.4228210E+03  0.7818608E-02  0.1036152E+00
         -2   -1    0    0    0  501 -0.00000000000E+00  0.00000000000E+00  0.34382663529E+02  0.34382663624E+02  0.25500000000E-02 0. -1.
          2   -1    0    0  501    0  0.00000000000E+00 -0.00000000000E+00 -0.12999109945E+04  0.12999109945E+04  0.25500000000E-02 0.  1.
    5000001    1    1    2    0    0  0.99931331977E+02 -0.90910235038E+02 -0.31227148424E+03  0.36317133947E+03  0.12700000000E+03 0.  0.
   -5000001    1    1    2    0    0 -0.99931331977E+02  0.90910235038E+02 -0.95325684670E+03  0.97112231863E+03  0.12700000000E+03 0.  0.
<mgrwt>
<rscale>  0 0.42282101E+03</rscale>
<asrwt>0</asrwt>
<pdfrwt beam="1">  1        2 0.18570154E+00 0.42282101E+03</pdfrwt>
<pdfrwt beam="2">  1       -2 0.49118099E-02 0.42282101E+03</pdfrwt>
<totfact> 0.39996688E+03</totfact>
</mgrwt>
</event>
<event>
 4    1  0.9508302E-005  0.3184286E+03  0.7818608E-02  0.1076375E+00
          2   -1    0    0  501    0  0.00000000000E+00  0.00000000000E+00  0.10569806698E+03  0.10569806701E+03  0.25500000000E-02 0.  1.
         -2   -1    0    0    0  501 -0.00000000000E+00 -0.00000000000E+00 -0.23982643180E+03  0.23982643181E+03  0.25500000000E-02 0. -1.
    5000001    1    1    2    0    0 -0.72116801287E+01 -0.68864619613E+02  0.51238090535E+01  0.14473975813E+03  0.12700000000E+03 0.  0.
   -5000001    1    1    2    0    0  0.72116801287E+01  0.68864619613E+02 -0.13925217388E+03  0.20078474069E+03  0.12700000000E+03 0.  0.
<mgrwt>
<rscale>  0 0.31842858E+03</rscale>
<asrwt>0</asrwt>
<pdfrwt beam="1">  1        2 0.15099724E-01 0.31842858E+03</pdfrwt>
<pdfrwt beam="2">  1       -2 0.34260919E-01 0.31842858E+03</pdfrwt>
<totfact> 0.30961152E+03</totfact>
</mgrwt>
</event>
<event>
 4    1  0.9508302E-005  0.6043162E+03  0.7818608E-02  0.9896492E-01
         -2   -1    0    0    0  501 -0.00000000000E+00  0.00000000000E+00  0.67911209942E+02  0.67911209990E+02  0.25500000000E-02 0. -1.
          2   -1    0    0  501    0  0.00000000000E+00 -0.00000000000E+00 -0.13443952850E+04  0.13443952850E+04  0.25500000000E-02 0.  1.
    5000001    1    1    2    0    0  0.22456278205E+03 -0.48192440616E+02 -0.98816967173E+03  0.10224281171E+04  0.12700000000E+03 0.  0.
   -5000001    1    1    2    0    0 -0.22456278205E+03  0.48192440616E+02 -0.28831440330E+03  0.38987837792E+03  0.12700000000E+03 0.  0.
<mgrwt>
<rscale>  0 0.60431618E+03</rscale>
<asrwt>0</asrwt>
<pdfrwt beam="1">  1        2 0.19205645E+00 0.60431618E+03</pdfrwt>
<pdfrwt beam="2">  1       -2 0.97016022E-02 0.60431618E+03</pdfrwt>
<totfact> 0.12933165E+03</totfact>
</mgrwt>
</event>
<event>
 4    1  0.9508302E-005  0.4490209E+03  0.7818608E-02  0.1028014E+00
          2   -1    0    0  501    0  0.00000000000E+00  0.00000000000E+00  0.29498634224E+04  0.29498634224E+04  0.25500000000E-02 0.  1.
         -2   -1    0    0    0  501 -0.00000000000E+00 -0.00000000000E+00 -0.17087209258E+02  0.17087209448E+02  0.25500000000E-02 0. -1.
    5000001    1    1    2    0    0  0.12960819030E+03  0.93742758196E+02  0.85042834459E+03  0.87461040297E+03  0.12700000000E+03 0.  0.
   -5000001    1    1    2    0    0 -0.12960819030E+03 -0.93742758196E+02  0.20823478686E+04  0.20923402289E+04  0.12700000000E+03 0.  0.
<mgrwt>
<rscale>  0 0.44902086E+03</rscale>
<asrwt>0</asrwt>
<pdfrwt beam="1">  1        2 0.42140881E+00 0.44902086E+03</pdfrwt>
<pdfrwt beam="2">  1       -2 0.24410313E-02 0.44902086E+03</pdfrwt>
<totfact> 0.16673803E+03</totfact>
</mgrwt>
</event>
<event>
 4    1  0.9508302E-005  0.3442585E+03  0.7818608E-02  0.1064997E+00
          2   -1    0    0  501    0  0.00000000000E+00  0.00000000000E+00  0.30467773288E+03  0.30467773289E+03  0.25500000000E-02 0.  1.
         -2   -1    0    0    0  501 -0.00000000000E+00 -0.00000000000E+00 -0.97245296747E+02  0.97245296781E+02  0.25500000000E-02 0. -1.
    5000001    1    1    2    0    0 -0.52894562556E+02 -0.85241980078E+02  0.35285698300E+02  0.16564453031E+03  0.12700000000E+03 0.  0.
   -5000001    1    1    2    0    0  0.52894562556E+02  0.85241980078E+02  0.17214673783E+03  0.23627849936E+03  0.12700000000E+03 0.  0.
<mgrwt>
<rscale>  0 0.34425849E+03</rscale>
<asrwt>0</asrwt>
<pdfrwt beam="1">  1        2 0.43525391E-01 0.34425849E+03</pdfrwt>
<pdfrwt beam="2">  1       -2 0.13892185E-01 0.34425849E+03</pdfrwt>
<totfact> 0.45455378E+03</totfact>
</mgrwt>
</event>
<event>
 4    1  0.9508302E-005  0.4847407E+03  0.7818608E-02  0.1017840E+00
          2   -1    0    0  501    0  0.00000000000E+00  0.00000000000E+00  0.99510446171E+03  0.99510446172E+03  0.25500000000E-02 0.  1.
         -2   -1    0    0    0  501 -0.00000000000E+00 -0.00000000000E+00 -0.59032373782E+02  0.59032373837E+02  0.25500000000E-02 0. -1.
    5000001    1    1    2    0    0 -0.18527633179E+03 -0.24130377631E+02  0.27715281345E+03  0.35756436658E+03  0.12700000000E+03 0.  0.
   -5000001    1    1    2    0    0  0.18527633179E+03  0.24130377631E+02  0.65891927448E+03  0.69657246897E+03  0.12700000000E+03 0.  0.
<mgrwt>
<rscale>  0 0.48474067E+03</rscale>
<asrwt>0</asrwt>
<pdfrwt beam="1">  1        2 0.14215777E+00 0.48474067E+03</pdfrwt>
<pdfrwt beam="2">  1       -2 0.84331967E-02 0.48474067E+03</pdfrwt>
<totfact> 0.25595994E+03</totfact>
</mgrwt>
</event>
<event>
 4    1  0.9508302E-005  0.3051304E+03  0.7818608E-02  0.1082704E+00
         -2   -1    0    0    0  501 -0.00000000000E+00  0.00000000000E+00  0.33914614950E+02  0.33914615046E+02  0.25500000000E-02 0. -1.
          2   -1    0    0  501    0  0.00000000000E+00 -0.00000000000E+00 -0.68631571599E+03  0.68631571599E+03  0.25500000000E-02 0.  1.
    5000001    1    1    2    0    0  0.90017483012E+01  0.73010202495E+02 -0.22786459710E+03  0.27104021058E+03  0.12700000000E+03 0.  0.
   -5000001    1    1    2    0    0 -0.90017483012E+01 -0.73010202495E+02 -0.42453650393E+03  0.44919012045E+03  0.12700000000E+03 0.  0.
<mgrwt>
<rscale>  0 0.30513035E+03</rscale>
<asrwt>0</asrwt>
<pdfrwt beam="1">  1        2 0.98045093E-01 0.30513035E+03</pdfrwt>
<pdfrwt beam="2">  1       -2 0.48449454E-02 0.30513035E+03</pdfrwt>
<totfact> 0.96568939E+03</totfact>
</mgrwt>
</event>
<event>
 4    1  0.9508302E-005  0.3919165E+03  0.7818608E-02  0.1046615E+00
          2   -1    0    0  501    0  0.00000000000E+00  0.00000000000E+00  0.27045574356E+04  0.27045574356E+04  0.25500000000E-02 0.  1.
         -2   -1    0    0    0  501 -0.00000000000E+00 -0.00000000000E+00 -0.14198123126E+02  0.14198123355E+02  0.25500000000E-02 0. -1.
    5000001    1    1    2    0    0 -0.12225103857E+03  0.82983294122E+02  0.11998157934E+04  0.12155321804E+04  0.12700000000E+03 0.  0.
   -5000001    1    1    2    0    0  0.12225103857E+03 -0.82983294122E+02  0.14905435191E+04  0.15032233785E+04  0.12700000000E+03 0.  0.
<mgrwt>
<rscale>  0 0.39191652E+03</rscale>
<asrwt>0</asrwt>
<pdfrwt beam="1">  1        2 0.38636538E+00 0.39191652E+03</pdfrwt>
<pdfrwt beam="2">  1       -2 0.20283032E-02 0.39191652E+03</pdfrwt>
<totfact> 0.29706703E+03</totfact>
</mgrwt>
</event>
<event>
 4    1  0.9508302E-005  0.4176584E+03  0.7818608E-02  0.1037831E+00
          2   -1    0    0  501    0  0.00000000000E+00  0.00000000000E+00  0.49184298417E+03  0.49184298418E+03  0.25500000000E-02 0.  1.
         -2   -1    0    0    0  501 -0.00000000000E+00 -0.00000000000E+00 -0.88665748652E+02  0.88665748689E+02  0.25500000000E-02 0. -1.
    5000001    1    1    2    0    0  0.14406634981E+03 -0.57042589879E+01  0.31529822786E+03  0.36922841739E+03  0.12700000000E+03 0.  0.
   -5000001    1    1    2    0    0 -0.14406634981E+03  0.57042589879E+01  0.87879007661E+02  0.21128031547E+03  0.12700000000E+03 0.  0.
<mgrwt>
<rscale>  0 0.41765836E+03</rscale>
<asrwt>0</asrwt>
<pdfrwt beam="1">  1        2 0.70263285E-01 0.41765836E+03</pdfrwt>
<pdfrwt beam="2">  1       -2 0.12666535E-01 0.41765836E+03</pdfrwt>
<totfact> 0.31427141E+03</totfact>
</mgrwt>
</event>
<event>
 4    1  0.9508302E-005  0.4762586E+03  0.7818608E-02  0.1020168E+00
         -2   -1    0    0    0  501 -0.00000000000E+00  0.00000000000E+00  0.28730150779E+02  0.28730150892E+02  0.25500000000E-02 0. -1.
          2   -1    0    0  501    0  0.00000000000E+00 -0.00000000000E+00 -0.19737304439E+04  0.19737304439E+04  0.25500000000E-02 0.  1.
    5000001    1    1    2    0    0  0.17743983617E+03  0.73038363271E+02 -0.12302189256E+04  0.12515538754E+04  0.12700000000E+03 0.  0.
   -5000001    1    1    2    0    0 -0.17743983617E+03 -0.73038363271E+02 -0.71478136753E+03  0.75090671946E+03  0.12700000000E+03 0.  0.
<mgrwt>
<rscale>  0 0.47625864E+03</rscale>
<asrwt>0</asrwt>
<pdfrwt beam="1">  1        2 0.28196141E+00 0.47625864E+03</pdfrwt>
<pdfrwt beam="2">  1       -2 0.41043085E-02 0.47625864E+03</pdfrwt>
<totfact> 0.23862478E+03</totfact>
</mgrwt>
</event>
<event>
 4    1  0.9508302E-005  0.2916171E+03  0.7818608E-02  0.1089508E+00
         -2   -1    0    0    0  501 -0.00000000000E+00  0.00000000000E+00  0.28167107190E+02  0.28167107305E+02  0.25500000000E-02 0. -1.
          2   -1    0    0  501    0  0.00000000000E+00 -0.00000000000E+00 -0.75478593466E+03  0.75478593467E+03  0.25500000000E-02 0.  1.
    5000001    1    1    2    0    0 -0.43347045140E+02 -0.45429985406E+02 -0.45586087384E+03  0.47736881569E+03  0.12700000000E+03 0.  0.
   -5000001    1    1    2    0    0  0.43347045140E+02  0.45429985406E+02 -0.27075795363E+03  0.30558422628E+03  0.12700000000E+03 0.  0.
<mgrwt>
<rscale>  0 0.29161712E+03</rscale>
<asrwt>0</asrwt>
<pdfrwt beam="1">  1        2 0.10782655E+00 0.29161712E+03</pdfrwt>
<pdfrwt beam="2">  1       -2 0.40238729E-02 0.29161712E+03</pdfrwt>
<totfact> 0.11393915E+04</totfact>
</mgrwt>
</event>
<event>
 4    1  0.9508302E-005  0.5214919E+03  0.7818608E-02  0.1008317E+00
         -2   -1    0    0    0  501 -0.00000000000E+00  0.00000000000E+00  0.89033281361E+02  0.89033281398E+02  0.25500000000E-02 0. -1.
          2   -1    0    0  501    0  0.00000000000E+00 -0.00000000000E+00 -0.76362953838E+03  0.76362953838E+03  0.25500000000E-02 0.  1.
    5000001    1    1    2    0    0  0.64213208304E+02 -0.19601802890E+03 -0.17950956948E+03  0.30149475834E+03  0.12700000000E+03 0.  0.
   -5000001    1    1    2    0    0 -0.64213208304E+02  0.19601802890E+03 -0.49508668753E+03  0.55116806144E+03  0.12700000000E+03 0.  0.
<mgrwt>
<rscale>  0 0.52149187E+03</rscale>
<asrwt>0</asrwt>
<pdfrwt beam="1">  1        2 0.10908993E+00 0.52149187E+03</pdfrwt>
<pdfrwt beam="2">  1       -2 0.12719041E-01 0.52149187E+03</pdfrwt>
<totfact> 0.18632719E+03</totfact>
</mgrwt>
</event>
<event>
 4    1  0.9508302E-005  0.3584490E+03  0.7818608E-02  0.1059200E+00
         -2   -1    0    0    0  501 -0.00000000000E+00  0.00000000000E+00  0.24354400959E+03  0.24354400960E+03  0.25500000000E-02 0. -1.
          2   -1    0    0  501    0  0.00000000000E+00 -0.00000000000E+00 -0.13189166600E+03  0.13189166602E+03  0.25500000000E-02 0.  1.
    5000001    1    1    2    0    0 -0.11967045355E+03  0.39323920847E+02  0.44114271591E+02  0.18423478814E+03  0.12700000000E+03 0.  0.
   -5000001    1    1    2    0    0  0.11967045355E+03 -0.39323920847E+02  0.67538071999E+02  0.19120088748E+03  0.12700000000E+03 0.  0.
<mgrwt>
<rscale>  0 0.35844902E+03</rscale>
<asrwt>0</asrwt>
<pdfrwt beam="1">  1        2 0.18841667E-01 0.35844902E+03</pdfrwt>
<pdfrwt beam="2">  1       -2 0.34792001E-01 0.35844902E+03</pdfrwt>
<totfact> 0.23247819E+03</totfact>
</mgrwt>
</event>
<event>
 4    1  0.9508302E-005  0.4256099E+03  0.7818608E-02  0.1035256E+00
         -2   -1    0    0    0  501 -0.00000000000E+00  0.00000000000E+00  0.77906067073E+02  0.77906067114E+02  0.25500000000E-02 0. -1.
          2   -1    0    0  501    0  0.00000000000E+00 -0.00000000000E+00 -0.58128922138E+03  0.58128922138E+03  0.25500000000E-02 0.  1.
    5000001    1    1    2    0    0 -0.86873325359E+01  0.17023930743E+03 -0.23619825325E+03  0.31776643369E+03  0.12700000000E+03 0.  0.
   -5000001    1    1    2    0    0  0.86873325359E+01 -0.17023930743E+03 -0.26718490105E+03  0.34142885480E+03  0.12700000000E+03 0.  0.
<mgrwt>
<rscale>  0 0.42560995E+03</rscale>
<asrwt>0</asrwt>
<pdfrwt beam="1">  1        2 0.83041315E-01 0.42560995E+03</pdfrwt>
<pdfrwt beam="2">  1       -2 0.11129438E-01 0.42560995E+03</pdfrwt>
<totfact> 0.32103779E+03</totfact>
</mgrwt>
</event>
<event>
 4    1  0.9508302E-005  0.5439385E+03  0.7818608E-02  0.1002907E+00
         -2   -1    0    0    0  501 -0.00000000000E+00  0.00000000000E+00  0.29015537919E+02  0.29015538031E+02  0.25500000000E-02 0. -1.
          2   -1    0    0  501    0  0.00000000000E+00 -0.00000000000E+00 -0.25492294575E+04  0.25492294575E+04  0.25500000000E-02 0.  1.
    5000001    1    1    2    0    0  0.12880556354E+03  0.18966467923E+03 -0.91585746783E+03  0.95262136504E+03  0.12700000000E+03 0.  0.
   -5000001    1    1    2    0    0 -0.12880556354E+03 -0.18966467923E+03 -0.16043564518E+04  0.16256236305E+04  0.12700000000E+03 0.  0.
<mgrwt>
<rscale>  0 0.54393847E+03</rscale>
<asrwt>0</asrwt>
<pdfrwt beam="1">  1        2 0.36417549E+00 0.54393847E+03</pdfrwt>
<pdfrwt beam="2">  1       -2 0.41450785E-02 0.54393847E+03</pdfrwt>
<totfact> 0.12016146E+03</totfact>
</mgrwt>
</event>
<event>
 4    1  0.9508302E-005  0.4582649E+03  0.7818608E-02  0.1025286E+00
         -2   -1    0    0    0  501 -0.00000000000E+00  0.00000000000E+00  0.36050706055E+02  0.36050706145E+02  0.25500000000E-02 0. -1.
          2   -1    0    0  501    0  0.00000000000E+00 -0.00000000000E+00 -0.14563289368E+04  0.14563289368E+04  0.25500000000E-02 0.  1.
    5000001    1    1    2    0    0 -0.53899866628E+02 -0.17282987135E+03 -0.90546177007E+03  0.93207584300E+03  0.12700000000E+03 0.  0.
   -5000001    1    1    2    0    0  0.53899866628E+02  0.17282987135E+03 -0.51481646072E+03  0.56030379998E+03  0.12700000000E+03 0.  0.
<mgrwt>
<rscale>  0 0.45826493E+03</rscale>
<asrwt>0</asrwt>
<pdfrwt beam="1">  1        2 0.20804695E+00 0.45826493E+03</pdfrwt>
<pdfrwt beam="2">  1       -2 0.51501018E-02 0.45826493E+03</pdfrwt>
<totfact> 0.30748297E+03</totfact>
</mgrwt>
</event>
<event>
 4    1  0.9508302E-005  0.5543954E+03  0.7818608E-02  0.1000482E+00
          2   -1    0    0  501    0  0.00000000000E+00  0.00000000000E+00  0.30722187649E+04  0.30722187649E+04  0.25500000000E-02 0.  1.
         -2   -1    0    0    0  501 -0.00000000000E+00 -0.00000000000E+00 -0.25010775153E+02  0.25010775283E+02  0.25500000000E-02 0. -1.
    5000001    1    1    2    0    0 -0.79274299256E+02  0.21843099753E+03  0.19813388074E+04  0.19989569742E+04  0.12700000000E+03 0.  0.
   -5000001    1    1    2    0    0  0.79274299256E+02 -0.21843099753E+03  0.10658691824E+04  0.10982725659E+04  0.12700000000E+03 0.  0.
<mgrwt>
<rscale>  0 0.55439543E+03</rscale>
<asrwt>0</asrwt>
<pdfrwt beam="1">  1        2 0.43888845E+00 0.55439543E+03</pdfrwt>
<pdfrwt beam="2">  1       -2 0.35729674E-02 0.55439543E+03</pdfrwt>
<totfact> 0.79646723E+02</totfact>
</mgrwt>
</event>
<event>
 4    1  0.9508302E-005  0.4105909E+03  0.7818608E-02  0.1040173E+00
          2   -1    0    0  501    0  0.00000000000E+00  0.00000000000E+00  0.41393893527E+03  0.41393893528E+03  0.25500000000E-02 0.  1.
         -2   -1    0    0    0  501 -0.00000000000E+00 -0.00000000000E+00 -0.10181747783E+03  0.10181747786E+03  0.25500000000E-02 0. -1.
    5000001    1    1    2    0    0  0.73130472310E+02 -0.40199022569E+02  0.32944879175E+03  0.36280784691E+03  0.12700000000E+03 0.  0.
   -5000001    1    1    2    0    0 -0.73130472310E+02  0.40199022569E+02 -0.17327334306E+02  0.15294856622E+03  0.12700000000E+03 0.  0.
<mgrwt>
<rscale>  0 0.41059088E+03</rscale>
<asrwt>0</asrwt>
<pdfrwt beam="1">  1        2 0.59134133E-01 0.41059088E+03</pdfrwt>
<pdfrwt beam="2">  1       -2 0.14545354E-01 0.41059088E+03</pdfrwt>
<totfact> 0.30273636E+03</totfact>
</mgrwt>
</event>
<event>
 4    1  0.9508302E-005  0.4041515E+03  0.7818608E-02  0.1042352E+00
         -2   -1    0    0    0  501 -0.00000000000E+00  0.00000000000E+00  0.65107050087E+02  0.65107050137E+02  0.25500000000E-02 0. -1.
          2   -1    0    0  501    0  0.00000000000E+00 -0.00000000000E+00 -0.62719195659E+03  0.62719195660E+03  0.25500000000E-02 0.  1.
    5000001    1    1    2    0    0  0.36749229319E+02 -0.11761361535E+03 -0.11388837861E+03  0.21043533723E+03  0.12700000000E+03 0.  0.
   -5000001    1    1    2    0    0 -0.36749229319E+02  0.11761361535E+03 -0.44819652790E+03  0.48186366951E+03  0.12700000000E+03 0.  0.
<mgrwt>
<rscale>  0 0.40415155E+03</rscale>
<asrwt>0</asrwt>
<pdfrwt beam="1">  1        2 0.89598847E-01 0.40415155E+03</pdfrwt>
<pdfrwt beam="2">  1       -2 0.93010075E-02 0.40415155E+03</pdfrwt>
<totfact> 0.39197375E+03</totfact>
</mgrwt>
</event>
<event>
 4    1  0.9508302E-005  0.3149422E+03  0.7818608E-02  0.1078001E+00
         -2   -1    0    0    0  501 -0.00000000000E+00  0.00000000000E+00  0.32510579104E+02  0.32510579204E+02  0.25500000000E-02 0. -1.
          2   -1    0    0  501    0  0.00000000000E+00 -0.00000000000E+00 -0.76274086860E+03  0.76274086861E+03  0.25500000000E-02 0.  1.
    5000001    1    1    2    0    0 -0.81313354814E+02 -0.37989516829E+01 -0.25101507239E+03  0.29285467432E+03  0.12700000000E+03 0.  0.
   -5000001    1    1    2    0    0  0.81313354814E+02  0.37989516829E+01 -0.47921521711E+03  0.50239677349E+03  0.12700000000E+03 0.  0.
<mgrwt>
<rscale>  0 0.31494220E+03</rscale>
<asrwt>0</asrwt>
<pdfrwt beam="1">  1        2 0.10896297E+00 0.31494220E+03</pdfrwt>
<pdfrwt beam="2">  1       -2 0.46443689E-02 0.31494220E+03</pdfrwt>
<totfact> 0.90777445E+03</totfact>
</mgrwt>
</event>
<event>
 4    1  0.9508302E-005  0.2736229E+03  0.7818608E-02  0.1099224E+00
          2   -1    0    0  501    0  0.00000000000E+00  0.00000000000E+00  0.12806882818E+03  0.12806882820E+03  0.25500000000E-02 0.  1.
         -2   -1    0    0    0  501 -0.00000000000E+00 -0.00000000000E+00 -0.14615085390E+03  0.14615085392E+03  0.25500000000E-02 0. -1.
    5000001    1    1    2    0    0 -0.31515856414E+02  0.30105776770E+02 -0.35342523610E+02  0.13884416075E+03  0.12700000000E+03 0.  0.
   -5000001    1    1    2    0    0  0.31515856414E+02 -0.30105776770E+02  0.17260497887E+02  0.13537552138E+03  0.12700000000E+03 0.  0.
<mgrwt>
<rscale>  0 0.27362287E+03</rscale>
<asrwt>0</asrwt>
<pdfrwt beam="1">  1        2 0.18295547E-01 0.27362287E+03</pdfrwt>
<pdfrwt beam="2">  1       -2 0.20878693E-01 0.27362287E+03</pdfrwt>
<totfact> 0.59624077E+03</totfact>
</mgrwt>
</event>
<event>
 4    1  0.9508302E-005  0.5692477E+03  0.7818608E-02  0.9971345E-01
         -2   -1    0    0    0  501 -0.00000000000E+00  0.00000000000E+00  0.27825055474E+02  0.27825055591E+02  0.25500000000E-02 0. -1.
          2   -1    0    0  501    0  0.00000000000E+00 -0.00000000000E+00 -0.29114310960E+04  0.29114310960E+04  0.25500000000E-02 0.  1.
    5000001    1    1    2    0    0 -0.15755952935E+03 -0.16882576087E+03 -0.88677690880E+03  0.92511049545E+03  0.12700000000E+03 0.  0.
   -5000001    1    1    2    0    0  0.15755952935E+03  0.16882576087E+03 -0.19968291317E+04  0.20141456561E+04  0.12700000000E+03 0.  0.
<mgrwt>
<rscale>  0 0.56924769E+03</rscale>
<asrwt>0</asrwt>
<pdfrwt beam="1">  1        2 0.41591853E+00 0.56924769E+03</pdfrwt>
<pdfrwt beam="2">  1       -2 0.39750098E-02 0.56924769E+03</pdfrwt>
<totfact> 0.82583669E+02</totfact>
</mgrwt>
</event>
<event>
 4    1  0.9508302E-005  0.5195769E+03  0.7818608E-02  0.1008792E+00
         -2   -1    0    0    0  501 -0.00000000000E+00  0.00000000000E+00  0.33424395103E+03  0.33424395104E+03  0.25500000000E-02 0. -1.
          2   -1    0    0  501    0  0.00000000000E+00 -0.00000000000E+00 -0.20191847967E+03  0.20191847968E+03  0.25500000000E-02 0.  1.
    5000001    1    1    2    0    0  0.59868763248E+02 -0.21798299206E+03  0.82807622691E+02  0.27218919159E+03  0.12700000000E+03 0.  0.
   -5000001    1    1    2    0    0 -0.59868763248E+02  0.21798299206E+03  0.49517848675E+02  0.26397323914E+03  0.12700000000E+03 0.  0.
<mgrwt>
<rscale>  0 0.51957687E+03</rscale>
<asrwt>0</asrwt>
<pdfrwt beam="1">  1        2 0.28845497E-01 0.51957687E+03</pdfrwt>
<pdfrwt beam="2">  1       -2 0.47749136E-01 0.51957687E+03</pdfrwt>
<totfact> 0.77686541E+02</totfact>
</mgrwt>
</event>
<event>
 4    1  0.9508302E-005  0.3075561E+03  0.7818608E-02  0.1081523E+00
          2   -1    0    0  501    0  0.00000000000E+00  0.00000000000E+00  0.66341121373E+03  0.66341121373E+03  0.25500000000E-02 0.  1.
         -2   -1    0    0    0  501 -0.00000000000E+00 -0.00000000000E+00 -0.35645605994E+02  0.35645606085E+02  0.25500000000E-02 0. -1.
    5000001    1    1    2    0    0 -0.33719295966E+02  0.69038388964E+02  0.40523705179E+03  0.43156616898E+03  0.12700000000E+03 0.  0.
   -5000001    1    1    2    0    0  0.33719295966E+02 -0.69038388964E+02  0.22252855595E+03  0.26749065083E+03  0.12700000000E+03 0.  0.
<mgrwt>
<rscale>  0 0.30755614E+03</rscale>
<asrwt>0</asrwt>
<pdfrwt beam="1">  1        2 0.94773016E-01 0.30755614E+03</pdfrwt>
<pdfrwt beam="2">  1       -2 0.50922302E-02 0.30755614E+03</pdfrwt>
<totfact> 0.93198491E+03</totfact>
</mgrwt>
</event>
<event>
 4    1  0.9508302E-005  0.7390811E+03  0.7818608E-02  0.9652638E-01
         -2   -1    0    0    0  501 -0.00000000000E+00  0.00000000000E+00  0.58094900509E+03  0.58094900509E+03  0.25500000000E-02 0. -1.
          2   -1    0    0  501    0  0.00000000000E+00 -0.00000000000E+00 -0.23506402030E+03  0.23506402031E+03  0.25500000000E-02 0.  1.
    5000001    1    1    2    0    0 -0.33256411644E+03 -0.57689817505E+02  0.26198595186E+03  0.44574953231E+03  0.12700000000E+03 0.  0.
   -5000001    1    1    2    0    0  0.33256411644E+03  0.57689817505E+02  0.83899032931E+02  0.37026349309E+03  0.12700000000E+03 0.  0.
<mgrwt>
<rscale>  0 0.73908107E+03</rscale>
<asrwt>0</asrwt>
<pdfrwt beam="1">  1        2 0.33580574E-01 0.73908107E+03</pdfrwt>
<pdfrwt beam="2">  1       -2 0.82992715E-01 0.73908107E+03</pdfrwt>
<totfact> 0.20110850E+02</totfact>
</mgrwt>
</event>
<event>
 4    1  0.9508302E-005  0.3785991E+03  0.7818608E-02  0.1051453E+00
          2   -1    0    0  501    0  0.00000000000E+00  0.00000000000E+00  0.64929075691E+02  0.64929075741E+02  0.25500000000E-02 0.  1.
         -2   -1    0    0    0  501 -0.00000000000E+00 -0.00000000000E+00 -0.55189950521E+03  0.55189950521E+03  0.25500000000E-02 0. -1.
    5000001    1    1    2    0    0  0.12503098898E+03  0.63131649684E+02 -0.25867924662E+03  0.32040959103E+03  0.12700000000E+03 0.  0.
   -5000001    1    1    2    0    0 -0.12503098898E+03 -0.63131649684E+02 -0.22829118290E+03  0.29641898992E+03  0.12700000000E+03 0.  0.
<mgrwt>
<rscale>  0 0.37859913E+03</rscale>
<asrwt>0</asrwt>
<pdfrwt beam="1">  1        2 0.92755825E-02 0.37859913E+03</pdfrwt>
<pdfrwt beam="2">  1       -2 0.78842784E-01 0.37859913E+03</pdfrwt>
<totfact> 0.10437582E+03</totfact>
</mgrwt>
</event>
<event>
 4    1  0.9508302E-005  0.8338145E+03  0.7818608E-02  0.9512322E-01
          2   -1    0    0  501    0  0.00000000000E+00  0.00000000000E+00  0.11451878014E+04  0.11451878014E+04  0.25500000000E-02 0.  1.
         -2   -1    0    0    0  501 -0.00000000000E+00 -0.00000000000E+00 -0.15177567548E+03  0.15177567550E+03  0.25500000000E-02 0. -1.
    5000001    1    1    2    0    0 -0.36237566256E+03 -0.16222866756E+03  0.50752636565E+03  0.65676957391E+03  0.12700000000E+03 0.  0.
   -5000001    1    1    2    0    0  0.36237566256E+03  0.16222866756E+03  0.48588576026E+03  0.64019390298E+03  0.12700000000E+03 0.  0.
<mgrwt>
<rscale>  0 0.83381449E+03</rscale>
<asrwt>0</asrwt>
<pdfrwt beam="1">  1        2 0.16359826E+00 0.83381449E+03</pdfrwt>
<pdfrwt beam="2">  1       -2 0.21682238E-01 0.83381449E+03</pdfrwt>
<totfact> 0.42621978E+02</totfact>
</mgrwt>
</event>
<event>
 4    1  0.9508302E-005  0.4143647E+03  0.7818608E-02  0.1038916E+00
         -2   -1    0    0    0  501 -0.00000000000E+00  0.00000000000E+00  0.32441443869E+02  0.32441443970E+02  0.25500000000E-02 0. -1.
          2   -1    0    0  501    0  0.00000000000E+00 -0.00000000000E+00 -0.13231388429E+04  0.13231388429E+04  0.25500000000E-02 0.  1.
    5000001    1    1    2    0    0 -0.40199372966E+02 -0.82284461223E+02 -0.20147916493E+03  0.25516578150E+03  0.12700000000E+03 0.  0.
   -5000001    1    1    2    0    0  0.40199372966E+02  0.82284461223E+02 -0.10892182340E+04  0.11004145053E+04  0.12700000000E+03 0.  0.
<mgrwt>
<rscale>  0 0.41436474E+03</rscale>
<asrwt>0</asrwt>
<pdfrwt beam="1">  1        2 0.18901980E+00 0.41436474E+03</pdfrwt>
<pdfrwt beam="2">  1       -2 0.46344928E-02 0.41436474E+03</pdfrwt>
<totfact> 0.42490428E+03</totfact>
</mgrwt>
</event>
<event>
 4    1  0.9508302E-005  0.6958293E+03  0.7818608E-02  0.9724391E-01
          2   -1    0    0  501    0  0.00000000000E+00  0.00000000000E+00  0.42847688652E+03  0.42847688653E+03  0.25500000000E-02 0. -1.
         -2   -1    0    0    0  501 -0.00000000000E+00 -0.00000000000E+00 -0.28249970713E+03  0.28249970714E+03  0.25500000000E-02 0.  1.
    5000001    1    1    2    0    0 -0.22921981280E+03 -0.13480953136E+03  0.26194747901E+03  0.39428519385E+03  0.12700000000E+03 0.  0.
   -5000001    1    1    2    0    0  0.22921981280E+03  0.13480953136E+03 -0.11597029962E+03  0.31669139982E+03  0.12700000000E+03 0.  0.
<mgrwt>
<rscale>  0 0.69582927E+03</rscale>
<asrwt>0</asrwt>
<pdfrwt beam="1">  1        2 0.61210984E-01 0.69582927E+03</pdfrwt>
<pdfrwt beam="2">  1       -2 0.40357101E-01 0.69582927E+03</pdfrwt>
<totfact> 0.46830423E+02</totfact>
</mgrwt>
</event>
<event>
 4    1  0.9508302E-005  0.2830008E+03  0.7818608E-02  0.1094061E+00
         -2   -1    0    0    0  501 -0.00000000000E+00  0.00000000000E+00  0.78456599893E+01  0.78456604037E+01  0.25500000000E-02 0.  1.
          2   -1    0    0  501    0  0.00000000000E+00 -0.00000000000E+00 -0.25520299438E+04  0.25520299438E+04  0.25500000000E-02 0. -1.
    5000001    1    1    2    0    0  0.29871024909E+02  0.36015617704E+02 -0.16454802990E+04  0.16510371944E+04  0.12700000000E+03 0.  0.
   -5000001    1    1    2    0    0 -0.29871024909E+02 -0.36015617704E+02 -0.89870398476E+03  0.90883840977E+03  0.12700000000E+03 0.  0.
<mgrwt>
<rscale>  0 0.28300078E+03</rscale>
<asrwt>0</asrwt>
<pdfrwt beam="1">  1        2 0.36457518E+00 0.28300078E+03</pdfrwt>
<pdfrwt beam="2">  1       -2 0.11208102E-02 0.28300078E+03</pdfrwt>
<totfact> 0.85295913E+03</totfact>
</mgrwt>
</event>
<event>
 4    1  0.9508302E-005  0.8388618E+03  0.7818608E-02  0.9505409E-01
         -2   -1    0    0    0  501 -0.00000000000E+00  0.00000000000E+00  0.79759925727E+03  0.79759925728E+03  0.25500000000E-02 0. -1.
          2   -1    0    0  501    0  0.00000000000E+00 -0.00000000000E+00 -0.22056472467E+03  0.22056472469E+03  0.25500000000E-02 0.  1.
    5000001    1    1    2    0    0  0.11155084088E+03  0.34410833839E+03  0.49499347175E+03  0.62610037192E+03  0.12700000000E+03 0.  0.
   -5000001    1    1    2    0    0 -0.11155084088E+03 -0.34410833839E+03  0.82041060853E+02  0.39206361004E+03  0.12700000000E+03 0.  0.
<mgrwt>
<rscale>  0 0.83886175E+03</rscale>
<asrwt>0</asrwt>
<pdfrwt beam="1">  1        2 0.31509246E-01 0.83886175E+03</pdfrwt>
<pdfrwt beam="2">  1       -2 0.11394275E+00 0.83886175E+03</pdfrwt>
<totfact> 0.10212864E+02</totfact>
</mgrwt>
</event>
<event>
 4    1  0.9508302E-005  0.4250146E+03  0.7818608E-02  0.1035446E+00
         -2   -1    0    0    0  501 -0.00000000000E+00  0.00000000000E+00  0.63647509183E+02  0.63647509234E+02  0.25500000000E-02 0. -1.
          2   -1    0    0  501    0  0.00000000000E+00 -0.00000000000E+00 -0.70952272971E+03  0.70952272971E+03  0.25500000000E-02 0.  1.
    5000001    1    1    2    0    0  0.93029572069E+02  0.14195890250E+03 -0.29573988564E+03  0.36386523774E+03  0.12700000000E+03 0.  0.
   -5000001    1    1    2    0    0 -0.93029572069E+02 -0.14195890250E+03 -0.35013533488E+03  0.40930500121E+03  0.12700000000E+03 0.  0.
<mgrwt>
<rscale>  0 0.42501461E+03</rscale>
<asrwt>0</asrwt>
<pdfrwt beam="1">  1        2 0.10136039E+00 0.42501461E+03</pdfrwt>
<pdfrwt beam="2">  1       -2 0.90925017E-02 0.42501461E+03</pdfrwt>
<totfact> 0.35112768E+03</totfact>
</mgrwt>
</event>
<event>
 4    1  0.9508302E-005  0.4427531E+03  0.7818608E-02  0.1029905E+00
         -2   -1    0    0    0  501 -0.00000000000E+00  0.00000000000E+00  0.22891296109E+03  0.22891296110E+03  0.25500000000E-02 0. -1.
          2   -1    0    0  501    0  0.00000000000E+00 -0.00000000000E+00 -0.21408824329E+03  0.21408824330E+03  0.25500000000E-02 0.  1.
    5000001    1    1    2    0    0 -0.35989794402E+02 -0.17377578951E+03 -0.29827894204E+02  0.22025438382E+03  0.12700000000E+03 0.  0.
   -5000001    1    1    2    0    0  0.35989794402E+02  0.17377578951E+03  0.44652612007E+02  0.22274682058E+03  0.12700000000E+03 0.  0.
<mgrwt>
<rscale>  0 0.44275309E+03</rscale>
<asrwt>0</asrwt>
<pdfrwt beam="1">  1        2 0.30584035E-01 0.44275309E+03</pdfrwt>
<pdfrwt beam="2">  1       -2 0.32701852E-01 0.44275309E+03</pdfrwt>
<totfact> 0.15098345E+03</totfact>
</mgrwt>
</event>
<event>
 4    1  0.9508302E-005  0.3315937E+03  0.7818608E-02  0.1070434E+00
          2   -1    0    0  501    0  0.00000000000E+00  0.00000000000E+00  0.29971654441E+03  0.29971654442E+03  0.25500000000E-02 0.  1.
         -2   -1    0    0    0  501 -0.00000000000E+00 -0.00000000000E+00 -0.91715282899E+02  0.91715282934E+02  0.25500000000E-02 0. -1.
    5000001    1    1    2    0    0  0.52384988136E+02 -0.90928245604E+02  0.81996758858E+02  0.18402337160E+03  0.12700000000E+03 0.  0.
   -5000001    1    1    2    0    0 -0.52384988136E+02  0.90928245604E+02  0.12600450265E+03  0.20740845576E+03  0.12700000000E+03 0.  0.
<mgrwt>
<rscale>  0 0.33159365E+03</rscale>
<asrwt>0</asrwt>
<pdfrwt beam="1">  1        2 0.42816650E-01 0.33159365E+03</pdfrwt>
<pdfrwt beam="2">  1       -2 0.13102183E-01 0.33159365E+03</pdfrwt>
<totfact> 0.50888577E+03</totfact>
</mgrwt>
</event>
<event>
 4    1  0.9508302E-005  0.3088428E+03  0.7818608E-02  0.1080902E+00
         -2   -1    0    0    0  501 -0.00000000000E+00  0.00000000000E+00  0.39826208563E+02  0.39826208645E+02  0.25500000000E-02 0. -1.
          2   -1    0    0  501    0  0.00000000000E+00 -0.00000000000E+00 -0.59875073002E+03  0.59875073003E+03  0.25500000000E-02 0.  1.
    5000001    1    1    2    0    0 -0.38588783670E+00 -0.76005839270E+02 -0.37053099705E+03  0.39899781489E+03  0.12700000000E+03 0.  0.
   -5000001    1    1    2    0    0  0.38588783670E+00  0.76005839270E+02 -0.18839352441E+03  0.23957912378E+03  0.12700000000E+03 0.  0.
<mgrwt>
<rscale>  0 0.30884282E+03</rscale>
<asrwt>0</asrwt>
<pdfrwt beam="1">  1        2 0.85535813E-01 0.30884282E+03</pdfrwt>
<pdfrwt beam="2">  1       -2 0.56894587E-02 0.30884282E+03</pdfrwt>
<totfact> 0.88604073E+03</totfact>
</mgrwt>
</event>
<event>
 4    1  0.9508302E-005  0.8260457E+03  0.7818608E-02  0.9523064E-01
          2   -1    0    0  501    0  0.00000000000E+00  0.00000000000E+00  0.15027105218E+04  0.15027105219E+04  0.25500000000E-02 0.  1.
         -2   -1    0    0    0  501 -0.00000000000E+00 -0.00000000000E+00 -0.11352010728E+03  0.11352010731E+03  0.25500000000E-02 0. -1.
    5000001    1    1    2    0    0 -0.19225237418E+03 -0.10974134127E+03  0.59217031767E+02  0.26199197357E+03  0.12700000000E+03 0.  0.
   -5000001    1    1    2    0    0  0.19225237418E+03  0.10974134127E+03  0.13299733828E+04  0.13542386556E+04  0.12700000000E+03 0.  0.
<mgrwt>
<rscale>  0 0.82604566E+03</rscale>
<asrwt>0</asrwt>
<pdfrwt beam="1">  1        2 0.21467292E+00 0.82604566E+03</pdfrwt>
<pdfrwt beam="2">  1       -2 0.16217159E-01 0.82604566E+03</pdfrwt>
<totfact> 0.44971594E+02</totfact>
</mgrwt>
</event>
<event>
 4    1  0.9508302E-005  0.3810632E+03  0.7818608E-02  0.1050541E+00
          2   -1    0    0  501    0  0.00000000000E+00  0.00000000000E+00  0.31043123263E+04  0.31043123263E+04  0.25500000000E-02 0.  1.
         -2   -1    0    0    0  501 -0.00000000000E+00 -0.00000000000E+00 -0.11694148826E+02  0.11694149105E+02  0.25500000000E-02 0. -1.
    5000001    1    1    2    0    0  0.90038373882E+02 -0.10842030098E+03  0.14020062640E+04  0.14147835293E+04  0.12700000000E+03 0.  0.
   -5000001    1    1    2    0    0 -0.90038373882E+02  0.10842030098E+03  0.16906119135E+04  0.17012229461E+04  0.12700000000E+03 0.  0.
<mgrwt>
<rscale>  0 0.38106320E+03</rscale>
<asrwt>0</asrwt>
<pdfrwt beam="1">  1        2 0.44347325E+00 0.38106320E+03</pdfrwt>
<pdfrwt beam="2">  1       -2 0.16705925E-02 0.38106320E+03</pdfrwt>
<totfact> 0.24349598E+03</totfact>
</mgrwt>
</event>
<event>
 4    1  0.9508302E-005  0.5143017E+03  0.7818608E-02  0.1010112E+00
         -2   -1    0    0    0  501 -0.00000000000E+00  0.00000000000E+00  0.16375396395E+03  0.16375396397E+03  0.25500000000E-02 0. -1.
          2   -1    0    0  501    0  0.00000000000E+00 -0.00000000000E+00 -0.40381658405E+03  0.40381658406E+03  0.25500000000E-02 0.  1.
    5000001    1    1    2    0    0 -0.43131259336E+02  0.20537438478E+03 -0.34844016649E+02  0.24775400896E+03  0.12700000000E+03 0.  0.
   -5000001    1    1    2    0    0  0.43131259336E+02 -0.20537438478E+03 -0.20521860346E+03  0.31981653907E+03  0.12700000000E+03 0.  0.
<mgrwt>
<rscale>  0 0.51430173E+03</rscale>
<asrwt>0</asrwt>
<pdfrwt beam="1">  1        2 0.57688083E-01 0.51430173E+03</pdfrwt>
<pdfrwt beam="2">  1       -2 0.23393424E-01 0.51430173E+03</pdfrwt>
<totfact> 0.13798824E+03</totfact>
</mgrwt>
</event>
<event>
 4    1  0.9508302E-005  0.2976057E+03  0.7818608E-02  0.1086444E+00
          2   -1    0    0  501    0  0.00000000000E+00  0.00000000000E+00  0.11089201084E+03  0.11089201087E+03  0.25500000000E-02 0. -1.
         -2   -1    0    0    0  501 -0.00000000000E+00 -0.00000000000E+00 -0.19967427434E+03  0.19967427436E+03  0.25500000000E-02 0.  1.
    5000001    1    1    2    0    0  0.42365307290E+02 -0.54839883414E+02 -0.80706806097E+02  0.16566478390E+03  0.12700000000E+03 0.  0.
   -5000001    1    1    2    0    0 -0.42365307290E+02  0.54839883414E+02 -0.80754574070E+01  0.14490150133E+03  0.12700000000E+03 0.  0.
<mgrwt>
<rscale>  0 0.29760566E+03</rscale>
<asrwt>0</asrwt>
<pdfrwt beam="1">  1        2 0.15841716E-01 0.29760566E+03</pdfrwt>
<pdfrwt beam="2">  1       -2 0.28524896E-01 0.29760566E+03</pdfrwt>
<totfact> 0.40850326E+03</totfact>
</mgrwt>
</event>
<event>
 4    1  0.9508302E-005  0.4320641E+03  0.7818608E-02  0.1033210E+00
          2   -1    0    0  501    0  0.00000000000E+00  0.00000000000E+00  0.17552732712E+04  0.17552732712E+04  0.25500000000E-02 0.  1.
         -2   -1    0    0    0  501 -0.00000000000E+00 -0.00000000000E+00 -0.26588365968E+02  0.26588366090E+02  0.25500000000E-02 0. -1.
    5000001    1    1    2    0    0 -0.13382579812E+03  0.11237938067E+03  0.85798178899E+03  0.88475997857E+03  0.12700000000E+03 0.  0.
   -5000001    1    1    2    0    0  0.13382579812E+03 -0.11237938067E+03  0.87070311619E+03  0.89710165867E+03  0.12700000000E+03 0.  0.
<mgrwt>
<rscale>  0 0.43206411E+03</rscale>
<asrwt>0</asrwt>
<pdfrwt beam="1">  1        2 0.25075344E+00 0.43206411E+03</pdfrwt>
<pdfrwt beam="2">  1       -2 0.37983362E-02 0.43206411E+03</pdfrwt>
<totfact> 0.34550960E+03</totfact>
</mgrwt>
</event>
<event>
 4    1  0.9508302E-005  0.3192281E+03  0.7818608E-02  0.1076005E+00
          2   -1    0    0  501    0  0.00000000000E+00  0.00000000000E+00  0.16285818885E+03  0.16285818887E+03  0.25500000000E-02 0.  1.
         -2   -1    0    0    0  501 -0.00000000000E+00 -0.00000000000E+00 -0.15643453319E+03  0.15643453321E+03  0.25500000000E-02 0. -1.
    5000001    1    1    2    0    0  0.79669579321E+02 -0.35156096322E+02 -0.38802053545E+02  0.15880110937E+03  0.12700000000E+03 0.  0.
   -5000001    1    1    2    0    0 -0.79669579321E+02  0.35156096322E+02  0.45225709204E+02  0.16049161271E+03  0.12700000000E+03 0.  0.
<mgrwt>
<rscale>  0 0.31922810E+03</rscale>
<asrwt>0</asrwt>
<pdfrwt beam="1">  1        2 0.23265456E-01 0.31922810E+03</pdfrwt>
<pdfrwt beam="2">  1       -2 0.22347790E-01 0.31922810E+03</pdfrwt>
<totfact> 0.40469992E+03</totfact>
</mgrwt>
</event>
<event>
 4    1  0.9508302E-005  0.5614753E+03  0.7818608E-02  0.9988722E-01
         -2   -1    0    0    0  501 -0.00000000000E+00  0.00000000000E+00  0.31201165392E+02  0.31201165496E+02  0.25500000000E-02 0. -1.
          2   -1    0    0  501    0  0.00000000000E+00 -0.00000000000E+00 -0.25259830356E+04  0.25259830356E+04  0.25500000000E-02 0.  1.
    5000001    1    1    2    0    0 -0.16340475223E+03  0.43014080698E+02 -0.20888257397E+04  0.20994935806E+04  0.12700000000E+03 0.  0.
   -5000001    1    1    2    0    0  0.16340475223E+03 -0.43014080698E+02 -0.40595613055E+03  0.45769062053E+03  0.12700000000E+03 0.  0.
<mgrwt>
<rscale>  0 0.56147525E+03</rscale>
<asrwt>0</asrwt>
<pdfrwt beam="1">  1        2 0.36085459E+00 0.56147525E+03</pdfrwt>
<pdfrwt beam="2">  1       -2 0.44573109E-02 0.56147525E+03</pdfrwt>
<totfact> 0.11031517E+03</totfact>
</mgrwt>
</event>
<event>
 4    1  0.9508302E-005  0.3010576E+03  0.7818608E-02  0.1084713E+00
         -2   -1    0    0    0  501 -0.00000000000E+00  0.00000000000E+00  0.10104451238E+03  0.10104451242E+03  0.25500000000E-02 0. -1.
          2   -1    0    0  501    0  0.00000000000E+00 -0.00000000000E+00 -0.22424695769E+03  0.22424695771E+03  0.25500000000E-02 0.  1.
    5000001    1    1    2    0    0  0.53693653439E+01  0.79712119304E+02 -0.74704764552E+02  0.16760863312E+03  0.12700000000E+03 0.  0.
   -5000001    1    1    2    0    0 -0.53693653439E+01 -0.79712119304E+02 -0.48497680757E+02  0.15768283701E+03  0.12700000000E+03 0.  0.
<mgrwt>
<rscale>  0 0.30105763E+03</rscale>
<asrwt>0</asrwt>
<pdfrwt beam="1">  1        2 0.32035280E-01 0.30105763E+03</pdfrwt>
<pdfrwt beam="2">  1       -2 0.14434930E-01 0.30105763E+03</pdfrwt>
<totfact> 0.59325824E+03</totfact>
</mgrwt>
</event>
<event>
 4    1  0.9508302E-005  0.2710198E+03  0.7818608E-02  0.1100697E+00
          2   -1    0    0  501    0  0.00000000000E+00  0.00000000000E+00  0.25208261001E+03  0.25208261002E+03  0.25500000000E-02 0.  1.
         -2   -1    0    0    0  501 -0.00000000000E+00 -0.00000000000E+00 -0.72844884875E+02  0.72844884920E+02  0.25500000000E-02 0. -1.
    5000001    1    1    2    0    0  0.39394004318E+02 -0.40010436058E+01  0.12055978787E+03  0.17953149690E+03  0.12700000000E+03 0.  0.
   -5000001    1    1    2    0    0 -0.39394004318E+02  0.40010436058E+01  0.58677937261E+02  0.14539599804E+03  0.12700000000E+03 0.  0.
<mgrwt>
<rscale>  0 0.27101977E+03</rscale>
<asrwt>0</asrwt>
<pdfrwt beam="1">  1        2 0.36011801E-01 0.27101977E+03</pdfrwt>
<pdfrwt beam="2">  1       -2 0.10406412E-01 0.27101977E+03</pdfrwt>
<totfact> 0.88394288E+03</totfact>
</mgrwt>
</event>
<event>
 4    1  0.9508302E-005  0.5152966E+03  0.7818608E-02  0.1009862E+00
          2   -1    0    0  501    0  0.00000000000E+00  0.00000000000E+00  0.24271213619E+04  0.24271213619E+04  0.25500000000E-02 0.  1.
         -2   -1    0    0    0  501 -0.00000000000E+00 -0.00000000000E+00 -0.27350364211E+02  0.27350364330E+02  0.25500000000E-02 0. -1.
    5000001    1    1    2    0    0 -0.17311167753E+03 -0.11769186705E+03  0.15819725787E+04  0.16008076924E+04  0.12700000000E+03 0.  0.
   -5000001    1    1    2    0    0  0.17311167753E+03  0.11769186705E+03  0.81779841903E+03  0.85366403382E+03  0.12700000000E+03 0.  0.
<mgrwt>
<rscale>  0 0.51529663E+03</rscale>
<asrwt>0</asrwt>
<pdfrwt beam="1">  1        2 0.34673151E+00 0.51529663E+03</pdfrwt>
<pdfrwt beam="2">  1       -2 0.39071962E-02 0.51529663E+03</pdfrwt>
<totfact> 0.15215197E+03</totfact>
</mgrwt>
</event>
<event>
 4    1  0.9508302E-005  0.3243546E+03  0.7818608E-02  0.1073662E+00
          2   -1    0    0  501    0  0.00000000000E+00  0.00000000000E+00  0.20155278703E+04  0.20155278703E+04  0.25500000000E-02 0.  1.
         -2   -1    0    0    0  501 -0.00000000000E+00 -0.00000000000E+00 -0.13049422917E+02  0.13049423166E+02  0.25500000000E-02 0. -1.
    5000001    1    1    2    0    0 -0.89619443218E+02 -0.34286207335E+02  0.11955512957E+04  0.12061007791E+04  0.12700000000E+03 0.  0.
   -5000001    1    1    2    0    0  0.89619443218E+02  0.34286207335E+02  0.80692715169E+03  0.82247651440E+03  0.12700000000E+03 0.  0.
<mgrwt>
<rscale>  0 0.32435460E+03</rscale>
<asrwt>0</asrwt>
<pdfrwt beam="1">  1        2 0.28793234E+00 0.32435460E+03</pdfrwt>
<pdfrwt beam="2">  1       -2 0.18642047E-02 0.32435460E+03</pdfrwt>
<totfact> 0.74555417E+03</totfact>
</mgrwt>
</event>
<event>
 4    1  0.9508302E-005  0.3283075E+03  0.7818608E-02  0.1071888E+00
         -2   -1    0    0    0  501 -0.00000000000E+00  0.00000000000E+00  0.16493372640E+02  0.16493372837E+02  0.25500000000E-02 0. -1.
          2   -1    0    0  501    0  0.00000000000E+00 -0.00000000000E+00 -0.16337741560E+04  0.16337741560E+04  0.25500000000E-02 0.  1.
    5000001    1    1    2    0    0  0.32299657706E+02 -0.74933589436E+02 -0.11328121235E+04  0.11428257164E+04  0.12700000000E+03 0.  0.
   -5000001    1    1    2    0    0 -0.32299657706E+02  0.74933589436E+02 -0.48446865984E+03  0.50744181251E+03  0.12700000000E+03 0.  0.
<mgrwt>
<rscale>  0 0.32830745E+03</rscale>
<asrwt>0</asrwt>
<pdfrwt beam="1">  1        2 0.23339621E+00 0.32830745E+03</pdfrwt>
<pdfrwt beam="2">  1       -2 0.23561971E-02 0.32830745E+03</pdfrwt>
<totfact> 0.81345205E+03</totfact>
</mgrwt>
</event>
<event>
 4    1  0.9508302E-005  0.4304542E+03  0.7818608E-02  0.1033717E+00
         -2   -1    0    0    0  501 -0.00000000000E+00  0.00000000000E+00  0.11141505457E+03  0.11141505460E+03  0.25500000000E-02 0. -1.
          2   -1    0    0  501    0  0.00000000000E+00 -0.00000000000E+00 -0.41576700440E+03  0.41576700441E+03  0.25500000000E-02 0.  1.
    5000001    1    1    2    0    0 -0.56837077059E+02 -0.11836273742E+03 -0.29156463799E+03  0.34406268188E+03  0.12700000000E+03 0.  0.
   -5000001    1    1    2    0    0  0.56837077059E+02  0.11836273742E+03 -0.12787311842E+02  0.18311937713E+03  0.12700000000E+03 0.  0.
<mgrwt>
<rscale>  0 0.43045419E+03</rscale>
<asrwt>0</asrwt>
<pdfrwt beam="1">  1        2 0.59395286E-01 0.43045419E+03</pdfrwt>
<pdfrwt beam="2">  1       -2 0.15916437E-01 0.43045419E+03</pdfrwt>
<totfact> 0.25930885E+03</totfact>
</mgrwt>
</event>
<event>
 4    1  0.9508302E-005  0.5145242E+03  0.7818608E-02  0.1010056E+00
         -2   -1    0    0    0  501 -0.00000000000E+00  0.00000000000E+00  0.27842766124E+02  0.27842766241E+02  0.25500000000E-02 0. -1.
          2   -1    0    0  501    0  0.00000000000E+00 -0.00000000000E+00 -0.23770553182E+04  0.23770553182E+04  0.25500000000E-02 0.  1.
    5000001    1    1    2    0    0  0.19408088640E+03  0.14378703681E+02 -0.16904595822E+04  0.17063577400E+04  0.12700000000E+03 0.  0.
   -5000001    1    1    2    0    0 -0.19408088640E+03 -0.14378703681E+02 -0.65875296987E+03  0.69854034450E+03  0.12700000000E+03 0.  0.
<mgrwt>
<rscale>  0 0.51452423E+03</rscale>
<asrwt>0</asrwt>
<pdfrwt beam="1">  1        2 0.33957920E+00 0.51452423E+03</pdfrwt>
<pdfrwt beam="2">  1       -2 0.39775395E-02 0.51452423E+03</pdfrwt>
<totfact> 0.15696779E+03</totfact>
</mgrwt>
</event>
<event>
 4    1  0.9508302E-005  0.4137387E+03  0.7818608E-02  0.1039124E+00
          2   -1    0    0  501    0  0.00000000000E+00  0.00000000000E+00  0.38042201044E+03  0.38042201045E+03  0.25500000000E-02 0.  1.
         -2   -1    0    0    0  501 -0.00000000000E+00 -0.00000000000E+00 -0.11249330053E+03  0.11249330056E+03  0.25500000000E-02 0. -1.
    5000001    1    1    2    0    0 -0.15200985294E+03  0.45155749815E+02  0.87517928590E+02  0.22121126770E+03  0.12700000000E+03 0.  0.
   -5000001    1    1    2    0    0  0.15200985294E+03 -0.45155749815E+02  0.18041078132E+03  0.27170404331E+03  0.12700000000E+03 0.  0.
<mgrwt>
<rscale>  0 0.41373870E+03</rscale>
<asrwt>0</asrwt>
<pdfrwt beam="1">  1        2 0.54346001E-01 0.41373870E+03</pdfrwt>
<pdfrwt beam="2">  1       -2 0.16070472E-01 0.41373870E+03</pdfrwt>
<totfact> 0.28116115E+03</totfact>
</mgrwt>
</event>
<event>
 4    1  0.9508302E-005  0.3798062E+03  0.7818608E-02  0.1051005E+00
         -2   -1    0    0    0  501 -0.00000000000E+00  0.00000000000E+00  0.56521820952E+02  0.56521821010E+02  0.25500000000E-02 0. -1.
          2   -1    0    0  501    0  0.00000000000E+00 -0.00000000000E+00 -0.63803993612E+03  0.63803993612E+03  0.25500000000E-02 0.  1.
    5000001    1    1    2    0    0 -0.72210172717E+02  0.94602275619E+02 -0.42967346504E+03  0.46358622300E+03  0.12700000000E+03 0.  0.
   -5000001    1    1    2    0    0  0.72210172717E+02 -0.94602275619E+02 -0.15184465013E+03  0.23097553413E+03  0.12700000000E+03 0.  0.
<mgrwt>
<rscale>  0 0.37980616E+03</rscale>
<asrwt>0</asrwt>
<pdfrwt beam="1">  1        2 0.91148558E-01 0.37980616E+03</pdfrwt>
<pdfrwt beam="2">  1       -2 0.80745462E-02 0.37980616E+03</pdfrwt>
<totfact> 0.48021513E+03</totfact>
</mgrwt>
</event>
<event>
 4    1  0.9508302E-005  0.5141631E+03  0.7818608E-02  0.1010147E+00
         -2   -1    0    0    0  501 -0.00000000000E+00  0.00000000000E+00  0.26636258089E+02  0.26636258211E+02  0.25500000000E-02 0. -1.
          2   -1    0    0  501    0  0.00000000000E+00 -0.00000000000E+00 -0.24812388305E+04  0.24812388305E+04  0.25500000000E-02 0.  1.
    5000001    1    1    2    0    0  0.21822180759E+03 -0.55419180804E+01 -0.14617528315E+04  0.14834088481E+04  0.12700000000E+03 0.  0.
   -5000001    1    1    2    0    0 -0.21822180759E+03  0.55419180804E+01 -0.99284974088E+03  0.10244662406E+04  0.12700000000E+03 0.  0.
<mgrwt>
<rscale>  0 0.51416308E+03</rscale>
<asrwt>0</asrwt>
<pdfrwt beam="1">  1        2 0.35446254E+00 0.51416308E+03</pdfrwt>
<pdfrwt beam="2">  1       -2 0.38051813E-02 0.51416308E+03</pdfrwt>
<totfact> 0.14871117E+03</totfact>
</mgrwt>
</event>
<event>
 4    1  0.9508302E-005  0.6340209E+03  0.7818608E-02  0.9837234E-01
         -2   -1    0    0    0  501 -0.00000000000E+00  0.00000000000E+00  0.30799216384E+03  0.30799216385E+03  0.25500000000E-02 0. -1.
          2   -1    0    0  501    0  0.00000000000E+00 -0.00000000000E+00 -0.32629282346E+03  0.32629282347E+03  0.25500000000E-02 0.  1.
    5000001    1    1    2    0    0 -0.19974941628E+03 -0.10700668599E+03 -0.19093008774E+03  0.32238728038E+03  0.12700000000E+03 0.  0.
   -5000001    1    1    2    0    0  0.19974941628E+03  0.10700668599E+03  0.17262942811E+03  0.31189770695E+03  0.12700000000E+03 0.  0.
<mgrwt>
<rscale>  0 0.63402092E+03</rscale>
<asrwt>0</asrwt>
<pdfrwt beam="1">  1        2 0.46613260E-01 0.63402092E+03</pdfrwt>
<pdfrwt beam="2">  1       -2 0.43998881E-01 0.63402092E+03</pdfrwt>
<totfact> 0.53581507E+02</totfact>
</mgrwt>
</event>
<event>
 4    1  0.9508302E-005  0.5349366E+03  0.7818608E-02  0.1005042E+00
         -2   -1    0    0    0  501 -0.00000000000E+00  0.00000000000E+00  0.29649696404E+03  0.29649696405E+03  0.25500000000E-02 0. -1.
          2   -1    0    0  501    0  0.00000000000E+00 -0.00000000000E+00 -0.24128172992E+03  0.24128172994E+03  0.25500000000E-02 0.  1.
    5000001    1    1    2    0    0 -0.19231483636E+02  0.20291549993E+03 -0.90770912227E+02  0.25673509417E+03  0.12700000000E+03 0.  0.
   -5000001    1    1    2    0    0  0.19231483636E+02 -0.20291549993E+03  0.14598614634E+03  0.28104359981E+03  0.12700000000E+03 0.  0.
<mgrwt>
<rscale>  0 0.53493663E+03</rscale>
<asrwt>0</asrwt>
<pdfrwt beam="1">  1        2 0.34468819E-01 0.53493663E+03</pdfrwt>
<pdfrwt beam="2">  1       -2 0.42356709E-01 0.53493663E+03</pdfrwt>
<totfact> 0.80726361E+02</totfact>
</mgrwt>
</event>
<event>
 4    1  0.9508302E-005  0.3276191E+03  0.7818608E-02  0.1072195E+00
         -2   -1    0    0    0  501 -0.00000000000E+00  0.00000000000E+00  0.13054314677E+03  0.13054314680E+03  0.25500000000E-02 0. -1.
          2   -1    0    0  501    0  0.00000000000E+00 -0.00000000000E+00 -0.20555329757E+03  0.20555329759E+03  0.25500000000E-02 0.  1.
    5000001    1    1    2    0    0 -0.83736343467E+02  0.59175088442E+02 -0.51686964493E+02  0.17121334238E+03  0.12700000000E+03 0.  0.
   -5000001    1    1    2    0    0  0.83736343467E+02 -0.59175088442E+02 -0.23323186306E+02  0.16488310201E+03  0.12700000000E+03 0.  0.
<mgrwt>
<rscale>  0 0.32761913E+03</rscale>
<asrwt>0</asrwt>
<pdfrwt beam="1">  1        2 0.29364757E-01 0.32761913E+03</pdfrwt>
<pdfrwt beam="2">  1       -2 0.18649021E-01 0.32761913E+03</pdfrwt>
<totfact> 0.42629452E+03</totfact>
</mgrwt>
</event>
<event>
 4    1  0.9508302E-005  0.6084613E+03  0.7818608E-02  0.9888005E-01
          2   -1    0    0  501    0  0.00000000000E+00  0.00000000000E+00  0.42818131672E+04  0.42818131672E+04  0.25500000000E-02 0.  1.
         -2   -1    0    0    0  501 -0.00000000000E+00 -0.00000000000E+00 -0.21616144394E+02  0.21616144544E+02  0.25500000000E-02 0. -1.
    5000001    1    1    2    0    0  0.27605473241E+03  0.14452677912E+02  0.21053980423E+04  0.21272623279E+04  0.12700000000E+03 0.  0.
   -5000001    1    1    2    0    0 -0.27605473241E+03 -0.14452677912E+02  0.21547989805E+04  0.21761669839E+04  0.12700000000E+03 0.  0.
<mgrwt>
<rscale>  0 0.60846131E+03</rscale>
<asrwt>0</asrwt>
<pdfrwt beam="1">  1        2 0.61168778E+00 0.60846131E+03</pdfrwt>
<pdfrwt beam="2">  1       -2 0.30880197E-02 0.60846131E+03</pdfrwt>
<totfact> 0.17446410E+02</totfact>
</mgrwt>
</event>
<event>
 4    1  0.9508302E-005  0.4647367E+03  0.7818608E-02  0.1023416E+00
          2   -1    0    0  501    0  0.00000000000E+00  0.00000000000E+00  0.26353118975E+03  0.26353118976E+03  0.25500000000E-02 0.  1.
         -2   -1    0    0    0  501 -0.00000000000E+00 -0.00000000000E+00 -0.20489055394E+03  0.20489055396E+03  0.25500000000E-02 0. -1.
    5000001    1    1    2    0    0  0.85765490689E+02 -0.12659528517E+03 -0.91983317580E+02  0.21902515000E+03  0.12700000000E+03 0.  0.
   -5000001    1    1    2    0    0 -0.85765490689E+02  0.12659528517E+03  0.15062395339E+03  0.24939659371E+03  0.12700000000E+03 0.  0.
<mgrwt>
<rscale>  0 0.46473671E+03</rscale>
<asrwt>0</asrwt>
<pdfrwt beam="1">  1        2 0.37647313E-01 0.46473671E+03</pdfrwt>
<pdfrwt beam="2">  1       -2 0.29270079E-01 0.46473671E+03</pdfrwt>
<totfact> 0.14728477E+03</totfact>
</mgrwt>
</event>
<event>
 4    1  0.9508302E-005  0.4574258E+03  0.7818608E-02  0.1025530E+00
          2   -1    0    0  501    0  0.00000000000E+00  0.00000000000E+00  0.95739705111E+02  0.95739705145E+02  0.25500000000E-02 0.  1.
         -2   -1    0    0    0  501 -0.00000000000E+00 -0.00000000000E+00 -0.54637289155E+03  0.54637289155E+03  0.25500000000E-02 0. -1.
    5000001    1    1    2    0    0  0.14340347579E+02  0.97889872733E+02 -0.45336702584E+03  0.48110158269E+03  0.12700000000E+03 0.  0.
   -5000001    1    1    2    0    0 -0.14340347579E+02 -0.97889872733E+02  0.27338394037E+01  0.16101101400E+03  0.12700000000E+03 0.  0.
<mgrwt>
<rscale>  0 0.45742575E+03</rscale>
<asrwt>0</asrwt>
<pdfrwt beam="1">  1        2 0.13677101E-01 0.45742575E+03</pdfrwt>
<pdfrwt beam="2">  1       -2 0.78053268E-01 0.45742575E+03</pdfrwt>
<totfact> 0.65989659E+02</totfact>
</mgrwt>
</event>
<event>
 4    1  0.9508302E-005  0.3003865E+03  0.7818608E-02  0.1085048E+00
         -2   -1    0    0    0  501 -0.00000000000E+00  0.00000000000E+00  0.20527822786E+02  0.20527822944E+02  0.25500000000E-02 0. -1.
          2   -1    0    0  501    0  0.00000000000E+00 -0.00000000000E+00 -0.10988990425E+04  0.10988990425E+04  0.25500000000E-02 0.  1.
    5000001    1    1    2    0    0 -0.55611172986E+01 -0.77805413057E+02 -0.47002723270E+03  0.49309148016E+03  0.12700000000E+03 0.  0.
   -5000001    1    1    2    0    0  0.55611172986E+01  0.77805413057E+02 -0.60834398700E+03  0.62633538528E+03  0.12700000000E+03 0.  0.
<mgrwt>
<rscale>  0 0.30038645E+03</rscale>
<asrwt>0</asrwt>
<pdfrwt beam="1">  1        2 0.15698554E+00 0.30038645E+03</pdfrwt>
<pdfrwt beam="2">  1       -2 0.29325468E-02 0.30038645E+03</pdfrwt>
<totfact> 0.11191948E+04</totfact>
</mgrwt>
</event>
<event>
 4    1  0.9508302E-005  0.8215341E+03  0.7818608E-02  0.9529360E-01
          2   -1    0    0  501    0  0.00000000000E+00  0.00000000000E+00  0.75594732644E+03  0.75594732644E+03  0.25500000000E-02 0.  1.
         -2   -1    0    0    0  501 -0.00000000000E+00 -0.00000000000E+00 -0.22320279074E+03  0.22320279075E+03  0.25500000000E-02 0. -1.
    5000001    1    1    2    0    0  0.11084956136E+03 -0.35374939359E+03  0.41318981249E+03  0.56945682880E+03  0.12700000000E+03 0.  0.
   -5000001    1    1    2    0    0 -0.11084956136E+03  0.35374939359E+03  0.11955472321E+03  0.40969328840E+03  0.12700000000E+03 0.  0.
<mgrwt>
<rscale>  0 0.82153406E+03</rscale>
<asrwt>0</asrwt>
<pdfrwt beam="1">  1        2 0.10799248E+00 0.82153406E+03</pdfrwt>
<pdfrwt beam="2">  1       -2 0.31886113E-01 0.82153406E+03</pdfrwt>
<totfact> 0.37470281E+02</totfact>
</mgrwt>
</event>
<event>
 4    1  0.9508302E-005  0.3401533E+03  0.7818608E-02  0.1066731E+00
         -2   -1    0    0    0  501 -0.00000000000E+00  0.00000000000E+00  0.16117542911E+02  0.16117543112E+02  0.25500000000E-02 0. -1.
          2   -1    0    0  501    0  0.00000000000E+00 -0.00000000000E+00 -0.17946946855E+04  0.17946946855E+04  0.25500000000E-02 0.  1.
    5000001    1    1    2    0    0  0.97972438752E+02  0.55549072624E+02 -0.83275627925E+03  0.84988017911E+03  0.12700000000E+03 0.  0.
   -5000001    1    1    2    0    0 -0.97972438752E+02 -0.55549072624E+02 -0.94582086336E+03  0.96093204952E+03  0.12700000000E+03 0.  0.
<mgrwt>
<rscale>  0 0.34015331E+03</rscale>
<asrwt>0</asrwt>
<pdfrwt beam="1">  1        2 0.25638483E+00 0.34015331E+03</pdfrwt>
<pdfrwt beam="2">  1       -2 0.23025073E-02 0.34015331E+03</pdfrwt>
<totfact> 0.70054338E+03</totfact>
</mgrwt>
</event>
<event>
 4    1  0.9508302E-005  0.4412830E+03  0.7818608E-02  0.1030354E+00
          2   -1    0    0  501    0  0.00000000000E+00  0.00000000000E+00  0.73561811962E+03  0.73561811962E+03  0.25500000000E-02 0.  1.
         -2   -1    0    0    0  501 -0.00000000000E+00 -0.00000000000E+00 -0.66179267061E+02  0.66179267110E+02  0.25500000000E-02 0. -1.
    5000001    1    1    2    0    0 -0.17282132866E+03  0.50157559218E+02  0.31098202290E+03  0.38107979605E+03  0.12700000000E+03 0.  0.
   -5000001    1    1    2    0    0  0.17282132866E+03 -0.50157559218E+02  0.35845682965E+03  0.42071759068E+03  0.12700000000E+03 0.  0.
<mgrwt>
<rscale>  0 0.44128298E+03</rscale>
<asrwt>0</asrwt>
<pdfrwt beam="1">  1        2 0.10508830E+00 0.44128298E+03</pdfrwt>
<pdfrwt beam="2">  1       -2 0.94541813E-02 0.44128298E+03</pdfrwt>
<totfact> 0.31580162E+03</totfact>
</mgrwt>
</event>
<event>
 4    1  0.9508302E-005  0.6300242E+03  0.7818608E-02  0.9845002E-01
          2   -1    0    0  501    0  0.00000000000E+00  0.00000000000E+00  0.26370317485E+04  0.26370317485E+04  0.25500000000E-02 0. -1.
         -2   -1    0    0    0  501 -0.00000000000E+00 -0.00000000000E+00 -0.37630418671E+02  0.37630418758E+02  0.25500000000E-02 0.  1.
    5000001    1    1    2    0    0  0.12532303104E+03 -0.21090740986E+03  0.19423578276E+04  0.19619048723E+04  0.12700000000E+03 0.  0.
   -5000001    1    1    2    0    0 -0.12532303104E+03  0.21090740986E+03  0.65704350219E+03  0.71275729488E+03  0.12700000000E+03 0.  0.
<mgrwt>
<rscale>  0 0.63002415E+03</rscale>
<asrwt>0</asrwt>
<pdfrwt beam="1">  1        2 0.37671871E+00 0.63002415E+03</pdfrwt>
<pdfrwt beam="2">  1       -2 0.53757757E-02 0.63002415E+03</pdfrwt>
<totfact> 0.71920265E+02</totfact>
</mgrwt>
</event>
<event>
 4    1  0.9508302E-005  0.3445093E+03  0.7818608E-02  0.1064891E+00
         -2   -1    0    0    0  501 -0.00000000000E+00  0.00000000000E+00  0.95546349327E+02  0.95546349361E+02  0.25500000000E-02 0. -1.
          2   -1    0    0  501    0  0.00000000000E+00 -0.00000000000E+00 -0.31054733409E+03  0.31054733410E+03  0.25500000000E-02 0.  1.
    5000001    1    1    2    0    0  0.53799859167E+02  0.87585117701E+02 -0.17181678542E+03  0.23709826115E+03  0.12700000000E+03 0.  0.
   -5000001    1    1    2    0    0 -0.53799859167E+02 -0.87585117701E+02 -0.43184199347E+02  0.16899542231E+03  0.12700000000E+03 0.  0.
<mgrwt>
<rscale>  0 0.34450930E+03</rscale>
<asrwt>0</asrwt>
<pdfrwt beam="1">  1        2 0.44363904E-01 0.34450930E+03</pdfrwt>
<pdfrwt beam="2">  1       -2 0.13649479E-01 0.34450930E+03</pdfrwt>
<totfact> 0.45836773E+03</totfact>
</mgrwt>
</event>
<event>
 4    1  0.9508302E-005  0.3733780E+03  0.7818608E-02  0.1053409E+00
          2   -1    0    0  501    0  0.00000000000E+00  0.00000000000E+00  0.83512911665E+03  0.83512911666E+03  0.25500000000E-02 0.  1.
         -2   -1    0    0    0  501 -0.00000000000E+00 -0.00000000000E+00 -0.41733404439E+02  0.41733404517E+02  0.25500000000E-02 0. -1.
    5000001    1    1    2    0    0  0.30201017532E+02  0.10998211642E+03  0.57424522110E+03  0.59907824309E+03  0.12700000000E+03 0.  0.
   -5000001    1    1    2    0    0 -0.30201017532E+02 -0.10998211642E+03  0.21915049111E+03  0.27778427808E+03  0.12700000000E+03 0.  0.
<mgrwt>
<rscale>  0 0.37337799E+03</rscale>
<asrwt>0</asrwt>
<pdfrwt beam="1">  1        2 0.11930415E+00 0.37337799E+03</pdfrwt>
<pdfrwt beam="2">  1       -2 0.59619153E-02 0.37337799E+03</pdfrwt>
<totfact> 0.55512899E+03</totfact>
</mgrwt>
</event>
<event>
 4    1  0.9508302E-005  0.3490732E+03  0.7818608E-02  0.1062996E+00
          2   -1    0    0  501    0  0.00000000000E+00  0.00000000000E+00  0.36355952127E+03  0.36355952128E+03  0.25500000000E-02 0.  1.
         -2   -1    0    0    0  501 -0.00000000000E+00 -0.00000000000E+00 -0.83791016366E+02  0.83791016405E+02  0.25500000000E-02 0. -1.
    5000001    1    1    2    0    0 -0.24701866958E+02  0.10244071402E+03  0.67053426121E+02  0.17812760615E+03  0.12700000000E+03 0.  0.
   -5000001    1    1    2    0    0  0.24701866958E+02 -0.10244071402E+03  0.21271507878E+03  0.26922293153E+03  0.12700000000E+03 0.  0.
<mgrwt>
<rscale>  0 0.34907318E+03</rscale>
<asrwt>0</asrwt>
<pdfrwt beam="1">  1        2 0.51937074E-01 0.34907318E+03</pdfrwt>
<pdfrwt beam="2">  1       -2 0.11970145E-01 0.34907318E+03</pdfrwt>
<totfact> 0.47894478E+03</totfact>
</mgrwt>
</event>
<event>
 4    1  0.9508302E-005  0.2797162E+03  0.7818608E-02  0.1095844E+00
         -2   -1    0    0    0  501 -0.00000000000E+00  0.00000000000E+00  0.60009451016E+02  0.60009451070E+02  0.25500000000E-02 0. -1.
          2   -1    0    0  501    0  0.00000000000E+00 -0.00000000000E+00 -0.32595336582E+03  0.32595336583E+03  0.25500000000E-02 0.  1.
    5000001    1    1    2    0    0  0.20167203332E+02 -0.54233676627E+02 -0.12038024894E+03  0.18430521454E+03  0.12700000000E+03 0.  0.
   -5000001    1    1    2    0    0 -0.20167203332E+02  0.54233676627E+02 -0.14556366586E+03  0.20165760236E+03  0.12700000000E+03 0.  0.
<mgrwt>
<rscale>  0 0.27971616E+03</rscale>
<asrwt>0</asrwt>
<pdfrwt beam="1">  1        2 0.46564765E-01 0.27971616E+03</pdfrwt>
<pdfrwt beam="2">  1       -2 0.85727789E-02 0.27971616E+03</pdfrwt>
<totfact> 0.91170950E+03</totfact>
</mgrwt>
</event>
<event>
 4    1  0.9508302E-005  0.5623514E+03  0.7818608E-02  0.9986748E-01
         -2   -1    0    0    0  501 -0.00000000000E+00  0.00000000000E+00  0.36008565568E+02  0.36008565658E+02  0.25500000000E-02 0. -1.
          2   -1    0    0  501    0  0.00000000000E+00 -0.00000000000E+00 -0.21955820668E+04  0.21955820668E+04  0.25500000000E-02 0.  1.
    5000001    1    1    2    0    0 -0.21143637239E+03  0.12502335509E+03 -0.12819212711E+04  0.13114066204E+04  0.12700000000E+03 0.  0.
   -5000001    1    1    2    0    0  0.21143637239E+03 -0.12502335509E+03 -0.87765223019E+03  0.92018401206E+03  0.12700000000E+03 0.  0.
<mgrwt>
<rscale>  0 0.56235135E+03</rscale>
<asrwt>0</asrwt>
<pdfrwt beam="1">  1        2 0.31365450E+00 0.56235135E+03</pdfrwt>
<pdfrwt beam="2">  1       -2 0.51440822E-02 0.56235135E+03</pdfrwt>
<totfact> 0.13000121E+03</totfact>
</mgrwt>
</event>
<event>
 4    1  0.9508302E-005  0.3109545E+03  0.7818608E-02  0.1079889E+00
          2   -1    0    0  501    0  0.00000000000E+00  0.00000000000E+00  0.70541696666E+03  0.70541696666E+03  0.25500000000E-02 0.  1.
         -2   -1    0    0    0  501 -0.00000000000E+00 -0.00000000000E+00 -0.34267918152E+02  0.34267918247E+02  0.25500000000E-02 0. -1.
    5000001    1    1    2    0    0  0.43240484475E+02  0.60784018738E+02  0.21711976136E+03  0.26236315901E+03  0.12700000000E+03 0.  0.
   -5000001    1    1    2    0    0 -0.43240484475E+02 -0.60784018738E+02  0.45402928714E+03  0.47732172590E+03  0.12700000000E+03 0.  0.
<mgrwt>
<rscale>  0 0.31095447E+03</rscale>
<asrwt>0</asrwt>
<pdfrwt beam="1">  1        2 0.10077385E+00 0.31095447E+03</pdfrwt>
<pdfrwt beam="2">  1       -2 0.48954170E-02 0.31095447E+03</pdfrwt>
<totfact> 0.92059497E+03</totfact>
</mgrwt>
</event>
<event>
 4    1  0.9508302E-005  0.3669102E+03  0.7818608E-02  0.1055881E+00
          2   -1    0    0  501    0  0.00000000000E+00  0.00000000000E+00  0.16163002949E+04  0.16163002949E+04  0.25500000000E-02 0.  1.
         -2   -1    0    0    0  501 -0.00000000000E+00 -0.00000000000E+00 -0.20822721153E+02  0.20822721309E+02  0.25500000000E-02 0. -1.
    5000001    1    1    2    0    0  0.91650457601E+02 -0.47706034016E+02  0.42841978520E+03  0.45863731250E+03  0.12700000000E+03 0.  0.
   -5000001    1    1    2    0    0 -0.91650457601E+02  0.47706034016E+02  0.11670577885E+04  0.11784857037E+04  0.12700000000E+03 0.  0.
<mgrwt>
<rscale>  0 0.36691018E+03</rscale>
<asrwt>0</asrwt>
<pdfrwt beam="1">  1        2 0.23090004E+00 0.36691018E+03</pdfrwt>
<pdfrwt beam="2">  1       -2 0.29746745E-02 0.36691018E+03</pdfrwt>
<totfact> 0.58678954E+03</totfact>
</mgrwt>
</event>
<event>
 4    1  0.9508302E-005  0.5657568E+03  0.7818608E-02  0.9979112E-01
         -2   -1    0    0    0  501 -0.00000000000E+00  0.00000000000E+00  0.29609728011E+02  0.29609728120E+02  0.25500000000E-02 0. -1.
          2   -1    0    0  501    0  0.00000000000E+00 -0.00000000000E+00 -0.27024969881E+04  0.27024969881E+04  0.25500000000E-02 0.  1.
    5000001    1    1    2    0    0  0.31682266494E+02 -0.20780050401E+03 -0.65853473728E+03  0.70283839940E+03  0.12700000000E+03 0.  0.
   -5000001    1    1    2    0    0 -0.31682266494E+02  0.20780050401E+03 -0.20143525228E+04  0.20292683168E+04  0.12700000000E+03 0.  0.
<mgrwt>
<rscale>  0 0.56575684E+03</rscale>
<asrwt>0</asrwt>
<pdfrwt beam="1">  1        2 0.38607084E+00 0.56575684E+03</pdfrwt>
<pdfrwt beam="2">  1       -2 0.42299629E-02 0.56575684E+03</pdfrwt>
<totfact> 0.96855369E+02</totfact>
</mgrwt>
</event>
<event>
 4    1  0.9508302E-005  0.3651146E+03  0.7818608E-02  0.1056577E+00
         -2   -1    0    0    0  501 -0.00000000000E+00  0.00000000000E+00  0.11551140160E+03  0.11551140163E+03  0.25500000000E-02 0. -1.
          2   -1    0    0  501    0  0.00000000000E+00 -0.00000000000E+00 -0.28851846568E+03  0.28851846569E+03  0.25500000000E-02 0.  1.
    5000001    1    1    2    0    0  0.11610146353E+03  0.52533820886E+02 -0.52238367004E+02  0.18734246491E+03  0.12700000000E+03 0.  0.
   -5000001    1    1    2    0    0 -0.11610146353E+03 -0.52533820886E+02 -0.12076869707E+03  0.21668740241E+03  0.12700000000E+03 0.  0.
<mgrwt>
<rscale>  0 0.36511463E+03</rscale>
<asrwt>0</asrwt>
<pdfrwt beam="1">  1        2 0.41216923E-01 0.36511463E+03</pdfrwt>
<pdfrwt beam="2">  1       -2 0.16501629E-01 0.36511463E+03</pdfrwt>
<totfact> 0.36262167E+03</totfact>
</mgrwt>
</event>
<event>
 4    1  0.9508302E-005  0.8250081E+03  0.7818608E-02  0.9524508E-01
          2   -1    0    0  501    0  0.00000000000E+00  0.00000000000E+00  0.18626344057E+04  0.18626344057E+04  0.25500000000E-02 0.  1.
         -2   -1    0    0    0  501 -0.00000000000E+00 -0.00000000000E+00 -0.91354269223E+02  0.91354269259E+02  0.25500000000E-02 0. -1.
    5000001    1    1    2    0    0  0.32409683940E+03 -0.17512446455E+03  0.12062413473E+04  0.12676176582E+04  0.12700000000E+03 0.  0.
   -5000001    1    1    2    0    0 -0.32409683940E+03  0.17512446455E+03  0.56503878914E+03  0.68637101675E+03  0.12700000000E+03 0.  0.
<mgrwt>
<rscale>  0 0.82500813E+03</rscale>
<asrwt>0</asrwt>
<pdfrwt beam="1">  1        2 0.26609065E+00 0.82500813E+03</pdfrwt>
<pdfrwt beam="2">  1       -2 0.13050609E-01 0.82500813E+03</pdfrwt>
<totfact> 0.42321213E+02</totfact>
</mgrwt>
</event>
<event>
 4    1  0.9508302E-005  0.2927818E+03  0.7818608E-02  0.1088906E+00
          2   -1    0    0  501    0  0.00000000000E+00  0.00000000000E+00  0.14367400395E+04  0.14367400395E+04  0.25500000000E-02 0.  1.
         -2   -1    0    0    0  501 -0.00000000000E+00 -0.00000000000E+00 -0.14915919426E+02  0.14915919644E+02  0.25500000000E-02 0. -1.
    5000001    1    1    2    0    0 -0.25926370535E+02 -0.65863170962E+02  0.79551570268E+03  0.80869299934E+03  0.12700000000E+03 0.  0.
   -5000001    1    1    2    0    0  0.25926370535E+02  0.65863170962E+02  0.62630841741E+03  0.64296295981E+03  0.12700000000E+03 0.  0.
<mgrwt>
<rscale>  0 0.29278182E+03</rscale>
<asrwt>0</asrwt>
<pdfrwt beam="1">  1        2 0.20524840E+00 0.29278182E+03</pdfrwt>
<pdfrwt beam="2">  1       -2 0.21308475E-02 0.29278182E+03</pdfrwt>
<totfact> 0.11845739E+04</totfact>
</mgrwt>
</event>
<event>
 4    1  0.9508302E-005  0.3930125E+03  0.7818608E-02  0.1046226E+00
         -2   -1    0    0    0  501 -0.00000000000E+00  0.00000000000E+00  0.50818418038E+02  0.50818418102E+02  0.25500000000E-02 0. -1.
          2   -1    0    0  501    0  0.00000000000E+00 -0.00000000000E+00 -0.75985653287E+03  0.75985653287E+03  0.25500000000E-02 0.  1.
    5000001    1    1    2    0    0  0.14867842627E+03 -0.10145900911E+02 -0.38888011908E+03  0.43539058414E+03  0.12700000000E+03 0.  0.
   -5000001    1    1    2    0    0 -0.14867842627E+03  0.10145900911E+02 -0.32015799575E+03  0.37528436683E+03  0.12700000000E+03 0.  0.
<mgrwt>
<rscale>  0 0.39301250E+03</rscale>
<asrwt>0</asrwt>
<pdfrwt beam="1">  1        2 0.10855093E+00 0.39301250E+03</pdfrwt>
<pdfrwt beam="2">  1       -2 0.72597745E-02 0.39301250E+03</pdfrwt>
<totfact> 0.46034070E+03</totfact>
</mgrwt>
</event>
<event>
 4    1  0.9508302E-005  0.4811558E+03  0.7818608E-02  0.1018818E+00
          2   -1    0    0  501    0  0.00000000000E+00  0.00000000000E+00  0.65089234131E+03  0.65089234132E+03  0.25500000000E-02 0.  1.
         -2   -1    0    0    0  501 -0.00000000000E+00 -0.00000000000E+00 -0.88920575847E+02  0.88920575884E+02  0.25500000000E-02 0. -1.
    5000001    1    1    2    0    0 -0.19619422299E+03  0.29863415918E+02  0.20621602947E+03  0.31311028018E+03  0.12700000000E+03 0.  0.
   -5000001    1    1    2    0    0  0.19619422299E+03 -0.29863415918E+02  0.35575573599E+03  0.42670263702E+03  0.12700000000E+03 0.  0.
<mgrwt>
<rscale>  0 0.48115578E+03</rscale>
<asrwt>0</asrwt>
<pdfrwt beam="1">  1        2 0.92984618E-01 0.48115578E+03</pdfrwt>
<pdfrwt beam="2">  1       -2 0.12702940E-01 0.48115578E+03</pdfrwt>
<totfact> 0.22681695E+03</totfact>
</mgrwt>
</event>
<event>
 4    1  0.9508302E-005  0.5542153E+03  0.7818608E-02  0.1000523E+00
         -2   -1    0    0    0  501 -0.00000000000E+00  0.00000000000E+00  0.12802291332E+03  0.12802291334E+03  0.25500000000E-02 0. -1.
          2   -1    0    0  501    0  0.00000000000E+00 -0.00000000000E+00 -0.59980396658E+03  0.59980396659E+03  0.25500000000E-02 0.  1.
    5000001    1    1    2    0    0  0.23798389498E+03 -0.36230906816E+02 -0.30426364142E+03  0.40823323770E+03  0.12700000000E+03 0.  0.
   -5000001    1    1    2    0    0 -0.23798389498E+03  0.36230906816E+02 -0.16751741185E+03  0.31959364223E+03  0.12700000000E+03 0.  0.
<mgrwt>
<rscale>  0 0.55421531E+03</rscale>
<asrwt>0</asrwt>
<pdfrwt beam="1">  1        2 0.85686279E-01 0.55421531E+03</pdfrwt>
<pdfrwt beam="2">  1       -2 0.18288988E-01 0.55421531E+03</pdfrwt>
<totfact> 0.13537798E+03</totfact>
</mgrwt>
</event>
<event>
 4    1  0.9508302E-005  0.1060456E+04  0.7818608E-02  0.9244615E-01
         -2   -1    0    0    0  501 -0.00000000000E+00  0.00000000000E+00  0.23523296687E+03  0.23523296689E+03  0.25500000000E-02 0. -1.
          2   -1    0    0  501    0  0.00000000000E+00 -0.00000000000E+00 -0.11951634442E+04  0.11951634442E+04  0.25500000000E-02 0.  1.
    5000001    1    1    2    0    0 -0.42388789503E+03  0.46767190042E+02 -0.91026659085E+02  0.45418385075E+03  0.12700000000E+03 0.  0.
   -5000001    1    1    2    0    0  0.42388789503E+03 -0.46767190042E+02 -0.86890381827E+03  0.97621256037E+03  0.12700000000E+03 0.  0.
<mgrwt>
<rscale>  0 0.10604562E+04</rscale>
<asrwt>0</asrwt>
<pdfrwt beam="1">  1        2 0.17073763E+00 0.10604562E+04</pdfrwt>
<pdfrwt beam="2">  1       -2 0.33604710E-01 0.10604562E+04</pdfrwt>
<totfact> 0.17683912E+02</totfact>
</mgrwt>
</event>
<event>
 4    1  0.9508302E-005  0.2889820E+03  0.7818608E-02  0.1090882E+00
          2   -1    0    0  501    0  0.00000000000E+00  0.00000000000E+00  0.34639639587E+03  0.34639639588E+03  0.25500000000E-02 0.  1.
         -2   -1    0    0    0  501 -0.00000000000E+00 -0.00000000000E+00 -0.60270993311E+02  0.60270993365E+02  0.25500000000E-02 0. -1.
    5000001    1    1    2    0    0  0.61006197037E+02 -0.25270533662E+02  0.11533259157E+03  0.18382318305E+03  0.12700000000E+03 0.  0.
   -5000001    1    1    2    0    0 -0.61006197037E+02  0.25270533662E+02  0.17079281099E+03  0.22284420619E+03  0.12700000000E+03 0.  0.
<mgrwt>
<rscale>  0 0.28898204E+03</rscale>
<asrwt>0</asrwt>
<pdfrwt beam="1">  1        2 0.49485199E-01 0.28898204E+03</pdfrwt>
<pdfrwt beam="2">  1       -2 0.86101419E-02 0.28898204E+03</pdfrwt>
<totfact> 0.84915563E+03</totfact>
</mgrwt>
</event>
<event>
 4    1  0.9508302E-005  0.3181623E+03  0.7818608E-02  0.1076498E+00
         -2   -1    0    0    0  501 -0.00000000000E+00  0.00000000000E+00  0.15803084320E+02  0.15803084525E+02  0.25500000000E-02 0.  1.
          2   -1    0    0  501    0  0.00000000000E+00 -0.00000000000E+00 -0.16013843785E+04  0.16013843785E+04  0.25500000000E-02 0. -1.
    5000001    1    1    2    0    0 -0.84632763763E+02  0.26339517286E+02 -0.97755515613E+03  0.98974721932E+03  0.12700000000E+03 0.  0.
   -5000001    1    1    2    0    0  0.84632763763E+02 -0.26339517286E+02 -0.60802613805E+03  0.62744024371E+03  0.12700000000E+03 0.  0.
<mgrwt>
<rscale>  0 0.31816230E+03</rscale>
<asrwt>0</asrwt>
<pdfrwt beam="1">  1        2 0.22876909E+00 0.31816230E+03</pdfrwt>
<pdfrwt beam="2">  1       -2 0.22575845E-02 0.31816230E+03</pdfrwt>
<totfact> 0.89926072E+03</totfact>
</mgrwt>
</event>
<event>
 4    1  0.9508302E-005  0.3592157E+03  0.7818608E-02  0.1058895E+00
          2   -1    0    0  501    0  0.00000000000E+00  0.00000000000E+00  0.28509329680E+04  0.28509329680E+04  0.25500000000E-02 0.  1.
         -2   -1    0    0    0  501 -0.00000000000E+00 -0.00000000000E+00 -0.11315238570E+02  0.11315238857E+02  0.25500000000E-02 0. -1.
    5000001    1    1    2    0    0  0.10816093474E+03 -0.25409303700E+02  0.19100586104E+04  0.19174976703E+04  0.12700000000E+03 0.  0.
   -5000001    1    1    2    0    0 -0.10816093474E+03  0.25409303700E+02  0.92955911900E+03  0.94475053651E+03  0.12700000000E+03 0.  0.
<mgrwt>
<rscale>  0 0.35921574E+03</rscale>
<asrwt>0</asrwt>
<pdfrwt beam="1">  1        2 0.40727645E+00 0.35921574E+03</pdfrwt>
<pdfrwt beam="2">  1       -2 0.16164614E-02 0.35921574E+03</pdfrwt>
<totfact> 0.34964758E+03</totfact>
</mgrwt>
</event>
<event>
 4    1  0.9508302E-005  0.1459103E+04  0.7818608E-02  0.8912114E-01
         -2   -1    0    0    0  501 -0.00000000000E+00  0.00000000000E+00  0.20821811948E+03  0.20821811949E+03  0.25500000000E-02 0. -1.
          2   -1    0    0  501    0  0.00000000000E+00 -0.00000000000E+00 -0.25561903470E+04  0.25561903470E+04  0.25500000000E-02 0.  1.
    5000001    1    1    2    0    0 -0.43506331944E+03  0.40014320277E+03 -0.40039382465E+03  0.72514749497E+03  0.12700000000E+03 0.  0.
   -5000001    1    1    2    0    0  0.43506331944E+03 -0.40014320277E+03 -0.19475784029E+04  0.20392609715E+04  0.12700000000E+03 0.  0.
<mgrwt>
<rscale>  0 0.14591027E+04</rscale>
<asrwt>0</asrwt>
<pdfrwt beam="1">  1        2 0.36517003E+00 0.14591027E+04</pdfrwt>
<pdfrwt beam="2">  1       -2 0.29745447E-01 0.14591027E+04</pdfrwt>
<totfact> 0.41702859E+01</totfact>
</mgrwt>
</event>
<event>
 4    1  0.9508302E-005  0.2869440E+03  0.7818608E-02  0.1091956E+00
         -2   -1    0    0    0  501 -0.00000000000E+00  0.00000000000E+00  0.13442811950E+03  0.13442811953E+03  0.25500000000E-02 0. -1.
          2   -1    0    0  501    0  0.00000000000E+00 -0.00000000000E+00 -0.15312436116E+03  0.15312436118E+03  0.25500000000E-02 0.  1.
    5000001    1    1    2    0    0  0.21664159829E+02 -0.59513062071E+02  0.11769758450E+02  0.14240318673E+03  0.12700000000E+03 0.  0.
   -5000001    1    1    2    0    0 -0.21664159829E+02  0.59513062071E+02 -0.30466000109E+02  0.14514929397E+03  0.12700000000E+03 0.  0.
<mgrwt>
<rscale>  0 0.28694404E+03</rscale>
<asrwt>0</asrwt>
<pdfrwt beam="1">  1        2 0.21874909E-01 0.28694404E+03</pdfrwt>
<pdfrwt beam="2">  1       -2 0.19204017E-01 0.28694404E+03</pdfrwt>
<totfact> 0.56158998E+03</totfact>
</mgrwt>
</event>
<event>
 4    1  0.9508302E-005  0.4486030E+03  0.7818608E-02  0.1028139E+00
         -2   -1    0    0    0  501 -0.00000000000E+00  0.00000000000E+00  0.16400563432E+03  0.16400563434E+03  0.25500000000E-02 0. -1.
          2   -1    0    0  501    0  0.00000000000E+00 -0.00000000000E+00 -0.30676489991E+03  0.30676489992E+03  0.25500000000E-02 0.  1.
    5000001    1    1    2    0    0 -0.94000947463E+02 -0.13260034860E+03  0.21082904868E+02  0.20734637555E+03  0.12700000000E+03 0.  0.
   -5000001    1    1    2    0    0  0.94000947463E+02  0.13260034860E+03 -0.16384217045E+03  0.26342415871E+03  0.12700000000E+03 0.  0.
<mgrwt>
<rscale>  0 0.44860304E+03</rscale>
<asrwt>0</asrwt>
<pdfrwt beam="1">  1        2 0.43823557E-01 0.44860304E+03</pdfrwt>
<pdfrwt beam="2">  1       -2 0.23429376E-01 0.44860304E+03</pdfrwt>
<totfact> 0.18599675E+03</totfact>
</mgrwt>
</event>
<event>
 4    1  0.9508302E-005  0.4190814E+03  0.7818608E-02  0.1037366E+00
         -2   -1    0    0    0  501 -0.00000000000E+00  0.00000000000E+00  0.29622226180E+02  0.29622226290E+02  0.25500000000E-02 0. -1.
          2   -1    0    0  501    0  0.00000000000E+00 -0.00000000000E+00 -0.14822415994E+04  0.14822415994E+04  0.25500000000E-02 0.  1.
    5000001    1    1    2    0    0 -0.15235799205E+03 -0.43097326825E+02 -0.91404040852E+03  0.93630614957E+03  0.12700000000E+03 0.  0.
   -5000001    1    1    2    0    0  0.15235799205E+03  0.43097326825E+02 -0.53857896468E+03  0.57555767610E+03  0.12700000000E+03 0.  0.
<mgrwt>
<rscale>  0 0.41908136E+03</rscale>
<asrwt>0</asrwt>
<pdfrwt beam="1">  1        2 0.21174875E+00 0.41908136E+03</pdfrwt>
<pdfrwt beam="2">  1       -2 0.42317475E-02 0.41908136E+03</pdfrwt>
<totfact> 0.40305795E+03</totfact>
</mgrwt>
</event>
<event>
 4    1  0.9508302E-005  0.2898055E+03  0.7818608E-02  0.1090451E+00
          2   -1    0    0  501    0  0.00000000000E+00  0.00000000000E+00  0.22420838617E+04  0.22420838617E+04  0.25500000000E-02 0.  1.
         -2   -1    0    0    0  501 -0.00000000000E+00 -0.00000000000E+00 -0.93648645201E+01  0.93648648673E+01  0.25500000000E-02 0. -1.
    5000001    1    1    2    0    0  0.53812137663E+02 -0.43050985941E+02  0.10317261904E+04  0.10417951169E+04  0.12700000000E+03 0.  0.
   -5000001    1    1    2    0    0 -0.53812137663E+02  0.43050985941E+02  0.12009928067E+04  0.12096536096E+04  0.12700000000E+03 0.  0.
<mgrwt>
<rscale>  0 0.28980553E+03</rscale>
<asrwt>0</asrwt>
<pdfrwt beam="1">  1        2 0.32029754E+00 0.28980553E+03</pdfrwt>
<pdfrwt beam="2">  1       -2 0.13378384E-02 0.28980553E+03</pdfrwt>
<totfact> 0.93886148E+03</totfact>
</mgrwt>
</event>
<event>
 4    1  0.9508302E-005  0.3271819E+03  0.7818608E-02  0.1072391E+00
         -2   -1    0    0    0  501 -0.00000000000E+00  0.00000000000E+00  0.10265729468E+02  0.10265729785E+02  0.25500000000E-02 0. -1.
          2   -1    0    0  501    0  0.00000000000E+00 -0.00000000000E+00 -0.26069254805E+04  0.26069254806E+04  0.25500000000E-02 0.  1.
    5000001    1    1    2    0    0 -0.54460275847E+02  0.86907439440E+02 -0.12128591435E+04  0.12237953778E+04  0.12700000000E+03 0.  0.
   -5000001    1    1    2    0    0  0.54460275847E+02 -0.86907439440E+02 -0.13838006075E+04  0.13933958325E+04  0.12700000000E+03 0.  0.
<mgrwt>
<rscale>  0 0.32718186E+03</rscale>
<asrwt>0</asrwt>
<pdfrwt beam="1">  1        2 0.37241750E+00 0.32718186E+03</pdfrwt>
<pdfrwt beam="2">  1       -2 0.14665345E-02 0.32718186E+03</pdfrwt>
<totfact> 0.53983064E+03</totfact>
</mgrwt>
</event>
<event>
 4    1  0.9508302E-005  0.2883220E+03  0.7818608E-02  0.1091228E+00
          2   -1    0    0  501    0  0.00000000000E+00  0.00000000000E+00  0.41022963918E+03  0.41022963919E+03  0.25500000000E-02 0.  1.
         -2   -1    0    0    0  501 -0.00000000000E+00 -0.00000000000E+00 -0.50660402985E+02  0.50660403049E+02  0.25500000000E-02 0. -1.
    5000001    1    1    2    0    0  0.29387658745E+02 -0.52023698309E+02  0.23239769480E+03  0.27149178297E+03  0.12700000000E+03 0.  0.
   -5000001    1    1    2    0    0 -0.29387658745E+02  0.52023698309E+02  0.12717154139E+03  0.18939825927E+03  0.12700000000E+03 0.  0.
<mgrwt>
<rscale>  0 0.28832203E+03</rscale>
<asrwt>0</asrwt>
<pdfrwt beam="1">  1        2 0.58604237E-01 0.28832203E+03</pdfrwt>
<pdfrwt beam="2">  1       -2 0.72372001E-02 0.28832203E+03</pdfrwt>
<totfact> 0.92772882E+03</totfact>
</mgrwt>
</event>
<event>
 4    1  0.9508302E-005  0.4668086E+03  0.7818608E-02  0.1022825E+00
         -2   -1    0    0    0  501 -0.00000000000E+00  0.00000000000E+00  0.69031009678E+03  0.69031009679E+03  0.25500000000E-02 0. -1.
          2   -1    0    0  501    0  0.00000000000E+00 -0.00000000000E+00 -0.78917544222E+02  0.78917544264E+02  0.25500000000E-02 0.  1.
    5000001    1    1    2    0    0 -0.68188605143E+02  0.15563286070E+03  0.14527631509E+03  0.25710986159E+03  0.12700000000E+03 0.  0.
   -5000001    1    1    2    0    0  0.68188605143E+02 -0.15563286070E+03  0.46611623747E+03  0.51211777946E+03  0.12700000000E+03 0.  0.
<mgrwt>
<rscale>  0 0.46680864E+03</rscale>
<asrwt>0</asrwt>
<pdfrwt beam="1">  1        2 0.11273935E-01 0.46680864E+03</pdfrwt>
<pdfrwt beam="2">  1       -2 0.98615723E-01 0.46680864E+03</pdfrwt>
<totfact> 0.49183123E+02</totfact>
</mgrwt>
</event>
<event>
 4    1  0.9508302E-005  0.3011121E+03  0.7818608E-02  0.1084686E+00
          2   -1    0    0  501    0  0.00000000000E+00  0.00000000000E+00  0.18981560778E+04  0.18981560778E+04  0.25500000000E-02 0.  1.
         -2   -1    0    0    0  501 -0.00000000000E+00 -0.00000000000E+00 -0.11941655742E+02  0.11941656015E+02  0.25500000000E-02 0. -1.
    5000001    1    1    2    0    0 -0.19558466154E+02 -0.57850343502E+02  0.12793073444E+04  0.12870452507E+04  0.12700000000E+03 0.  0.
   -5000001    1    1    2    0    0  0.19558466154E+02  0.57850343502E+02  0.60690707766E+03  0.62305248315E+03  0.12700000000E+03 0.  0.
<mgrwt>
<rscale>  0 0.30111212E+03</rscale>
<asrwt>0</asrwt>
<pdfrwt beam="1">  1        2 0.27116498E+00 0.30111212E+03</pdfrwt>
<pdfrwt beam="2">  1       -2 0.17059519E-02 0.30111212E+03</pdfrwt>
<totfact> 0.96923597E+03</totfact>
</mgrwt>
</event>
<event>
 4    1  0.9508302E-005  0.4289332E+03  0.7818608E-02  0.1034197E+00
         -2   -1    0    0    0  501 -0.00000000000E+00  0.00000000000E+00  0.11587451337E+03  0.11587451340E+03  0.25500000000E-02 0. -1.
          2   -1    0    0  501    0  0.00000000000E+00 -0.00000000000E+00 -0.39694593853E+03  0.39694593854E+03  0.25500000000E-02 0.  1.
    5000001    1    1    2    0    0 -0.56899711151E+01 -0.17233043692E+03 -0.12655405199E+03  0.24874702679E+03  0.12700000000E+03 0.  0.
   -5000001    1    1    2    0    0  0.56899711151E+01  0.17233043692E+03 -0.15451737317E+03  0.26407342515E+03  0.12700000000E+03 0.  0.
<mgrwt>
<rscale>  0 0.42893318E+03</rscale>
<asrwt>0</asrwt>
<pdfrwt beam="1">  1        2 0.56706562E-01 0.42893318E+03</pdfrwt>
<pdfrwt beam="2">  1       -2 0.16553502E-01 0.42893318E+03</pdfrwt>
<totfact> 0.25539822E+03</totfact>
</mgrwt>
</event>
<event>
 4    1  0.9508302E-005  0.5406738E+03  0.7818608E-02  0.1003676E+00
         -2   -1    0    0    0  501 -0.00000000000E+00  0.00000000000E+00  0.96989513706E+03  0.96989513706E+03  0.25500000000E-02 0. -1.
          2   -1    0    0  501    0  0.00000000000E+00 -0.00000000000E+00 -0.75350452191E+02  0.75350452235E+02  0.25500000000E-02 0.  1.
    5000001    1    1    2    0    0  0.12596776204E+03 -0.16897335755E+03  0.66370031752E+03  0.70784672360E+03  0.12700000000E+03 0.  0.
   -5000001    1    1    2    0    0 -0.12596776204E+03  0.16897335755E+03  0.23084436735E+03  0.33739886569E+03  0.12700000000E+03 0.  0.
<mgrwt>
<rscale>  0 0.54067379E+03</rscale>
<asrwt>0</asrwt>
<pdfrwt beam="1">  1        2 0.10764351E-01 0.54067379E+03</pdfrwt>
<pdfrwt beam="2">  1       -2 0.13855644E+00 0.54067379E+03</pdfrwt>
<totfact> 0.22677405E+02</totfact>
</mgrwt>
</event>
<event>
 4    1  0.9508302E-005  0.3041056E+03  0.7818608E-02  0.1083206E+00
         -2   -1    0    0    0  501 -0.00000000000E+00  0.00000000000E+00  0.52355444306E+02  0.52355444368E+02  0.25500000000E-02 0. -1.
          2   -1    0    0  501    0  0.00000000000E+00 -0.00000000000E+00 -0.44159791936E+03  0.44159791937E+03  0.25500000000E-02 0.  1.
    5000001    1    1    2    0    0  0.75638422052E+02  0.30915648825E+02 -0.16583397526E+03  0.22429189817E+03  0.12700000000E+03 0.  0.
   -5000001    1    1    2    0    0 -0.75638422052E+02 -0.30915648825E+02 -0.22340849979E+03  0.26966146557E+03  0.12700000000E+03 0.  0.
<mgrwt>
<rscale>  0 0.30410561E+03</rscale>
<asrwt>0</asrwt>
<pdfrwt beam="1">  1        2 0.63085415E-01 0.30410561E+03</pdfrwt>
<pdfrwt beam="2">  1       -2 0.74793495E-02 0.30410561E+03</pdfrwt>
<totfact> 0.81503305E+03</totfact>
</mgrwt>
</event>
<event>
 4    1  0.9508302E-005  0.4941657E+03  0.7818608E-02  0.1015313E+00
         -2   -1    0    0    0  501 -0.00000000000E+00  0.00000000000E+00  0.69536733647E+02  0.69536733694E+02  0.25500000000E-02 0. -1.
          2   -1    0    0  501    0  0.00000000000E+00 -0.00000000000E+00 -0.87795223498E+03  0.87795223498E+03  0.25500000000E-02 0.  1.
    5000001    1    1    2    0    0  0.13293095352E+03 -0.16285968635E+03 -0.35250981096E+03  0.42963482478E+03  0.12700000000E+03 0.  0.
   -5000001    1    1    2    0    0 -0.13293095352E+03  0.16285968635E+03 -0.45590569037E+03  0.51785414390E+03  0.12700000000E+03 0.  0.
<mgrwt>
<rscale>  0 0.49416568E+03</rscale>
<asrwt>0</asrwt>
<pdfrwt beam="1">  1        2 0.12542174E+00 0.49416568E+03</pdfrwt>
<pdfrwt beam="2">  1       -2 0.99338196E-02 0.49416568E+03</pdfrwt>
<totfact> 0.23317674E+03</totfact>
</mgrwt>
</event>
<event>
 4    1  0.9508302E-005  0.4988151E+03  0.7818608E-02  0.1014089E+00
         -2   -1    0    0    0  501 -0.00000000000E+00  0.00000000000E+00  0.12789363781E+03  0.12789363784E+03  0.25500000000E-02 0. -1.
          2   -1    0    0  501    0  0.00000000000E+00 -0.00000000000E+00 -0.48637380337E+03  0.48637380338E+03  0.25500000000E-02 0.  1.
    5000001    1    1    2    0    0  0.11157484548E+03 -0.15846246988E+03 -0.65600131068E+02  0.24081461272E+03  0.12700000000E+03 0.  0.
   -5000001    1    1    2    0    0 -0.11157484548E+03  0.15846246988E+03 -0.29288003449E+03  0.37345282849E+03  0.12700000000E+03 0.  0.
<mgrwt>
<rscale>  0 0.49881506E+03</rscale>
<asrwt>0</asrwt>
<pdfrwt beam="1">  1        2 0.69481971E-01 0.49881506E+03</pdfrwt>
<pdfrwt beam="2">  1       -2 0.18270520E-01 0.49881506E+03</pdfrwt>
<totfact> 0.17251387E+03</totfact>
</mgrwt>
</event>
<event>
 4    1  0.9508302E-005  0.4173961E+03  0.7818608E-02  0.1037917E+00
         -2   -1    0    0    0  501 -0.00000000000E+00  0.00000000000E+00  0.15758349553E+02  0.15758349760E+02  0.25500000000E-02 0. -1.
          2   -1    0    0  501    0  0.00000000000E+00 -0.00000000000E+00 -0.27639234136E+04  0.27639234136E+04  0.25500000000E-02 0.  1.
    5000001    1    1    2    0    0  0.10019321070E+03 -0.13180826300E+03 -0.13987983730E+04  0.14142764885E+04  0.12700000000E+03 0.  0.
   -5000001    1    1    2    0    0 -0.10019321070E+03  0.13180826300E+03 -0.13493666911E+04  0.13654052749E+04  0.12700000000E+03 0.  0.
<mgrwt>
<rscale>  0 0.41739608E+03</rscale>
<asrwt>0</asrwt>
<pdfrwt beam="1">  1        2 0.39484589E+00 0.41739608E+03</pdfrwt>
<pdfrwt beam="2">  1       -2 0.22511946E-02 0.41739608E+03</pdfrwt>
<totfact> 0.23651316E+03</totfact>
</mgrwt>
</event>
<event>
 4    1  0.9508302E-005  0.1584947E+04  0.7818608E-02  0.8829849E-01
          2   -1    0    0  501    0  0.00000000000E+00  0.00000000000E+00  0.19277869513E+04  0.19277869513E+04  0.25500000000E-02 0.  1.
         -2   -1    0    0    0  501 -0.00000000000E+00 -0.00000000000E+00 -0.32576950062E+03  0.32576950063E+03  0.25500000000E-02 0. -1.
    5000001    1    1    2    0    0  0.73119265746E+03 -0.27767116584E+03  0.81790505080E+03  0.11387895551E+04  0.12700000000E+03 0.  0.
   -5000001    1    1    2    0    0 -0.73119265746E+03  0.27767116584E+03  0.78411239988E+03  0.11147668968E+04  0.12700000000E+03 0.  0.
<mgrwt>
<rscale>  0 0.15849469E+04</rscale>
<asrwt>0</asrwt>
<pdfrwt beam="1">  1        2 0.27539813E+00 0.15849469E+04</pdfrwt>
<pdfrwt beam="2">  1       -2 0.46538500E-01 0.15849469E+04</pdfrwt>
<totfact> 0.36798456E+01</totfact>
</mgrwt>
</event>
<event>
 4    1  0.9508302E-005  0.2806105E+03  0.7818608E-02  0.1095356E+00
          2   -1    0    0  501    0  0.00000000000E+00  0.00000000000E+00  0.52931452713E+02  0.52931452774E+02  0.25500000000E-02 0.  1.
         -2   -1    0    0    0  501 -0.00000000000E+00 -0.00000000000E+00 -0.37190667160E+03  0.37190667161E+03  0.25500000000E-02 0. -1.
    5000001    1    1    2    0    0 -0.29039884420E+02 -0.21017777327E+02 -0.87331048004E+02  0.15824276854E+03  0.12700000000E+03 0.  0.
   -5000001    1    1    2    0    0  0.29039884420E+02  0.21017777327E+02 -0.23164417089E+03  0.26659535584E+03  0.12700000000E+03 0.  0.
<mgrwt>
<rscale>  0 0.28061048E+03</rscale>
<asrwt>0</asrwt>
<pdfrwt beam="1">  1        2 0.75616363E-02 0.28061048E+03</pdfrwt>
<pdfrwt beam="2">  1       -2 0.53129523E-01 0.28061048E+03</pdfrwt>
<totfact> 0.30978299E+03</totfact>
</mgrwt>
</event>
<event>
 4    1  0.9508302E-005  0.3183049E+03  0.7818608E-02  0.1076432E+00
         -2   -1    0    0    0  501 -0.00000000000E+00  0.00000000000E+00  0.27569855699E+02  0.27569855816E+02  0.25500000000E-02 0. -1.
          2   -1    0    0  501    0  0.00000000000E+00 -0.00000000000E+00 -0.91873905357E+03  0.91873905357E+03  0.25500000000E-02 0.  1.
    5000001    1    1    2    0    0  0.28730154035E+01 -0.90125993754E+02 -0.54281252017E+03  0.56471708052E+03  0.12700000000E+03 0.  0.
   -5000001    1    1    2    0    0 -0.28730154035E+01  0.90125993754E+02 -0.34835667769E+03  0.38159182887E+03  0.12700000000E+03 0.  0.
<mgrwt>
<rscale>  0 0.31830491E+03</rscale>
<asrwt>0</asrwt>
<pdfrwt beam="1">  1        2 0.13124842E+00 0.31830491E+03</pdfrwt>
<pdfrwt beam="2">  1       -2 0.39385514E-02 0.31830491E+03</pdfrwt>
<totfact> 0.92064050E+03</totfact>
</mgrwt>
</event>
<event>
 4    1  0.9508302E-005  0.3023162E+03  0.7818608E-02  0.1084088E+00
         -2   -1    0    0    0  501 -0.00000000000E+00  0.00000000000E+00  0.19181200471E+02  0.19181200641E+02  0.25500000000E-02 0. -1.
          2   -1    0    0  501    0  0.00000000000E+00 -0.00000000000E+00 -0.11912065052E+04  0.11912065052E+04  0.25500000000E-02 0.  1.
    5000001    1    1    2    0    0  0.23130208600E+02  0.73145224256E+02 -0.70167361330E+03  0.71718901971E+03  0.12700000000E+03 0.  0.
   -5000001    1    1    2    0    0 -0.23130208600E+02 -0.73145224256E+02 -0.47035169145E+03  0.49319868616E+03  0.12700000000E+03 0.  0.
<mgrwt>
<rscale>  0 0.30231620E+03</rscale>
<asrwt>0</asrwt>
<pdfrwt beam="1">  1        2 0.17017231E+00 0.30231620E+03</pdfrwt>
<pdfrwt beam="2">  1       -2 0.27401723E-02 0.30231620E+03</pdfrwt>
<totfact> 0.11004498E+04</totfact>
</mgrwt>
</event>
<event>
 4    1  0.9508302E-005  0.3354460E+03  0.7818608E-02  0.1068752E+00
         -2   -1    0    0    0  501 -0.00000000000E+00  0.00000000000E+00  0.23849747215E+02  0.23849747351E+02  0.25500000000E-02 0. -1.
          2   -1    0    0  501    0  0.00000000000E+00 -0.00000000000E+00 -0.11795093976E+04  0.11795093976E+04  0.25500000000E-02 0.  1.
    5000001    1    1    2    0    0 -0.86398562325E+02 -0.59003405576E+02 -0.46126124122E+03  0.48973160618E+03  0.12700000000E+03 0.  0.
   -5000001    1    1    2    0    0  0.86398562325E+02  0.59003405576E+02 -0.69439840914E+03  0.71362753874E+03  0.12700000000E+03 0.  0.
<mgrwt>
<rscale>  0 0.33544598E+03</rscale>
<asrwt>0</asrwt>
<pdfrwt beam="1">  1        2 0.16850131E+00 0.33544598E+03</pdfrwt>
<pdfrwt beam="2">  1       -2 0.34071075E-02 0.33544598E+03</pdfrwt>
<totfact> 0.80834632E+03</totfact>
</mgrwt>
</event>
<event>
 4    1  0.9508302E-005  0.7312188E+03  0.7818608E-02  0.9665285E-01
          2   -1    0    0  501    0  0.00000000000E+00  0.00000000000E+00  0.56413319283E+03  0.56413319284E+03  0.25500000000E-02 0.  1.
         -2   -1    0    0    0  501 -0.00000000000E+00 -0.00000000000E+00 -0.23694799621E+03  0.23694799623E+03  0.25500000000E-02 0. -1.
    5000001    1    1    2    0    0  0.21645620553E+03 -0.18236992140E+03 -0.48357775976E+02  0.31397380726E+03  0.12700000000E+03 0.  0.
   -5000001    1    1    2    0    0 -0.21645620553E+03  0.18236992140E+03  0.37554297260E+03  0.48710738181E+03  0.12700000000E+03 0.  0.
<mgrwt>
<rscale>  0 0.73121879E+03</rscale>
<asrwt>0</asrwt>
<pdfrwt beam="1">  1        2 0.80590455E-01 0.73121879E+03</pdfrwt>
<pdfrwt beam="2">  1       -2 0.33849714E-01 0.73121879E+03</pdfrwt>
<totfact> 0.47888129E+02</totfact>
</mgrwt>
</event>
<event>
 4    1  0.9508302E-005  0.3235896E+03  0.7818608E-02  0.1074009E+00
          2   -1    0    0  501    0  0.00000000000E+00  0.00000000000E+00  0.96597047445E+03  0.96597047445E+03  0.25500000000E-02 0.  1.
         -2   -1    0    0    0  501 -0.00000000000E+00 -0.00000000000E+00 -0.27099743379E+02  0.27099743499E+02  0.25500000000E-02 0. -1.
    5000001    1    1    2    0    0  0.64451241122E+02  0.72141978201E+02  0.55005655071E+03  0.57275617542E+03  0.12700000000E+03 0.  0.
   -5000001    1    1    2    0    0 -0.64451241122E+02 -0.72141978201E+02  0.38881418036E+03  0.42031404253E+03  0.12700000000E+03 0.  0.
<mgrwt>
<rscale>  0 0.32358957E+03</rscale>
<asrwt>0</asrwt>
<pdfrwt beam="1">  1        2 0.13799574E+00 0.32358957E+03</pdfrwt>
<pdfrwt beam="2">  1       -2 0.38713931E-02 0.32358957E+03</pdfrwt>
<totfact> 0.88428330E+03</totfact>
</mgrwt>
</event>
<event>
 4    1  0.9508302E-005  0.1175612E+04  0.7818608E-02  0.9134476E-01
         -2   -1    0    0    0  501 -0.00000000000E+00  0.00000000000E+00  0.19683720788E+03  0.19683720790E+03  0.25500000000E-02 0.  1.
          2   -1    0    0  501    0  0.00000000000E+00 -0.00000000000E+00 -0.17553368937E+04  0.17553368937E+04  0.25500000000E-02 0. -1.
    5000001    1    1    2    0    0 -0.36802464209E+03 -0.21843674252E+03 -0.14142484212E+04  0.14830321455E+04  0.12700000000E+03 0.  0.
   -5000001    1    1    2    0    0  0.36802464209E+03  0.21843674252E+03 -0.14425126466E+03  0.46914195616E+03  0.12700000000E+03 0.  0.
<mgrwt>
<rscale>  0 0.11756115E+04</rscale>
<asrwt>0</asrwt>
<pdfrwt beam="1">  1        2 0.25076240E+00 0.11756115E+04</pdfrwt>
<pdfrwt beam="2">  1       -2 0.28119602E-01 0.11756115E+04</pdfrwt>
<totfact> 0.12262040E+02</totfact>
</mgrwt>
</event>
<event>
 4    1  0.9508302E-005  0.4413301E+03  0.7818608E-02  0.1030339E+00
          2   -1    0    0  501    0  0.00000000000E+00  0.00000000000E+00  0.15815287451E+04  0.15815287451E+04  0.25500000000E-02 0.  1.
         -2   -1    0    0    0  501 -0.00000000000E+00 -0.00000000000E+00 -0.30788602113E+02  0.30788602218E+02  0.25500000000E-02 0. -1.
    5000001    1    1    2    0    0 -0.98012706242E+01 -0.15875994227E+03  0.46401693210E+03  0.50669665230E+03  0.12700000000E+03 0.  0.
   -5000001    1    1    2    0    0  0.98012706242E+01  0.15875994227E+03  0.10867232109E+04  0.11056206950E+04  0.12700000000E+03 0.  0.
<mgrwt>
<rscale>  0 0.44133008E+03</rscale>
<asrwt>0</asrwt>
<pdfrwt beam="1">  1        2 0.22593269E+00 0.44133008E+03</pdfrwt>
<pdfrwt beam="2">  1       -2 0.43983715E-02 0.44133008E+03</pdfrwt>
<totfact> 0.33794247E+03</totfact>
</mgrwt>
</event>
<event>
 4    1  0.9508302E-005  0.2803974E+03  0.7818608E-02  0.1095472E+00
          2   -1    0    0  501    0  0.00000000000E+00  0.00000000000E+00  0.23412593089E+03  0.23412593090E+03  0.25500000000E-02 0.  1.
         -2   -1    0    0    0  501 -0.00000000000E+00 -0.00000000000E+00 -0.83953422251E+02  0.83953422290E+02  0.25500000000E-02 0. -1.
    5000001    1    1    2    0    0  0.27101497145E+02 -0.50871668698E+02  0.58873820651E+02  0.15138541733E+03  0.12700000000E+03 0.  0.
   -5000001    1    1    2    0    0 -0.27101497145E+02  0.50871668698E+02  0.91298687985E+02  0.16669393586E+03  0.12700000000E+03 0.  0.
<mgrwt>
<rscale>  0 0.28039738E+03</rscale>
<asrwt>0</asrwt>
<pdfrwt beam="1">  1        2 0.33446561E-01 0.28039738E+03</pdfrwt>
<pdfrwt beam="2">  1       -2 0.11993346E-01 0.28039738E+03</pdfrwt>
<totfact> 0.76386121E+03</totfact>
</mgrwt>
</event>
<event>
 4    1  0.9508302E-005  0.4155172E+03  0.7818608E-02  0.1038535E+00
         -2   -1    0    0    0  501 -0.00000000000E+00  0.00000000000E+00  0.37949236591E+03  0.37949236592E+03  0.25500000000E-02 0. -1.
          2   -1    0    0  501    0  0.00000000000E+00 -0.00000000000E+00 -0.11374043593E+03  0.11374043596E+03  0.25500000000E-02 0.  1.
    5000001    1    1    2    0    0  0.34083003764E+02  0.11717859612E+03  0.20750347112E+01  0.17614136454E+03  0.12700000000E+03 0.  0.
   -5000001    1    1    2    0    0 -0.34083003764E+02 -0.11717859612E+03  0.26367689527E+03  0.31709143734E+03  0.12700000000E+03 0.  0.
<mgrwt>
<rscale>  0 0.41551716E+03</rscale>
<asrwt>0</asrwt>
<pdfrwt beam="1">  1        2 0.16248634E-01 0.41551716E+03</pdfrwt>
<pdfrwt beam="2">  1       -2 0.54213196E-01 0.41551716E+03</pdfrwt>
<totfact> 0.11644587E+03</totfact>
</mgrwt>
</event>
<event>
 4    1  0.9508302E-005  0.3650813E+03  0.7818608E-02  0.1056590E+00
         -2   -1    0    0    0  501 -0.00000000000E+00  0.00000000000E+00  0.87292502325E+01  0.87292506049E+01  0.25500000000E-02 0. -1.
          2   -1    0    0  501    0  0.00000000000E+00 -0.00000000000E+00 -0.38171761135E+04  0.38171761135E+04  0.25500000000E-02 0.  1.
    5000001    1    1    2    0    0  0.86885807802E+02 -0.77731705691E+02 -0.25330626235E+04  0.25389223336E+04  0.12700000000E+03 0.  0.
   -5000001    1    1    2    0    0 -0.86885807802E+02  0.77731705691E+02 -0.12753842397E+04  0.12869830304E+04  0.12700000000E+03 0.  0.
<mgrwt>
<rscale>  0 0.36508129E+03</rscale>
<asrwt>0</asrwt>
<pdfrwt beam="1">  1        2 0.54530981E+00 0.36508129E+03</pdfrwt>
<pdfrwt beam="2">  1       -2 0.12470382E-02 0.36508129E+03</pdfrwt>
<totfact> 0.14428524E+03</totfact>
</mgrwt>
</event>
<event>
 4    1  0.9508302E-005  0.2838024E+03  0.7818608E-02  0.1093630E+00
          2   -1    0    0  501    0  0.00000000000E+00  0.00000000000E+00  0.64548892260E+02  0.64548892310E+02  0.25500000000E-02 0.  1.
         -2   -1    0    0    0  501 -0.00000000000E+00 -0.00000000000E+00 -0.31194886673E+03  0.31194886674E+03  0.25500000000E-02 0. -1.
    5000001    1    1    2    0    0  0.59021945130E+02 -0.89687442243E+00 -0.15402591758E+03  0.20817631392E+03  0.12700000000E+03 0.  0.
   -5000001    1    1    2    0    0 -0.59021945130E+02  0.89687442243E+00 -0.93374056891E+02  0.16832144513E+03  0.12700000000E+03 0.  0.
<mgrwt>
<rscale>  0 0.28380242E+03</rscale>
<asrwt>0</asrwt>
<pdfrwt beam="1">  1        2 0.92212705E-02 0.28380242E+03</pdfrwt>
<pdfrwt beam="2">  1       -2 0.44564123E-01 0.28380242E+03</pdfrwt>
<totfact> 0.34168749E+03</totfact>
</mgrwt>
</event>
<event>
 4    1  0.9508302E-005  0.3025609E+03  0.7818608E-02  0.1083967E+00
          2   -1    0    0  501    0  0.00000000000E+00  0.00000000000E+00  0.35370412671E+03  0.35370412672E+03  0.25500000000E-02 0.  1.
         -2   -1    0    0    0  501 -0.00000000000E+00 -0.00000000000E+00 -0.64703173784E+02  0.64703173834E+02  0.25500000000E-02 0. -1.
    5000001    1    1    2    0    0  0.33171512044E+00 -0.81162684597E+02  0.12650763610E+03  0.19677569311E+03  0.12700000000E+03 0.  0.
   -5000001    1    1    2    0    0 -0.33171512044E+00  0.81162684597E+02  0.16249331682E+03  0.22163160744E+03  0.12700000000E+03 0.  0.
<mgrwt>
<rscale>  0 0.30256093E+03</rscale>
<asrwt>0</asrwt>
<pdfrwt beam="1">  1        2 0.50529162E-01 0.30256093E+03</pdfrwt>
<pdfrwt beam="2">  1       -2 0.92433104E-02 0.30256093E+03</pdfrwt>
<totfact> 0.74353495E+03</totfact>
</mgrwt>
</event>
<event>
 4    1  0.9508302E-005  0.4763793E+03  0.7818608E-02  0.1020135E+00
         -2   -1    0    0    0  501 -0.00000000000E+00  0.00000000000E+00  0.16656408034E+03  0.16656408036E+03  0.25500000000E-02 0. -1.
          2   -1    0    0  501    0  0.00000000000E+00 -0.00000000000E+00 -0.34061558257E+03  0.34061558258E+03  0.25500000000E-02 0.  1.
    5000001    1    1    2    0    0 -0.19767259020E+03  0.99637391168E+01 -0.46743051002E+02  0.23976580622E+03  0.12700000000E+03 0.  0.
   -5000001    1    1    2    0    0  0.19767259020E+03 -0.99637391168E+01 -0.12730845123E+03  0.26741385672E+03  0.12700000000E+03 0.  0.
<mgrwt>
<rscale>  0 0.47637935E+03</rscale>
<asrwt>0</asrwt>
<pdfrwt beam="1">  1        2 0.48659369E-01 0.47637935E+03</pdfrwt>
<pdfrwt beam="2">  1       -2 0.23794869E-01 0.47637935E+03</pdfrwt>
<totfact> 0.16144797E+03</totfact>
</mgrwt>
</event>
<event>
 4    1  0.9508302E-005  0.4028033E+03  0.7818608E-02  0.1042813E+00
         -2   -1    0    0    0  501 -0.00000000000E+00  0.00000000000E+00  0.43236113538E+02  0.43236113613E+02  0.25500000000E-02 0. -1.
          2   -1    0    0  501    0  0.00000000000E+00 -0.00000000000E+00 -0.93816544206E+03  0.93816544207E+03  0.25500000000E-02 0.  1.
    5000001    1    1    2    0    0  0.10851922732E+03  0.97267732007E+01 -0.72054685746E+03  0.73972143852E+03  0.12700000000E+03 0.  0.
   -5000001    1    1    2    0    0 -0.10851922732E+03 -0.97267732007E+01 -0.17438247107E+03  0.24168011716E+03  0.12700000000E+03 0.  0.
<mgrwt>
<rscale>  0 0.40280331E+03</rscale>
<asrwt>0</asrwt>
<pdfrwt beam="1">  1        2 0.13402362E+00 0.40280331E+03</pdfrwt>
<pdfrwt beam="2">  1       -2 0.61765882E-02 0.40280331E+03</pdfrwt>
<totfact> 0.45197360E+03</totfact>
</mgrwt>
</event>
<event>
 4    1  0.9508302E-005  0.5162986E+03  0.7818608E-02  0.1009610E+00
         -2   -1    0    0    0  501 -0.00000000000E+00  0.00000000000E+00  0.76665223602E+02  0.76665223645E+02  0.25500000000E-02 0.  1.
          2   -1    0    0  501    0  0.00000000000E+00 -0.00000000000E+00 -0.86924747414E+03  0.86924747415E+03  0.25500000000E-02 0. -1.
    5000001    1    1    2    0    0  0.12405480139E+03  0.62049402058E+02 -0.72302131195E+02  0.20148528537E+03  0.12700000000E+03 0.  0.
   -5000001    1    1    2    0    0 -0.12405480139E+03 -0.62049402058E+02 -0.72028011935E+03  0.74442741242E+03  0.12700000000E+03 0.  0.
<mgrwt>
<rscale>  0 0.51629856E+03</rscale>
<asrwt>0</asrwt>
<pdfrwt beam="1">  1        2 0.12417820E+00 0.51629856E+03</pdfrwt>
<pdfrwt beam="2">  1       -2 0.10952175E-01 0.51629856E+03</pdfrwt>
<totfact> 0.20169507E+03</totfact>
</mgrwt>
</event>
<event>
 4    1  0.9508302E-005  0.2825994E+03  0.7818608E-02  0.1094278E+00
         -2   -1    0    0    0  501 -0.00000000000E+00  0.00000000000E+00  0.18768005810E+03  0.18768005811E+03  0.25500000000E-02 0. -1.
          2   -1    0    0  501    0  0.00000000000E+00 -0.00000000000E+00 -0.10638105405E+03  0.10638105408E+03  0.25500000000E-02 0.  1.
    5000001    1    1    2    0    0  0.61396010993E+02 -0.55221669321E+01  0.34351079700E+02  0.14528923281E+03  0.12700000000E+03 0.  0.
   -5000001    1    1    2    0    0 -0.61396010993E+02  0.55221669321E+01  0.46947924349E+02  0.14877187938E+03  0.12700000000E+03 0.  0.
<mgrwt>
<rscale>  0 0.28259938E+03</rscale>
<asrwt>0</asrwt>
<pdfrwt beam="1">  1        2 0.15197293E-01 0.28259938E+03</pdfrwt>
<pdfrwt beam="2">  1       -2 0.26811437E-01 0.28259938E+03</pdfrwt>
<totfact> 0.47873665E+03</totfact>
</mgrwt>
</event>
<event>
 4    1  0.9508302E-005  0.3037467E+03  0.7818608E-02  0.1083383E+00
         -2   -1    0    0    0  501 -0.00000000000E+00  0.00000000000E+00  0.25414423089E+02  0.25414423217E+02  0.25500000000E-02 0. -1.
          2   -1    0    0  501    0  0.00000000000E+00 -0.00000000000E+00 -0.90757573200E+03  0.90757573200E+03  0.25500000000E-02 0.  1.
    5000001    1    1    2    0    0  0.80697048371E+01  0.79273252235E+02 -0.51550897157E+03  0.53686857650E+03  0.12700000000E+03 0.  0.
   -5000001    1    1    2    0    0 -0.80697048371E+01 -0.79273252235E+02 -0.36665233733E+03  0.39612157872E+03  0.12700000000E+03 0.  0.
<mgrwt>
<rscale>  0 0.30374670E+03</rscale>
<asrwt>0</asrwt>
<pdfrwt beam="1">  1        2 0.12965366E+00 0.30374670E+03</pdfrwt>
<pdfrwt beam="2">  1       -2 0.36306324E-02 0.30374670E+03</pdfrwt>
<totfact> 0.10560346E+04</totfact>
</mgrwt>
</event>
<event>
 4    1  0.9508302E-005  0.4762207E+03  0.7818608E-02  0.1020179E+00
          2   -1    0    0  501    0  0.00000000000E+00  0.00000000000E+00  0.40820599344E+03  0.40820599345E+03  0.25500000000E-02 0.  1.
         -2   -1    0    0    0  501 -0.00000000000E+00 -0.00000000000E+00 -0.13889196898E+03  0.13889196900E+03  0.25500000000E-02 0. -1.
    5000001    1    1    2    0    0  0.10780896653E+03 -0.16706424675E+03  0.97709962259E+02  0.25536145467E+03  0.12700000000E+03 0.  0.
   -5000001    1    1    2    0    0 -0.10780896653E+03  0.16706424675E+03  0.17160406221E+03  0.29173650778E+03  0.12700000000E+03 0.  0.
<mgrwt>
<rscale>  0 0.47622068E+03</rscale>
<asrwt>0</asrwt>
<pdfrwt beam="1">  1        2 0.58315143E-01 0.47622068E+03</pdfrwt>
<pdfrwt beam="2">  1       -2 0.19841710E-01 0.47622068E+03</pdfrwt>
<totfact> 0.18187740E+03</totfact>
</mgrwt>
</event>
<event>
 4    1  0.9508302E-005  0.3417267E+03  0.7818608E-02  0.1066063E+00
         -2   -1    0    0    0  501 -0.00000000000E+00  0.00000000000E+00  0.72404613488E+02  0.72404613533E+02  0.25500000000E-02 0. -1.
          2   -1    0    0  501    0  0.00000000000E+00 -0.00000000000E+00 -0.40321019869E+03  0.40321019869E+03  0.25500000000E-02 0.  1.
    5000001    1    1    2    0    0  0.93920743707E+02 -0.55381927482E+02 -0.11765344644E+03  0.20459618141E+03  0.12700000000E+03 0.  0.
   -5000001    1    1    2    0    0 -0.93920743707E+02  0.55381927482E+02 -0.21315213876E+03  0.27101863081E+03  0.12700000000E+03 0.  0.
<mgrwt>
<rscale>  0 0.34172667E+03</rscale>
<asrwt>0</asrwt>
<pdfrwt beam="1">  1        2 0.57601456E-01 0.34172667E+03</pdfrwt>
<pdfrwt beam="2">  1       -2 0.10343516E-01 0.34172667E+03</pdfrwt>
<totfact> 0.54126793E+03</totfact>
</mgrwt>
</event>
<event>
 4    1  0.9508302E-005  0.6295271E+03  0.7818608E-02  0.9845972E-01
         -2   -1    0    0    0  501 -0.00000000000E+00  0.00000000000E+00  0.97037068551E+02  0.97037068585E+02  0.25500000000E-02 0. -1.
          2   -1    0    0  501    0  0.00000000000E+00 -0.00000000000E+00 -0.10210129716E+04  0.10210129716E+04  0.25500000000E-02 0.  1.
    5000001    1    1    2    0    0  0.35378686203E+02 -0.28321370594E+03 -0.39353755682E+03  0.50245642925E+03  0.12700000000E+03 0.  0.
   -5000001    1    1    2    0    0 -0.35378686203E+02  0.28321370594E+03 -0.53043834619E+03  0.61559361090E+03  0.12700000000E+03 0.  0.
<mgrwt>
<rscale>  0 0.62952714E+03</rscale>
<asrwt>0</asrwt>
<pdfrwt beam="1">  1        2 0.14585899E+00 0.62952714E+03</pdfrwt>
<pdfrwt beam="2">  1       -2 0.13862439E-01 0.62952714E+03</pdfrwt>
<totfact> 0.10963556E+03</totfact>
</mgrwt>
</event>
<event>
 4    1  0.9508302E-005  0.3141329E+03  0.7818608E-02  0.1078382E+00
          2   -1    0    0  501    0  0.00000000000E+00  0.00000000000E+00  0.24936770831E+04  0.24936770831E+04  0.25500000000E-02 0.  1.
         -2   -1    0    0    0  501 -0.00000000000E+00 -0.00000000000E+00 -0.98929695164E+01  0.98929698451E+01  0.25500000000E-02 0. -1.
    5000001    1    1    2    0    0 -0.86038679846E+02 -0.10030429842E+02  0.14986139612E+04  0.15064780345E+04  0.12700000000E+03 0.  0.
   -5000001    1    1    2    0    0  0.86038679846E+02  0.10030429842E+02  0.98517015237E+03  0.99709201836E+03  0.12700000000E+03 0.  0.
<mgrwt>
<rscale>  0 0.31413291E+03</rscale>
<asrwt>0</asrwt>
<pdfrwt beam="1">  1        2 0.35623973E+00 0.31413291E+03</pdfrwt>
<pdfrwt beam="2">  1       -2 0.14132808E-02 0.31413291E+03</pdfrwt>
<totfact> 0.65022565E+03</totfact>
</mgrwt>
</event>
<event>
 4    1  0.9508302E-005  0.4786854E+03  0.7818608E-02  0.1019497E+00
         -2   -1    0    0    0  501 -0.00000000000E+00  0.00000000000E+00  0.57249439837E+03  0.57249439837E+03  0.25500000000E-02 0. -1.
          2   -1    0    0  501    0  0.00000000000E+00 -0.00000000000E+00 -0.10006200118E+03  0.10006200121E+03  0.25500000000E-02 0.  1.
    5000001    1    1    2    0    0  0.45957007821E+02 -0.12646495316E+03  0.22902514754E+02  0.18643753948E+03  0.12700000000E+03 0.  0.
   -5000001    1    1    2    0    0 -0.45957007821E+02  0.12646495316E+03  0.44952988243E+03  0.48611886010E+03  0.12700000000E+03 0.  0.
<mgrwt>
<rscale>  0 0.47868543E+03</rscale>
<asrwt>0</asrwt>
<pdfrwt beam="1">  1        2 0.14294572E-01 0.47868543E+03</pdfrwt>
<pdfrwt beam="2">  1       -2 0.81784914E-01 0.47868543E+03</pdfrwt>
<totfact> 0.56363567E+02</totfact>
</mgrwt>
</event>
<event>
 4    1  0.9508302E-005  0.3871649E+03  0.7818608E-02  0.1048317E+00
         -2   -1    0    0    0  501 -0.00000000000E+00  0.00000000000E+00  0.30004520078E+02  0.30004520186E+02  0.25500000000E-02 0. -1.
          2   -1    0    0  501    0  0.00000000000E+00 -0.00000000000E+00 -0.12489509372E+04  0.12489509372E+04  0.25500000000E-02 0.  1.
    5000001    1    1    2    0    0  0.61880851166E+02 -0.11069407612E+03 -0.84911688908E+03  0.86787724337E+03  0.12700000000E+03 0.  0.
   -5000001    1    1    2    0    0 -0.61880851166E+02  0.11069407612E+03 -0.36982952800E+03  0.41107821399E+03  0.12700000000E+03 0.  0.
<mgrwt>
<rscale>  0 0.38716494E+03</rscale>
<asrwt>0</asrwt>
<pdfrwt beam="1">  1        2 0.17842153E+00 0.38716494E+03</pdfrwt>
<pdfrwt beam="2">  1       -2 0.42863608E-02 0.38716494E+03</pdfrwt>
<totfact> 0.52448903E+03</totfact>
</mgrwt>
</event>
<event>
 4    1  0.9508302E-005  0.6432982E+03  0.7818608E-02  0.9819437E-01
          2   -1    0    0  501    0  0.00000000000E+00  0.00000000000E+00  0.87472747344E+03  0.87472747344E+03  0.25500000000E-02 0.  1.
         -2   -1    0    0    0  501 -0.00000000000E+00 -0.00000000000E+00 -0.11827470775E+03  0.11827470778E+03  0.25500000000E-02 0. -1.
    5000001    1    1    2    0    0 -0.39321644756E+02  0.29284555321E+03  0.38585540130E+03  0.50231275167E+03  0.12700000000E+03 0.  0.
   -5000001    1    1    2    0    0  0.39321644756E+02 -0.29284555321E+03  0.37059736439E+03  0.49068942955E+03  0.12700000000E+03 0.  0.
<mgrwt>
<rscale>  0 0.64329818E+03</rscale>
<asrwt>0</asrwt>
<pdfrwt beam="1">  1        2 0.12496107E+00 0.64329818E+03</pdfrwt>
<pdfrwt beam="2">  1       -2 0.16896387E-01 0.64329818E+03</pdfrwt>
<totfact> 0.96972380E+02</totfact>
</mgrwt>
</event>
<event>
 4    1  0.9508302E-005  0.4003170E+03  0.7818608E-02  0.1043670E+00
          2   -1    0    0  501    0  0.00000000000E+00  0.00000000000E+00  0.70412158813E+03  0.70412158813E+03  0.25500000000E-02 0.  1.
         -2   -1    0    0    0  501 -0.00000000000E+00 -0.00000000000E+00 -0.56898446395E+02  0.56898446452E+02  0.25500000000E-02 0. -1.
    5000001    1    1    2    0    0  0.66898130479E+01  0.14780827886E+03  0.40952493276E+03  0.45357657727E+03  0.12700000000E+03 0.  0.
   -5000001    1    1    2    0    0 -0.66898130479E+01 -0.14780827886E+03  0.23769820898E+03  0.30744345732E+03  0.12700000000E+03 0.  0.
<mgrwt>
<rscale>  0 0.40031700E+03</rscale>
<asrwt>0</asrwt>
<pdfrwt beam="1">  1        2 0.10058880E+00 0.40031700E+03</pdfrwt>
<pdfrwt beam="2">  1       -2 0.81283497E-02 0.40031700E+03</pdfrwt>
<totfact> 0.42304568E+03</totfact>
</mgrwt>
</event>
<event>
 4    1  0.9508302E-005  0.6179150E+03  0.7818608E-02  0.9868920E-01
         -2   -1    0    0    0  501 -0.00000000000E+00  0.00000000000E+00  0.53400711537E+03  0.53400711537E+03  0.25500000000E-02 0. -1.
          2   -1    0    0  501    0  0.00000000000E+00 -0.00000000000E+00 -0.17875181912E+03  0.17875181914E+03  0.25500000000E-02 0.  1.
    5000001    1    1    2    0    0 -0.27984430478E+03 -0.19976857982E+02  0.14904916188E+03  0.34213529843E+03  0.12700000000E+03 0.  0.
   -5000001    1    1    2    0    0  0.27984430478E+03  0.19976857982E+02  0.20620613436E+03  0.37062363608E+03  0.12700000000E+03 0.  0.
<mgrwt>
<rscale>  0 0.61791502E+03</rscale>
<asrwt>0</asrwt>
<pdfrwt beam="1">  1        2 0.25535974E-01 0.61791502E+03</pdfrwt>
<pdfrwt beam="2">  1       -2 0.76286731E-01 0.61791502E+03</pdfrwt>
<totfact> 0.33212604E+02</totfact>
</mgrwt>
</event>
<event>
 4    1  0.9508302E-005  0.4006355E+03  0.7818608E-02  0.1043560E+00
         -2   -1    0    0    0  501 -0.00000000000E+00  0.00000000000E+00  0.12403790261E+02  0.12403790523E+02  0.25500000000E-02 0. -1.
          2   -1    0    0  501    0  0.00000000000E+00 -0.00000000000E+00 -0.32350757887E+04  0.32350757887E+04  0.25500000000E-02 0.  1.
    5000001    1    1    2    0    0 -0.90764985891E+02 -0.95539880864E+02 -0.95121901638E+03  0.96866545753E+03  0.12700000000E+03 0.  0.
   -5000001    1    1    2    0    0  0.90764985891E+02  0.95539880864E+02 -0.22714529820E+04  0.22788141217E+04  0.12700000000E+03 0.  0.
<mgrwt>
<rscale>  0 0.40063551E+03</rscale>
<asrwt>0</asrwt>
<pdfrwt beam="1">  1        2 0.46215314E+00 0.40063551E+03</pdfrwt>
<pdfrwt beam="2">  1       -2 0.17719721E-02 0.40063551E+03</pdfrwt>
<totfact> 0.18866945E+03</totfact>
</mgrwt>
</event>
<event>
 4    1  0.9508302E-005  0.4916535E+03  0.7818608E-02  0.1015981E+00
          2   -1    0    0  501    0  0.00000000000E+00  0.00000000000E+00  0.56543942250E+03  0.56543942251E+03  0.25500000000E-02 0.  1.
         -2   -1    0    0    0  501 -0.00000000000E+00 -0.00000000000E+00 -0.10687403859E+03  0.10687403862E+03  0.25500000000E-02 0. -1.
    5000001    1    1    2    0    0 -0.62694268236E+02  0.11087350745E+03  0.45842114484E+03  0.49244537968E+03  0.12700000000E+03 0.  0.
   -5000001    1    1    2    0    0  0.62694268236E+02 -0.11087350745E+03  0.14423906535E+00  0.17986808146E+03  0.12700000000E+03 0.  0.
<mgrwt>
<rscale>  0 0.49165351E+03</rscale>
<asrwt>0</asrwt>
<pdfrwt beam="1">  1        2 0.80777061E-01 0.49165351E+03</pdfrwt>
<pdfrwt beam="2">  1       -2 0.15267720E-01 0.49165351E+03</pdfrwt>
<totfact> 0.19702289E+03</totfact>
</mgrwt>
</event>
<event>
 4    1  0.9508302E-005  0.3214201E+03  0.7818608E-02  0.1074998E+00
         -2   -1    0    0    0  501 -0.00000000000E+00  0.00000000000E+00  0.32637458335E+02  0.32637458435E+02  0.25500000000E-02 0. -1.
          2   -1    0    0  501    0  0.00000000000E+00 -0.00000000000E+00 -0.79135206979E+03  0.79135206979E+03  0.25500000000E-02 0.  1.
    5000001    1    1    2    0    0  0.75363342463E+02  0.29570782579E+02 -0.23559825055E+03  0.27962403372E+03  0.12700000000E+03 0.  0.
   -5000001    1    1    2    0    0 -0.75363342463E+02 -0.29570782579E+02 -0.52311636090E+03  0.54436549451E+03  0.12700000000E+03 0.  0.
<mgrwt>
<rscale>  0 0.32142010E+03</rscale>
<asrwt>0</asrwt>
<pdfrwt beam="1">  1        2 0.11305028E+00 0.32142010E+03</pdfrwt>
<pdfrwt beam="2">  1       -2 0.46624946E-02 0.32142010E+03</pdfrwt>
<totfact> 0.86288482E+03</totfact>
</mgrwt>
</event>
<event>
 4    1  0.9508302E-005  0.2864390E+03  0.7818608E-02  0.1092223E+00
         -2   -1    0    0    0  501 -0.00000000000E+00  0.00000000000E+00  0.32648099530E+02  0.32648099630E+02  0.25500000000E-02 0. -1.
          2   -1    0    0  501    0  0.00000000000E+00 -0.00000000000E+00 -0.62827014380E+03  0.62827014380E+03  0.25500000000E-02 0.  1.
    5000001    1    1    2    0    0  0.52782336668E+02 -0.27617361583E+02 -0.36445073243E+03  0.39051508306E+03  0.12700000000E+03 0.  0.
   -5000001    1    1    2    0    0 -0.52782336668E+02  0.27617361583E+02 -0.23117131184E+03  0.27040316037E+03  0.12700000000E+03 0.  0.
<mgrwt>
<rscale>  0 0.28643901E+03</rscale>
<asrwt>0</asrwt>
<pdfrwt beam="1">  1        2 0.89752870E-01 0.28643901E+03</pdfrwt>
<pdfrwt beam="2">  1       -2 0.46640146E-02 0.28643901E+03</pdfrwt>
<totfact> 0.11320229E+04</totfact>
</mgrwt>
</event>
<event>
 4    1  0.9508302E-005  0.7757941E+03  0.7818608E-02  0.9595731E-01
          2   -1    0    0  501    0  0.00000000000E+00  0.00000000000E+00  0.34520756027E+03  0.34520756028E+03  0.25500000000E-02 0.  1.
         -2   -1    0    0    0  501 -0.00000000000E+00 -0.00000000000E+00 -0.43586561316E+03  0.43586561316E+03  0.25500000000E-02 0. -1.
    5000001    1    1    2    0    0  0.30729064662E+03 -0.97785567506E+02 -0.22071414991E+03  0.41089328868E+03  0.12700000000E+03 0.  0.
   -5000001    1    1    2    0    0 -0.30729064662E+03  0.97785567506E+02  0.13005609702E+03  0.37017988476E+03  0.12700000000E+03 0.  0.
<mgrwt>
<rscale>  0 0.77579406E+03</rscale>
<asrwt>0</asrwt>
<pdfrwt beam="1">  1        2 0.49315366E-01 0.77579406E+03</pdfrwt>
<pdfrwt beam="2">  1       -2 0.62266516E-01 0.77579406E+03</pdfrwt>
<totfact> 0.24600347E+02</totfact>
</mgrwt>
</event>
<event>
 4    1  0.9508302E-005  0.5085366E+03  0.7818608E-02  0.1011574E+00
          2   -1    0    0  501    0  0.00000000000E+00  0.00000000000E+00  0.53101011979E+03  0.53101011980E+03  0.25500000000E-02 0.  1.
         -2   -1    0    0    0  501 -0.00000000000E+00 -0.00000000000E+00 -0.12175356445E+03  0.12175356448E+03  0.25500000000E-02 0. -1.
    5000001    1    1    2    0    0  0.17304821648E+03 -0.74773845549E+02  0.35090689240E+03  0.41809264564E+03  0.12700000000E+03 0.  0.
   -5000001    1    1    2    0    0 -0.17304821648E+03  0.74773845549E+02  0.58349662939E+02  0.23467103863E+03  0.12700000000E+03 0.  0.
<mgrwt>
<rscale>  0 0.50853663E+03</rscale>
<asrwt>0</asrwt>
<pdfrwt beam="1">  1        2 0.75858589E-01 0.50853663E+03</pdfrwt>
<pdfrwt beam="2">  1       -2 0.17393366E-01 0.50853663E+03</pdfrwt>
<totfact> 0.16987142E+03</totfact>
</mgrwt>
</event>
<event>
 4    1  0.9508302E-005  0.9508573E+03  0.7818608E-02  0.9364149E-01
          2   -1    0    0  501    0  0.00000000000E+00  0.00000000000E+00  0.25027376992E+03  0.25027376993E+03  0.25500000000E-02 0.  1.
         -2   -1    0    0    0  501 -0.00000000000E+00 -0.00000000000E+00 -0.90314064488E+03  0.90314064488E+03  0.25500000000E-02 0. -1.
    5000001    1    1    2    0    0 -0.32143087884E+03  0.22851426110E+03 -0.60927097613E+03  0.73680166921E+03  0.12700000000E+03 0.  0.
   -5000001    1    1    2    0    0  0.32143087884E+03 -0.22851426110E+03 -0.43595898827E+02  0.41661274560E+03  0.12700000000E+03 0.  0.
<mgrwt>
<rscale>  0 0.95085733E+03</rscale>
<asrwt>0</asrwt>
<pdfrwt beam="1">  1        2 0.35753396E-01 0.95085733E+03</pdfrwt>
<pdfrwt beam="2">  1       -2 0.12902009E+00 0.95085733E+03</pdfrwt>
<totfact> 0.64704308E+01</totfact>
</mgrwt>
</event>
<event>
 4    1  0.9508302E-005  0.3621696E+03  0.7818608E-02  0.1057728E+00
          2   -1    0    0  501    0  0.00000000000E+00  0.00000000000E+00  0.17138154419E+04  0.17138154419E+04  0.25500000000E-02 0.  1.
         -2   -1    0    0    0  501 -0.00000000000E+00 -0.00000000000E+00 -0.19133747749E+02  0.19133747919E+02  0.25500000000E-02 0. -1.
    5000001    1    1    2    0    0 -0.10864576214E+03 -0.60821617845E+02  0.10102768153E+04  0.10258125630E+04  0.12700000000E+03 0.  0.
   -5000001    1    1    2    0    0  0.10864576214E+03  0.60821617845E+02  0.68440487883E+03  0.70713662682E+03  0.12700000000E+03 0.  0.
<mgrwt>
<rscale>  0 0.36216964E+03</rscale>
<asrwt>0</asrwt>
<pdfrwt beam="1">  1        2 0.24483062E+00 0.36216964E+03</pdfrwt>
<pdfrwt beam="2">  1       -2 0.27333943E-02 0.36216964E+03</pdfrwt>
<totfact> 0.59521689E+03</totfact>
</mgrwt>
</event>
<event>
 4    1  0.9508302E-005  0.5182191E+03  0.7818608E-02  0.1009130E+00
         -2   -1    0    0    0  501 -0.00000000000E+00  0.00000000000E+00  0.13842188429E+03  0.13842188432E+03  0.25500000000E-02 0. -1.
          2   -1    0    0  501    0  0.00000000000E+00 -0.00000000000E+00 -0.48502270996E+03  0.48502270997E+03  0.25500000000E-02 0.  1.
    5000001    1    1    2    0    0  0.19163417991E+03  0.65303058415E+02 -0.52871292804E+02  0.24477034533E+03  0.12700000000E+03 0.  0.
   -5000001    1    1    2    0    0 -0.19163417991E+03 -0.65303058415E+02 -0.29372953287E+03  0.37867424896E+03  0.12700000000E+03 0.  0.
<mgrwt>
<rscale>  0 0.51821909E+03</rscale>
<asrwt>0</asrwt>
<pdfrwt beam="1">  1        2 0.69288958E-01 0.51821909E+03</pdfrwt>
<pdfrwt beam="2">  1       -2 0.19774555E-01 0.51821909E+03</pdfrwt>
<totfact> 0.15100384E+03</totfact>
</mgrwt>
</event>
<event>
 4    1  0.9508302E-005  0.3629575E+03  0.7818608E-02  0.1057419E+00
          2   -1    0    0  501    0  0.00000000000E+00  0.00000000000E+00  0.18920305984E+04  0.18920305984E+04  0.25500000000E-02 0.  1.
         -2   -1    0    0    0  501 -0.00000000000E+00 -0.00000000000E+00 -0.17406977904E+02  0.17406978091E+02  0.25500000000E-02 0. -1.
    5000001    1    1    2    0    0 -0.10682232618E+02 -0.11775826452E+03  0.12168969190E+04  0.12292063417E+04  0.12700000000E+03 0.  0.
   -5000001    1    1    2    0    0  0.10682232618E+02  0.11775826452E+03  0.65772670154E+03  0.68023123485E+03  0.12700000000E+03 0.  0.
<mgrwt>
<rscale>  0 0.36295749E+03</rscale>
<asrwt>0</asrwt>
<pdfrwt beam="1">  1        2 0.27029002E+00 0.36295749E+03</pdfrwt>
<pdfrwt beam="2">  1       -2 0.24867118E-02 0.36295749E+03</pdfrwt>
<totfact> 0.55941456E+03</totfact>
</mgrwt>
</event>
<event>
 4    1  0.9508302E-005  0.3113939E+03  0.7818608E-02  0.1079680E+00
         -2   -1    0    0    0  501 -0.00000000000E+00  0.00000000000E+00  0.29290375008E+02  0.29290375119E+02  0.25500000000E-02 0. -1.
          2   -1    0    0  501    0  0.00000000000E+00 -0.00000000000E+00 -0.82762806227E+03  0.82762806228E+03  0.25500000000E-02 0.  1.
    5000001    1    1    2    0    0 -0.34233606874E+02 -0.81468316570E+02 -0.44711081227E+03  0.47312377334E+03  0.12700000000E+03 0.  0.
   -5000001    1    1    2    0    0  0.34233606874E+02  0.81468316570E+02 -0.35122687499E+03  0.38379466406E+03  0.12700000000E+03 0.  0.
<mgrwt>
<rscale>  0 0.31139388E+03</rscale>
<asrwt>0</asrwt>
<pdfrwt beam="1">  1        2 0.11823257E+00 0.31139388E+03</pdfrwt>
<pdfrwt beam="2">  1       -2 0.41843398E-02 0.31139388E+03</pdfrwt>
<totfact> 0.96042254E+03</totfact>
</mgrwt>
</event>
<event>
 4    1  0.9508302E-005  0.7740414E+03  0.7818608E-02  0.9598370E-01
          2   -1    0    0  501    0  0.00000000000E+00  0.00000000000E+00  0.25103549237E+04  0.25103549237E+04  0.25500000000E-02 0.  1.
         -2   -1    0    0    0  501 -0.00000000000E+00 -0.00000000000E+00 -0.59666863195E+02  0.59666863249E+02  0.25500000000E-02 0. -1.
    5000001    1    1    2    0    0  0.18030843320E+03  0.28246486000E+03  0.74010271756E+03  0.82230077268E+03  0.12700000000E+03 0.  0.
   -5000001    1    1    2    0    0 -0.18030843320E+03 -0.28246486000E+03  0.17105853429E+04  0.17477210143E+04  0.12700000000E+03 0.  0.
<mgrwt>
<rscale>  0 0.77404135E+03</rscale>
<asrwt>0</asrwt>
<pdfrwt beam="1">  1        2 0.35862208E+00 0.77404135E+03</pdfrwt>
<pdfrwt beam="2">  1       -2 0.85238389E-02 0.77404135E+03</pdfrwt>
<totfact> 0.39881968E+02</totfact>
</mgrwt>
</event>
<event>
 4    1  0.9508302E-005  0.4758247E+03  0.7818608E-02  0.1020289E+00
          2   -1    0    0  501    0  0.00000000000E+00  0.00000000000E+00  0.23220055419E+04  0.23220055419E+04  0.25500000000E-02 0.  1.
         -2   -1    0    0    0  501 -0.00000000000E+00 -0.00000000000E+00 -0.24376462768E+02  0.24376462902E+02  0.25500000000E-02 0. -1.
    5000001    1    1    2    0    0  0.10673233377E+03  0.98260987093E+02  0.46151436430E+03  0.50017149170E+03  0.12700000000E+03 0.  0.
   -5000001    1    1    2    0    0 -0.10673233377E+03 -0.98260987093E+02  0.18361147148E+04  0.18462105131E+04  0.12700000000E+03 0.  0.
<mgrwt>
<rscale>  0 0.47582468E+03</rscale>
<asrwt>0</asrwt>
<pdfrwt beam="1">  1        2 0.33171509E+00 0.47582468E+03</pdfrwt>
<pdfrwt beam="2">  1       -2 0.34823517E-02 0.47582468E+03</pdfrwt>
<totfact> 0.20539359E+03</totfact>
</mgrwt>
</event>
<event>
 4    1  0.9508302E-005  0.3116575E+03  0.7818608E-02  0.1079554E+00
          2   -1    0    0  501    0  0.00000000000E+00  0.00000000000E+00  0.14862307229E+04  0.14862307229E+04  0.25500000000E-02 0.  1.
         -2   -1    0    0    0  501 -0.00000000000E+00 -0.00000000000E+00 -0.16338381808E+02  0.16338382007E+02  0.25500000000E-02 0. -1.
    5000001    1    1    2    0    0  0.22867795320E+02  0.82546489187E+02  0.87273067743E+03  0.88607262359E+03  0.12700000000E+03 0.  0.
   -5000001    1    1    2    0    0 -0.22867795320E+02 -0.82546489187E+02  0.59716166370E+03  0.61649648136E+03  0.12700000000E+03 0.  0.
<mgrwt>
<rscale>  0 0.31165754E+03</rscale>
<asrwt>0</asrwt>
<pdfrwt beam="1">  1        2 0.21231872E+00 0.31165754E+03</pdfrwt>
<pdfrwt beam="2">  1       -2 0.23340541E-02 0.31165754E+03</pdfrwt>
<totfact> 0.97812463E+03</totfact>
</mgrwt>
</event>
<event>
 4    1  0.9508302E-005  0.5764409E+03  0.7818608E-02  0.9955526E-01
          2   -1    0    0  501    0  0.00000000000E+00  0.00000000000E+00  0.18073563180E+03  0.18073563182E+03  0.25500000000E-02 0.  1.
         -2   -1    0    0    0  501 -0.00000000000E+00 -0.00000000000E+00 -0.45962727757E+03  0.45962727757E+03  0.25500000000E-02 0. -1.
    5000001    1    1    2    0    0  0.14366621455E+03 -0.84907138243E+02  0.80198459347E+02  0.22452170543E+03  0.12700000000E+03 0.  0.
   -5000001    1    1    2    0    0 -0.14366621455E+03  0.84907138243E+02 -0.35909010511E+03  0.41584120397E+03  0.12700000000E+03 0.  0.
<mgrwt>
<rscale>  0 0.57644090E+03</rscale>
<asrwt>0</asrwt>
<pdfrwt beam="1">  1        2 0.25819376E-01 0.57644090E+03</pdfrwt>
<pdfrwt beam="2">  1       -2 0.65661040E-01 0.57644090E+03</pdfrwt>
<totfact> 0.45509330E+02</totfact>
</mgrwt>
</event>
<event>
 4    1  0.9508302E-005  0.4781718E+03  0.7818608E-02  0.1019639E+00
         -2   -1    0    0    0  501 -0.00000000000E+00  0.00000000000E+00  0.10406772802E+03  0.10406772805E+03  0.25500000000E-02 0. -1.
          2   -1    0    0  501    0  0.00000000000E+00 -0.00000000000E+00 -0.54927754902E+03  0.54927754902E+03  0.25500000000E-02 0.  1.
    5000001    1    1    2    0    0  0.16553019126E+03 -0.10809461843E+03 -0.28291572133E+03  0.36777030349E+03  0.12700000000E+03 0.  0.
   -5000001    1    1    2    0    0 -0.16553019126E+03  0.10809461843E+03 -0.16229409967E+03  0.28557497359E+03  0.12700000000E+03 0.  0.
<mgrwt>
<rscale>  0 0.47817180E+03</rscale>
<asrwt>0</asrwt>
<pdfrwt beam="1">  1        2 0.78468220E-01 0.47817180E+03</pdfrwt>
<pdfrwt beam="2">  1       -2 0.14866819E-01 0.47817180E+03</pdfrwt>
<totfact> 0.21296274E+03</totfact>
</mgrwt>
</event>
<event>
 4    1  0.9508302E-005  0.3540968E+03  0.7818608E-02  0.1060946E+00
         -2   -1    0    0    0  501 -0.00000000000E+00  0.00000000000E+00  0.44668150890E+02  0.44668150963E+02  0.25500000000E-02 0. -1.
          2   -1    0    0  501    0  0.00000000000E+00 -0.00000000000E+00 -0.70175573695E+03  0.70175573695E+03  0.25500000000E-02 0.  1.
    5000001    1    1    2    0    0 -0.83324776316E+02  0.38149740863E+02 -0.15447750261E+03  0.21997890782E+03  0.12700000000E+03 0.  0.
   -5000001    1    1    2    0    0  0.83324776316E+02 -0.38149740863E+02 -0.50261008345E+03  0.52644498009E+03  0.12700000000E+03 0.  0.
<mgrwt>
<rscale>  0 0.35409677E+03</rscale>
<asrwt>0</asrwt>
<pdfrwt beam="1">  1        2 0.10025081E+00 0.35409677E+03</pdfrwt>
<pdfrwt beam="2">  1       -2 0.63811648E-02 0.35409677E+03</pdfrwt>
<totfact> 0.61877387E+03</totfact>
</mgrwt>
</event>
<event>
 4    1  0.9508302E-005  0.3061855E+03  0.7818608E-02  0.1082189E+00
          2   -1    0    0  501    0  0.00000000000E+00  0.00000000000E+00  0.58624444049E+03  0.58624444049E+03  0.25500000000E-02 0.  1.
         -2   -1    0    0    0  501 -0.00000000000E+00 -0.00000000000E+00 -0.39978868468E+02  0.39978868549E+02  0.25500000000E-02 0. -1.
    5000001    1    1    2    0    0  0.56843755564E+02  0.63819848085E+02  0.26893936870E+03  0.30945366308E+03  0.12700000000E+03 0.  0.
   -5000001    1    1    2    0    0 -0.56843755564E+02 -0.63819848085E+02  0.27732620332E+03  0.31676964596E+03  0.12700000000E+03 0.  0.
<mgrwt>
<rscale>  0 0.30618550E+03</rscale>
<asrwt>0</asrwt>
<pdfrwt beam="1">  1        2 0.83749206E-01 0.30618550E+03</pdfrwt>
<pdfrwt beam="2">  1       -2 0.57112669E-02 0.30618550E+03</pdfrwt>
<totfact> 0.90211313E+03</totfact>
</mgrwt>
</event>
<event>
 4    1  0.9508302E-005  0.1425194E+04  0.7818608E-02  0.8935781E-01
          2   -1    0    0  501    0  0.00000000000E+00  0.00000000000E+00  0.17801128001E+04  0.17801128001E+04  0.25500000000E-02 0.  1.
         -2   -1    0    0    0  501 -0.00000000000E+00 -0.00000000000E+00 -0.28525960818E+03  0.28525960819E+03  0.25500000000E-02 0. -1.
    5000001    1    1    2    0    0  0.60967343038E+03 -0.31903028232E+03  0.94284273696E+03  0.11741224124E+04  0.12700000000E+03 0.  0.
   -5000001    1    1    2    0    0 -0.60967343038E+03  0.31903028232E+03  0.55201045497E+03  0.89124999587E+03  0.12700000000E+03 0.  0.
<mgrwt>
<rscale>  0 0.14251937E+04</rscale>
<asrwt>0</asrwt>
<pdfrwt beam="1">  1        2 0.25430182E+00 0.14251937E+04</pdfrwt>
<pdfrwt beam="2">  1       -2 0.40751373E-01 0.14251937E+04</pdfrwt>
<totfact> 0.57779244E+01</totfact>
</mgrwt>
</event>
<event>
 4    1  0.9508302E-005  0.5484126E+03  0.7818608E-02  0.1001862E+00
         -2   -1    0    0    0  501 -0.00000000000E+00  0.00000000000E+00  0.28637990289E+03  0.28637990290E+03  0.25500000000E-02 0. -1.
          2   -1    0    0  501    0  0.00000000000E+00 -0.00000000000E+00 -0.26255017884E+03  0.26255017886E+03  0.25500000000E-02 0.  1.
    5000001    1    1    2    0    0  0.18256654482E+03 -0.14973727927E+03  0.69486947361E+02  0.27696431529E+03  0.12700000000E+03 0.  0.
   -5000001    1    1    2    0    0 -0.18256654482E+03  0.14973727927E+03 -0.45657223315E+02  0.27196576647E+03  0.12700000000E+03 0.  0.
<mgrwt>
<rscale>  0 0.54841260E+03</rscale>
<asrwt>0</asrwt>
<pdfrwt beam="1">  1        2 0.37507168E-01 0.54841260E+03</pdfrwt>
<pdfrwt beam="2">  1       -2 0.40911415E-01 0.54841260E+03</pdfrwt>
<totfact> 0.78659785E+02</totfact>
</mgrwt>
</event>
<event>
 4    1  0.9508302E-005  0.4184105E+03  0.7818608E-02  0.1037585E+00
         -2   -1    0    0    0  501 -0.00000000000E+00  0.00000000000E+00  0.50898563944E+02  0.50898564008E+02  0.25500000000E-02 0. -1.
          2   -1    0    0  501    0  0.00000000000E+00 -0.00000000000E+00 -0.85988338265E+03  0.85988338265E+03  0.25500000000E-02 0.  1.
    5000001    1    1    2    0    0 -0.10436661695E+03  0.67807880011E+01 -0.12319671610E+03  0.20553540006E+03  0.12700000000E+03 0.  0.
   -5000001    1    1    2    0    0  0.10436661695E+03 -0.67807880011E+01 -0.68578810261E+03  0.70524654660E+03  0.12700000000E+03 0.  0.
<mgrwt>
<rscale>  0 0.41841047E+03</rscale>
<asrwt>0</asrwt>
<pdfrwt beam="1">  1        2 0.12284047E+00 0.41841047E+03</pdfrwt>
<pdfrwt beam="2">  1       -2 0.72712239E-02 0.41841047E+03</pdfrwt>
<totfact> 0.39311934E+03</totfact>
</mgrwt>
</event>
<event>
 4    1  0.9508302E-005  0.3212349E+03  0.7818608E-02  0.1075082E+00
          2   -1    0    0  501    0  0.00000000000E+00  0.00000000000E+00  0.16826218081E+03  0.16826218083E+03  0.25500000000E-02 0.  1.
         -2   -1    0    0    0  501 -0.00000000000E+00 -0.00000000000E+00 -0.15332005898E+03  0.15332005900E+03  0.25500000000E-02 0. -1.
    5000001    1    1    2    0    0  0.12474522366E+02 -0.31027362342E+02 -0.85098679607E+02  0.15648992361E+03  0.12700000000E+03 0.  0.
   -5000001    1    1    2    0    0 -0.12474522366E+02  0.31027362342E+02  0.10004080143E+03  0.16509231622E+03  0.12700000000E+03 0.  0.
<mgrwt>
<rscale>  0 0.32123491E+03</rscale>
<asrwt>0</asrwt>
<pdfrwt beam="1">  1        2 0.24037454E-01 0.32123491E+03</pdfrwt>
<pdfrwt beam="2">  1       -2 0.21902866E-01 0.32123491E+03</pdfrwt>
<totfact> 0.40401597E+03</totfact>
</mgrwt>
</event>
<event>
 4    1  0.9508302E-005  0.6064439E+03  0.7818608E-02  0.9892126E-01
          2   -1    0    0  501    0  0.00000000000E+00  0.00000000000E+00  0.39339100900E+04  0.39339100900E+04  0.25500000000E-02 0.  1.
         -2   -1    0    0    0  501 -0.00000000000E+00 -0.00000000000E+00 -0.23372051467E+02  0.23372051606E+02  0.25500000000E-02 0. -1.
    5000001    1    1    2    0    0 -0.25220903036E+03 -0.11039876197E+03  0.19281531213E+04  0.19518454705E+04  0.12700000000E+03 0.  0.
   -5000001    1    1    2    0    0  0.25220903036E+03  0.11039876197E+03  0.19823849173E+04  0.20054366711E+04  0.12700000000E+03 0.  0.
<mgrwt>
<rscale>  0 0.60644389E+03</rscale>
<asrwt>0</asrwt>
<pdfrwt beam="1">  1        2 0.56198660E+00 0.60644389E+03</pdfrwt>
<pdfrwt beam="2">  1       -2 0.33388678E-02 0.60644389E+03</pdfrwt>
<totfact> 0.26877159E+02</totfact>
</mgrwt>
</event>
<event>
 4    1  0.9508302E-005  0.5055043E+03  0.7818608E-02  0.1012352E+00
          2   -1    0    0  501    0  0.00000000000E+00  0.00000000000E+00  0.32576916087E+04  0.32576916087E+04  0.25500000000E-02 0.  1.
         -2   -1    0    0    0  501 -0.00000000000E+00 -0.00000000000E+00 -0.19610094783E+02  0.19610094949E+02  0.25500000000E-02 0. -1.
    5000001    1    1    2    0    0  0.67381236406E+02  0.18850744794E+03  0.10509026773E+04  0.10773118054E+04  0.12700000000E+03 0.  0.
   -5000001    1    1    2    0    0 -0.67381236406E+02 -0.18850744794E+03  0.21871788366E+04  0.21999898982E+04  0.12700000000E+03 0.  0.
<mgrwt>
<rscale>  0 0.50550427E+03</rscale>
<asrwt>0</asrwt>
<pdfrwt beam="1">  1        2 0.46538422E+00 0.50550427E+03</pdfrwt>
<pdfrwt beam="2">  1       -2 0.28014439E-02 0.50550427E+03</pdfrwt>
<totfact> 0.91324238E+02</totfact>
</mgrwt>
</event>
<event>
 4    1  0.9508302E-005  0.5247084E+03  0.7818608E-02  0.1007524E+00
          2   -1    0    0  501    0  0.00000000000E+00  0.00000000000E+00  0.24697662743E+04  0.24697662743E+04  0.25500000000E-02 0.  1.
         -2   -1    0    0    0  501 -0.00000000000E+00 -0.00000000000E+00 -0.27868924574E+02  0.27868924691E+02  0.25500000000E-02 0. -1.
    5000001    1    1    2    0    0  0.18676438473E+03  0.12741691839E+03  0.10314580409E+04  0.10635556857E+04  0.12700000000E+03 0.  0.
   -5000001    1    1    2    0    0 -0.18676438473E+03 -0.12741691839E+03  0.14104393089E+04  0.14340795133E+04  0.12700000000E+03 0.  0.
<mgrwt>
<rscale>  0 0.52470841E+03</rscale>
<asrwt>0</asrwt>
<pdfrwt beam="1">  1        2 0.35282348E+00 0.52470841E+03</pdfrwt>
<pdfrwt beam="2">  1       -2 0.39812780E-02 0.52470841E+03</pdfrwt>
<totfact> 0.14055384E+03</totfact>
</mgrwt>
</event>
<event>
 4    1  0.9508302E-005  0.4389220E+03  0.7818608E-02  0.1031078E+00
         -2   -1    0    0    0  501 -0.00000000000E+00  0.00000000000E+00  0.12083000829E+02  0.12083001098E+02  0.25500000000E-02 0. -1.
          2   -1    0    0  501    0  0.00000000000E+00 -0.00000000000E+00 -0.39860238810E+04  0.39860238810E+04  0.25500000000E-02 0.  1.
    5000001    1    1    2    0    0  0.25529758633E+02 -0.15857548683E+03 -0.12676436077E+04  0.12840744799E+04  0.12700000000E+03 0.  0.
   -5000001    1    1    2    0    0 -0.25529758633E+02  0.15857548683E+03 -0.27062972724E+04  0.27140324022E+04  0.12700000000E+03 0.  0.
<mgrwt>
<rscale>  0 0.43892200E+03</rscale>
<asrwt>0</asrwt>
<pdfrwt beam="1">  1        2 0.56943114E+00 0.43892200E+03</pdfrwt>
<pdfrwt beam="2">  1       -2 0.17261455E-02 0.43892200E+03</pdfrwt>
<totfact> 0.68740017E+02</totfact>
</mgrwt>
</event>
<event>
 4    1  0.9508302E-005  0.3566207E+03  0.7818608E-02  0.1059930E+00
          2   -1    0    0  501    0  0.00000000000E+00  0.00000000000E+00  0.95044176324E+03  0.95044176324E+03  0.25500000000E-02 0.  1.
         -2   -1    0    0    0  501 -0.00000000000E+00 -0.00000000000E+00 -0.33452427066E+02  0.33452427163E+02  0.25500000000E-02 0. -1.
    5000001    1    1    2    0    0 -0.17344328064E+02  0.11988055080E+03  0.54545204887E+03  0.57299136974E+03  0.12700000000E+03 0.  0.
   -5000001    1    1    2    0    0  0.17344328064E+02 -0.11988055080E+03  0.37153728730E+03  0.41090282066E+03  0.12700000000E+03 0.  0.
<mgrwt>
<rscale>  0 0.35662072E+03</rscale>
<asrwt>0</asrwt>
<pdfrwt beam="1">  1        2 0.13577741E+00 0.35662072E+03</pdfrwt>
<pdfrwt beam="2">  1       -2 0.47789178E-02 0.35662072E+03</pdfrwt>
<totfact> 0.65796148E+03</totfact>
</mgrwt>
</event>
<event>
 4    1  0.9508302E-005  0.3736877E+03  0.7818608E-02  0.1053292E+00
         -2   -1    0    0    0  501 -0.00000000000E+00  0.00000000000E+00  0.30364247765E+02  0.30364247873E+02  0.25500000000E-02 0. -1.
          2   -1    0    0  501    0  0.00000000000E+00 -0.00000000000E+00 -0.11497280941E+04  0.11497280941E+04  0.25500000000E-02 0.  1.
    5000001    1    1    2    0    0 -0.32825347523E+02 -0.11891895516E+03 -0.37119598504E+03  0.41125986997E+03  0.12700000000E+03 0.  0.
   -5000001    1    1    2    0    0  0.32825347523E+02  0.11891895516E+03 -0.74816786130E+03  0.76883247201E+03  0.12700000000E+03 0.  0.
<mgrwt>
<rscale>  0 0.37368772E+03</rscale>
<asrwt>0</asrwt>
<pdfrwt beam="1">  1        2 0.16424684E+00 0.37368772E+03</pdfrwt>
<pdfrwt beam="2">  1       -2 0.43377504E-02 0.37368772E+03</pdfrwt>
<totfact> 0.58384298E+03</totfact>
</mgrwt>
</event>
<event>
 4    1  0.9508302E-005  0.5365677E+03  0.7818608E-02  0.1004652E+00
          2   -1    0    0  501    0  0.00000000000E+00  0.00000000000E+00  0.95343617218E+03  0.95343617218E+03  0.25500000000E-02 0.  1.
         -2   -1    0    0    0  501 -0.00000000000E+00 -0.00000000000E+00 -0.75491386608E+02  0.75491386651E+02  0.25500000000E-02 0. -1.
    5000001    1    1    2    0    0  0.18699186922E+03 -0.13914968209E+03  0.51370078484E+03  0.57822667659E+03  0.12700000000E+03 0.  0.
   -5000001    1    1    2    0    0 -0.18699186922E+03  0.13914968209E+03  0.36424400073E+03  0.45070088224E+03  0.12700000000E+03 0.  0.
<mgrwt>
<rscale>  0 0.53656768E+03</rscale>
<asrwt>0</asrwt>
<pdfrwt beam="1">  1        2 0.13620516E+00 0.53656768E+03</pdfrwt>
<pdfrwt beam="2">  1       -2 0.10784485E-01 0.53656768E+03</pdfrwt>
<totfact> 0.18273435E+03</totfact>
</mgrwt>
</event>
<event>
 4    1  0.9508302E-005  0.3183981E+03  0.7818608E-02  0.1076389E+00
         -2   -1    0    0    0  501 -0.00000000000E+00  0.00000000000E+00  0.32622034019E+02  0.32622034119E+02  0.25500000000E-02 0. -1.
          2   -1    0    0  501    0  0.00000000000E+00 -0.00000000000E+00 -0.77690875859E+03  0.77690875860E+03  0.25500000000E-02 0.  1.
    5000001    1    1    2    0    0  0.42486336973E+01  0.56634576407E+02 -0.56891824324E+03  0.58568122184E+03  0.12700000000E+03 0.  0.
   -5000001    1    1    2    0    0 -0.42486336973E+01 -0.56634576407E+02 -0.17536848134E+03  0.22384957087E+03  0.12700000000E+03 0.  0.
<mgrwt>
<rscale>  0 0.31839814E+03</rscale>
<asrwt>0</asrwt>
<pdfrwt beam="1">  1        2 0.11098695E+00 0.31839814E+03</pdfrwt>
<pdfrwt beam="2">  1       -2 0.46602911E-02 0.31839814E+03</pdfrwt>
<totfact> 0.88316105E+03</totfact>
</mgrwt>
</event>
<event>
 4    1  0.9508302E-005  0.3952431E+03  0.7818608E-02  0.1045439E+00
         -2   -1    0    0    0  501 -0.00000000000E+00  0.00000000000E+00  0.30476292890E+02  0.30476292996E+02  0.25500000000E-02 0. -1.
          2   -1    0    0  501    0  0.00000000000E+00 -0.00000000000E+00 -0.12814638992E+04  0.12814638992E+04  0.25500000000E-02 0.  1.
    5000001    1    1    2    0    0  0.91105866727E+02  0.61430208144E+02 -0.97126679243E+03  0.98567851325E+03  0.12700000000E+03 0.  0.
   -5000001    1    1    2    0    0 -0.91105866727E+02 -0.61430208144E+02 -0.27972081387E+03  0.32626167892E+03  0.12700000000E+03 0.  0.
<mgrwt>
<rscale>  0 0.39524306E+03</rscale>
<asrwt>0</asrwt>
<pdfrwt beam="1">  1        2 0.18306624E+00 0.39524306E+03</pdfrwt>
<pdfrwt beam="2">  1       -2 0.43537569E-02 0.39524306E+03</pdfrwt>
<totfact> 0.49197064E+03</totfact>
</mgrwt>
</event>
<event>
 4    1  0.9508302E-005  0.4059145E+03  0.7818608E-02  0.1041751E+00
          2   -1    0    0  501    0  0.00000000000E+00  0.00000000000E+00  0.19505021851E+04  0.19505021851E+04  0.25500000000E-02 0.  1.
         -2   -1    0    0    0  501 -0.00000000000E+00 -0.00000000000E+00 -0.21118477390E+02  0.21118477544E+02  0.25500000000E-02 0. -1.
    5000001    1    1    2    0    0  0.14464281668E+03 -0.45576991897E+02  0.74403075006E+03  0.76987633010E+03  0.12700000000E+03 0.  0.
   -5000001    1    1    2    0    0 -0.14464281668E+03  0.45576991897E+02  0.11853529577E+04  0.12017443326E+04  0.12700000000E+03 0.  0.
<mgrwt>
<rscale>  0 0.40591446E+03</rscale>
<asrwt>0</asrwt>
<pdfrwt beam="1">  1        2 0.27864330E+00 0.40591446E+03</pdfrwt>
<pdfrwt beam="2">  1       -2 0.30169239E-02 0.40591446E+03</pdfrwt>
<totfact> 0.39164951E+03</totfact>
</mgrwt>
</event>
<event>
 4    1  0.9508302E-005  0.4794839E+03  0.7818608E-02  0.1019277E+00
         -2   -1    0    0    0  501 -0.00000000000E+00  0.00000000000E+00  0.15478345167E+03  0.15478345169E+03  0.25500000000E-02 0. -1.
          2   -1    0    0  501    0  0.00000000000E+00 -0.00000000000E+00 -0.37133301906E+03  0.37133301907E+03  0.25500000000E-02 0.  1.
    5000001    1    1    2    0    0  0.17869077868E+03 -0.18398586208E+02 -0.37281106938E+01  0.22002681921E+03  0.12700000000E+03 0.  0.
   -5000001    1    1    2    0    0 -0.17869077868E+03  0.18398586208E+02 -0.21282145670E+03  0.30608965156E+03  0.12700000000E+03 0.  0.
<mgrwt>
<rscale>  0 0.47948392E+03</rscale>
<asrwt>0</asrwt>
<pdfrwt beam="1">  1        2 0.53047574E-01 0.47948392E+03</pdfrwt>
<pdfrwt beam="2">  1       -2 0.22111922E-01 0.47948392E+03</pdfrwt>
<totfact> 0.16714702E+03</totfact>
</mgrwt>
</event>
<event>
 4    1  0.9508302E-005  0.3476610E+03  0.7818608E-02  0.1063579E+00
         -2   -1    0    0    0  501 -0.00000000000E+00  0.00000000000E+00  0.24048578340E+03  0.24048578341E+03  0.25500000000E-02 0. -1.
          2   -1    0    0  501    0  0.00000000000E+00 -0.00000000000E+00 -0.12565003551E+03  0.12565003553E+03  0.25500000000E-02 0.  1.
    5000001    1    1    2    0    0  0.90549928177E+02 -0.56053880245E+01  0.13801811297E+03  0.20834756868E+03  0.12700000000E+03 0.  0.
   -5000001    1    1    2    0    0 -0.90549928177E+02  0.56053880245E+01 -0.23182365085E+02  0.15778825026E+03  0.12700000000E+03 0.  0.
<mgrwt>
<rscale>  0 0.34766103E+03</rscale>
<asrwt>0</asrwt>
<pdfrwt beam="1">  1        2 0.17950005E-01 0.34766103E+03</pdfrwt>
<pdfrwt beam="2">  1       -2 0.34355112E-01 0.34766103E+03</pdfrwt>
<totfact> 0.25173281E+03</totfact>
</mgrwt>
</event>
<event>
 4    1  0.9508302E-005  0.3883241E+03  0.7818608E-02  0.1047899E+00
         -2   -1    0    0    0  501 -0.00000000000E+00  0.00000000000E+00  0.21527392435E+02  0.21527392586E+02  0.25500000000E-02 0. -1.
          2   -1    0    0  501    0  0.00000000000E+00 -0.00000000000E+00 -0.17512057968E+04  0.17512057968E+04  0.25500000000E-02 0.  1.
    5000001    1    1    2    0    0  0.14250125258E+03 -0.25368757056E+02 -0.75119569347E+03  0.77548317242E+03  0.12700000000E+03 0.  0.
   -5000001    1    1    2    0    0 -0.14250125258E+03  0.25368757056E+02 -0.97848271093E+03  0.99725001700E+03  0.12700000000E+03 0.  0.
<mgrwt>
<rscale>  0 0.38832406E+03</rscale>
<asrwt>0</asrwt>
<pdfrwt beam="1">  1        2 0.25017217E+00 0.38832406E+03</pdfrwt>
<pdfrwt beam="2">  1       -2 0.30753429E-02 0.38832406E+03</pdfrwt>
<totfact> 0.47789659E+03</totfact>
</mgrwt>
</event>
<event>
 4    1  0.9508302E-005  0.5090701E+03  0.7818608E-02  0.1011438E+00
          2   -1    0    0  501    0  0.00000000000E+00  0.00000000000E+00  0.16384599876E+04  0.16384599876E+04  0.25500000000E-02 0.  1.
         -2   -1    0    0    0  501 -0.00000000000E+00 -0.00000000000E+00 -0.39542070677E+02  0.39542070760E+02  0.25500000000E-02 0. -1.
    5000001    1    1    2    0    0  0.18678701441E+03 -0.11269311102E+03  0.90727952742E+03  0.94174002087E+03  0.12700000000E+03 0.  0.
   -5000001    1    1    2    0    0 -0.18678701441E+03  0.11269311102E+03  0.69163838952E+03  0.73626203751E+03  0.12700000000E+03 0.  0.
<mgrwt>
<rscale>  0 0.50907014E+03</rscale>
<asrwt>0</asrwt>
<pdfrwt beam="1">  1        2 0.23406573E+00 0.50907014E+03</pdfrwt>
<pdfrwt beam="2">  1       -2 0.56488668E-02 0.50907014E+03</pdfrwt>
<totfact> 0.21462293E+03</totfact>
</mgrwt>
</event>
<event>
 4    1  0.9508302E-005  0.3756964E+03  0.7818608E-02  0.1052536E+00
         -2   -1    0    0    0  501 -0.00000000000E+00  0.00000000000E+00  0.45682261189E+02  0.45682261261E+02  0.25500000000E-02 0. -1.
          2   -1    0    0  501    0  0.00000000000E+00 -0.00000000000E+00 -0.77244291451E+03  0.77244291451E+03  0.25500000000E-02 0.  1.
    5000001    1    1    2    0    0  0.43730320718E+02  0.88547758354E+02 -0.15219697067E+03  0.22146323474E+03  0.12700000000E+03 0.  0.
   -5000001    1    1    2    0    0 -0.43730320718E+02 -0.88547758354E+02 -0.57456368265E+03  0.59666194104E+03  0.12700000000E+03 0.  0.
<mgrwt>
<rscale>  0 0.37569636E+03</rscale>
<asrwt>0</asrwt>
<pdfrwt beam="1">  1        2 0.11034898E+00 0.37569636E+03</pdfrwt>
<pdfrwt beam="2">  1       -2 0.65260378E-02 0.37569636E+03</pdfrwt>
<totfact> 0.53226592E+03</totfact>
</mgrwt>
</event>
<event>
 4    1  0.9508302E-005  0.4819813E+03  0.7818608E-02  0.1018592E+00
         -2   -1    0    0    0  501 -0.00000000000E+00  0.00000000000E+00  0.30119524231E+02  0.30119524339E+02  0.25500000000E-02 0. -1.
          2   -1    0    0  501    0  0.00000000000E+00 -0.00000000000E+00 -0.19282004851E+04  0.19282004851E+04  0.25500000000E-02 0.  1.
    5000001    1    1    2    0    0 -0.18033672840E+03  0.93946559527E+02 -0.10485805133E+04  0.10756381290E+04  0.12700000000E+03 0.  0.
   -5000001    1    1    2    0    0  0.18033672840E+03 -0.93946559527E+02 -0.84950044752E+03  0.88268188040E+03  0.12700000000E+03 0.  0.
<mgrwt>
<rscale>  0 0.48198125E+03</rscale>
<asrwt>0</asrwt>
<pdfrwt beam="1">  1        2 0.27545713E+00 0.48198125E+03</pdfrwt>
<pdfrwt beam="2">  1       -2 0.43027904E-02 0.48198125E+03</pdfrwt>
<totfact> 0.23383669E+03</totfact>
</mgrwt>
</event>
<event>
 4    1  0.9508302E-005  0.3102651E+03  0.7818608E-02  0.1080219E+00
          2   -1    0    0  501    0  0.00000000000E+00  0.00000000000E+00  0.21710765386E+04  0.21710765386E+04  0.25500000000E-02 0.  1.
         -2   -1    0    0    0  501 -0.00000000000E+00 -0.00000000000E+00 -0.11084875713E+02  0.11084876006E+02  0.25500000000E-02 0. -1.
    5000001    1    1    2    0    0 -0.49096283537E+02 -0.68838201067E+00  0.16028336510E+04  0.16086067362E+04  0.12700000000E+03 0.  0.
   -5000001    1    1    2    0    0  0.49096283537E+02  0.68838201067E+00  0.55715801183E+03  0.57355467836E+03  0.12700000000E+03 0.  0.
<mgrwt>
<rscale>  0 0.31026514E+03</rscale>
<asrwt>0</asrwt>
<pdfrwt beam="1">  1        2 0.31015395E+00 0.31026514E+03</pdfrwt>
<pdfrwt beam="2">  1       -2 0.15835529E-02 0.31026514E+03</pdfrwt>
<totfact> 0.79504847E+03</totfact>
</mgrwt>
</event>
<event>
 4    1  0.9508302E-005  0.4079416E+03  0.7818608E-02  0.1041064E+00
         -2   -1    0    0    0  501 -0.00000000000E+00  0.00000000000E+00  0.18846569766E+02  0.18846569938E+02  0.25500000000E-02 0. -1.
          2   -1    0    0  501    0  0.00000000000E+00 -0.00000000000E+00 -0.22075155740E+04  0.22075155740E+04  0.25500000000E-02 0.  1.
    5000001    1    1    2    0    0 -0.13702919054E+03 -0.11121609348E+02 -0.15368475350E+04  0.15482021945E+04  0.12700000000E+03 0.  0.
   -5000001    1    1    2    0    0  0.13702919054E+03  0.11121609348E+02 -0.65182146928E+03  0.67815994948E+03  0.12700000000E+03 0.  0.
<mgrwt>
<rscale>  0 0.40794165E+03</rscale>
<asrwt>0</asrwt>
<pdfrwt beam="1">  1        2 0.31535920E+00 0.40794165E+03</pdfrwt>
<pdfrwt beam="2">  1       -2 0.26923685E-02 0.40794165E+03</pdfrwt>
<totfact> 0.34657942E+03</totfact>
</mgrwt>
</event>
<event>
 4    1  0.9508302E-005  0.2769344E+03  0.7818608E-02  0.1097375E+00
         -2   -1    0    0    0  501 -0.00000000000E+00  0.00000000000E+00  0.58516515408E+02  0.58516515464E+02  0.25500000000E-02 0. -1.
          2   -1    0    0  501    0  0.00000000000E+00 -0.00000000000E+00 -0.32765399818E+03  0.32765399819E+03  0.25500000000E-02 0.  1.
    5000001    1    1    2    0    0 -0.37932476993E+02 -0.35725360034E+02 -0.10927590614E+03  0.17545768100E+03  0.12700000000E+03 0.  0.
   -5000001    1    1    2    0    0  0.37932476993E+02  0.35725360034E+02 -0.15986157664E+03  0.21071283266E+03  0.12700000000E+03 0.  0.
<mgrwt>
<rscale>  0 0.27693443E+03</rscale>
<asrwt>0</asrwt>
<pdfrwt beam="1">  1        2 0.46807713E-01 0.27693443E+03</pdfrwt>
<pdfrwt beam="2">  1       -2 0.83595024E-02 0.27693443E+03</pdfrwt>
<totfact> 0.94277222E+03</totfact>
</mgrwt>
</event>
<event>
 4    1  0.9508302E-005  0.4900274E+03  0.7818608E-02  0.1016415E+00
          2   -1    0    0  501    0  0.00000000000E+00  0.00000000000E+00  0.10334819944E+04  0.10334819944E+04  0.25500000000E-02 0.  1.
         -2   -1    0    0    0  501 -0.00000000000E+00 -0.00000000000E+00 -0.58086851358E+02  0.58086851414E+02  0.25500000000E-02 0. -1.
    5000001    1    1    2    0    0 -0.10958515131E+03  0.16223481774E+03  0.32139401955E+03  0.39718025792E+03  0.12700000000E+03 0.  0.
   -5000001    1    1    2    0    0  0.10958515131E+03 -0.16223481774E+03  0.65400112346E+03  0.69438858786E+03  0.12700000000E+03 0.  0.
<mgrwt>
<rscale>  0 0.49002741E+03</rscale>
<asrwt>0</asrwt>
<pdfrwt beam="1">  1        2 0.14764028E+00 0.49002741E+03</pdfrwt>
<pdfrwt beam="2">  1       -2 0.82981221E-02 0.49002741E+03</pdfrwt>
<totfact> 0.24905457E+03</totfact>
</mgrwt>
</event>
<event>
 4    1  0.9508302E-005  0.3094668E+03  0.7818608E-02  0.1080602E+00
         -2   -1    0    0    0  501 -0.00000000000E+00  0.00000000000E+00  0.40221490883E+02  0.40221490964E+02  0.25500000000E-02 0. -1.
          2   -1    0    0  501    0  0.00000000000E+00 -0.00000000000E+00 -0.59526454403E+03  0.59526454403E+03  0.25500000000E-02 0.  1.
    5000001    1    1    2    0    0  0.63660846082E+02  0.58675778315E+02 -0.31413337003E+03  0.34972035178E+03  0.12700000000E+03 0.  0.
   -5000001    1    1    2    0    0 -0.63660846082E+02 -0.58675778315E+02 -0.24090968312E+03  0.28576568322E+03  0.12700000000E+03 0.  0.
<mgrwt>
<rscale>  0 0.30946682E+03</rscale>
<asrwt>0</asrwt>
<pdfrwt beam="1">  1        2 0.85037787E-01 0.30946682E+03</pdfrwt>
<pdfrwt beam="2">  1       -2 0.57459276E-02 0.30946682E+03</pdfrwt>
<totfact> 0.87862997E+03</totfact>
</mgrwt>
</event>
<event>
 4    1  0.9508302E-005  0.2899766E+03  0.7818608E-02  0.1090361E+00
         -2   -1    0    0    0  501 -0.00000000000E+00  0.00000000000E+00  0.52983880805E+02  0.52983880867E+02  0.25500000000E-02 0. -1.
          2   -1    0    0  501    0  0.00000000000E+00 -0.00000000000E+00 -0.39675489476E+03  0.39675489477E+03  0.25500000000E-02 0.  1.
    5000001    1    1    2    0    0  0.10153442089E+02  0.69128965958E+02 -0.16681038621E+03  0.22099007052E+03  0.12700000000E+03 0.  0.
   -5000001    1    1    2    0    0 -0.10153442089E+02 -0.69128965958E+02 -0.17696062775E+03  0.22874870512E+03  0.12700000000E+03 0.  0.
<mgrwt>
<rscale>  0 0.28997665E+03</rscale>
<asrwt>0</asrwt>
<pdfrwt beam="1">  1        2 0.56679269E-01 0.28997665E+03</pdfrwt>
<pdfrwt beam="2">  1       -2 0.75691260E-02 0.28997665E+03</pdfrwt>
<totfact> 0.89729274E+03</totfact>
</mgrwt>
</event>
<event>
 4    1  0.9508302E-005  0.7411849E+03  0.7818608E-02  0.9649282E-01
         -2   -1    0    0    0  501 -0.00000000000E+00  0.00000000000E+00  0.52374550467E+02  0.52374550529E+02  0.25500000000E-02 0. -1.
          2   -1    0    0  501    0  0.00000000000E+00 -0.00000000000E+00 -0.26222420506E+04  0.26222420506E+04  0.25500000000E-02 0.  1.
    5000001    1    1    2    0    0 -0.25951990978E+02 -0.95302079732E+02 -0.24896432983E+04  0.24948364165E+04  0.12700000000E+03 0.  0.
   -5000001    1    1    2    0    0  0.25951990978E+02  0.95302079732E+02 -0.80224201856E+02  0.17978018467E+03  0.12700000000E+03 0.  0.
<mgrwt>
<rscale>  0 0.74118486E+03</rscale>
<asrwt>0</asrwt>
<pdfrwt beam="1">  1        2 0.37460592E+00 0.74118486E+03</pdfrwt>
<pdfrwt beam="2">  1       -2 0.74820803E-02 0.74118486E+03</pdfrwt>
<totfact> 0.43091111E+02</totfact>
</mgrwt>
</event>
<event>
 4    1  0.9508302E-005  0.2948119E+03  0.7818608E-02  0.1087863E+00
          2   -1    0    0  501    0  0.00000000000E+00  0.00000000000E+00  0.13059149755E+04  0.13059149755E+04  0.25500000000E-02 0.  1.
         -2   -1    0    0    0  501 -0.00000000000E+00 -0.00000000000E+00 -0.16638541358E+02  0.16638541554E+02  0.25500000000E-02 0. -1.
    5000001    1    1    2    0    0 -0.24624768929E+02 -0.48289805250E+02  0.87606300273E+03  0.88687861023E+03  0.12700000000E+03 0.  0.
   -5000001    1    1    2    0    0  0.24624768929E+02  0.48289805250E+02  0.41321343140E+03  0.43567490681E+03  0.12700000000E+03 0.  0.
<mgrwt>
<rscale>  0 0.29481194E+03</rscale>
<asrwt>0</asrwt>
<pdfrwt beam="1">  1        2 0.18655932E+00 0.29481194E+03</pdfrwt>
<pdfrwt beam="2">  1       -2 0.23769341E-02 0.29481194E+03</pdfrwt>
<totfact> 0.11786830E+04</totfact>
</mgrwt>
</event>
<event>
 4    1  0.9508302E-005  0.2852055E+03  0.7818608E-02  0.1092879E+00
         -2   -1    0    0    0  501 -0.00000000000E+00  0.00000000000E+00  0.10108127132E+02  0.10108127454E+02  0.25500000000E-02 0. -1.
          2   -1    0    0  501    0  0.00000000000E+00 -0.00000000000E+00 -0.20118008377E+04  0.20118008377E+04  0.25500000000E-02 0.  1.
    5000001    1    1    2    0    0 -0.38639700859E+02  0.35731387591E+02 -0.12695657167E+04  0.12769870271E+04  0.12700000000E+03 0.  0.
   -5000001    1    1    2    0    0  0.38639700859E+02 -0.35731387591E+02 -0.73212699392E+03  0.74492193803E+03  0.12700000000E+03 0.  0.
<mgrwt>
<rscale>  0 0.28520546E+03</rscale>
<asrwt>0</asrwt>
<pdfrwt beam="1">  1        2 0.28739986E+00 0.28520546E+03</pdfrwt>
<pdfrwt beam="2">  1       -2 0.14440195E-02 0.28520546E+03</pdfrwt>
<totfact> 0.10881492E+04</totfact>
</mgrwt>
</event>
<event>
 4    1  0.9508302E-005  0.3346895E+03  0.7818608E-02  0.1069081E+00
         -2   -1    0    0    0  501 -0.00000000000E+00  0.00000000000E+00  0.22786584081E+02  0.22786584224E+02  0.25500000000E-02 0. -1.
          2   -1    0    0  501    0  0.00000000000E+00 -0.00000000000E+00 -0.12289802958E+04  0.12289802958E+04  0.25500000000E-02 0.  1.
    5000001    1    1    2    0    0  0.76388675718E+02 -0.76412159684E+02 -0.55004365696E+03  0.57476175280E+03  0.12700000000E+03 0.  0.
   -5000001    1    1    2    0    0 -0.76388675718E+02  0.76412159684E+02 -0.65615005480E+03  0.67700512726E+03  0.12700000000E+03 0.  0.
<mgrwt>
<rscale>  0 0.33468949E+03</rscale>
<asrwt>0</asrwt>
<pdfrwt beam="1">  1        2 0.17556857E+00 0.33468949E+03</pdfrwt>
<pdfrwt beam="2">  1       -2 0.32552271E-02 0.33468949E+03</pdfrwt>
<totfact> 0.81336538E+03</totfact>
</mgrwt>
</event>
<event>
 4    1  0.9508302E-005  0.3551178E+03  0.7818608E-02  0.1060534E+00
         -2   -1    0    0    0  501 -0.00000000000E+00  0.00000000000E+00  0.39851873759E+02  0.39851873841E+02  0.25500000000E-02 0. -1.
          2   -1    0    0  501    0  0.00000000000E+00 -0.00000000000E+00 -0.79110882020E+03  0.79110882020E+03  0.25500000000E-02 0.  1.
    5000001    1    1    2    0    0 -0.38406807774E+02  0.72486885276E+02 -0.59349269943E+03  0.61244756159E+03  0.12700000000E+03 0.  0.
   -5000001    1    1    2    0    0  0.38406807774E+02 -0.72486885276E+02 -0.15776424701E+03  0.21851313246E+03  0.12700000000E+03 0.  0.
<mgrwt>
<rscale>  0 0.35511783E+03</rscale>
<asrwt>0</asrwt>
<pdfrwt beam="1">  1        2 0.11301554E+00 0.35511783E+03</pdfrwt>
<pdfrwt beam="2">  1       -2 0.56931253E-02 0.35511783E+03</pdfrwt>
<totfact> 0.63752878E+03</totfact>
</mgrwt>
</event>
<event>
 4    1  0.9508302E-005  0.3344582E+03  0.7818608E-02  0.1069181E+00
          2   -1    0    0  501    0  0.00000000000E+00  0.00000000000E+00  0.37350539990E+03  0.37350539991E+03  0.25500000000E-02 0.  1.
         -2   -1    0    0    0  501 -0.00000000000E+00 -0.00000000000E+00 -0.74873270727E+02  0.74873270770E+02  0.25500000000E-02 0. -1.
    5000001    1    1    2    0    0  0.23457362280E+02 -0.10465183883E+03  0.12480390906E+03  0.20786358732E+03  0.12700000000E+03 0.  0.
   -5000001    1    1    2    0    0 -0.23457362280E+02  0.10465183883E+03  0.17382822011E+03  0.24051508336E+03  0.12700000000E+03 0.  0.
<mgrwt>
<rscale>  0 0.33445819E+03</rscale>
<asrwt>0</asrwt>
<pdfrwt beam="1">  1        2 0.53357914E-01 0.33445819E+03</pdfrwt>
<pdfrwt beam="2">  1       -2 0.10696182E-01 0.33445819E+03</pdfrwt>
<totfact> 0.55715810E+03</totfact>
</mgrwt>
</event>
<event>
 4    1  0.9508302E-005  0.5321107E+03  0.7818608E-02  0.1005722E+00
         -2   -1    0    0    0  501 -0.00000000000E+00  0.00000000000E+00  0.59630451595E+02  0.59630451650E+02  0.25500000000E-02 0. -1.
          2   -1    0    0  501    0  0.00000000000E+00 -0.00000000000E+00 -0.11870689023E+04  0.11870689023E+04  0.25500000000E-02 0.  1.
    5000001    1    1    2    0    0 -0.42501077820E+02  0.22977070313E+03 -0.54625893715E+03  0.60755966295E+03  0.12700000000E+03 0.  0.
   -5000001    1    1    2    0    0  0.42501077820E+02 -0.22977070313E+03 -0.58117951351E+03  0.63913969096E+03  0.12700000000E+03 0.  0.
<mgrwt>
<rscale>  0 0.53211072E+03</rscale>
<asrwt>0</asrwt>
<pdfrwt beam="1">  1        2 0.16958126E+00 0.53211072E+03</pdfrwt>
<pdfrwt beam="2">  1       -2 0.85186366E-02 0.53211072E+03</pdfrwt>
<totfact> 0.19474247E+03</totfact>
</mgrwt>
</event>
<event>
 4    1  0.9508302E-005  0.3272244E+03  0.7818608E-02  0.1072372E+00
         -2   -1    0    0    0  501 -0.00000000000E+00  0.00000000000E+00  0.17948329276E+03  0.17948329277E+03  0.25500000000E-02 0. -1.
          2   -1    0    0  501    0  0.00000000000E+00 -0.00000000000E+00 -0.14914449219E+03  0.14914449221E+03  0.25500000000E-02 0.  1.
    5000001    1    1    2    0    0 -0.97986590326E+02  0.92210242441E+01  0.46181369550E+02  0.16717690650E+03  0.12700000000E+03 0.  0.
   -5000001    1    1    2    0    0  0.97986590326E+02 -0.92210242441E+01 -0.15842568979E+02  0.16145087849E+03  0.12700000000E+03 0.  0.
<mgrwt>
<rscale>  0 0.32722435E+03</rscale>
<asrwt>0</asrwt>
<pdfrwt beam="1">  1        2 0.21306356E-01 0.32722435E+03</pdfrwt>
<pdfrwt beam="2">  1       -2 0.25640470E-01 0.32722435E+03</pdfrwt>
<totfact> 0.35140582E+03</totfact>
</mgrwt>
</event>
<event>
 4    1  0.9508302E-005  0.8952558E+03  0.7818608E-02  0.9431531E-01
          2   -1    0    0  501    0  0.00000000000E+00  0.00000000000E+00  0.15958805788E+04  0.15958805788E+04  0.25500000000E-02 0.  1.
         -2   -1    0    0    0  501 -0.00000000000E+00 -0.00000000000E+00 -0.12555496103E+03  0.12555496106E+03  0.25500000000E-02 0. -1.
    5000001    1    1    2    0    0 -0.18101201674E+03  0.18171686671E+03  0.13969540017E+04  0.14259718976E+04  0.12700000000E+03 0.  0.
   -5000001    1    1    2    0    0  0.18101201674E+03 -0.18171686671E+03  0.73371616037E+02  0.29546364225E+03  0.12700000000E+03 0.  0.
<mgrwt>
<rscale>  0 0.89525577E+03</rscale>
<asrwt>0</asrwt>
<pdfrwt beam="1">  1        2 0.22798293E+00 0.89525577E+03</pdfrwt>
<pdfrwt beam="2">  1       -2 0.17936424E-01 0.89525577E+03</pdfrwt>
<totfact> 0.33674214E+02</totfact>
</mgrwt>
</event>
<event>
 4    1  0.9508302E-005  0.3604938E+03  0.7818608E-02  0.1058389E+00
         -2   -1    0    0    0  501 -0.00000000000E+00  0.00000000000E+00  0.66190442752E+03  0.66190442752E+03  0.25500000000E-02 0. -1.
          2   -1    0    0  501    0  0.00000000000E+00 -0.00000000000E+00 -0.49084038052E+02  0.49084038119E+02  0.25500000000E-02 0.  1.
    5000001    1    1    2    0    0 -0.62897875079E+02 -0.11020205443E+03  0.27465084553E+03  0.32811998178E+03  0.12700000000E+03 0.  0.
   -5000001    1    1    2    0    0  0.62897875079E+02  0.11020205443E+03  0.33816954394E+03  0.38286848386E+03  0.12700000000E+03 0.  0.
<mgrwt>
<rscale>  0 0.36049378E+03</rscale>
<asrwt>0</asrwt>
<pdfrwt beam="1">  1        2 0.70120054E-02 0.36049378E+03</pdfrwt>
<pdfrwt beam="2">  1       -2 0.94557776E-01 0.36049378E+03</pdfrwt>
<totfact> 0.99068401E+02</totfact>
</mgrwt>
</event>
<event>
 4    1  0.9508302E-005  0.4493605E+03  0.7818608E-02  0.1027913E+00
         -2   -1    0    0    0  501 -0.00000000000E+00  0.00000000000E+00  0.14970921454E+03  0.14970921456E+03  0.25500000000E-02 0.  1.
          2   -1    0    0  501    0  0.00000000000E+00 -0.00000000000E+00 -0.33719512055E+03  0.33719512056E+03  0.25500000000E-02 0. -1.
    5000001    1    1    2    0    0 -0.10460385656E+03 -0.10155097906E+03  0.30263819525E+02  0.19570249597E+03  0.12700000000E+03 0.  0.
   -5000001    1    1    2    0    0  0.10460385656E+03  0.10155097906E+03 -0.21774972554E+03  0.29120183916E+03  0.12700000000E+03 0.  0.
<mgrwt>
<rscale>  0 0.44936051E+03</rscale>
<asrwt>0</asrwt>
<pdfrwt beam="1">  1        2 0.48170731E-01 0.44936051E+03</pdfrwt>
<pdfrwt beam="2">  1       -2 0.21387031E-01 0.44936051E+03</pdfrwt>
<totfact> 0.19686405E+03</totfact>
</mgrwt>
</event>
<event>
 4    1  0.9508302E-005  0.2926118E+03  0.7818608E-02  0.1088993E+00
          2   -1    0    0  501    0  0.00000000000E+00  0.00000000000E+00  0.84328057765E+03  0.84328057765E+03  0.25500000000E-02 0.  1.
         -2   -1    0    0    0  501 -0.00000000000E+00 -0.00000000000E+00 -0.25383512652E+02  0.25383512780E+02  0.25500000000E-02 0. -1.
    5000001    1    1    2    0    0 -0.16952970868E+02 -0.68986240775E+02  0.36393459057E+03  0.39194883703E+03  0.12700000000E+03 0.  0.
   -5000001    1    1    2    0    0  0.16952970868E+02  0.68986240775E+02  0.45396247443E+03  0.47671525340E+03  0.12700000000E+03 0.  0.
<mgrwt>
<rscale>  0 0.29261185E+03</rscale>
<asrwt>0</asrwt>
<pdfrwt beam="1">  1        2 0.12046864E+00 0.29261185E+03</pdfrwt>
<pdfrwt beam="2">  1       -2 0.36262165E-02 0.29261185E+03</pdfrwt>
<totfact> 0.11613307E+04</totfact>
</mgrwt>
</event>
<event>
 4    1  0.9508302E-005  0.3832844E+03  0.7818608E-02  0.1049726E+00
          2   -1    0    0  501    0  0.00000000000E+00  0.00000000000E+00  0.94617025127E+03  0.94617025127E+03  0.25500000000E-02 0.  1.
         -2   -1    0    0    0  501 -0.00000000000E+00 -0.00000000000E+00 -0.38816196293E+02  0.38816196377E+02  0.25500000000E-02 0. -1.
    5000001    1    1    2    0    0 -0.10404726219E+03 -0.86439404755E+02  0.57692648432E+03  0.60602868891E+03  0.12700000000E+03 0.  0.
   -5000001    1    1    2    0    0  0.10404726219E+03  0.86439404755E+02  0.33042757065E+03  0.37895775874E+03  0.12700000000E+03 0.  0.
<mgrwt>
<rscale>  0 0.38328439E+03</rscale>
<asrwt>0</asrwt>
<pdfrwt beam="1">  1        2 0.13516716E+00 0.38328439E+03</pdfrwt>
<pdfrwt beam="2">  1       -2 0.55451716E-02 0.38328439E+03</pdfrwt>
<totfact> 0.52759032E+03</totfact>
</mgrwt>
</event>
<event>
 4    1  0.9508302E-005  0.3904679E+03  0.7818608E-02  0.1047131E+00
          2   -1    0    0  501    0  0.00000000000E+00  0.00000000000E+00  0.14292222041E+04  0.14292222041E+04  0.25500000000E-02 0.  1.
         -2   -1    0    0    0  501 -0.00000000000E+00 -0.00000000000E+00 -0.26669255132E+02  0.26669255253E+02  0.25500000000E-02 0. -1.
    5000001    1    1    2    0    0 -0.86800909842E+02 -0.21876146686E+02  0.26050939771E+03  0.30332673809E+03  0.12700000000E+03 0.  0.
   -5000001    1    1    2    0    0  0.86800909842E+02  0.21876146686E+02  0.11420435513E+04  0.11525647213E+04  0.12700000000E+03 0.  0.
<mgrwt>
<rscale>  0 0.39046788E+03</rscale>
<asrwt>0</asrwt>
<pdfrwt beam="1">  1        2 0.20417464E+00 0.39046788E+03</pdfrwt>
<pdfrwt beam="2">  1       -2 0.38098930E-02 0.39046788E+03</pdfrwt>
<totfact> 0.50355507E+03</totfact>
</mgrwt>
</event>
<event>
 4    1  0.9508302E-005  0.3450885E+03  0.7818608E-02  0.1064649E+00
          2   -1    0    0  501    0  0.00000000000E+00  0.00000000000E+00  0.23138366597E+02  0.23138366737E+02  0.25500000000E-02 0.  1.
         -2   -1    0    0    0  501 -0.00000000000E+00 -0.00000000000E+00 -0.12866734371E+04  0.12866734371E+04  0.25500000000E-02 0. -1.
    5000001    1    1    2    0    0  0.78266620387E+02  0.41477436203E+02 -0.34279234046E+03  0.37614043954E+03  0.12700000000E+03 0.  0.
   -5000001    1    1    2    0    0 -0.78266620387E+02 -0.41477436203E+02 -0.92074273001E+03  0.93367136426E+03  0.12700000000E+03 0.  0.
<mgrwt>
<rscale>  0 0.34508852E+03</rscale>
<asrwt>0</asrwt>
<pdfrwt beam="1">  1        2 0.33054818E-02 0.34508852E+03</pdfrwt>
<pdfrwt beam="2">  1       -2 0.18381045E+00 0.34508852E+03</pdfrwt>
<totfact> 0.50574957E+02</totfact>
</mgrwt>
</event>
<event>
 4    1  0.9508302E-005  0.4596642E+03  0.7818608E-02  0.1024879E+00
         -2   -1    0    0    0  501 -0.00000000000E+00  0.00000000000E+00  0.84533781160E+02  0.84533781199E+02  0.25500000000E-02 0. -1.
          2   -1    0    0  501    0  0.00000000000E+00 -0.00000000000E+00 -0.62487210416E+03  0.62487210416E+03  0.25500000000E-02 0.  1.
    5000001    1    1    2    0    0  0.13923159701E+03  0.37606317043E+02 -0.75600701070E+02  0.20650457305E+03  0.12700000000E+03 0.  0.
   -5000001    1    1    2    0    0 -0.13923159701E+03 -0.37606317043E+02 -0.46473762193E+03  0.50290131231E+03  0.12700000000E+03 0.  0.
<mgrwt>
<rscale>  0 0.45966423E+03</rscale>
<asrwt>0</asrwt>
<pdfrwt beam="1">  1        2 0.89267441E-01 0.45966423E+03</pdfrwt>
<pdfrwt beam="2">  1       -2 0.12076255E-01 0.45966423E+03</pdfrwt>
<totfact> 0.25856118E+03</totfact>
</mgrwt>
</event>
<event>
 4    1  0.9508302E-005  0.4578584E+03  0.7818608E-02  0.1025404E+00
          2   -1    0    0  501    0  0.00000000000E+00  0.00000000000E+00  0.68158287223E+03  0.68158287224E+03  0.25500000000E-02 0.  1.
         -2   -1    0    0    0  501 -0.00000000000E+00 -0.00000000000E+00 -0.76892436088E+02  0.76892436131E+02  0.25500000000E-02 0. -1.
    5000001    1    1    2    0    0  0.18160712754E+03  0.50816823695E+02  0.34667420222E+03  0.41457870281E+03  0.12700000000E+03 0.  0.
   -5000001    1    1    2    0    0 -0.18160712754E+03 -0.50816823695E+02  0.25801623393E+03  0.34389660556E+03  0.12700000000E+03 0.  0.
<mgrwt>
<rscale>  0 0.45785835E+03</rscale>
<asrwt>0</asrwt>
<pdfrwt beam="1">  1        2 0.97368982E-01 0.45785835E+03</pdfrwt>
<pdfrwt beam="2">  1       -2 0.10984634E-01 0.45785835E+03</pdfrwt>
<totfact> 0.27211729E+03</totfact>
</mgrwt>
</event>
<event>
 4    1  0.9508302E-005  0.8575425E+03  0.7818608E-02  0.9480269E-01
         -2   -1    0    0    0  501 -0.00000000000E+00  0.00000000000E+00  0.10662065801E+03  0.10662065804E+03  0.25500000000E-02 0. -1.
          2   -1    0    0  501    0  0.00000000000E+00 -0.00000000000E+00 -0.17242884305E+04  0.17242884305E+04  0.25500000000E-02 0.  1.
    5000001    1    1    2    0    0 -0.19418411778E+03  0.33141804413E+03 -0.50560669699E+03  0.64754345307E+03  0.12700000000E+03 0.  0.
   -5000001    1    1    2    0    0  0.19418411778E+03 -0.33141804413E+03 -0.11120610755E+04  0.11833656354E+04  0.12700000000E+03 0.  0.
<mgrwt>
<rscale>  0 0.85754246E+03</rscale>
<asrwt>0</asrwt>
<pdfrwt beam="1">  1        2 0.24632690E+00 0.85754246E+03</pdfrwt>
<pdfrwt beam="2">  1       -2 0.15231524E-01 0.85754246E+03</pdfrwt>
<totfact> 0.38321943E+02</totfact>
</mgrwt>
</event>
<event>
 4    1  0.9508302E-005  0.4055126E+03  0.7818608E-02  0.1041887E+00
         -2   -1    0    0    0  501 -0.00000000000E+00  0.00000000000E+00  0.32773609491E+03  0.32773609492E+03  0.25500000000E-02 0. -1.
          2   -1    0    0  501    0  0.00000000000E+00 -0.00000000000E+00 -0.12543665642E+03  0.12543665645E+03  0.25500000000E-02 0.  1.
    5000001    1    1    2    0    0 -0.10584172460E+03 -0.11536641368E+03  0.76941832732E+02  0.21577980836E+03  0.12700000000E+03 0.  0.
   -5000001    1    1    2    0    0  0.10584172460E+03  0.11536641368E+03  0.12535760576E+03  0.23739294301E+03  0.12700000000E+03 0.  0.
<mgrwt>
<rscale>  0 0.40551261E+03</rscale>
<asrwt>0</asrwt>
<pdfrwt beam="1">  1        2 0.17919522E-01 0.40551261E+03</pdfrwt>
<pdfrwt beam="2">  1       -2 0.46819443E-01 0.40551261E+03</pdfrwt>
<totfact> 0.13934953E+03</totfact>
</mgrwt>
</event>
<event>
 4    1  0.9508302E-005  0.3586221E+03  0.7818608E-02  0.1059131E+00
         -2   -1    0    0    0  501 -0.00000000000E+00  0.00000000000E+00  0.18673033464E+02  0.18673033638E+02  0.25500000000E-02 0. -1.
          2   -1    0    0  501    0  0.00000000000E+00 -0.00000000000E+00 -0.17218651430E+04  0.17218651430E+04  0.25500000000E-02 0.  1.
    5000001    1    1    2    0    0  0.80088538684E+02  0.97998927727E+02 -0.86295937295E+03  0.88138858810E+03  0.12700000000E+03 0.  0.
   -5000001    1    1    2    0    0 -0.80088538684E+02 -0.97998927727E+02 -0.84023273661E+03  0.85914958857E+03  0.12700000000E+03 0.  0.
<mgrwt>
<rscale>  0 0.35862206E+03</rscale>
<asrwt>0</asrwt>
<pdfrwt beam="1">  1        2 0.24598063E+00 0.35862206E+03</pdfrwt>
<pdfrwt beam="2">  1       -2 0.26675773E-02 0.35862206E+03</pdfrwt>
<totfact> 0.61160096E+03</totfact>
</mgrwt>
</event>
<event>
 4    1  0.9508302E-005  0.5742299E+03  0.7818608E-02  0.9960362E-01
          2   -1    0    0  501    0  0.00000000000E+00  0.00000000000E+00  0.67537276276E+03  0.67537276276E+03  0.25500000000E-02 0.  1.
         -2   -1    0    0    0  501 -0.00000000000E+00 -0.00000000000E+00 -0.12205852847E+03  0.12205852850E+03  0.25500000000E-02 0. -1.
    5000001    1    1    2    0    0  0.15467359294E+03 -0.53381838690E+02  0.54568605412E+00  0.20713000466E+03  0.12700000000E+03 0.  0.
   -5000001    1    1    2    0    0 -0.15467359294E+03  0.53381838690E+02  0.55276854823E+03  0.59030128661E+03  0.12700000000E+03 0.  0.
<mgrwt>
<rscale>  0 0.57422994E+03</rscale>
<asrwt>0</asrwt>
<pdfrwt beam="1">  1        2 0.96481823E-01 0.57422994E+03</pdfrwt>
<pdfrwt beam="2">  1       -2 0.17436933E-01 0.57422994E+03</pdfrwt>
<totfact> 0.12753943E+03</totfact>
</mgrwt>
</event>
<event>
 4    1  0.9508302E-005  0.5063835E+03  0.7818608E-02  0.1012126E+00
          2   -1    0    0  501    0  0.00000000000E+00  0.00000000000E+00  0.35156861174E+04  0.35156861174E+04  0.25500000000E-02 0.  1.
         -2   -1    0    0    0  501 -0.00000000000E+00 -0.00000000000E+00 -0.18234295011E+02  0.18234295189E+02  0.25500000000E-02 0. -1.
    5000001    1    1    2    0    0  0.13230114753E+03 -0.63724410000E+02  0.61454238146E+03  0.64448097930E+03  0.12700000000E+03 0.  0.
   -5000001    1    1    2    0    0 -0.13230114753E+03  0.63724410000E+02  0.28829094409E+04  0.28894394333E+04  0.12700000000E+03 0.  0.
<mgrwt>
<rscale>  0 0.50638348E+03</rscale>
<asrwt>0</asrwt>
<pdfrwt beam="1">  1        2 0.50224100E+00 0.50638348E+03</pdfrwt>
<pdfrwt beam="2">  1       -2 0.26048986E-02 0.50638348E+03</pdfrwt>
<totfact> 0.72291094E+02</totfact>
</mgrwt>
</event>
<event>
 4    1  0.9508302E-005  0.4786414E+03  0.7818608E-02  0.1019509E+00
         -2   -1    0    0    0  501 -0.00000000000E+00  0.00000000000E+00  0.30090981002E+02  0.30090981111E+02  0.25500000000E-02 0.  1.
          2   -1    0    0  501    0  0.00000000000E+00 -0.00000000000E+00 -0.19033741399E+04  0.19033741399E+04  0.25500000000E-02 0. -1.
    5000001    1    1    2    0    0 -0.12997177261E+03 -0.15525770799E+03 -0.98574711282E+03  0.10143096115E+04  0.12700000000E+03 0.  0.
   -5000001    1    1    2    0    0  0.12997177261E+03  0.15525770799E+03 -0.88753604611E+03  0.91915550954E+03  0.12700000000E+03 0.  0.
<mgrwt>
<rscale>  0 0.47864139E+03</rscale>
<asrwt>0</asrwt>
<pdfrwt beam="1">  1        2 0.27191052E+00 0.47864139E+03</pdfrwt>
<pdfrwt beam="2">  1       -2 0.42987128E-02 0.47864139E+03</pdfrwt>
<totfact> 0.24097699E+03</totfact>
</mgrwt>
</event>
<event>
 4    1  0.9508302E-005  0.4248690E+03  0.7818608E-02  0.1035493E+00
         -2   -1    0    0    0  501 -0.00000000000E+00  0.00000000000E+00  0.33859614156E+02  0.33859614252E+02  0.25500000000E-02 0. -1.
          2   -1    0    0  501    0  0.00000000000E+00 -0.00000000000E+00 -0.13328095134E+04  0.13328095134E+04  0.25500000000E-02 0.  1.
    5000001    1    1    2    0    0  0.95417138422E+02 -0.49352738509E+02 -0.10745069883E+04  0.10873060246E+04  0.12700000000E+03 0.  0.
   -5000001    1    1    2    0    0 -0.95417138422E+02  0.49352738509E+02 -0.22444291090E+03  0.27936310307E+03  0.12700000000E+03 0.  0.
<mgrwt>
<rscale>  0 0.42486900E+03</rscale>
<asrwt>0</asrwt>
<pdfrwt beam="1">  1        2 0.19040133E+00 0.42486900E+03</pdfrwt>
<pdfrwt beam="2">  1       -2 0.48370886E-02 0.42486900E+03</pdfrwt>
<totfact> 0.39326205E+03</totfact>
</mgrwt>
</event>
<event>
 4    1  0.9508302E-005  0.3316212E+03  0.7818608E-02  0.1070422E+00
         -2   -1    0    0    0  501 -0.00000000000E+00  0.00000000000E+00  0.23293820804E+03  0.23293820806E+03  0.25500000000E-02 0. -1.
          2   -1    0    0  501    0  0.00000000000E+00 -0.00000000000E+00 -0.11802768832E+03  0.11802768835E+03  0.25500000000E-02 0.  1.
    5000001    1    1    2    0    0  0.49064306902E+02  0.92737701870E+02  0.37470662075E+02  0.16893974688E+03  0.12700000000E+03 0.  0.
   -5000001    1    1    2    0    0 -0.49064306902E+02 -0.92737701870E+02  0.77439857646E+02  0.18202614953E+03  0.12700000000E+03 0.  0.
<mgrwt>
<rscale>  0 0.33162122E+03</rscale>
<asrwt>0</asrwt>
<pdfrwt beam="1">  1        2 0.16861098E-01 0.33162122E+03</pdfrwt>
<pdfrwt beam="2">  1       -2 0.33276887E-01 0.33162122E+03</pdfrwt>
<totfact> 0.28716232E+03</totfact>
</mgrwt>
</event>
<event>
 4    1  0.9508302E-005  0.3385906E+03  0.7818608E-02  0.1067398E+00
         -2   -1    0    0    0  501 -0.00000000000E+00  0.00000000000E+00  0.29578185899E+02  0.29578186009E+02  0.25500000000E-02 0. -1.
          2   -1    0    0  501    0  0.00000000000E+00 -0.00000000000E+00 -0.96898747675E+03  0.96898747676E+03  0.25500000000E-02 0.  1.
    5000001    1    1    2    0    0 -0.90766988357E+02 -0.34395449171E+02 -0.30523117773E+03  0.34455299296E+03  0.12700000000E+03 0.  0.
   -5000001    1    1    2    0    0  0.90766988357E+02  0.34395449171E+02 -0.63417811313E+03  0.65401266981E+03  0.12700000000E+03 0.  0.
<mgrwt>
<rscale>  0 0.33859056E+03</rscale>
<asrwt>0</asrwt>
<pdfrwt beam="1">  1        2 0.13842676E+00 0.33859056E+03</pdfrwt>
<pdfrwt beam="2">  1       -2 0.42254557E-02 0.33859056E+03</pdfrwt>
<totfact> 0.77228422E+03</totfact>
</mgrwt>
</event>
<event>
 4    1  0.9508302E-005  0.5002855E+03  0.7818608E-02  0.1013704E+00
         -2   -1    0    0    0  501 -0.00000000000E+00  0.00000000000E+00  0.12579851929E+03  0.12579851932E+03  0.25500000000E-02 0. -1.
          2   -1    0    0  501    0  0.00000000000E+00 -0.00000000000E+00 -0.49739377177E+03  0.49739377178E+03  0.25500000000E-02 0.  1.
    5000001    1    1    2    0    0  0.15335290073E+03 -0.14843521539E+03 -0.22300709112E+03  0.33378329499E+03  0.12700000000E+03 0.  0.
   -5000001    1    1    2    0    0 -0.15335290073E+03  0.14843521539E+03 -0.14858816136E+03  0.28940899610E+03  0.12700000000E+03 0.  0.
<mgrwt>
<rscale>  0 0.50028552E+03</rscale>
<asrwt>0</asrwt>
<pdfrwt beam="1">  1        2 0.71056252E-01 0.50028552E+03</pdfrwt>
<pdfrwt beam="2">  1       -2 0.17971217E-01 0.50028552E+03</pdfrwt>
<totfact> 0.17303486E+03</totfact>
</mgrwt>
</event>
<event>
 4    1  0.9508302E-005  0.6840150E+03  0.7818608E-02  0.9744966E-01
          2   -1    0    0  501    0  0.00000000000E+00  0.00000000000E+00  0.12233322379E+04  0.12233322379E+04  0.25500000000E-02 0.  1.
         -2   -1    0    0    0  501 -0.00000000000E+00 -0.00000000000E+00 -0.95615175584E+02  0.95615175618E+02  0.25500000000E-02 0. -1.
    5000001    1    1    2    0    0  0.57599935221E+02 -0.30694746458E+03  0.67472210221E+03  0.75426349094E+03  0.12700000000E+03 0.  0.
   -5000001    1    1    2    0    0 -0.57599935221E+02  0.30694746458E+03  0.45299496014E+03  0.56468392262E+03  0.12700000000E+03 0.  0.
<mgrwt>
<rscale>  0 0.68401499E+03</rscale>
<asrwt>0</asrwt>
<pdfrwt beam="1">  1        2 0.17476175E+00 0.68401499E+03</pdfrwt>
<pdfrwt beam="2">  1       -2 0.13659310E-01 0.68401499E+03</pdfrwt>
<totfact> 0.85646479E+02</totfact>
</mgrwt>
</event>
<event>
 4    1  0.9508302E-005  0.3042826E+03  0.7818608E-02  0.1083119E+00
          2   -1    0    0  501    0  0.00000000000E+00  0.00000000000E+00  0.12061213825E+04  0.12061213825E+04  0.25500000000E-02 0.  1.
         -2   -1    0    0    0  501 -0.00000000000E+00 -0.00000000000E+00 -0.19191245246E+02  0.19191245415E+02  0.25500000000E-02 0. -1.
    5000001    1    1    2    0    0  0.46927722844E+02 -0.65749849737E+02  0.68285092277E+03  0.69924218740E+03  0.12700000000E+03 0.  0.
   -5000001    1    1    2    0    0 -0.46927722844E+02  0.65749849737E+02  0.50407921447E+03  0.52607044050E+03  0.12700000000E+03 0.  0.
<mgrwt>
<rscale>  0 0.30428257E+03</rscale>
<asrwt>0</asrwt>
<pdfrwt beam="1">  1        2 0.17230311E+00 0.30428257E+03</pdfrwt>
<pdfrwt beam="2">  1       -2 0.27416057E-02 0.30428257E+03</pdfrwt>
<totfact> 0.10793847E+04</totfact>
</mgrwt>
</event>
<event>
 4    1  0.9508302E-005  0.2881673E+03  0.7818608E-02  0.1091310E+00
         -2   -1    0    0    0  501 -0.00000000000E+00  0.00000000000E+00  0.17166613248E+03  0.17166613250E+03  0.25500000000E-02 0. -1.
          2   -1    0    0  501    0  0.00000000000E+00 -0.00000000000E+00 -0.12093299833E+03  0.12093299836E+03  0.25500000000E-02 0.  1.
    5000001    1    1    2    0    0  0.67998237273E+02  0.26901420693E+01  0.25040721289E+02  0.14624306773E+03  0.12700000000E+03 0.  0.
   -5000001    1    1    2    0    0 -0.67998237273E+02 -0.26901420693E+01  0.25692412858E+02  0.14635606313E+03  0.12700000000E+03 0.  0.
<mgrwt>
<rscale>  0 0.28816731E+03</rscale>
<asrwt>0</asrwt>
<pdfrwt beam="1">  1        2 0.17276143E-01 0.28816731E+03</pdfrwt>
<pdfrwt beam="2">  1       -2 0.24523733E-01 0.28816731E+03</pdfrwt>
<totfact> 0.48256543E+03</totfact>
</mgrwt>
</event>
<event>
 4    1  0.9508302E-005  0.3184629E+03  0.7818608E-02  0.1076359E+00
         -2   -1    0    0    0  501 -0.00000000000E+00  0.00000000000E+00  0.15209643378E+03  0.15209643380E+03  0.25500000000E-02 0. -1.
          2   -1    0    0  501    0  0.00000000000E+00 -0.00000000000E+00 -0.16670116113E+03  0.16670116115E+03  0.25500000000E-02 0.  1.
    5000001    1    1    2    0    0  0.84729285588E+02 -0.44064315324E+02  0.29522497347E+01  0.15892901403E+03  0.12700000000E+03 0.  0.
   -5000001    1    1    2    0    0 -0.84729285588E+02  0.44064315324E+02 -0.17556977082E+02  0.15986858092E+03  0.12700000000E+03 0.  0.
<mgrwt>
<rscale>  0 0.31846288E+03</rscale>
<asrwt>0</asrwt>
<pdfrwt beam="1">  1        2 0.23814452E-01 0.31846288E+03</pdfrwt>
<pdfrwt beam="2">  1       -2 0.21728062E-01 0.31846288E+03</pdfrwt>
<totfact> 0.41390388E+03</totfact>
</mgrwt>
</event>
<event>
 4    1  0.9508302E-005  0.4188358E+03  0.7818608E-02  0.1037446E+00
          2   -1    0    0  501    0  0.00000000000E+00  0.00000000000E+00  0.63689872258E+02  0.63689872309E+02  0.25500000000E-02 0.  1.
         -2   -1    0    0    0  501 -0.00000000000E+00 -0.00000000000E+00 -0.68858445319E+03  0.68858445320E+03  0.25500000000E-02 0. -1.
    5000001    1    1    2    0    0 -0.77842241020E+02 -0.14629350960E+03 -0.34172167164E+03  0.40045462453E+03  0.12700000000E+03 0.  0.
   -5000001    1    1    2    0    0  0.77842241020E+02  0.14629350960E+03 -0.28317290929E+03  0.35181970098E+03  0.12700000000E+03 0.  0.
<mgrwt>
<rscale>  0 0.41883580E+03</rscale>
<asrwt>0</asrwt>
<pdfrwt beam="1">  1        2 0.90985536E-02 0.41883580E+03</pdfrwt>
<pdfrwt beam="2">  1       -2 0.98369204E-01 0.41883580E+03</pdfrwt>
<totfact> 0.64780049E+02</totfact>
</mgrwt>
</event>
<event>
 4    1  0.9508302E-005  0.3753080E+03  0.7818608E-02  0.1052682E+00
          2   -1    0    0  501    0  0.00000000000E+00  0.00000000000E+00  0.75107937612E+03  0.75107937613E+03  0.25500000000E-02 0.  1.
         -2   -1    0    0    0  501 -0.00000000000E+00 -0.00000000000E+00 -0.46884563699E+02  0.46884563768E+02  0.25500000000E-02 0. -1.
    5000001    1    1    2    0    0 -0.13706577173E+03 -0.10300520931E+02  0.38155081610E+03  0.42497429543E+03  0.12700000000E+03 0.  0.
   -5000001    1    1    2    0    0  0.13706577173E+03  0.10300520931E+02  0.32264399633E+03  0.37298964446E+03  0.12700000000E+03 0.  0.
<mgrwt>
<rscale>  0 0.37530803E+03</rscale>
<asrwt>0</asrwt>
<pdfrwt beam="1">  1        2 0.10729705E+00 0.37530803E+03</pdfrwt>
<pdfrwt beam="2">  1       -2 0.66977953E-02 0.37530803E+03</pdfrwt>
<totfact> 0.52916155E+03</totfact>
</mgrwt>
</event>
<event>
 4    1  0.9508302E-005  0.3358543E+03  0.7818608E-02  0.1068576E+00
         -2   -1    0    0    0  501 -0.00000000000E+00  0.00000000000E+00  0.15115873213E+02  0.15115873429E+02  0.25500000000E-02 0. -1.
          2   -1    0    0  501    0  0.00000000000E+00 -0.00000000000E+00 -0.18655569246E+04  0.18655569246E+04  0.25500000000E-02 0.  1.
    5000001    1    1    2    0    0  0.98957604700E+02  0.44242190992E+02 -0.10254754303E+04  0.10389797097E+04  0.12700000000E+03 0.  0.
   -5000001    1    1    2    0    0 -0.98957604700E+02 -0.44242190992E+02 -0.82496562109E+03  0.84169308835E+03  0.12700000000E+03 0.  0.
<mgrwt>
<rscale>  0 0.33585427E+03</rscale>
<asrwt>0</asrwt>
<pdfrwt beam="1">  1        2 0.26650798E+00 0.33585427E+03</pdfrwt>
<pdfrwt beam="2">  1       -2 0.21594117E-02 0.33585427E+03</pdfrwt>
<totfact> 0.71089083E+03</totfact>
</mgrwt>
</event>
<event>
 4    1  0.9508302E-005  0.3466417E+03  0.7818608E-02  0.1064002E+00
          2   -1    0    0  501    0  0.00000000000E+00  0.00000000000E+00  0.20010830974E+03  0.20010830976E+03  0.25500000000E-02 0.  1.
         -2   -1    0    0    0  501 -0.00000000000E+00 -0.00000000000E+00 -0.15011930023E+03  0.15011930025E+03  0.25500000000E-02 0. -1.
    5000001    1    1    2    0    0 -0.92794044178E+02  0.31648420662E+02 -0.41248690336E+02  0.16565872033E+03  0.12700000000E+03 0.  0.
   -5000001    1    1    2    0    0  0.92794044178E+02 -0.31648420662E+02  0.91237699852E+02  0.18456888969E+03  0.12700000000E+03 0.  0.
<mgrwt>
<rscale>  0 0.34664171E+03</rscale>
<asrwt>0</asrwt>
<pdfrwt beam="1">  1        2 0.28586901E-01 0.34664171E+03</pdfrwt>
<pdfrwt beam="2">  1       -2 0.21445614E-01 0.34664171E+03</pdfrwt>
<totfact> 0.34590256E+03</totfact>
</mgrwt>
</event>
<event>
 4    1  0.9508302E-005  0.5484981E+03  0.7818608E-02  0.1001842E+00
         -2   -1    0    0    0  501 -0.00000000000E+00  0.00000000000E+00  0.40555812540E+02  0.40555812620E+02  0.25500000000E-02 0. -1.
          2   -1    0    0  501    0  0.00000000000E+00 -0.00000000000E+00 -0.18545437936E+04  0.18545437936E+04  0.25500000000E-02 0.  1.
    5000001    1    1    2    0    0  0.39960282300E+02  0.67591710812E+02 -0.17017959538E+04  0.17083336712E+04  0.12700000000E+03 0.  0.
   -5000001    1    1    2    0    0 -0.39960282300E+02 -0.67591710812E+02 -0.11219202726E+03  0.18676593510E+03  0.12700000000E+03 0.  0.
<mgrwt>
<rscale>  0 0.54849806E+03</rscale>
<asrwt>0</asrwt>
<pdfrwt beam="1">  1        2 0.26493477E+00 0.54849806E+03</pdfrwt>
<pdfrwt beam="2">  1       -2 0.57936887E-02 0.54849806E+03</pdfrwt>
<totfact> 0.16028014E+03</totfact>
</mgrwt>
</event>
<event>
 4    1  0.9508302E-005  0.3373269E+03  0.7818608E-02  0.1067940E+00
          2   -1    0    0  501    0  0.00000000000E+00  0.00000000000E+00  0.12239927402E+04  0.12239927402E+04  0.25500000000E-02 0.  1.
         -2   -1    0    0    0  501 -0.00000000000E+00 -0.00000000000E+00 -0.23241449621E+02  0.23241449761E+02  0.25500000000E-02 0. -1.
    5000001    1    1    2    0    0  0.68410946620E+02 -0.86803129980E+02  0.56275562846E+03  0.58739913037E+03  0.12700000000E+03 0.  0.
   -5000001    1    1    2    0    0 -0.68410946620E+02  0.86803129980E+02  0.63799566212E+03  0.65983505960E+03  0.12700000000E+03 0.  0.
<mgrwt>
<rscale>  0 0.33732694E+03</rscale>
<asrwt>0</asrwt>
<pdfrwt beam="1">  1        2 0.17485613E+00 0.33732694E+03</pdfrwt>
<pdfrwt beam="2">  1       -2 0.33202067E-02 0.33732694E+03</pdfrwt>
<totfact> 0.79464191E+03</totfact>
</mgrwt>
</event>
<event>
 4    1  0.9508302E-005  0.3192556E+03  0.7818608E-02  0.1075992E+00
          2   -1    0    0  501    0  0.00000000000E+00  0.00000000000E+00  0.10881425721E+04  0.10881425721E+04  0.25500000000E-02 0.  1.
         -2   -1    0    0    0  501 -0.00000000000E+00 -0.00000000000E+00 -0.23416994584E+02  0.23416994723E+02  0.25500000000E-02 0. -1.
    5000001    1    1    2    0    0  0.88062143606E+02  0.28939617256E+02  0.43640443192E+03  0.46386449614E+03  0.12700000000E+03 0.  0.
   -5000001    1    1    2    0    0 -0.88062143606E+02 -0.28939617256E+02  0.62832114564E+03  0.64769507073E+03  0.12700000000E+03 0.  0.
<mgrwt>
<rscale>  0 0.31925556E+03</rscale>
<asrwt>0</asrwt>
<pdfrwt beam="1">  1        2 0.15544898E+00 0.31925556E+03</pdfrwt>
<pdfrwt beam="2">  1       -2 0.33452841E-02 0.31925556E+03</pdfrwt>
<totfact> 0.93371295E+03</totfact>
</mgrwt>
</event>
<event>
 4    1  0.9508302E-005  0.3133563E+03  0.7818608E-02  0.1078748E+00
          2   -1    0    0  501    0  0.00000000000E+00  0.00000000000E+00  0.72884734799E+03  0.72884734799E+03  0.25500000000E-02 0.  1.
         -2   -1    0    0    0  501 -0.00000000000E+00 -0.00000000000E+00 -0.33680629830E+02  0.33680629927E+02  0.25500000000E-02 0. -1.
    5000001    1    1    2    0    0  0.52827257141E+02 -0.64085604206E+02  0.44249785314E+03  0.46779379409E+03  0.12700000000E+03 0.  0.
   -5000001    1    1    2    0    0 -0.52827257141E+02  0.64085604206E+02  0.25266886502E+03  0.29473418383E+03  0.12700000000E+03 0.  0.
<mgrwt>
<rscale>  0 0.31335627E+03</rscale>
<asrwt>0</asrwt>
<pdfrwt beam="1">  1        2 0.10412105E+00 0.31335627E+03</pdfrwt>
<pdfrwt beam="2">  1       -2 0.48115187E-02 0.31335627E+03</pdfrwt>
<totfact> 0.90899100E+03</totfact>
</mgrwt>
</event>
<event>
 4    1  0.9508302E-005  0.3114525E+03  0.7818608E-02  0.1079652E+00
          2   -1    0    0  501    0  0.00000000000E+00  0.00000000000E+00  0.21024819904E+04  0.21024819904E+04  0.25500000000E-02 0. -1.
         -2   -1    0    0    0  501 -0.00000000000E+00 -0.00000000000E+00 -0.11534303728E+02  0.11534304010E+02  0.25500000000E-02 0.  1.
    5000001    1    1    2    0    0 -0.31234562691E+02 -0.22028016047E+02  0.15994369323E+04  0.16049262699E+04  0.12700000000E+03 0.  0.
   -5000001    1    1    2    0    0  0.31234562691E+02  0.22028016047E+02  0.49151075436E+03  0.50909002450E+03  0.12700000000E+03 0.  0.
<mgrwt>
<rscale>  0 0.31145251E+03</rscale>
<asrwt>0</asrwt>
<pdfrwt beam="1">  1        2 0.30035465E+00 0.31145251E+03</pdfrwt>
<pdfrwt beam="2">  1       -2 0.16477572E-02 0.31145251E+03</pdfrwt>
<totfact> 0.81038678E+03</totfact>
</mgrwt>
</event>
<event>
 4    1  0.9508302E-005  0.4323308E+03  0.7818608E-02  0.1033126E+00
          2   -1    0    0  501    0  0.00000000000E+00  0.00000000000E+00  0.15507166899E+04  0.15507166899E+04  0.25500000000E-02 0.  1.
         -2   -1    0    0    0  501 -0.00000000000E+00 -0.00000000000E+00 -0.30132829768E+02  0.30132829876E+02  0.25500000000E-02 0. -1.
    5000001    1    1    2    0    0  0.34344686552E+02  0.17130614738E+03  0.72902266457E+03  0.76034755150E+03  0.12700000000E+03 0.  0.
   -5000001    1    1    2    0    0 -0.34344686552E+02 -0.17130614738E+03  0.79156119561E+03  0.82050196832E+03  0.12700000000E+03 0.  0.
<mgrwt>
<rscale>  0 0.43233081E+03</rscale>
<asrwt>0</asrwt>
<pdfrwt beam="1">  1        2 0.22153107E+00 0.43233081E+03</pdfrwt>
<pdfrwt beam="2">  1       -2 0.43046878E-02 0.43233081E+03</pdfrwt>
<totfact> 0.36214904E+03</totfact>
</mgrwt>
</event>
<event>
 4    1  0.9508302E-005  0.3870257E+03  0.7818608E-02  0.1048367E+00
          2   -1    0    0  501    0  0.00000000000E+00  0.00000000000E+00  0.12060721344E+04  0.12060721344E+04  0.25500000000E-02 0.  1.
         -2   -1    0    0    0  501 -0.00000000000E+00 -0.00000000000E+00 -0.31048914230E+02  0.31048914335E+02  0.25500000000E-02 0. -1.
    5000001    1    1    2    0    0 -0.42204787763E+01  0.76537887148E+02  0.19029324230E+03  0.24128070515E+03  0.12700000000E+03 0.  0.
   -5000001    1    1    2    0    0  0.42204787763E+01 -0.76537887148E+02  0.98472997783E+03  0.99584034356E+03  0.12700000000E+03 0.  0.
<mgrwt>
<rscale>  0 0.38702574E+03</rscale>
<asrwt>0</asrwt>
<pdfrwt beam="1">  1        2 0.17229604E+00 0.38702574E+03</pdfrwt>
<pdfrwt beam="2">  1       -2 0.44355586E-02 0.38702574E+03</pdfrwt>
<totfact> 0.52539258E+03</totfact>
</mgrwt>
</event>
<event>
 4    1  0.9508302E-005  0.8621583E+03  0.7818608E-02  0.9474162E-01
          2   -1    0    0  501    0  0.00000000000E+00  0.00000000000E+00  0.84152861314E+03  0.84152861315E+03  0.25500000000E-02 0. -1.
         -2   -1    0    0    0  501 -0.00000000000E+00 -0.00000000000E+00 -0.22082344436E+03  0.22082344438E+03  0.25500000000E-02 0.  1.
    5000001    1    1    2    0    0 -0.24517975703E+03  0.31020323524E+03  0.45278286236E+03  0.61439440171E+03  0.12700000000E+03 0.  0.
   -5000001    1    1    2    0    0  0.24517975703E+03 -0.31020323524E+03  0.16792230642E+03  0.44795765581E+03  0.12700000000E+03 0.  0.
<mgrwt>
<rscale>  0 0.86215833E+03</rscale>
<asrwt>0</asrwt>
<pdfrwt beam="1">  1        2 0.12021837E+00 0.86215833E+03</pdfrwt>
<pdfrwt beam="2">  1       -2 0.31546207E-01 0.86215833E+03</pdfrwt>
<totfact> 0.33237815E+02</totfact>
</mgrwt>
</event>
<event>
 4    1  0.9508302E-005  0.5335884E+03  0.7818608E-02  0.1005366E+00
          2   -1    0    0  501    0  0.00000000000E+00  0.00000000000E+00  0.22499886260E+04  0.22499886260E+04  0.25500000000E-02 0.  1.
         -2   -1    0    0    0  501 -0.00000000000E+00 -0.00000000000E+00 -0.31635338493E+02  0.31635338596E+02  0.25500000000E-02 0. -1.
    5000001    1    1    2    0    0 -0.21826035170E+03 -0.75570843204E+02  0.12855645321E+04  0.13123085383E+04  0.12700000000E+03 0.  0.
   -5000001    1    1    2    0    0  0.21826035170E+03  0.75570843204E+02  0.93278875537E+03  0.96931542627E+03  0.12700000000E+03 0.  0.
<mgrwt>
<rscale>  0 0.53358843E+03</rscale>
<asrwt>0</asrwt>
<pdfrwt beam="1">  1        2 0.32142696E+00 0.53358843E+03</pdfrwt>
<pdfrwt beam="2">  1       -2 0.45193339E-02 0.53358843E+03</pdfrwt>
<totfact> 0.14936347E+03</totfact>
</mgrwt>
</event>
<event>
 4    1  0.9508302E-005  0.3176604E+03  0.7818608E-02  0.1076731E+00
          2   -1    0    0  501    0  0.00000000000E+00  0.00000000000E+00  0.61508785053E+03  0.61508785053E+03  0.25500000000E-02 0.  1.
         -2   -1    0    0    0  501 -0.00000000000E+00 -0.00000000000E+00 -0.41013713529E+02  0.41013713608E+02  0.25500000000E-02 0. -1.
    5000001    1    1    2    0    0 -0.66438651542E+02  0.65284683998E+02  0.32945879020E+03  0.36516883606E+03  0.12700000000E+03 0.  0.
   -5000001    1    1    2    0    0  0.66438651542E+02 -0.65284683998E+02  0.24461534679E+03  0.29093272808E+03  0.12700000000E+03 0.  0.
<mgrwt>
<rscale>  0 0.31766043E+03</rscale>
<asrwt>0</asrwt>
<pdfrwt beam="1">  1        2 0.87869696E-01 0.31766043E+03</pdfrwt>
<pdfrwt beam="2">  1       -2 0.58591018E-02 0.31766043E+03</pdfrwt>
<totfact> 0.82187169E+03</totfact>
</mgrwt>
</event>
<event>
 4    1  0.9508302E-005  0.1749722E+04  0.7818608E-02  0.8733503E-01
          2   -1    0    0  501    0  0.00000000000E+00  0.00000000000E+00  0.66554605506E+03  0.66554605507E+03  0.25500000000E-02 0.  1.
         -2   -1    0    0    0  501 -0.00000000000E+00 -0.00000000000E+00 -0.11500062309E+04  0.11500062309E+04  0.25500000000E-02 0. -1.
    5000001    1    1    2    0    0 -0.46570507418E+02  0.85282985587E+03 -0.96350711164E+02  0.86884983442E+03  0.12700000000E+03 0.  0.
   -5000001    1    1    2    0    0  0.46570507418E+02 -0.85282985587E+03 -0.38810946470E+03  0.94670245158E+03  0.12700000000E+03 0.  0.
<mgrwt>
<rscale>  0 0.17497224E+04</rscale>
<asrwt>0</asrwt>
<pdfrwt beam="1">  1        2 0.95078008E-01 0.17497224E+04</pdfrwt>
<pdfrwt beam="2">  1       -2 0.16428660E+00 0.17497224E+04</pdfrwt>
<totfact> 0.10658643E+01</totfact>
</mgrwt>
</event>
<event>
 4    1  0.9508302E-005  0.6939773E+03  0.7818608E-02  0.9727588E-01
         -2   -1    0    0    0  501 -0.00000000000E+00  0.00000000000E+00  0.30326051867E+02  0.30326051975E+02  0.25500000000E-02 0. -1.
          2   -1    0    0  501    0  0.00000000000E+00 -0.00000000000E+00 -0.39702211453E+04  0.39702211453E+04  0.25500000000E-02 0.  1.
    5000001    1    1    2    0    0 -0.24648956298E+02  0.31563466947E+03 -0.16035706463E+04  0.16394513208E+04  0.12700000000E+03 0.  0.
   -5000001    1    1    2    0    0  0.24648956298E+02 -0.31563466947E+03 -0.23363244471E+04  0.23610958764E+04  0.12700000000E+03 0.  0.
<mgrwt>
<rscale>  0 0.69397733E+03</rscale>
<asrwt>0</asrwt>
<pdfrwt beam="1">  1        2 0.56717412E+00 0.69397733E+03</pdfrwt>
<pdfrwt beam="2">  1       -2 0.43322956E-02 0.69397733E+03</pdfrwt>
<totfact> 0.16843534E+02</totfact>
</mgrwt>
</event>
<event>
 4    1  0.9508302E-005  0.3509346E+03  0.7818608E-02  0.1062232E+00
          2   -1    0    0  501    0  0.00000000000E+00  0.00000000000E+00  0.76931815701E+03  0.76931815701E+03  0.25500000000E-02 0.  1.
         -2   -1    0    0    0  501 -0.00000000000E+00 -0.00000000000E+00 -0.40020856402E+02  0.40020856483E+02  0.25500000000E-02 0. -1.
    5000001    1    1    2    0    0  0.68410717392E+02  0.41222166447E+02  0.57450978192E+03  0.59377586914E+03  0.12700000000E+03 0.  0.
   -5000001    1    1    2    0    0 -0.68410717392E+02 -0.41222166447E+02  0.15478751869E+03  0.21556314435E+03  0.12700000000E+03 0.  0.
<mgrwt>
<rscale>  0 0.35093459E+03</rscale>
<asrwt>0</asrwt>
<pdfrwt beam="1">  1        2 0.10990259E+00 0.35093459E+03</pdfrwt>
<pdfrwt beam="2">  1       -2 0.57172652E-02 0.35093459E+03</pdfrwt>
<totfact> 0.65553825E+03</totfact>
</mgrwt>
</event>
<event>
 4    1  0.9508302E-005  0.3001277E+03  0.7818608E-02  0.1085177E+00
         -2   -1    0    0    0  501 -0.00000000000E+00  0.00000000000E+00  0.14328513967E+03  0.14328513969E+03  0.25500000000E-02 0. -1.
          2   -1    0    0  501    0  0.00000000000E+00 -0.00000000000E+00 -0.15716326535E+03  0.15716326537E+03  0.25500000000E-02 0.  1.
    5000001    1    1    2    0    0  0.31144915069E+02  0.56117641133E+02 -0.54644626887E+02  0.15242778824E+03  0.12700000000E+03 0.  0.
   -5000001    1    1    2    0    0 -0.31144915069E+02 -0.56117641133E+02  0.40766501207E+02  0.14802061681E+03  0.12700000000E+03 0.  0.
<mgrwt>
<rscale>  0 0.30012771E+03</rscale>
<asrwt>0</asrwt>
<pdfrwt beam="1">  1        2 0.22451895E-01 0.30012771E+03</pdfrwt>
<pdfrwt beam="2">  1       -2 0.20469306E-01 0.30012771E+03</pdfrwt>
<totfact> 0.48957590E+03</totfact>
</mgrwt>
</event>
<event>
 4    1  0.9508302E-005  0.4825322E+03  0.7818608E-02  0.1018442E+00
          2   -1    0    0  501    0  0.00000000000E+00  0.00000000000E+00  0.28120288066E+04  0.28120288066E+04  0.25500000000E-02 0.  1.
         -2   -1    0    0    0  501 -0.00000000000E+00 -0.00000000000E+00 -0.20700114772E+02  0.20700114929E+02  0.25500000000E-02 0. -1.
    5000001    1    1    2    0    0 -0.89963835825E+02  0.18143639566E+03  0.15874851118E+04  0.16053817732E+04  0.12700000000E+03 0.  0.
   -5000001    1    1    2    0    0  0.89963835825E+02 -0.18143639566E+03  0.12038435800E+04  0.12273471483E+04  0.12700000000E+03 0.  0.
<mgrwt>
<rscale>  0 0.48253215E+03</rscale>
<asrwt>0</asrwt>
<pdfrwt beam="1">  1        2 0.40171812E+00 0.48253215E+03</pdfrwt>
<pdfrwt beam="2">  1       -2 0.29571614E-02 0.48253215E+03</pdfrwt>
<totfact> 0.14741717E+03</totfact>
</mgrwt>
</event>
<event>
 4    1  0.9508302E-005  0.2619561E+03  0.7818608E-02  0.1105974E+00
          2   -1    0    0  501    0  0.00000000000E+00  0.00000000000E+00  0.64853377742E+02  0.64853377793E+02  0.25500000000E-02 0.  1.
         -2   -1    0    0    0  501 -0.00000000000E+00 -0.00000000000E+00 -0.26452361730E+03  0.26452361731E+03  0.25500000000E-02 0. -1.
    5000001    1    1    2    0    0  0.18472231477E+02 -0.79843830095E+01 -0.13117570927E+03  0.18368734418E+03  0.12700000000E+03 0.  0.
   -5000001    1    1    2    0    0 -0.18472231477E+02  0.79843830095E+01 -0.68494530280E+02  0.14568965092E+03  0.12700000000E+03 0.  0.
<mgrwt>
<rscale>  0 0.26195610E+03</rscale>
<asrwt>0</asrwt>
<pdfrwt beam="1">  1        2 0.92647684E-02 0.26195610E+03</pdfrwt>
<pdfrwt beam="2">  1       -2 0.37789088E-01 0.26195610E+03</pdfrwt>
<totfact> 0.46481792E+03</totfact>
</mgrwt>
</event>
<event>
 4    1  0.9508302E-005  0.5093165E+03  0.7818608E-02  0.1011375E+00
         -2   -1    0    0    0  501 -0.00000000000E+00  0.00000000000E+00  0.41848638175E+02  0.41848638252E+02  0.25500000000E-02 0. -1.
          2   -1    0    0  501    0  0.00000000000E+00 -0.00000000000E+00 -0.15496518832E+04  0.15496518832E+04  0.25500000000E-02 0.  1.
    5000001    1    1    2    0    0  0.18919673078E+03 -0.33604928292E+02 -0.41450526629E+03  0.47420281518E+03  0.12700000000E+03 0.  0.
   -5000001    1    1    2    0    0 -0.18919673078E+03  0.33604928292E+02 -0.10932979788E+04  0.11172977063E+04  0.12700000000E+03 0.  0.
<mgrwt>
<rscale>  0 0.50931649E+03</rscale>
<asrwt>0</asrwt>
<pdfrwt beam="1">  1        2 0.22137880E+00 0.50931649E+03</pdfrwt>
<pdfrwt beam="2">  1       -2 0.59783779E-02 0.50931649E+03</pdfrwt>
<totfact> 0.21814004E+03</totfact>
</mgrwt>
</event>
<event>
 4    1  0.9508302E-005  0.4779436E+03  0.7818608E-02  0.1019702E+00
          2   -1    0    0  501    0  0.00000000000E+00  0.00000000000E+00  0.31113707851E+03  0.31113707853E+03  0.25500000000E-02 0.  1.
         -2   -1    0    0    0  501 -0.00000000000E+00 -0.00000000000E+00 -0.18354456199E+03  0.18354456200E+03  0.25500000000E-02 0. -1.
    5000001    1    1    2    0    0 -0.38404179887E+02  0.19742868454E+03  0.87524038802E+02  0.25346089221E+03  0.12700000000E+03 0.  0.
   -5000001    1    1    2    0    0  0.38404179887E+02 -0.19742868454E+03  0.40068477727E+02  0.24122074832E+03  0.12700000000E+03 0.  0.
<mgrwt>
<rscale>  0 0.47794359E+03</rscale>
<asrwt>0</asrwt>
<pdfrwt beam="1">  1        2 0.44448154E-01 0.47794359E+03</pdfrwt>
<pdfrwt beam="2">  1       -2 0.26220652E-01 0.47794359E+03</pdfrwt>
<totfact> 0.14990242E+03</totfact>
</mgrwt>
</event>
<event>
 4    1  0.9508302E-005  0.3904540E+03  0.7818608E-02  0.1047136E+00
          2   -1    0    0  501    0  0.00000000000E+00  0.00000000000E+00  0.70379190846E+03  0.70379190847E+03  0.25500000000E-02 0.  1.
         -2   -1    0    0    0  501 -0.00000000000E+00 -0.00000000000E+00 -0.54154630468E+02  0.54154630528E+02  0.25500000000E-02 0. -1.
    5000001    1    1    2    0    0  0.11597011938E+03  0.46563072455E+01  0.50393341410E+03  0.53249285031E+03  0.12700000000E+03 0.  0.
   -5000001    1    1    2    0    0 -0.11597011938E+03 -0.46563072455E+01  0.14570386390E+03  0.22545368868E+03  0.12700000000E+03 0.  0.
<mgrwt>
<rscale>  0 0.39045405E+03</rscale>
<asrwt>0</asrwt>
<pdfrwt beam="1">  1        2 0.10054170E+00 0.39045405E+03</pdfrwt>
<pdfrwt beam="2">  1       -2 0.77363758E-02 0.39045405E+03</pdfrwt>
<totfact> 0.45738530E+03</totfact>
</mgrwt>
</event>
<event>
 4    1  0.9508302E-005  0.3449881E+03  0.7818608E-02  0.1064691E+00
          2   -1    0    0  501    0  0.00000000000E+00  0.00000000000E+00  0.20201267885E+04  0.20201267885E+04  0.25500000000E-02 0.  1.
         -2   -1    0    0    0  501 -0.00000000000E+00 -0.00000000000E+00 -0.14728877902E+02  0.14728878123E+02  0.25500000000E-02 0. -1.
    5000001    1    1    2    0    0 -0.62121224015E+02 -0.37528381243E+02  0.15419299035E+04  0.15488525601E+04  0.12700000000E+03 0.  0.
   -5000001    1    1    2    0    0  0.62121224015E+02  0.37528381243E+02  0.46346800716E+03  0.48600310651E+03  0.12700000000E+03 0.  0.
<mgrwt>
<rscale>  0 0.34498812E+03</rscale>
<asrwt>0</asrwt>
<pdfrwt beam="1">  1        2 0.28858935E+00 0.34498812E+03</pdfrwt>
<pdfrwt beam="2">  1       -2 0.21041268E-02 0.34498812E+03</pdfrwt>
<totfact> 0.62019354E+03</totfact>
</mgrwt>
</event>
<event>
 4    1  0.9508302E-005  0.3608039E+03  0.7818608E-02  0.1058266E+00
          2   -1    0    0  501    0  0.00000000000E+00  0.00000000000E+00  0.15175909018E+04  0.15175909018E+04  0.25500000000E-02 0.  1.
         -2   -1    0    0    0  501 -0.00000000000E+00 -0.00000000000E+00 -0.21445085835E+02  0.21445085986E+02  0.25500000000E-02 0. -1.
    5000001    1    1    2    0    0  0.85193923685E+02 -0.93004432213E+02  0.65192812519E+03  0.67605259371E+03  0.12700000000E+03 0.  0.
   -5000001    1    1    2    0    0 -0.85193923685E+02  0.93004432213E+02  0.84421769079E+03  0.86298339410E+03  0.12700000000E+03 0.  0.
<mgrwt>
<rscale>  0 0.36080392E+03</rscale>
<asrwt>0</asrwt>
<pdfrwt beam="1">  1        2 0.21679878E+00 0.36080392E+03</pdfrwt>
<pdfrwt beam="2">  1       -2 0.30635825E-02 0.36080392E+03</pdfrwt>
<totfact> 0.62977636E+03</totfact>
</mgrwt>
</event>
<event>
 4    1  0.9508302E-005  0.3185274E+03  0.7818608E-02  0.1076329E+00
          2   -1    0    0  501    0  0.00000000000E+00  0.00000000000E+00  0.34647699484E+02  0.34647699578E+02  0.25500000000E-02 0.  1.
         -2   -1    0    0    0  501 -0.00000000000E+00 -0.00000000000E+00 -0.73208102814E+03  0.73208102815E+03  0.25500000000E-02 0. -1.
    5000001    1    1    2    0    0 -0.75178005182E+02 -0.56339321636E+02 -0.29997223925E+03  0.33902536180E+03  0.12700000000E+03 0.  0.
   -5000001    1    1    2    0    0  0.75178005182E+02  0.56339321636E+02 -0.39746108941E+03  0.42770336592E+03  0.12700000000E+03 0.  0.
<mgrwt>
<rscale>  0 0.31852738E+03</rscale>
<asrwt>0</asrwt>
<pdfrwt beam="1">  1        2 0.49496718E-02 0.31852738E+03</pdfrwt>
<pdfrwt beam="2">  1       -2 0.10458299E+00 0.31852738E+03</pdfrwt>
<totfact> 0.12353821E+03</totfact>
</mgrwt>
</event>
<event>
 4    1  0.9508302E-005  0.4759157E+03  0.7818608E-02  0.1020264E+00
          2   -1    0    0  501    0  0.00000000000E+00  0.00000000000E+00  0.33456702559E+03  0.33456702560E+03  0.25500000000E-02 0.  1.
         -2   -1    0    0    0  501 -0.00000000000E+00 -0.00000000000E+00 -0.16924541170E+03  0.16924541171E+03  0.25500000000E-02 0. -1.
    5000001    1    1    2    0    0 -0.91954327368E+02 -0.17815930053E+03  0.64367877184E+02  0.24590355487E+03  0.12700000000E+03 0.  0.
   -5000001    1    1    2    0    0  0.91954327368E+02  0.17815930053E+03  0.10095373672E+03  0.25790888244E+03  0.12700000000E+03 0.  0.
<mgrwt>
<rscale>  0 0.47591568E+03</rscale>
<asrwt>0</asrwt>
<pdfrwt beam="1">  1        2 0.47795289E-01 0.47591568E+03</pdfrwt>
<pdfrwt beam="2">  1       -2 0.24177916E-01 0.47591568E+03</pdfrwt>
<totfact> 0.16004581E+03</totfact>
</mgrwt>
</event>
<event>
 4    1  0.9508302E-005  0.3969653E+03  0.7818608E-02  0.1044836E+00
         -2   -1    0    0    0  501 -0.00000000000E+00  0.00000000000E+00  0.14865880578E+03  0.14865880580E+03  0.25500000000E-02 0. -1.
          2   -1    0    0  501    0  0.00000000000E+00 -0.00000000000E+00 -0.26500526159E+03  0.26500526160E+03  0.25500000000E-02 0.  1.
    5000001    1    1    2    0    0  0.14885923519E+03 -0.30300282454E+02 -0.43840114508E+02  0.20280072648E+03  0.12700000000E+03 0.  0.
   -5000001    1    1    2    0    0 -0.14885923519E+03  0.30300282454E+02 -0.72506341299E+02  0.21086334093E+03  0.12700000000E+03 0.  0.
<mgrwt>
<rscale>  0 0.39696532E+03</rscale>
<asrwt>0</asrwt>
<pdfrwt beam="1">  1        2 0.37857895E-01 0.39696532E+03</pdfrwt>
<pdfrwt beam="2">  1       -2 0.21236972E-01 0.39696532E+03</pdfrwt>
<totfact> 0.25890628E+03</totfact>
</mgrwt>
</event>
<event>
 4    1  0.9508302E-005  0.2858415E+03  0.7818608E-02  0.1092541E+00
          2   -1    0    0  501    0  0.00000000000E+00  0.00000000000E+00  0.14131104527E+04  0.14131104527E+04  0.25500000000E-02 0.  1.
         -2   -1    0    0    0  501 -0.00000000000E+00 -0.00000000000E+00 -0.14454879830E+02  0.14454880055E+02  0.25500000000E-02 0. -1.
    5000001    1    1    2    0    0 -0.11644354313E+02 -0.57161380629E+02  0.54997305139E+03  0.56745252813E+03  0.12700000000E+03 0.  0.
   -5000001    1    1    2    0    0  0.11644354313E+02  0.57161380629E+02  0.84868252151E+03  0.86011280466E+03  0.12700000000E+03 0.  0.
<mgrwt>
<rscale>  0 0.28584151E+03</rscale>
<asrwt>0</asrwt>
<pdfrwt beam="1">  1        2 0.20187288E+00 0.28584151E+03</pdfrwt>
<pdfrwt beam="2">  1       -2 0.20649832E-02 0.28584151E+03</pdfrwt>
<totfact> 0.12750386E+04</totfact>
</mgrwt>
</event>
<event>
 4    1  0.9508302E-005  0.4262814E+03  0.7818608E-02  0.1035041E+00
         -2   -1    0    0    0  501 -0.00000000000E+00  0.00000000000E+00  0.81452351332E+02  0.81452351372E+02  0.25500000000E-02 0.  1.
          2   -1    0    0  501    0  0.00000000000E+00 -0.00000000000E+00 -0.55773673390E+03  0.55773673391E+03  0.25500000000E-02 0. -1.
    5000001    1    1    2    0    0 -0.11622593843E+03  0.11700387750E+03 -0.16940256739E+03  0.26837400387E+03  0.12700000000E+03 0.  0.
   -5000001    1    1    2    0    0  0.11622593843E+03 -0.11700387750E+03 -0.30688181517E+03  0.37081508141E+03  0.12700000000E+03 0.  0.
<mgrwt>
<rscale>  0 0.42628145E+03</rscale>
<asrwt>0</asrwt>
<pdfrwt beam="1">  1        2 0.79676674E-01 0.42628145E+03</pdfrwt>
<pdfrwt beam="2">  1       -2 0.11636051E-01 0.42628145E+03</pdfrwt>
<totfact> 0.31318674E+03</totfact>
</mgrwt>
</event>
<event>
 4    1  0.9508302E-005  0.3782372E+03  0.7818608E-02  0.1051587E+00
         -2   -1    0    0    0  501 -0.00000000000E+00  0.00000000000E+00  0.34060959697E+02  0.34060959793E+02  0.25500000000E-02 0. -1.
          2   -1    0    0  501    0  0.00000000000E+00 -0.00000000000E+00 -0.10500539242E+04  0.10500539242E+04  0.25500000000E-02 0.  1.
    5000001    1    1    2    0    0  0.99561685754E+02  0.97579062247E+02 -0.54879793004E+03  0.58029507207E+03  0.12700000000E+03 0.  0.
   -5000001    1    1    2    0    0 -0.99561685754E+02 -0.97579062247E+02 -0.46719503450E+03  0.50381981196E+03  0.12700000000E+03 0.  0.
<mgrwt>
<rscale>  0 0.37823720E+03</rscale>
<asrwt>0</asrwt>
<pdfrwt beam="1">  1        2 0.15000768E+00 0.37823720E+03</pdfrwt>
<pdfrwt beam="2">  1       -2 0.48658520E-02 0.37823720E+03</pdfrwt>
<totfact> 0.55863605E+03</totfact>
</mgrwt>
</event>
<event>
 4    1  0.9508302E-005  0.3535135E+03  0.7818608E-02  0.1061182E+00
         -2   -1    0    0    0  501 -0.00000000000E+00  0.00000000000E+00  0.10779744453E+02  0.10779744755E+02  0.25500000000E-02 0. -1.
          2   -1    0    0  501    0  0.00000000000E+00 -0.00000000000E+00 -0.28983021224E+04  0.28983021224E+04  0.25500000000E-02 0.  1.
    5000001    1    1    2    0    0  0.10603248953E+03  0.28243317903E+02 -0.98755810741E+03  0.10017188175E+04  0.12700000000E+03 0.  0.
   -5000001    1    1    2    0    0 -0.10603248953E+03 -0.28243317903E+02 -0.18999642706E+04  0.19073630497E+04  0.12700000000E+03 0.  0.
<mgrwt>
<rscale>  0 0.35351355E+03</rscale>
<asrwt>0</asrwt>
<pdfrwt beam="1">  1        2 0.41404266E+00 0.35351355E+03</pdfrwt>
<pdfrwt beam="2">  1       -2 0.15399654E-02 0.35351355E+03</pdfrwt>
<totfact> 0.35476789E+03</totfact>
</mgrwt>
</event>
<event>
 4    1  0.9508302E-005  0.1566650E+04  0.7818608E-02  0.8841302E-01
         -2   -1    0    0    0  501 -0.00000000000E+00  0.00000000000E+00  0.46709706396E+03  0.46709706397E+03  0.25500000000E-02 0. -1.
          2   -1    0    0  501    0  0.00000000000E+00 -0.00000000000E+00 -0.13136413727E+04  0.13136413727E+04  0.25500000000E-02 0.  1.
    5000001    1    1    2    0    0 -0.70902230315E+03  0.28455503953E+03 -0.28981898602E+03  0.82692698683E+03  0.12700000000E+03 0.  0.
   -5000001    1    1    2    0    0  0.70902230315E+03 -0.28455503953E+03 -0.55672532269E+03  0.95381144982E+03  0.12700000000E+03 0.  0.
<mgrwt>
<rscale>  0 0.15666500E+04</rscale>
<asrwt>0</asrwt>
<pdfrwt beam="1">  1        2 0.18766305E+00 0.15666500E+04</pdfrwt>
<pdfrwt beam="2">  1       -2 0.66728152E-01 0.15666500E+04</pdfrwt>
<totfact> 0.36662300E+01</totfact>
</mgrwt>
</event>
<event>
 4    1  0.9508302E-005  0.2771892E+03  0.7818608E-02  0.1097234E+00
          2   -1    0    0  501    0  0.00000000000E+00  0.00000000000E+00  0.34745426528E+04  0.34745426528E+04  0.25500000000E-02 0.  1.
         -2   -1    0    0    0  501 -0.00000000000E+00 -0.00000000000E+00 -0.55283424608E+01  0.55283430489E+01  0.25500000000E-02 0. -1.
    5000001    1    1    2    0    0 -0.28542977310E+02  0.40551651811E+02  0.20472024426E+04  0.20517373075E+04  0.12700000000E+03 0.  0.
   -5000001    1    1    2    0    0  0.28542977310E+02 -0.40551651811E+02  0.14218118678E+04  0.14283336884E+04  0.12700000000E+03 0.  0.
<mgrwt>
<rscale>  0 0.27718920E+03</rscale>
<asrwt>0</asrwt>
<pdfrwt beam="1">  1        2 0.49636263E+00 0.27718920E+03</pdfrwt>
<pdfrwt beam="2">  1       -2 0.78976422E-03 0.27718920E+03</pdfrwt>
<totfact> 0.45602996E+03</totfact>
</mgrwt>
</event>
<event>
 4    1  0.9508302E-005  0.4698547E+03  0.7818608E-02  0.1021961E+00
         -2   -1    0    0    0  501 -0.00000000000E+00  0.00000000000E+00  0.19456677693E+02  0.19456677860E+02  0.25500000000E-02 0. -1.
          2   -1    0    0  501    0  0.00000000000E+00 -0.00000000000E+00 -0.28366026590E+04  0.28366026590E+04  0.25500000000E-02 0.  1.
    5000001    1    1    2    0    0 -0.35696354101E+02 -0.45458257673E+02 -0.25971449834E+03  0.29482419089E+03  0.12700000000E+03 0.  0.
   -5000001    1    1    2    0    0  0.35696354101E+02  0.45458257673E+02 -0.25574314830E+04  0.25612351460E+04  0.12700000000E+03 0.  0.
<mgrwt>
<rscale>  0 0.46985472E+03</rscale>
<asrwt>0</asrwt>
<pdfrwt beam="1">  1        2 0.40522869E+00 0.46985472E+03</pdfrwt>
<pdfrwt beam="2">  1       -2 0.27795272E-02 0.46985472E+03</pdfrwt>
<totfact> 0.15727444E+03</totfact>
</mgrwt>
</event>
<event>
 4    1  0.9508302E-005  0.4336948E+03  0.7818608E-02  0.1032699E+00
         -2   -1    0    0    0  501 -0.00000000000E+00  0.00000000000E+00  0.75032622958E+03  0.75032622958E+03  0.25500000000E-02 0. -1.
          2   -1    0    0  501    0  0.00000000000E+00 -0.00000000000E+00 -0.62669793019E+02  0.62669793071E+02  0.25500000000E-02 0.  1.
    5000001    1    1    2    0    0  0.32197634585E+02 -0.14474755838E+03  0.52072795886E+03  0.55612512123E+03  0.12700000000E+03 0.  0.
   -5000001    1    1    2    0    0 -0.32197634585E+02  0.14474755838E+03  0.16692847770E+03  0.25687090142E+03  0.12700000000E+03 0.  0.
<mgrwt>
<rscale>  0 0.43369478E+03</rscale>
<asrwt>0</asrwt>
<pdfrwt beam="1">  1        2 0.89528272E-02 0.43369478E+03</pdfrwt>
<pdfrwt beam="2">  1       -2 0.10718947E+00 0.43369478E+03</pdfrwt>
<totfact> 0.53994403E+02</totfact>
</mgrwt>
</event>
<event>
 4    1  0.9508302E-005  0.6595598E+03  0.7818608E-02  0.9789004E-01
         -2   -1    0    0    0  501 -0.00000000000E+00  0.00000000000E+00  0.60375417489E+02  0.60375417543E+02  0.25500000000E-02 0. -1.
          2   -1    0    0  501    0  0.00000000000E+00 -0.00000000000E+00 -0.18013087933E+04  0.18013087933E+04  0.25500000000E-02 0.  1.
    5000001    1    1    2    0    0  0.29289028532E+03 -0.64942776051E+02 -0.72589231190E+03  0.79564497854E+03  0.12700000000E+03 0.  0.
   -5000001    1    1    2    0    0 -0.29289028532E+03  0.64942776051E+02 -0.10150410639E+04  0.10660392323E+04  0.12700000000E+03 0.  0.
<mgrwt>
<rscale>  0 0.65955976E+03</rscale>
<asrwt>0</asrwt>
<pdfrwt beam="1">  1        2 0.25732980E+00 0.65955976E+03</pdfrwt>
<pdfrwt beam="2">  1       -2 0.86250607E-02 0.65955976E+03</pdfrwt>
<totfact> 0.90382953E+02</totfact>
</mgrwt>
</event>
<event>
 4    1  0.9508302E-005  0.6418693E+03  0.7818608E-02  0.9822157E-01
          2   -1    0    0  501    0  0.00000000000E+00  0.00000000000E+00  0.88560159866E+03  0.88560159867E+03  0.25500000000E-02 0.  1.
         -2   -1    0    0    0  501 -0.00000000000E+00 -0.00000000000E+00 -0.11630405744E+03  0.11630405747E+03  0.25500000000E-02 0. -1.
    5000001    1    1    2    0    0 -0.15970698259E+03  0.22719406745E+03  0.23054734522E+03  0.38262846596E+03  0.12700000000E+03 0.  0.
   -5000001    1    1    2    0    0  0.15970698259E+03 -0.22719406745E+03  0.53875019600E+03  0.61927719017E+03  0.12700000000E+03 0.  0.
<mgrwt>
<rscale>  0 0.64186933E+03</rscale>
<asrwt>0</asrwt>
<pdfrwt beam="1">  1        2 0.12651451E+00 0.64186933E+03</pdfrwt>
<pdfrwt beam="2">  1       -2 0.16614865E-01 0.64186933E+03</pdfrwt>
<totfact> 0.98171317E+02</totfact>
</mgrwt>
</event>
<event>
 4    1  0.9508302E-005  0.3866899E+03  0.7818608E-02  0.1048488E+00
          2   -1    0    0  501    0  0.00000000000E+00  0.00000000000E+00  0.62281117521E+02  0.62281117573E+02  0.25500000000E-02 0.  1.
         -2   -1    0    0    0  501 -0.00000000000E+00 -0.00000000000E+00 -0.60021824442E+03  0.60021824443E+03  0.25500000000E-02 0. -1.
    5000001    1    1    2    0    0 -0.45640060616E+02  0.13512901660E+03 -0.32066231250E+03  0.37322404118E+03  0.12700000000E+03 0.  0.
   -5000001    1    1    2    0    0  0.45640060616E+02 -0.13512901660E+03 -0.21727481440E+03  0.28927532081E+03  0.12700000000E+03 0.  0.
<mgrwt>
<rscale>  0 0.38668987E+03</rscale>
<asrwt>0</asrwt>
<pdfrwt beam="1">  1        2 0.88973029E-02 0.38668987E+03</pdfrwt>
<pdfrwt beam="2">  1       -2 0.85745460E-01 0.38668987E+03</pdfrwt>
<totfact> 0.91247474E+02</totfact>
</mgrwt>
</event>
<event>
 4    1  0.9508302E-005  0.3147353E+03  0.7818608E-02  0.1078098E+00
          2   -1    0    0  501    0  0.00000000000E+00  0.00000000000E+00  0.10189917357E+04  0.10189917357E+04  0.25500000000E-02 0.  1.
         -2   -1    0    0    0  501 -0.00000000000E+00 -0.00000000000E+00 -0.24303026659E+02  0.24303026793E+02  0.25500000000E-02 0. -1.
    5000001    1    1    2    0    0  0.41093085971E+02 -0.71995307421E+02  0.63655219740E+03  0.65436967077E+03  0.12700000000E+03 0.  0.
   -5000001    1    1    2    0    0 -0.41093085971E+02  0.71995307421E+02  0.35813651164E+03  0.38892509173E+03  0.12700000000E+03 0.  0.
<mgrwt>
<rscale>  0 0.31473534E+03</rscale>
<asrwt>0</asrwt>
<pdfrwt beam="1">  1        2 0.14557026E+00 0.31473534E+03</pdfrwt>
<pdfrwt beam="2">  1       -2 0.34718607E-02 0.31473534E+03</pdfrwt>
<totfact> 0.96793903E+03</totfact>
</mgrwt>
</event>
<event>
 4    1  0.9508302E-005  0.3929412E+03  0.7818608E-02  0.1046252E+00
          2   -1    0    0  501    0  0.00000000000E+00  0.00000000000E+00  0.12915407397E+04  0.12915407397E+04  0.25500000000E-02 0.  1.
         -2   -1    0    0    0  501 -0.00000000000E+00 -0.00000000000E+00 -0.29887328207E+02  0.29887328315E+02  0.25500000000E-02 0. -1.
    5000001    1    1    2    0    0 -0.20087301594E+02 -0.14362698104E+03  0.75841788787E+03  0.78253364274E+03  0.12700000000E+03 0.  0.
   -5000001    1    1    2    0    0  0.20087301594E+02  0.14362698104E+03  0.50323552365E+03  0.53889442531E+03  0.12700000000E+03 0.  0.
<mgrwt>
<rscale>  0 0.39294123E+03</rscale>
<asrwt>0</asrwt>
<pdfrwt beam="1">  1        2 0.18450579E+00 0.39294123E+03</pdfrwt>
<pdfrwt beam="2">  1       -2 0.42696190E-02 0.39294123E+03</pdfrwt>
<totfact> 0.50052892E+03</totfact>
</mgrwt>
</event>
<event>
 4    1  0.9508302E-005  0.5777236E+03  0.7818608E-02  0.9952732E-01
          2   -1    0    0  501    0  0.00000000000E+00  0.00000000000E+00  0.19813984004E+03  0.19813984005E+03  0.25500000000E-02 0.  1.
         -2   -1    0    0    0  501 -0.00000000000E+00 -0.00000000000E+00 -0.42112251288E+03  0.42112251289E+03  0.25500000000E-02 0. -1.
    5000001    1    1    2    0    0 -0.19881486400E+03 -0.14094839611E+03 -0.16108153759E+02  0.27528580263E+03  0.12700000000E+03 0.  0.
   -5000001    1    1    2    0    0  0.19881486400E+03  0.14094839611E+03 -0.20687451908E+03  0.34397655030E+03  0.12700000000E+03 0.  0.
<mgrwt>
<rscale>  0 0.57772363E+03</rscale>
<asrwt>0</asrwt>
<pdfrwt beam="1">  1        2 0.28305691E-01 0.57772363E+03</pdfrwt>
<pdfrwt beam="2">  1       -2 0.60160359E-01 0.57772363E+03</pdfrwt>
<totfact> 0.49369113E+02</totfact>
</mgrwt>
</event>
<event>
 4    1  0.9508302E-005  0.3024400E+03  0.7818608E-02  0.1084027E+00
         -2   -1    0    0    0  501 -0.00000000000E+00  0.00000000000E+00  0.10423574936E+03  0.10423574939E+03  0.25500000000E-02 0. -1.
          2   -1    0    0  501    0  0.00000000000E+00 -0.00000000000E+00 -0.21938232440E+03  0.21938232441E+03  0.25500000000E-02 0.  1.
    5000001    1    1    2    0    0 -0.63564862524E+02 -0.43510599180E+02 -0.27217452774E+02  0.15100812470E+03  0.12700000000E+03 0.  0.
   -5000001    1    1    2    0    0  0.63564862524E+02  0.43510599180E+02 -0.87929122266E+02  0.17260994911E+03  0.12700000000E+03 0.  0.
<mgrwt>
<rscale>  0 0.30243995E+03</rscale>
<asrwt>0</asrwt>
<pdfrwt beam="1">  1        2 0.31340332E-01 0.30243995E+03</pdfrwt>
<pdfrwt beam="2">  1       -2 0.14890821E-01 0.30243995E+03</pdfrwt>
<totfact> 0.57735810E+03</totfact>
</mgrwt>
</event>
<event>
 4    1  0.9508302E-005  0.3544789E+03  0.7818608E-02  0.1060792E+00
         -2   -1    0    0    0  501 -0.00000000000E+00  0.00000000000E+00  0.62080301394E+02  0.62080301446E+02  0.25500000000E-02 0. -1.
          2   -1    0    0  501    0  0.00000000000E+00 -0.00000000000E+00 -0.50601917896E+03  0.50601917897E+03  0.25500000000E-02 0.  1.
    5000001    1    1    2    0    0  0.98609321373E+02 -0.57451959442E+02 -0.29816273773E+03  0.34359066355E+03  0.12700000000E+03 0.  0.
   -5000001    1    1    2    0    0 -0.98609321373E+02  0.57451959442E+02 -0.14577613984E+03  0.22450881687E+03  0.12700000000E+03 0.  0.
<mgrwt>
<rscale>  0 0.35447890E+03</rscale>
<asrwt>0</asrwt>
<pdfrwt beam="1">  1        2 0.72288452E-01 0.35447890E+03</pdfrwt>
<pdfrwt beam="2">  1       -2 0.88686148E-02 0.35447890E+03</pdfrwt>
<totfact> 0.53892131E+03</totfact>
</mgrwt>
</event>
<event>
 4    1  0.9508302E-005  0.4074607E+03  0.7818608E-02  0.1041227E+00
          2   -1    0    0  501    0  0.00000000000E+00  0.00000000000E+00  0.31864775709E+04  0.31864775709E+04  0.25500000000E-02 0.  1.
         -2   -1    0    0    0  501 -0.00000000000E+00 -0.00000000000E+00 -0.13025682691E+02  0.13025682941E+02  0.25500000000E-02 0. -1.
    5000001    1    1    2    0    0 -0.13695175884E+03  0.72453243172E+02  0.18775568841E+04  0.18882145295E+04  0.12700000000E+03 0.  0.
   -5000001    1    1    2    0    0  0.13695175884E+03 -0.72453243172E+02  0.12958950041E+04  0.13112887243E+04  0.12700000000E+03 0.  0.
<mgrwt>
<rscale>  0 0.40746065E+03</rscale>
<asrwt>0</asrwt>
<pdfrwt beam="1">  1        2 0.45521148E+00 0.40746065E+03</pdfrwt>
<pdfrwt beam="2">  1       -2 0.18608102E-02 0.40746065E+03</pdfrwt>
<totfact> 0.18657984E+03</totfact>
</mgrwt>
</event>
<event>
 4    1  0.9508302E-005  0.3873118E+03  0.7818608E-02  0.1048264E+00
         -2   -1    0    0    0  501 -0.00000000000E+00  0.00000000000E+00  0.96159805134E+01  0.96159808516E+01  0.25500000000E-02 0.  1.
          2   -1    0    0  501    0  0.00000000000E+00 -0.00000000000E+00 -0.39000286599E+04  0.39000286599E+04  0.25500000000E-02 0. -1.
    5000001    1    1    2    0    0 -0.14190353307E+03  0.33403029651E+02 -0.20563470074E+04  0.20654162752E+04  0.12700000000E+03 0.  0.
   -5000001    1    1    2    0    0  0.14190353307E+03 -0.33403029651E+02 -0.18340656721E+04  0.18442283656E+04  0.12700000000E+03 0.  0.
<mgrwt>
<rscale>  0 0.38731176E+03</rscale>
<asrwt>0</asrwt>
<pdfrwt beam="1">  1        2 0.55714594E+00 0.38731176E+03</pdfrwt>
<pdfrwt beam="2">  1       -2 0.13737140E-02 0.38731176E+03</pdfrwt>
<totfact> 0.11050220E+03</totfact>
</mgrwt>
</event>
<event>
 4    1  0.9508302E-005  0.4449324E+03  0.7818608E-02  0.1029244E+00
          2   -1    0    0  501    0  0.00000000000E+00  0.00000000000E+00  0.31329991716E+04  0.31329991716E+04  0.25500000000E-02 0.  1.
         -2   -1    0    0    0  501 -0.00000000000E+00 -0.00000000000E+00 -0.15796750789E+02  0.15796750995E+02  0.25500000000E-02 0. -1.
    5000001    1    1    2    0    0  0.26169876678E+01  0.17707559991E+03  0.18750628355E+04  0.18876843628E+04  0.12700000000E+03 0.  0.
   -5000001    1    1    2    0    0 -0.26169876678E+01 -0.17707559991E+03  0.12421395853E+04  0.12611115598E+04  0.12700000000E+03 0.  0.
<mgrwt>
<rscale>  0 0.44493239E+03</rscale>
<asrwt>0</asrwt>
<pdfrwt beam="1">  1        2 0.44757123E+00 0.44493239E+03</pdfrwt>
<pdfrwt beam="2">  1       -2 0.22566791E-02 0.44493239E+03</pdfrwt>
<totfact> 0.14926132E+03</totfact>
</mgrwt>
</event>
<event>
 4    1  0.9508302E-005  0.3285759E+03  0.7818608E-02  0.1071769E+00
          2   -1    0    0  501    0  0.00000000000E+00  0.00000000000E+00  0.11013994449E+04  0.11013994449E+04  0.25500000000E-02 0. -1.
         -2   -1    0    0    0  501 -0.00000000000E+00 -0.00000000000E+00 -0.24505667796E+02  0.24505667928E+02  0.25500000000E-02 0.  1.
    5000001    1    1    2    0    0 -0.82188620452E+02 -0.20382027740E+02  0.74663020403E+03  0.76207352530E+03  0.12700000000E+03 0.  0.
   -5000001    1    1    2    0    0  0.82188620452E+02  0.20382027740E+02  0.33026357304E+03  0.36383158750E+03  0.12700000000E+03 0.  0.
<mgrwt>
<rscale>  0 0.32857589E+03</rscale>
<asrwt>0</asrwt>
<pdfrwt beam="1">  1        2 0.15734282E+00 0.32857589E+03</pdfrwt>
<pdfrwt beam="2">  1       -2 0.35008087E-02 0.32857589E+03</pdfrwt>
<totfact> 0.85771148E+03</totfact>
</mgrwt>
</event>
<event>
 4    1  0.9508302E-005  0.3088966E+03  0.7818608E-02  0.1080876E+00
         -2   -1    0    0    0  501 -0.00000000000E+00  0.00000000000E+00  0.53188866696E+03  0.53188866697E+03  0.25500000000E-02 0. -1.
          2   -1    0    0  501    0  0.00000000000E+00 -0.00000000000E+00 -0.44848253505E+02  0.44848253578E+02  0.25500000000E-02 0.  1.
    5000001    1    1    2    0    0 -0.69539612623E+02 -0.50982337652E+02  0.27533316725E+03  0.31523373783E+03  0.12700000000E+03 0.  0.
   -5000001    1    1    2    0    0  0.69539612623E+02  0.50982337652E+02  0.21170724621E+03  0.26150318272E+03  0.12700000000E+03 0.  0.
<mgrwt>
<rscale>  0 0.30889660E+03</rscale>
<asrwt>0</asrwt>
<pdfrwt beam="1">  1        2 0.64068940E-02 0.30889660E+03</pdfrwt>
<pdfrwt beam="2">  1       -2 0.75984088E-01 0.30889660E+03</pdfrwt>
<totfact> 0.18139163E+03</totfact>
</mgrwt>
</event>
<event>
 4    1  0.9508302E-005  0.3081325E+03  0.7818608E-02  0.1081244E+00
          2   -1    0    0  501    0  0.00000000000E+00  0.00000000000E+00  0.30528217251E+03  0.30528217252E+03  0.25500000000E-02 0.  1.
         -2   -1    0    0    0  501 -0.00000000000E+00 -0.00000000000E+00 -0.77752371515E+02  0.77752371557E+02  0.25500000000E-02 0. -1.
    5000001    1    1    2    0    0 -0.11148843347E+01  0.86238867757E+02  0.97603490516E+02  0.18191708727E+03  0.12700000000E+03 0.  0.
   -5000001    1    1    2    0    0  0.11148843347E+01 -0.86238867757E+02  0.12992631048E+03  0.20111745681E+03  0.12700000000E+03 0.  0.
<mgrwt>
<rscale>  0 0.30813252E+03</rscale>
<asrwt>0</asrwt>
<pdfrwt beam="1">  1        2 0.43611738E-01 0.30813252E+03</pdfrwt>
<pdfrwt beam="2">  1       -2 0.11107482E-01 0.30813252E+03</pdfrwt>
<totfact> 0.65058892E+03</totfact>
</mgrwt>
</event>
<event>
 4    1  0.9508302E-005  0.4008459E+03  0.7818608E-02  0.1043487E+00
          2   -1    0    0  501    0  0.00000000000E+00  0.00000000000E+00  0.52680153312E+03  0.52680153313E+03  0.25500000000E-02 0.  1.
         -2   -1    0    0    0  501 -0.00000000000E+00 -0.00000000000E+00 -0.76251412250E+02  0.76251412293E+02  0.25500000000E-02 0. -1.
    5000001    1    1    2    0    0 -0.13974317635E+03 -0.16882273831E+02  0.12746036753E+03  0.22844761281E+03  0.12700000000E+03 0.  0.
   -5000001    1    1    2    0    0  0.13974317635E+03  0.16882273831E+02  0.32308975334E+03  0.37460533261E+03  0.12700000000E+03 0.  0.
<mgrwt>
<rscale>  0 0.40084591E+03</rscale>
<asrwt>0</asrwt>
<pdfrwt beam="1">  1        2 0.75257361E-01 0.40084591E+03</pdfrwt>
<pdfrwt beam="2">  1       -2 0.10893059E-01 0.40084591E+03</pdfrwt>
<totfact> 0.37161615E+03</totfact>
</mgrwt>
</event>
<event>
 4    1  0.9508302E-005  0.4521166E+03  0.7818608E-02  0.1027093E+00
          2   -1    0    0  501    0  0.00000000000E+00  0.00000000000E+00  0.25530462582E+04  0.25530462582E+04  0.25500000000E-02 0.  1.
         -2   -1    0    0    0  501 -0.00000000000E+00 -0.00000000000E+00 -0.20016230228E+02  0.20016230391E+02  0.25500000000E-02 0. -1.
    5000001    1    1    2    0    0  0.88970449026E+02 -0.15383329017E+03  0.15980183756E+04  0.16128769794E+04  0.12700000000E+03 0.  0.
   -5000001    1    1    2    0    0 -0.88970449026E+02  0.15383329017E+03  0.93501165237E+03  0.96018550917E+03  0.12700000000E+03 0.  0.
<mgrwt>
<rscale>  0 0.45211663E+03</rscale>
<asrwt>0</asrwt>
<pdfrwt beam="1">  1        2 0.36472104E+00 0.45211663E+03</pdfrwt>
<pdfrwt beam="2">  1       -2 0.28594603E-02 0.45211663E+03</pdfrwt>
<totfact> 0.21171123E+03</totfact>
</mgrwt>
</event>
<event>
 4    1  0.9508302E-005  0.4760865E+03  0.7818608E-02  0.1020216E+00
          2   -1    0    0  501    0  0.00000000000E+00  0.00000000000E+00  0.23228603745E+03  0.23228603747E+03  0.25500000000E-02 0.  1.
         -2   -1    0    0    0  501 -0.00000000000E+00 -0.00000000000E+00 -0.24394319010E+03  0.24394319011E+03  0.25500000000E-02 0. -1.
    5000001    1    1    2    0    0 -0.49942391542E+02  0.18975699161E+03  0.39280822857E+02  0.23701042463E+03  0.12700000000E+03 0.  0.
   -5000001    1    1    2    0    0  0.49942391542E+02 -0.18975699161E+03 -0.50937975503E+02  0.23921880295E+03  0.12700000000E+03 0.  0.
<mgrwt>
<rscale>  0 0.47608653E+03</rscale>
<asrwt>0</asrwt>
<pdfrwt beam="1">  1        2 0.33183720E-01 0.47608653E+03</pdfrwt>
<pdfrwt beam="2">  1       -2 0.34849027E-01 0.47608653E+03</pdfrwt>
<totfact> 0.12247278E+03</totfact>
</mgrwt>
</event>
<event>
 4    1  0.9508302E-005  0.3707957E+03  0.7818608E-02  0.1054389E+00
         -2   -1    0    0    0  501 -0.00000000000E+00  0.00000000000E+00  0.10845415292E+02  0.10845415592E+02  0.25500000000E-02 0. -1.
          2   -1    0    0  501    0  0.00000000000E+00 -0.00000000000E+00 -0.31692990320E+04  0.31692990320E+04  0.25500000000E-02 0.  1.
    5000001    1    1    2    0    0 -0.30689968357E+02  0.12404903412E+03 -0.19543784220E+04  0.19626650386E+04  0.12700000000E+03 0.  0.
   -5000001    1    1    2    0    0  0.30689968357E+02 -0.12404903412E+03 -0.12040751947E+04  0.12174794090E+04  0.12700000000E+03 0.  0.
<mgrwt>
<rscale>  0 0.37079571E+03</rscale>
<asrwt>0</asrwt>
<pdfrwt beam="1">  1        2 0.45275641E+00 0.37079571E+03</pdfrwt>
<pdfrwt beam="2">  1       -2 0.15493471E-02 0.37079571E+03</pdfrwt>
<totfact> 0.25099093E+03</totfact>
</mgrwt>
</event>
<event>
 4    1  0.9508302E-005  0.4475315E+03  0.7818608E-02  0.1028461E+00
          2   -1    0    0  501    0  0.00000000000E+00  0.00000000000E+00  0.25161393778E+04  0.25161393778E+04  0.25500000000E-02 0.  1.
         -2   -1    0    0    0  501 -0.00000000000E+00 -0.00000000000E+00 -0.19899973076E+02  0.19899973240E+02  0.25500000000E-02 0. -1.
    5000001    1    1    2    0    0  0.17815924206E+03  0.87153284628E+01  0.98686977943E+03  0.10108697414E+04  0.12700000000E+03 0.  0.
   -5000001    1    1    2    0    0 -0.17815924206E+03 -0.87153284628E+01  0.15093696253E+04  0.15251696097E+04  0.12700000000E+03 0.  0.
<mgrwt>
<rscale>  0 0.44753148E+03</rscale>
<asrwt>0</asrwt>
<pdfrwt beam="1">  1        2 0.35944810E+00 0.44753148E+03</pdfrwt>
<pdfrwt beam="2">  1       -2 0.28428563E-02 0.44753148E+03</pdfrwt>
<totfact> 0.22309492E+03</totfact>
</mgrwt>
</event>
<event>
 4    1  0.9508302E-005  0.3586326E+03  0.7818608E-02  0.1059127E+00
          2   -1    0    0  501    0  0.00000000000E+00  0.00000000000E+00  0.29629887657E+04  0.29629887657E+04  0.25500000000E-02 0.  1.
         -2   -1    0    0    0  501 -0.00000000000E+00 -0.00000000000E+00 -0.10851992043E+02  0.10851992343E+02  0.25500000000E-02 0. -1.
    5000001    1    1    2    0    0 -0.88970875879E+02  0.63450175392E+02  0.94617437557E+03  0.96089369365E+03  0.12700000000E+03 0.  0.
   -5000001    1    1    2    0    0  0.88970875879E+02 -0.63450175392E+02  0.20059623981E+04  0.20129470644E+04  0.12700000000E+03 0.  0.
<mgrwt>
<rscale>  0 0.35863257E+03</rscale>
<asrwt>0</asrwt>
<pdfrwt beam="1">  1        2 0.42328460E+00 0.35863257E+03</pdfrwt>
<pdfrwt beam="2">  1       -2 0.15502828E-02 0.35863257E+03</pdfrwt>
<totfact> 0.32454163E+03</totfact>
</mgrwt>
</event>
<event>
 4    1  0.9508302E-005  0.1251414E+04  0.7818608E-02  0.9069007E-01
          2   -1    0    0  501    0  0.00000000000E+00  0.00000000000E+00  0.11390781382E+04  0.11390781382E+04  0.25500000000E-02 0.  1.
         -2   -1    0    0    0  501 -0.00000000000E+00 -0.00000000000E+00 -0.34370724772E+03  0.34370724773E+03  0.25500000000E-02 0. -1.
    5000001    1    1    2    0    0  0.37934421345E+03 -0.10523159504E+03 -0.15858708564E+03  0.44300630312E+03  0.12700000000E+03 0.  0.
   -5000001    1    1    2    0    0 -0.37934421345E+03  0.10523159504E+03  0.95395797610E+03  0.10397790828E+04  0.12700000000E+03 0.  0.
<mgrwt>
<rscale>  0 0.12514143E+04</rscale>
<asrwt>0</asrwt>
<pdfrwt beam="1">  1        2 0.16272545E+00 0.12514143E+04</pdfrwt>
<pdfrwt beam="2">  1       -2 0.49101034E-01 0.12514143E+04</pdfrwt>
<totfact> 0.89502675E+01</totfact>
</mgrwt>
</event>
<event>
 4    1  0.9508302E-005  0.3292163E+03  0.7818608E-02  0.1071484E+00
          2   -1    0    0  501    0  0.00000000000E+00  0.00000000000E+00  0.24778904023E+03  0.24778904024E+03  0.25500000000E-02 0. -1.
         -2   -1    0    0    0  501 -0.00000000000E+00 -0.00000000000E+00 -0.10935044001E+03  0.10935044004E+03  0.25500000000E-02 0.  1.
    5000001    1    1    2    0    0 -0.27513353338E+02 -0.29738966074E+02  0.17397832523E+03  0.21917766393E+03  0.12700000000E+03 0.  0.
   -5000001    1    1    2    0    0  0.27513353338E+02  0.29738966074E+02 -0.35539725014E+02  0.13796181634E+03  0.12700000000E+03 0.  0.
<mgrwt>
<rscale>  0 0.32921629E+03</rscale>
<asrwt>0</asrwt>
<pdfrwt beam="1">  1        2 0.35398434E-01 0.32921629E+03</pdfrwt>
<pdfrwt beam="2">  1       -2 0.15621492E-01 0.32921629E+03</pdfrwt>
<totfact> 0.46793257E+03</totfact>
</mgrwt>
</event>
<event>
 4    1  0.9508302E-005  0.4652334E+03  0.7818608E-02  0.1023274E+00
         -2   -1    0    0    0  501 -0.00000000000E+00  0.00000000000E+00  0.33582681158E+03  0.33582681159E+03  0.25500000000E-02 0. -1.
          2   -1    0    0  501    0  0.00000000000E+00 -0.00000000000E+00 -0.16112627235E+03  0.16112627237E+03  0.25500000000E-02 0.  1.
    5000001    1    1    2    0    0 -0.16188953939E+03  0.83895680694E+02  0.13848804176E+02  0.22263759247E+03  0.12700000000E+03 0.  0.
   -5000001    1    1    2    0    0  0.16188953939E+03 -0.83895680694E+02  0.16085173506E+03  0.27431549149E+03  0.12700000000E+03 0.  0.
<mgrwt>
<rscale>  0 0.46523337E+03</rscale>
<asrwt>0</asrwt>
<pdfrwt beam="1">  1        2 0.23018039E-01 0.46523337E+03</pdfrwt>
<pdfrwt beam="2">  1       -2 0.47975258E-01 0.46523337E+03</pdfrwt>
<totfact> 0.99391765E+02</totfact>
</mgrwt>
</event>
<event>
 4    1  0.9508302E-005  0.3151149E+03  0.7818608E-02  0.1077920E+00
         -2   -1    0    0    0  501 -0.00000000000E+00  0.00000000000E+00  0.12430770821E+02  0.12430771082E+02  0.25500000000E-02 0. -1.
          2   -1    0    0  501    0  0.00000000000E+00 -0.00000000000E+00 -0.19970084244E+04  0.19970084244E+04  0.25500000000E-02 0.  1.
    5000001    1    1    2    0    0 -0.20928668316E+02 -0.67166507242E+02 -0.13825812282E+04  0.13901831539E+04  0.12700000000E+03 0.  0.
   -5000001    1    1    2    0    0  0.20928668316E+02  0.67166507242E+02 -0.60199642539E+03  0.61925604158E+03  0.12700000000E+03 0.  0.
<mgrwt>
<rscale>  0 0.31511493E+03</rscale>
<asrwt>0</asrwt>
<pdfrwt beam="1">  1        2 0.28528671E+00 0.31511493E+03</pdfrwt>
<pdfrwt beam="2">  1       -2 0.17758257E-02 0.31511493E+03</pdfrwt>
<totfact> 0.81766476E+03</totfact>
</mgrwt>
</event>
<event>
 4    1  0.9508302E-005  0.3790786E+03  0.7818608E-02  0.1051275E+00
         -2   -1    0    0    0  501 -0.00000000000E+00  0.00000000000E+00  0.16636278948E+02  0.16636279144E+02  0.25500000000E-02 0. -1.
          2   -1    0    0  501    0  0.00000000000E+00 -0.00000000000E+00 -0.21594459632E+04  0.21594459632E+04  0.25500000000E-02 0.  1.
    5000001    1    1    2    0    0  0.37930022145E+02 -0.10553630207E+03 -0.15591590723E+04  0.15683375307E+04  0.12700000000E+03 0.  0.
   -5000001    1    1    2    0    0 -0.37930022145E+02  0.10553630207E+03 -0.58365061196E+03  0.60774471159E+03  0.12700000000E+03 0.  0.
<mgrwt>
<rscale>  0 0.37907860E+03</rscale>
<asrwt>0</asrwt>
<pdfrwt beam="1">  1        2 0.30849210E+00 0.37907860E+03</pdfrwt>
<pdfrwt beam="2">  1       -2 0.23766127E-02 0.37907860E+03</pdfrwt>
<totfact> 0.44160781E+03</totfact>
</mgrwt>
</event>
<event>
 4    1  0.9508302E-005  0.3909286E+03  0.7818608E-02  0.1046967E+00
          2   -1    0    0  501    0  0.00000000000E+00  0.00000000000E+00  0.14203048823E+04  0.14203048823E+04  0.25500000000E-02 0.  1.
         -2   -1    0    0    0  501 -0.00000000000E+00 -0.00000000000E+00 -0.26900066930E+02  0.26900067051E+02  0.25500000000E-02 0. -1.
    5000001    1    1    2    0    0  0.12752817376E+03  0.72839760396E+02  0.61324536060E+03  0.64324796004E+03  0.12700000000E+03 0.  0.
   -5000001    1    1    2    0    0 -0.12752817376E+03 -0.72839760396E+02  0.78015945473E+03  0.80395698927E+03  0.12700000000E+03 0.  0.
<mgrwt>
<rscale>  0 0.39092862E+03</rscale>
<asrwt>0</asrwt>
<pdfrwt beam="1">  1        2 0.20290081E+00 0.39092862E+03</pdfrwt>
<pdfrwt beam="2">  1       -2 0.38428647E-02 0.39092862E+03</pdfrwt>
<totfact> 0.50235084E+03</totfact>
</mgrwt>
</event>
<event>
 4    1  0.9508302E-005  0.4057175E+03  0.7818608E-02  0.1041818E+00
          2   -1    0    0  501    0  0.00000000000E+00  0.00000000000E+00  0.33953839098E+03  0.33953839099E+03  0.25500000000E-02 0.  1.
         -2   -1    0    0    0  501 -0.00000000000E+00 -0.00000000000E+00 -0.12119890155E+03  0.12119890157E+03  0.25500000000E-02 0. -1.
    5000001    1    1    2    0    0  0.74312546891E+02 -0.13924818223E+03  0.97244793930E+02  0.22471751339E+03  0.12700000000E+03 0.  0.
   -5000001    1    1    2    0    0 -0.74312546891E+02  0.13924818223E+03  0.12109469551E+03  0.23601977917E+03  0.12700000000E+03 0.  0.
<mgrwt>
<rscale>  0 0.40571754E+03</rscale>
<asrwt>0</asrwt>
<pdfrwt beam="1">  1        2 0.48505484E-01 0.40571754E+03</pdfrwt>
<pdfrwt beam="2">  1       -2 0.17314129E-01 0.40571754E+03</pdfrwt>
<totfact> 0.28063498E+03</totfact>
</mgrwt>
</event>
<event>
 4    1  0.9508302E-005  0.5184253E+03  0.7818608E-02  0.1009078E+00
          2   -1    0    0  501    0  0.00000000000E+00  0.00000000000E+00  0.22759274808E+04  0.22759274808E+04  0.25500000000E-02 0.  1.
         -2   -1    0    0    0  501 -0.00000000000E+00 -0.00000000000E+00 -0.29522559831E+02  0.29522559941E+02  0.25500000000E-02 0. -1.
    5000001    1    1    2    0    0 -0.90925014445E+02  0.19873374038E+03  0.13786547857E+04  0.14016349297E+04  0.12700000000E+03 0.  0.
   -5000001    1    1    2    0    0  0.90925014445E+02 -0.19873374038E+03  0.86775013519E+03  0.90381511104E+03  0.12700000000E+03 0.  0.
<mgrwt>
<rscale>  0 0.51842533E+03</rscale>
<asrwt>0</asrwt>
<pdfrwt beam="1">  1        2 0.32513261E+00 0.51842533E+03</pdfrwt>
<pdfrwt beam="2">  1       -2 0.42175072E-02 0.51842533E+03</pdfrwt>
<totfact> 0.16133416E+03</totfact>
</mgrwt>
</event>
<event>
 4    1  0.9508302E-005  0.2889929E+03  0.7818608E-02  0.1090876E+00
         -2   -1    0    0    0  501 -0.00000000000E+00  0.00000000000E+00  0.58670529786E+02  0.58670529841E+02  0.25500000000E-02 0. -1.
          2   -1    0    0  501    0  0.00000000000E+00 -0.00000000000E+00 -0.35587244414E+03  0.35587244415E+03  0.25500000000E-02 0.  1.
    5000001    1    1    2    0    0  0.58788549393E+02 -0.33410734953E+02 -0.12947098602E+03  0.19355646972E+03  0.12700000000E+03 0.  0.
   -5000001    1    1    2    0    0 -0.58788549393E+02  0.33410734953E+02 -0.16773092833E+03  0.22098650427E+03  0.12700000000E+03 0.  0.
<mgrwt>
<rscale>  0 0.28899291E+03</rscale>
<asrwt>0</asrwt>
<pdfrwt beam="1">  1        2 0.50838920E-01 0.28899291E+03</pdfrwt>
<pdfrwt beam="2">  1       -2 0.83815044E-02 0.28899291E+03</pdfrwt>
<totfact> 0.86041393E+03</totfact>
</mgrwt>
</event>
<event>
 4    1  0.9508302E-005  0.3000284E+03  0.7818608E-02  0.1085226E+00
         -2   -1    0    0    0  501 -0.00000000000E+00  0.00000000000E+00  0.50988921877E+02  0.50988921941E+02  0.25500000000E-02 0. -1.
          2   -1    0    0  501    0  0.00000000000E+00 -0.00000000000E+00 -0.44135577140E+03  0.44135577141E+03  0.25500000000E-02 0.  1.
    5000001    1    1    2    0    0  0.20239335738E+02 -0.69040527922E+02 -0.13836071679E+03  0.20111915164E+03  0.12700000000E+03 0.  0.
   -5000001    1    1    2    0    0 -0.20239335738E+02  0.69040527922E+02 -0.25200613273E+03  0.29122554170E+03  0.12700000000E+03 0.  0.
<mgrwt>
<rscale>  0 0.30002837E+03</rscale>
<asrwt>0</asrwt>
<pdfrwt beam="1">  1        2 0.63050822E-01 0.30002837E+03</pdfrwt>
<pdfrwt beam="2">  1       -2 0.72841320E-02 0.30002837E+03</pdfrwt>
<totfact> 0.84941231E+03</totfact>
</mgrwt>
</event>
<event>
 4    1  0.9508302E-005  0.3559303E+03  0.7818608E-02  0.1060207E+00
         -2   -1    0    0    0  501 -0.00000000000E+00  0.00000000000E+00  0.41496579192E+02  0.41496579271E+02  0.25500000000E-02 0. -1.
          2   -1    0    0  501    0  0.00000000000E+00 -0.00000000000E+00 -0.76323392962E+03  0.76323392963E+03  0.25500000000E-02 0.  1.
    5000001    1    1    2    0    0 -0.80714638578E+02  0.85719692844E+02 -0.26820181706E+03  0.31925527920E+03  0.12700000000E+03 0.  0.
   -5000001    1    1    2    0    0  0.80714638578E+02 -0.85719692844E+02 -0.45353553337E+03  0.48547522970E+03  0.12700000000E+03 0.  0.
<mgrwt>
<rscale>  0 0.35593031E+03</rscale>
<asrwt>0</asrwt>
<pdfrwt beam="1">  1        2 0.10903341E+00 0.35593031E+03</pdfrwt>
<pdfrwt beam="2">  1       -2 0.59280832E-02 0.35593031E+03</pdfrwt>
<totfact> 0.62623840E+03</totfact>
</mgrwt>
</event>
<event>
 4    1  0.9508302E-005  0.5505637E+03  0.7818608E-02  0.1001364E+00
          2   -1    0    0  501    0  0.00000000000E+00  0.00000000000E+00  0.67394832245E+03  0.67394832246E+03  0.25500000000E-02 0.  1.
         -2   -1    0    0    0  501 -0.00000000000E+00 -0.00000000000E+00 -0.11244197968E+03  0.11244197971E+03  0.25500000000E-02 0. -1.
    5000001    1    1    2    0    0 -0.21363033316E+03  0.96946821295E+02  0.18372632589E+03  0.32391506330E+03  0.12700000000E+03 0.  0.
   -5000001    1    1    2    0    0  0.21363033316E+03 -0.96946821295E+02  0.37778001688E+03  0.46247523886E+03  0.12700000000E+03 0.  0.
<mgrwt>
<rscale>  0 0.55056365E+03</rscale>
<asrwt>0</asrwt>
<pdfrwt beam="1">  1        2 0.96278330E-01 0.55056365E+03</pdfrwt>
<pdfrwt beam="2">  1       -2 0.16063140E-01 0.55056365E+03</pdfrwt>
<totfact> 0.14704970E+03</totfact>
</mgrwt>
</event>
<event>
 4    1  0.9508302E-005  0.5404907E+03  0.7818608E-02  0.1003719E+00
          2   -1    0    0  501    0  0.00000000000E+00  0.00000000000E+00  0.17631871491E+03  0.17631871493E+03  0.25500000000E-02 0.  1.
         -2   -1    0    0    0  501 -0.00000000000E+00 -0.00000000000E+00 -0.41420762368E+03  0.41420762369E+03  0.25500000000E-02 0. -1.
    5000001    1    1    2    0    0  0.17288007154E+03  0.12492977270E+03 -0.23564341510E+03  0.34227443131E+03  0.12700000000E+03 0.  0.
   -5000001    1    1    2    0    0 -0.17288007154E+03 -0.12492977270E+03 -0.22454936728E+01  0.24825190731E+03  0.12700000000E+03 0.  0.
<mgrwt>
<rscale>  0 0.54049072E+03</rscale>
<asrwt>0</asrwt>
<pdfrwt beam="1">  1        2 0.25188388E-01 0.54049072E+03</pdfrwt>
<pdfrwt beam="2">  1       -2 0.59172517E-01 0.54049072E+03</pdfrwt>
<totfact> 0.58370719E+02</totfact>
</mgrwt>
</event>
<event>
 4    1  0.9508302E-005  0.6616277E+03  0.7818608E-02  0.9785202E-01
         -2   -1    0    0    0  501 -0.00000000000E+00  0.00000000000E+00  0.77002263786E+02  0.77002263828E+02  0.25500000000E-02 0. -1.
          2   -1    0    0  501    0  0.00000000000E+00 -0.00000000000E+00 -0.14212282151E+04  0.14212282151E+04  0.25500000000E-02 0.  1.
    5000001    1    1    2    0    0  0.15568366135E+03  0.17323583344E+03 -0.22456955949E+03  0.34757523423E+03  0.12700000000E+03 0.  0.
   -5000001    1    1    2    0    0 -0.15568366135E+03 -0.17323583344E+03 -0.11196563918E+04  0.11506552447E+04  0.12700000000E+03 0.  0.
<mgrwt>
<rscale>  0 0.66162766E+03</rscale>
<asrwt>0</asrwt>
<pdfrwt beam="1">  1        2 0.20303259E+00 0.66162766E+03</pdfrwt>
<pdfrwt beam="2">  1       -2 0.11000324E-01 0.66162766E+03</pdfrwt>
<totfact> 0.95719790E+02</totfact>
</mgrwt>
</event>
<event>
 4    1  0.9508302E-005  0.4927071E+03  0.7818608E-02  0.1015700E+00
          2   -1    0    0  501    0  0.00000000000E+00  0.00000000000E+00  0.10035990366E+04  0.10035990366E+04  0.25500000000E-02 0.  1.
         -2   -1    0    0    0  501 -0.00000000000E+00 -0.00000000000E+00 -0.60472423285E+02  0.60472423339E+02  0.25500000000E-02 0. -1.
    5000001    1    1    2    0    0  0.33868509543E+01 -0.20392086177E+03  0.58917718584E+03  0.63628134103E+03  0.12700000000E+03 0.  0.
   -5000001    1    1    2    0    0 -0.33868509543E+01  0.20392086177E+03  0.35394942745E+03  0.42779011889E+03  0.12700000000E+03 0.  0.
<mgrwt>
<rscale>  0 0.49270708E+03</rscale>
<asrwt>0</asrwt>
<pdfrwt beam="1">  1        2 0.14337129E+00 0.49270708E+03</pdfrwt>
<pdfrwt beam="2">  1       -2 0.86389178E-02 0.49270708E+03</pdfrwt>
<totfact> 0.24342287E+03</totfact>
</mgrwt>
</event>
<event>
 4    1  0.9508302E-005  0.4363453E+03  0.7818608E-02  0.1031874E+00
          2   -1    0    0  501    0  0.00000000000E+00  0.00000000000E+00  0.59403147580E+03  0.59403147581E+03  0.25500000000E-02 0.  1.
         -2   -1    0    0    0  501 -0.00000000000E+00 -0.00000000000E+00 -0.80129269781E+02  0.80129269821E+02  0.25500000000E-02 0. -1.
    5000001    1    1    2    0    0  0.16969605657E+03 -0.42079061580E+01  0.33657344377E+03  0.39777523948E+03  0.12700000000E+03 0.  0.
   -5000001    1    1    2    0    0 -0.16969605657E+03  0.42079061580E+01  0.17732876225E+03  0.27638550615E+03  0.12700000000E+03 0.  0.
<mgrwt>
<rscale>  0 0.43634531E+03</rscale>
<asrwt>0</asrwt>
<pdfrwt beam="1">  1        2 0.84861635E-01 0.43634531E+03</pdfrwt>
<pdfrwt beam="2">  1       -2 0.11447039E-01 0.43634531E+03</pdfrwt>
<totfact> 0.29918455E+03</totfact>
</mgrwt>
</event>
<event>
 4    1  0.9508302E-005  0.3537469E+03  0.7818608E-02  0.1061088E+00
         -2   -1    0    0    0  501 -0.00000000000E+00  0.00000000000E+00  0.38468024745E+02  0.38468024829E+02  0.25500000000E-02 0. -1.
          2   -1    0    0  501    0  0.00000000000E+00 -0.00000000000E+00 -0.81325258453E+03  0.81325258454E+03  0.25500000000E-02 0.  1.
    5000001    1    1    2    0    0 -0.41664684831E+02  0.83526009351E+02 -0.19413414488E+03  0.25005920581E+03  0.12700000000E+03 0.  0.
   -5000001    1    1    2    0    0  0.41664684831E+02 -0.83526009351E+02 -0.58065041491E+03  0.60166140356E+03  0.12700000000E+03 0.  0.
<mgrwt>
<rscale>  0 0.35374692E+03</rscale>
<asrwt>0</asrwt>
<pdfrwt beam="1">  1        2 0.11617893E+00 0.35374692E+03</pdfrwt>
<pdfrwt beam="2">  1       -2 0.54954326E-02 0.35374692E+03</pdfrwt>
<totfact> 0.65022742E+03</totfact>
</mgrwt>
</event>
<event>
 4    1  0.9508302E-005  0.3745282E+03  0.7818608E-02  0.1052975E+00
          2   -1    0    0  501    0  0.00000000000E+00  0.00000000000E+00  0.16372454226E+04  0.16372454226E+04  0.25500000000E-02 0.  1.
         -2   -1    0    0    0  501 -0.00000000000E+00 -0.00000000000E+00 -0.21418810981E+02  0.21418811133E+02  0.25500000000E-02 0. -1.
    5000001    1    1    2    0    0  0.40762928651E+02  0.96807183841E+02  0.12016822101E+04  0.12129313176E+04  0.12700000000E+03 0.  0.
   -5000001    1    1    2    0    0 -0.40762928651E+02 -0.96807183841E+02  0.41414440148E+03  0.44573291607E+03  0.12700000000E+03 0.  0.
<mgrwt>
<rscale>  0 0.37452824E+03</rscale>
<asrwt>0</asrwt>
<pdfrwt beam="1">  1        2 0.23389219E+00 0.37452824E+03</pdfrwt>
<pdfrwt beam="2">  1       -2 0.30598303E-02 0.37452824E+03</pdfrwt>
<totfact> 0.54902854E+03</totfact>
</mgrwt>
</event>
<event>
 4    1  0.9508302E-005  0.4781901E+03  0.7818608E-02  0.1019634E+00
          2   -1    0    0  501    0  0.00000000000E+00  0.00000000000E+00  0.39768870410E+03  0.39768870411E+03  0.25500000000E-02 0.  1.
         -2   -1    0    0    0  501 -0.00000000000E+00 -0.00000000000E+00 -0.14374672387E+03  0.14374672389E+03  0.25500000000E-02 0. -1.
    5000001    1    1    2    0    0 -0.92270385857E+01 -0.19279735348E+03  0.57344006564E+02  0.23806153162E+03  0.12700000000E+03 0.  0.
   -5000001    1    1    2    0    0  0.92270385857E+01  0.19279735348E+03  0.19659797367E+03  0.30337389637E+03  0.12700000000E+03 0.  0.
<mgrwt>
<rscale>  0 0.47819012E+03</rscale>
<asrwt>0</asrwt>
<pdfrwt beam="1">  1        2 0.56812672E-01 0.47819012E+03</pdfrwt>
<pdfrwt beam="2">  1       -2 0.20535246E-01 0.47819012E+03</pdfrwt>
<totfact> 0.17636648E+03</totfact>
</mgrwt>
</event>
<event>
 4    1  0.9508302E-005  0.6596803E+03  0.7818608E-02  0.9788782E-01
         -2   -1    0    0    0  501 -0.00000000000E+00  0.00000000000E+00  0.10033145268E+03  0.10033145271E+03  0.25500000000E-02 0.  1.
          2   -1    0    0  501    0  0.00000000000E+00 -0.00000000000E+00 -0.10843510529E+04  0.10843510529E+04  0.25500000000E-02 0. -1.
    5000001    1    1    2    0    0 -0.30230885636E+03  0.21122626912E+02 -0.54370721378E+03  0.63528209822E+03  0.12700000000E+03 0.  0.
   -5000001    1    1    2    0    0  0.30230885636E+03 -0.21122626912E+02 -0.44031238646E+03  0.54940040742E+03  0.12700000000E+03 0.  0.
<mgrwt>
<rscale>  0 0.65968028E+03</rscale>
<asrwt>0</asrwt>
<pdfrwt beam="1">  1        2 0.15490729E+00 0.65968028E+03</pdfrwt>
<pdfrwt beam="2">  1       -2 0.14333065E-01 0.65968028E+03</pdfrwt>
<totfact> 0.94967553E+02</totfact>
</mgrwt>
</event>
<event>
 4    1  0.9508302E-005  0.4221826E+03  0.7818608E-02  0.1036358E+00
          2   -1    0    0  501    0  0.00000000000E+00  0.00000000000E+00  0.12862156846E+04  0.12862156846E+04  0.25500000000E-02 0.  1.
         -2   -1    0    0    0  501 -0.00000000000E+00 -0.00000000000E+00 -0.34643899839E+02  0.34643899933E+02  0.25500000000E-02 0. -1.
    5000001    1    1    2    0    0 -0.16019476005E+03  0.10175282172E+02  0.46428504095E+03  0.50740072602E+03  0.12700000000E+03 0.  0.
   -5000001    1    1    2    0    0  0.16019476005E+03 -0.10175282172E+02  0.78728674381E+03  0.81345885851E+03  0.12700000000E+03 0.  0.
<mgrwt>
<rscale>  0 0.42218255E+03</rscale>
<asrwt>0</asrwt>
<pdfrwt beam="1">  1        2 0.18374510E+00 0.42218255E+03</pdfrwt>
<pdfrwt beam="2">  1       -2 0.49491284E-02 0.42218255E+03</pdfrwt>
<totfact> 0.40209619E+03</totfact>
</mgrwt>
</event>
<event>
 4    1  0.9508302E-005  0.5123202E+03  0.7818608E-02  0.1010612E+00
         -2   -1    0    0    0  501 -0.00000000000E+00  0.00000000000E+00  0.16929790621E+03  0.16929790623E+03  0.25500000000E-02 0. -1.
          2   -1    0    0  501    0  0.00000000000E+00 -0.00000000000E+00 -0.38758896584E+03  0.38758896585E+03  0.25500000000E-02 0.  1.
    5000001    1    1    2    0    0  0.10563230234E+03  0.14988455055E+03  0.27769627538E+02  0.22477480732E+03  0.12700000000E+03 0.  0.
   -5000001    1    1    2    0    0 -0.10563230234E+03 -0.14988455055E+03 -0.24606068717E+03  0.33211206476E+03  0.12700000000E+03 0.  0.
<mgrwt>
<rscale>  0 0.51232021E+03</rscale>
<asrwt>0</asrwt>
<pdfrwt beam="1">  1        2 0.55369852E-01 0.51232021E+03</pdfrwt>
<pdfrwt beam="2">  1       -2 0.24185415E-01 0.51232021E+03</pdfrwt>
<totfact> 0.13609737E+03</totfact>
</mgrwt>
</event>
<event>
 4    1  0.9508302E-005  0.4215621E+03  0.7818608E-02  0.1036559E+00
         -2   -1    0    0    0  501 -0.00000000000E+00  0.00000000000E+00  0.99669012238E+03  0.99669012239E+03  0.25500000000E-02 0. -1.
          2   -1    0    0  501    0  0.00000000000E+00 -0.00000000000E+00 -0.44576193183E+02  0.44576193256E+02  0.25500000000E-02 0.  1.
    5000001    1    1    2    0    0  0.15647302173E+03 -0.59079110014E+02  0.52062035533E+03  0.56138106680E+03  0.12700000000E+03 0.  0.
   -5000001    1    1    2    0    0 -0.15647302173E+03  0.59079110014E+02  0.43149357387E+03  0.47988524885E+03  0.12700000000E+03 0.  0.
<mgrwt>
<rscale>  0 0.42156210E+03</rscale>
<asrwt>0</asrwt>
<pdfrwt beam="1">  1        2 0.63680273E-02 0.42156210E+03</pdfrwt>
<pdfrwt beam="2">  1       -2 0.14238431E+00 0.42156210E+03</pdfrwt>
<totfact> 0.41630786E+02</totfact>
</mgrwt>
</event>
<event>
 4    1  0.9508302E-005  0.1048047E+04  0.7818608E-02  0.9257363E-01
         -2   -1    0    0    0  501 -0.00000000000E+00  0.00000000000E+00  0.47560207116E+03  0.47560207116E+03  0.25500000000E-02 0. -1.
          2   -1    0    0  501    0  0.00000000000E+00 -0.00000000000E+00 -0.57737461695E+03  0.57737461696E+03  0.25500000000E-02 0.  1.
    5000001    1    1    2    0    0  0.28416483607E+03  0.39055586289E+03 -0.21034016654E+03  0.54189991858E+03  0.12700000000E+03 0.  0.
   -5000001    1    1    2    0    0 -0.28416483607E+03 -0.39055586289E+03  0.10856762074E+03  0.51107676955E+03  0.12700000000E+03 0.  0.
<mgrwt>
<rscale>  0 0.10480469E+04</rscale>
<asrwt>0</asrwt>
<pdfrwt beam="1">  1        2 0.82482087E-01 0.10480469E+04</pdfrwt>
<pdfrwt beam="2">  1       -2 0.67943154E-01 0.10480469E+04</pdfrwt>
<totfact> 0.11229040E+02</totfact>
</mgrwt>
</event>
<event>
 4    1  0.9508302E-005  0.3787497E+03  0.7818608E-02  0.1051397E+00
         -2   -1    0    0    0  501 -0.00000000000E+00  0.00000000000E+00  0.19993142036E+02  0.19993142198E+02  0.25500000000E-02 0. -1.
          2   -1    0    0  501    0  0.00000000000E+00 -0.00000000000E+00 -0.17937571304E+04  0.17937571304E+04  0.25500000000E-02 0.  1.
    5000001    1    1    2    0    0 -0.13057774830E+03  0.51797564034E+02 -0.88423624705E+03  0.90428771781E+03  0.12700000000E+03 0.  0.
   -5000001    1    1    2    0    0  0.13057774830E+03 -0.51797564034E+02 -0.88952774129E+03  0.90946255477E+03  0.12700000000E+03 0.  0.
<mgrwt>
<rscale>  0 0.37874974E+03</rscale>
<asrwt>0</asrwt>
<pdfrwt beam="1">  1        2 0.25625092E+00 0.37874974E+03</pdfrwt>
<pdfrwt beam="2">  1       -2 0.28561643E-02 0.37874974E+03</pdfrwt>
<totfact> 0.50863580E+03</totfact>
</mgrwt>
</event>
<event>
 4    1  0.9508302E-005  0.5468273E+03  0.7818608E-02  0.1002231E+00
          2   -1    0    0  501    0  0.00000000000E+00  0.00000000000E+00  0.16274399501E+04  0.16274399501E+04  0.25500000000E-02 0.  1.
         -2   -1    0    0    0  501 -0.00000000000E+00 -0.00000000000E+00 -0.45934126051E+02  0.45934126122E+02  0.25500000000E-02 0. -1.
    5000001    1    1    2    0    0 -0.50883182409E+02 -0.11569983443E+03  0.15877078403E+03  0.23940073475E+03  0.12700000000E+03 0.  0.
   -5000001    1    1    2    0    0  0.50883182409E+02  0.11569983443E+03  0.14227350400E+04  0.14339733414E+04  0.12700000000E+03 0.  0.
<mgrwt>
<rscale>  0 0.54682733E+03</rscale>
<asrwt>0</asrwt>
<pdfrwt beam="1">  1        2 0.23249143E+00 0.54682733E+03</pdfrwt>
<pdfrwt beam="2">  1       -2 0.65620179E-02 0.54682733E+03</pdfrwt>
<totfact> 0.17182629E+03</totfact>
</mgrwt>
</event>
<event>
 4    1  0.9508302E-005  0.3517438E+03  0.7818608E-02  0.1061902E+00
          2   -1    0    0  501    0  0.00000000000E+00  0.00000000000E+00  0.18994046417E+04  0.18994046417E+04  0.25500000000E-02 0.  1.
         -2   -1    0    0    0  501 -0.00000000000E+00 -0.00000000000E+00 -0.16284536594E+02  0.16284536793E+02  0.25500000000E-02 0. -1.
    5000001    1    1    2    0    0 -0.94874290225E+02 -0.65139894556E+02  0.11565038240E+04  0.11691340521E+04  0.12700000000E+03 0.  0.
   -5000001    1    1    2    0    0  0.94874290225E+02  0.65139894556E+02  0.72661628117E+03  0.74655512648E+03  0.12700000000E+03 0.  0.
<mgrwt>
<rscale>  0 0.35174380E+03</rscale>
<asrwt>0</asrwt>
<pdfrwt beam="1">  1        2 0.27134340E+00 0.35174380E+03</pdfrwt>
<pdfrwt beam="2">  1       -2 0.23263634E-02 0.35174380E+03</pdfrwt>
<totfact> 0.61262164E+03</totfact>
</mgrwt>
</event>
<event>
 4    1  0.9508302E-005  0.2927595E+03  0.7818608E-02  0.1088917E+00
          2   -1    0    0  501    0  0.00000000000E+00  0.00000000000E+00  0.86141001513E+03  0.86141001513E+03  0.25500000000E-02 0.  1.
         -2   -1    0    0    0  501 -0.00000000000E+00 -0.00000000000E+00 -0.24874365780E+02  0.24874365911E+02  0.25500000000E-02 0. -1.
    5000001    1    1    2    0    0 -0.66785974724E+01  0.69132542257E+02  0.48418587398E+03  0.50536014151E+03  0.12700000000E+03 0.  0.
   -5000001    1    1    2    0    0  0.66785974724E+01 -0.69132542257E+02  0.35234977537E+03  0.38092423953E+03  0.12700000000E+03 0.  0.
<mgrwt>
<rscale>  0 0.29275948E+03</rscale>
<asrwt>0</asrwt>
<pdfrwt beam="1">  1        2 0.12305857E+00 0.29275948E+03</pdfrwt>
<pdfrwt beam="2">  1       -2 0.35534809E-02 0.29275948E+03</pdfrwt>
<totfact> 0.11652620E+04</totfact>
</mgrwt>
</event>
<event>
 4    1  0.9508302E-005  0.3612683E+03  0.7818608E-02  0.1058083E+00
         -2   -1    0    0    0  501 -0.00000000000E+00  0.00000000000E+00  0.79391756885E+02  0.79391756926E+02  0.25500000000E-02 0. -1.
          2   -1    0    0  501    0  0.00000000000E+00 -0.00000000000E+00 -0.41098341076E+03  0.41098341076E+03  0.25500000000E-02 0.  1.
    5000001    1    1    2    0    0  0.89920239293E+02  0.77891508566E+02 -0.10003741343E+03  0.20072174926E+03  0.12700000000E+03 0.  0.
   -5000001    1    1    2    0    0 -0.89920239293E+02 -0.77891508566E+02 -0.23155424044E+03  0.28965341843E+03  0.12700000000E+03 0.  0.
<mgrwt>
<rscale>  0 0.36126829E+03</rscale>
<asrwt>0</asrwt>
<pdfrwt beam="1">  1        2 0.58711915E-01 0.36126829E+03</pdfrwt>
<pdfrwt beam="2">  1       -2 0.11341680E-01 0.36126829E+03</pdfrwt>
<totfact> 0.45765104E+03</totfact>
</mgrwt>
</event>
<event>
 4    1  0.9508302E-005  0.1006525E+04  0.7818608E-02  0.9301418E-01
          2   -1    0    0  501    0  0.00000000000E+00  0.00000000000E+00  0.31650687090E+03  0.31650687091E+03  0.25500000000E-02 0.  1.
         -2   -1    0    0    0  501 -0.00000000000E+00 -0.00000000000E+00 -0.80021305101E+03  0.80021305101E+03  0.25500000000E-02 0. -1.
    5000001    1    1    2    0    0 -0.38934806201E+03 -0.26732709263E+03 -0.11016446361E+03  0.50131915672E+03  0.12700000000E+03 0.  0.
   -5000001    1    1    2    0    0  0.38934806201E+03  0.26732709263E+03 -0.37354171650E+03  0.61540076521E+03  0.12700000000E+03 0.  0.
<mgrwt>
<rscale>  0 0.10065246E+04</rscale>
<asrwt>0</asrwt>
<pdfrwt beam="1">  1        2 0.45215268E-01 0.10065246E+04</pdfrwt>
<pdfrwt beam="2">  1       -2 0.11431615E+00 0.10065246E+04</pdfrwt>
<totfact> 0.67106706E+01</totfact>
</mgrwt>
</event>
<event>
 4    1  0.9508302E-005  0.8666319E+03  0.7818608E-02  0.9468282E-01
          2   -1    0    0  501    0  0.00000000000E+00  0.00000000000E+00  0.87952501549E+03  0.87952501549E+03  0.25500000000E-02 0.  1.
         -2   -1    0    0    0  501 -0.00000000000E+00 -0.00000000000E+00 -0.21348195890E+03  0.21348195892E+03  0.25500000000E-02 0. -1.
    5000001    1    1    2    0    0  0.13485413357E+03  0.35601763095E+03  0.12693952048E+03  0.42092378496E+03  0.12700000000E+03 0.  0.
   -5000001    1    1    2    0    0 -0.13485413357E+03 -0.35601763095E+03  0.53910353611E+03  0.67208318944E+03  0.12700000000E+03 0.  0.
<mgrwt>
<rscale>  0 0.86663192E+03</rscale>
<asrwt>0</asrwt>
<pdfrwt beam="1">  1        2 0.12564643E+00 0.86663192E+03</pdfrwt>
<pdfrwt beam="2">  1       -2 0.30497423E-01 0.86663192E+03</pdfrwt>
<totfact> 0.33381495E+02</totfact>
</mgrwt>
</event>
<event>
 4    1  0.9508302E-005  0.3986839E+03  0.7818608E-02  0.1044236E+00
          2   -1    0    0  501    0  0.00000000000E+00  0.00000000000E+00  0.20195434512E+04  0.20195434512E+04  0.25500000000E-02 0.  1.
         -2   -1    0    0    0  501 -0.00000000000E+00 -0.00000000000E+00 -0.19676335937E+02  0.19676336102E+02  0.25500000000E-02 0. -1.
    5000001    1    1    2    0    0 -0.23499963932E+02  0.14727371299E+03  0.11890056990E+04  0.12050333386E+04  0.12700000000E+03 0.  0.
   -5000001    1    1    2    0    0  0.23499963932E+02 -0.14727371299E+03  0.81086141624E+03  0.83418644870E+03  0.12700000000E+03 0.  0.
<mgrwt>
<rscale>  0 0.39868391E+03</rscale>
<asrwt>0</asrwt>
<pdfrwt beam="1">  1        2 0.28850627E+00 0.39868391E+03</pdfrwt>
<pdfrwt beam="2">  1       -2 0.28109046E-02 0.39868391E+03</pdfrwt>
<totfact> 0.40269370E+03</totfact>
</mgrwt>
</event>
<event>
 4    1  0.9508302E-005  0.3534655E+03  0.7818608E-02  0.1061202E+00
         -2   -1    0    0    0  501 -0.00000000000E+00  0.00000000000E+00  0.66812578085E+02  0.66812578134E+02  0.25500000000E-02 0. -1.
          2   -1    0    0  501    0  0.00000000000E+00 -0.00000000000E+00 -0.46749385283E+03  0.46749385284E+03  0.25500000000E-02 0.  1.
    5000001    1    1    2    0    0 -0.99437059126E+02 -0.43376597210E+02 -0.28765187322E+03  0.33262870904E+03  0.12700000000E+03 0.  0.
   -5000001    1    1    2    0    0  0.99437059126E+02  0.43376597210E+02 -0.11302940153E+03  0.20167772193E+03  0.12700000000E+03 0.  0.
<mgrwt>
<rscale>  0 0.35346553E+03</rscale>
<asrwt>0</asrwt>
<pdfrwt beam="1">  1        2 0.66784834E-01 0.35346553E+03</pdfrwt>
<pdfrwt beam="2">  1       -2 0.95446543E-02 0.35346553E+03</pdfrwt>
<totfact> 0.52366099E+03</totfact>
</mgrwt>
</event>
<event>
 4    1  0.9508302E-005  0.3781481E+03  0.7818608E-02  0.1051620E+00
          2   -1    0    0  501    0  0.00000000000E+00  0.00000000000E+00  0.22740208083E+04  0.22740208083E+04  0.25500000000E-02 0. -1.
         -2   -1    0    0    0  501 -0.00000000000E+00 -0.00000000000E+00 -0.15720607017E+02  0.15720607224E+02  0.25500000000E-02 0.  1.
    5000001    1    1    2    0    0 -0.63691090502E+02 -0.12330495849E+03  0.10143703662E+04  0.10316670527E+04  0.12700000000E+03 0.  0.
   -5000001    1    1    2    0    0  0.63691090502E+02  0.12330495849E+03  0.12439298350E+04  0.12580743628E+04  0.12700000000E+03 0.  0.
<mgrwt>
<rscale>  0 0.37814805E+03</rscale>
<asrwt>0</asrwt>
<pdfrwt beam="1">  1        2 0.32486046E+00 0.37814805E+03</pdfrwt>
<pdfrwt beam="2">  1       -2 0.22457987E-02 0.37814805E+03</pdfrwt>
<totfact> 0.42158712E+03</totfact>
</mgrwt>
</event>
<event>
 4    1  0.9508302E-005  0.5080091E+03  0.7818608E-02  0.1011709E+00
         -2   -1    0    0    0  501 -0.00000000000E+00  0.00000000000E+00  0.26685125833E+02  0.26685125955E+02  0.25500000000E-02 0. -1.
          2   -1    0    0  501    0  0.00000000000E+00 -0.00000000000E+00 -0.24177626596E+04  0.24177626596E+04  0.25500000000E-02 0.  1.
    5000001    1    1    2    0    0 -0.19747479649E+02  0.20653949041E+03 -0.84388803402E+03  0.87825084003E+03  0.12700000000E+03 0.  0.
   -5000001    1    1    2    0    0  0.19747479649E+02 -0.20653949041E+03 -0.15471894997E+04  0.15661969455E+04  0.12700000000E+03 0.  0.
<mgrwt>
<rscale>  0 0.50800906E+03</rscale>
<asrwt>0</asrwt>
<pdfrwt beam="1">  1        2 0.34539453E+00 0.50800906E+03</pdfrwt>
<pdfrwt beam="2">  1       -2 0.38121624E-02 0.50800906E+03</pdfrwt>
<totfact> 0.15979582E+03</totfact>
</mgrwt>
</event>
<event>
 4    1  0.9508302E-005  0.3757956E+03  0.7818608E-02  0.1052499E+00
          2   -1    0    0  501    0  0.00000000000E+00  0.00000000000E+00  0.56727631730E+03  0.56727631731E+03  0.25500000000E-02 0.  1.
         -2   -1    0    0    0  501 -0.00000000000E+00 -0.00000000000E+00 -0.62237012896E+02  0.62237012949E+02  0.25500000000E-02 0. -1.
    5000001    1    1    2    0    0 -0.65399340521E+02 -0.99948576503E+02  0.36989713104E+03  0.40892502887E+03  0.12700000000E+03 0.  0.
   -5000001    1    1    2    0    0  0.65399340521E+02  0.99948576503E+02  0.13514217336E+03  0.22058830138E+03  0.12700000000E+03 0.  0.
<mgrwt>
<rscale>  0 0.37579560E+03</rscale>
<asrwt>0</asrwt>
<pdfrwt beam="1">  1        2 0.81039478E-01 0.37579560E+03</pdfrwt>
<pdfrwt beam="2">  1       -2 0.88910014E-02 0.37579560E+03</pdfrwt>
<totfact> 0.47234695E+03</totfact>
</mgrwt>
</event>
<event>
 4    1  0.9508302E-005  0.5651371E+03  0.7818608E-02  0.9980498E-01
          2   -1    0    0  501    0  0.00000000000E+00  0.00000000000E+00  0.18449120287E+04  0.18449120287E+04  0.25500000000E-02 0.  1.
         -2   -1    0    0    0  501 -0.00000000000E+00 -0.00000000000E+00 -0.43278471915E+02  0.43278471990E+02  0.25500000000E-02 0. -1.
    5000001    1    1    2    0    0 -0.11172793454E+03 -0.33237948374E+02  0.15276344672E+03  0.23033359117E+03  0.12700000000E+03 0.  0.
   -5000001    1    1    2    0    0  0.11172793454E+03  0.33237948374E+02  0.16488701101E+04  0.16578569095E+04  0.12700000000E+03 0.  0.
<mgrwt>
<rscale>  0 0.56513706E+03</rscale>
<asrwt>0</asrwt>
<pdfrwt beam="1">  1        2 0.26355884E+00 0.56513706E+03</pdfrwt>
<pdfrwt beam="2">  1       -2 0.61826394E-02 0.56513706E+03</pdfrwt>
<totfact> 0.14631735E+03</totfact>
</mgrwt>
</event>
<event>
 4    1  0.9508302E-005  0.3551116E+03  0.7818608E-02  0.1060536E+00
          2   -1    0    0  501    0  0.00000000000E+00  0.00000000000E+00  0.58160587363E+03  0.58160587363E+03  0.25500000000E-02 0.  1.
         -2   -1    0    0    0  501 -0.00000000000E+00 -0.00000000000E+00 -0.54205205433E+02  0.54205205493E+02  0.25500000000E-02 0. -1.
    5000001    1    1    2    0    0  0.12792853346E+02  0.12327614609E+03  0.25289800481E+03  0.30894508595E+03  0.12700000000E+03 0.  0.
   -5000001    1    1    2    0    0 -0.12792853346E+02 -0.12327614609E+03  0.27450266338E+03  0.32686599318E+03  0.12700000000E+03 0.  0.
<mgrwt>
<rscale>  0 0.35511162E+03</rscale>
<asrwt>0</asrwt>
<pdfrwt beam="1">  1        2 0.83086552E-01 0.35511162E+03</pdfrwt>
<pdfrwt beam="2">  1       -2 0.77436009E-02 0.35511162E+03</pdfrwt>
<totfact> 0.57016535E+03</totfact>
</mgrwt>
</event>
<event>
 4    1  0.9508302E-005  0.3995276E+03  0.7818608E-02  0.1043943E+00
          2   -1    0    0  501    0  0.00000000000E+00  0.00000000000E+00  0.12028500233E+04  0.12028500233E+04  0.25500000000E-02 0.  1.
         -2   -1    0    0    0  501 -0.00000000000E+00 -0.00000000000E+00 -0.33175847595E+02  0.33175847693E+02  0.25500000000E-02 0. -1.
    5000001    1    1    2    0    0 -0.64083534427E+02  0.13923634693E+03  0.53278262454E+03  0.56875283270E+03  0.12700000000E+03 0.  0.
   -5000001    1    1    2    0    0  0.64083534427E+02 -0.13923634693E+03  0.63689155120E+03  0.66727303833E+03  0.12700000000E+03 0.  0.
<mgrwt>
<rscale>  0 0.39952757E+03</rscale>
<asrwt>0</asrwt>
<pdfrwt beam="1">  1        2 0.17183571E+00 0.39952757E+03</pdfrwt>
<pdfrwt beam="2">  1       -2 0.47394070E-02 0.39952757E+03</pdfrwt>
<totfact> 0.47688243E+03</totfact>
</mgrwt>
</event>
<event>
 4    1  0.9508302E-005  0.6438666E+03  0.7818608E-02  0.9818357E-01
         -2   -1    0    0    0  501 -0.00000000000E+00  0.00000000000E+00  0.16683656406E+04  0.16683656406E+04  0.25500000000E-02 0. -1.
          2   -1    0    0  501    0  0.00000000000E+00 -0.00000000000E+00 -0.62121309843E+02  0.62121309895E+02  0.25500000000E-02 0.  1.
    5000001    1    1    2    0    0  0.16461032117E+03  0.99286602253E+02  0.14074407425E+04  0.14261741937E+04  0.12700000000E+03 0.  0.
   -5000001    1    1    2    0    0 -0.16461032117E+03 -0.99286602253E+02  0.19880358826E+03  0.30431275676E+03  0.12700000000E+03 0.  0.
<mgrwt>
<rscale>  0 0.64386663E+03</rscale>
<asrwt>0</asrwt>
<pdfrwt beam="1">  1        2 0.88744737E-02 0.64386663E+03</pdfrwt>
<pdfrwt beam="2">  1       -2 0.23833793E+00 0.64386663E+03</pdfrwt>
<totfact> 0.60698990E+01</totfact>
</mgrwt>
</event>
<event>
 4    1  0.9508302E-005  0.3860227E+03  0.7818608E-02  0.1048730E+00
          2   -1    0    0  501    0  0.00000000000E+00  0.00000000000E+00  0.26658251632E+03  0.26658251633E+03  0.25500000000E-02 0.  1.
         -2   -1    0    0    0  501 -0.00000000000E+00 -0.00000000000E+00 -0.13974426325E+03  0.13974426327E+03  0.25500000000E-02 0. -1.
    5000001    1    1    2    0    0 -0.11484827788E+03  0.78072195033E+02  0.18280176207E+02  0.18907289444E+03  0.12700000000E+03 0.  0.
   -5000001    1    1    2    0    0  0.11484827788E+03 -0.78072195033E+02  0.10855807686E+03  0.21725388517E+03  0.12700000000E+03 0.  0.
<mgrwt>
<rscale>  0 0.38602268E+03</rscale>
<asrwt>0</asrwt>
<pdfrwt beam="1">  1        2 0.38083217E-01 0.38602268E+03</pdfrwt>
<pdfrwt beam="2">  1       -2 0.19963466E-01 0.38602268E+03</pdfrwt>
<totfact> 0.28616064E+03</totfact>
</mgrwt>
</event>
<event>
 4    1  0.9508302E-005  0.2928717E+03  0.7818608E-02  0.1088859E+00
         -2   -1    0    0    0  501 -0.00000000000E+00  0.00000000000E+00  0.41812240416E+03  0.41812240417E+03  0.25500000000E-02 0. -1.
          2   -1    0    0  501    0  0.00000000000E+00 -0.00000000000E+00 -0.51285111560E+02  0.51285111623E+02  0.25500000000E-02 0.  1.
    5000001    1    1    2    0    0  0.65604162414E+02  0.28929552376E+02  0.16229913597E+03  0.21819907118E+03  0.12700000000E+03 0.  0.
   -5000001    1    1    2    0    0 -0.65604162414E+02 -0.28929552376E+02  0.20453815663E+03  0.25120844461E+03  0.12700000000E+03 0.  0.
<mgrwt>
<rscale>  0 0.29287167E+03</rscale>
<asrwt>0</asrwt>
<pdfrwt beam="1">  1        2 0.73264447E-02 0.29287167E+03</pdfrwt>
<pdfrwt beam="2">  1       -2 0.59731771E-01 0.29287167E+03</pdfrwt>
<totfact> 0.25415353E+03</totfact>
</mgrwt>
</event>
<event>
 4    1  0.9508302E-005  0.4486037E+03  0.7818608E-02  0.1028139E+00
         -2   -1    0    0    0  501 -0.00000000000E+00  0.00000000000E+00  0.32743180013E+02  0.32743180112E+02  0.25500000000E-02 0. -1.
          2   -1    0    0  501    0  0.00000000000E+00 -0.00000000000E+00 -0.15365436345E+04  0.15365436346E+04  0.25500000000E-02 0.  1.
    5000001    1    1    2    0    0 -0.14800795264E+03  0.11732857495E+02 -0.36649412946E+03  0.41532031123E+03  0.12700000000E+03 0.  0.
   -5000001    1    1    2    0    0  0.14800795264E+03 -0.11732857495E+02 -0.11373063251E+04  0.11539665034E+04  0.12700000000E+03 0.  0.
<mgrwt>
<rscale>  0 0.44860372E+03</rscale>
<asrwt>0</asrwt>
<pdfrwt beam="1">  1        2 0.21950619E+00 0.44860372E+03</pdfrwt>
<pdfrwt beam="2">  1       -2 0.46775981E-02 0.44860372E+03</pdfrwt>
<totfact> 0.32419487E+03</totfact>
</mgrwt>
</event>
<event>
 4    1  0.9508302E-005  0.2952504E+03  0.7818608E-02  0.1087639E+00
          2   -1    0    0  501    0  0.00000000000E+00  0.00000000000E+00  0.37641802629E+03  0.37641802630E+03  0.25500000000E-02 0.  1.
         -2   -1    0    0    0  501 -0.00000000000E+00 -0.00000000000E+00 -0.57896285760E+02  0.57896285817E+02  0.25500000000E-02 0. -1.
    5000001    1    1    2    0    0  0.74876000448E+02  0.62725582540E+01  0.15294322454E+03  0.21252385834E+03  0.12700000000E+03 0.  0.
   -5000001    1    1    2    0    0 -0.74876000448E+02 -0.62725582540E+01  0.16557851599E+03  0.22179045378E+03  0.12700000000E+03 0.  0.
<mgrwt>
<rscale>  0 0.29525044E+03</rscale>
<asrwt>0</asrwt>
<pdfrwt beam="1">  1        2 0.53774004E-01 0.29525044E+03</pdfrwt>
<pdfrwt beam="2">  1       -2 0.82708979E-02 0.29525044E+03</pdfrwt>
<totfact> 0.82750115E+03</totfact>
</mgrwt>
</event>
<event>
 4    1  0.9508302E-005  0.6057614E+03  0.7818608E-02  0.9893525E-01
         -2   -1    0    0    0  501 -0.00000000000E+00  0.00000000000E+00  0.13811830799E+03  0.13811830801E+03  0.25500000000E-02 0. -1.
          2   -1    0    0  501    0  0.00000000000E+00 -0.00000000000E+00 -0.66418938639E+03  0.66418938639E+03  0.25500000000E-02 0.  1.
    5000001    1    1    2    0    0  0.15170191898E+03  0.62674659701E+02  0.29146000206E+02  0.20957116814E+03  0.12700000000E+03 0.  0.
   -5000001    1    1    2    0    0 -0.15170191898E+03 -0.62674659701E+02 -0.55521707861E+03  0.59273652626E+03  0.12700000000E+03 0.  0.
<mgrwt>
<rscale>  0 0.60576139E+03</rscale>
<asrwt>0</asrwt>
<pdfrwt beam="1">  1        2 0.94884196E-01 0.60576139E+03</pdfrwt>
<pdfrwt beam="2">  1       -2 0.19731187E-01 0.60576139E+03</pdfrwt>
<totfact> 0.10511703E+03</totfact>
</mgrwt>
</event>
<event>
 4    1  0.9508302E-005  0.2936493E+03  0.7818608E-02  0.1088459E+00
         -2   -1    0    0    0  501 -0.00000000000E+00  0.00000000000E+00  0.26538042349E+03  0.26538042350E+03  0.25500000000E-02 0. -1.
          2   -1    0    0  501    0  0.00000000000E+00 -0.00000000000E+00 -0.81232349529E+02  0.81232349569E+02  0.25500000000E-02 0.  1.
    5000001    1    1    2    0    0 -0.58915888290E+02 -0.42459503791E+02  0.77398369916E+02  0.16550951338E+03  0.12700000000E+03 0.  0.
   -5000001    1    1    2    0    0  0.58915888290E+02  0.42459503791E+02  0.10674970404E+03  0.18110325968E+03  0.12700000000E+03 0.  0.
<mgrwt>
<rscale>  0 0.29364928E+03</rscale>
<asrwt>0</asrwt>
<pdfrwt beam="1">  1        2 0.11604621E-01 0.29364928E+03</pdfrwt>
<pdfrwt beam="2">  1       -2 0.37911489E-01 0.29364928E+03</pdfrwt>
<totfact> 0.35096867E+03</totfact>
</mgrwt>
</event>
<event>
 4    1  0.9508302E-005  0.3374125E+03  0.7818608E-02  0.1067903E+00
          2   -1    0    0  501    0  0.00000000000E+00  0.00000000000E+00  0.23687582726E+03  0.23687582728E+03  0.25500000000E-02 0.  1.
         -2   -1    0    0    0  501 -0.00000000000E+00 -0.00000000000E+00 -0.12015495777E+03  0.12015495780E+03  0.25500000000E-02 0. -1.
    5000001    1    1    2    0    0  0.14760745900E+00 -0.10110918864E+03  0.97581856580E+01  0.16262629555E+03  0.12700000000E+03 0.  0.
   -5000001    1    1    2    0    0 -0.14760745900E+00  0.10110918864E+03  0.10696268384E+03  0.19440448953E+03  0.12700000000E+03 0.  0.
<mgrwt>
<rscale>  0 0.33741254E+03</rscale>
<asrwt>0</asrwt>
<pdfrwt beam="1">  1        2 0.33839404E-01 0.33741254E+03</pdfrwt>
<pdfrwt beam="2">  1       -2 0.17164994E-01 0.33741254E+03</pdfrwt>
<totfact> 0.42003576E+03</totfact>
</mgrwt>
</event>
<event>
 4    1  0.9508302E-005  0.4535366E+03  0.7818608E-02  0.1026673E+00
          2   -1    0    0  501    0  0.00000000000E+00  0.00000000000E+00  0.10568236113E+04  0.10568236113E+04  0.25500000000E-02 0.  1.
         -2   -1    0    0    0  501 -0.00000000000E+00 -0.00000000000E+00 -0.48658887360E+02  0.48658887427E+02  0.25500000000E-02 0. -1.
    5000001    1    1    2    0    0  0.15535782001E+03  0.17026873710E+02  0.75819848462E+03  0.78448703542E+03  0.12700000000E+03 0.  0.
   -5000001    1    1    2    0    0 -0.15535782001E+03 -0.17026873710E+02  0.24996623935E+03  0.32099546334E+03  0.12700000000E+03 0.  0.
<mgrwt>
<rscale>  0 0.45353660E+03</rscale>
<asrwt>0</asrwt>
<pdfrwt beam="1">  1        2 0.15097479E+00 0.45353660E+03</pdfrwt>
<pdfrwt beam="2">  1       -2 0.69512701E-02 0.45353660E+03</pdfrwt>
<totfact> 0.31909844E+03</totfact>
</mgrwt>
</event>
<event>
 4    1  0.9508302E-005  0.8202008E+03  0.7818608E-02  0.9531229E-01
          2   -1    0    0  501    0  0.00000000000E+00  0.00000000000E+00  0.23336208630E+03  0.23336208631E+03  0.25500000000E-02 0.  1.
         -2   -1    0    0    0  501 -0.00000000000E+00 -0.00000000000E+00 -0.72069257444E+03  0.72069257444E+03  0.25500000000E-02 0. -1.
    5000001    1    1    2    0    0  0.35126804505E+03 -0.82705177449E+02 -0.71827074673E+02  0.38925250739E+03  0.12700000000E+03 0.  0.
   -5000001    1    1    2    0    0 -0.35126804505E+03  0.82705177449E+02 -0.41550341347E+03  0.56480215337E+03  0.12700000000E+03 0.  0.
<mgrwt>
<rscale>  0 0.82020076E+03</rscale>
<asrwt>0</asrwt>
<pdfrwt beam="1">  1        2 0.33337441E-01 0.82020076E+03</pdfrwt>
<pdfrwt beam="2">  1       -2 0.10295608E+00 0.82020076E+03</pdfrwt>
<totfact> 0.12253413E+02</totfact>
</mgrwt>
</event>
<event>
 4    1  0.9508302E-005  0.4075790E+03  0.7818608E-02  0.1041186E+00
         -2   -1    0    0    0  501 -0.00000000000E+00  0.00000000000E+00  0.45054076852E+02  0.45054076924E+02  0.25500000000E-02 0. -1.
          2   -1    0    0  501    0  0.00000000000E+00 -0.00000000000E+00 -0.92178474288E+03  0.92178474289E+03  0.25500000000E-02 0.  1.
    5000001    1    1    2    0    0  0.14645309429E+03 -0.55384573510E+02 -0.50894233325E+03  0.54741872308E+03  0.12700000000E+03 0.  0.
   -5000001    1    1    2    0    0 -0.14645309429E+03  0.55384573510E+02 -0.36778833278E+03  0.41942009673E+03  0.12700000000E+03 0.  0.
<mgrwt>
<rscale>  0 0.40757900E+03</rscale>
<asrwt>0</asrwt>
<pdfrwt beam="1">  1        2 0.13168352E+00 0.40757900E+03</pdfrwt>
<pdfrwt beam="2">  1       -2 0.64362973E-02 0.40757900E+03</pdfrwt>
<totfact> 0.43409408E+03</totfact>
</mgrwt>
</event>
<event>
 4    1  0.9508302E-005  0.4688474E+03  0.7818608E-02  0.1022246E+00
          2   -1    0    0  501    0  0.00000000000E+00  0.00000000000E+00  0.18174521295E+04  0.18174521295E+04  0.25500000000E-02 0.  1.
         -2   -1    0    0    0  501 -0.00000000000E+00 -0.00000000000E+00 -0.30237099121E+02  0.30237099228E+02  0.25500000000E-02 0. -1.
    5000001    1    1    2    0    0  0.15498940842E+03  0.11943490896E+03  0.80210808579E+03  0.83533992811E+03  0.12700000000E+03 0.  0.
   -5000001    1    1    2    0    0 -0.15498940842E+03 -0.11943490896E+03  0.98510694463E+03  0.10123493007E+04  0.12700000000E+03 0.  0.
<mgrwt>
<rscale>  0 0.46884744E+03</rscale>
<asrwt>0</asrwt>
<pdfrwt beam="1">  1        2 0.25963605E+00 0.46884744E+03</pdfrwt>
<pdfrwt beam="2">  1       -2 0.43195850E-02 0.46884744E+03</pdfrwt>
<totfact> 0.26411075E+03</totfact>
</mgrwt>
</event>
<event>
 4    1  0.9508302E-005  0.4448987E+03  0.7818608E-02  0.1029254E+00
          2   -1    0    0  501    0  0.00000000000E+00  0.00000000000E+00  0.26509502341E+04  0.26509502341E+04  0.25500000000E-02 0.  1.
         -2   -1    0    0    0  501 -0.00000000000E+00 -0.00000000000E+00 -0.18666403073E+02  0.18666403247E+02  0.25500000000E-02 0. -1.
    5000001    1    1    2    0    0 -0.11473647670E+03  0.11209481083E+03  0.18401134863E+04  0.18514524969E+04  0.12700000000E+03 0.  0.
   -5000001    1    1    2    0    0  0.11473647670E+03 -0.11209481083E+03  0.79217034475E+03  0.81816414050E+03  0.12700000000E+03 0.  0.
<mgrwt>
<rscale>  0 0.44489867E+03</rscale>
<asrwt>0</asrwt>
<pdfrwt beam="1">  1        2 0.37870701E+00 0.44489867E+03</pdfrwt>
<pdfrwt beam="2">  1       -2 0.26666302E-02 0.44489867E+03</pdfrwt>
<totfact> 0.20958909E+03</totfact>
</mgrwt>
</event>
<event>
 4    1  0.9508302E-005  0.3894062E+03  0.7818608E-02  0.1047511E+00
          2   -1    0    0  501    0  0.00000000000E+00  0.00000000000E+00  0.67573075794E+03  0.67573075794E+03  0.25500000000E-02 0.  1.
         -2   -1    0    0    0  501 -0.00000000000E+00 -0.00000000000E+00 -0.56101181940E+02  0.56101181998E+02  0.25500000000E-02 0. -1.
    5000001    1    1    2    0    0  0.92181646369E+02 -0.11521583285E+03  0.30444952130E+03  0.36137329050E+03  0.12700000000E+03 0.  0.
   -5000001    1    1    2    0    0 -0.92181646369E+02  0.11521583285E+03  0.31518005470E+03  0.37045864944E+03  0.12700000000E+03 0.  0.
<mgrwt>
<rscale>  0 0.38940618E+03</rscale>
<asrwt>0</asrwt>
<pdfrwt beam="1">  1        2 0.96532955E-01 0.38940618E+03</pdfrwt>
<pdfrwt beam="2">  1       -2 0.80144555E-02 0.38940618E+03</pdfrwt>
<totfact> 0.45424251E+03</totfact>
</mgrwt>
</event>
<event>
 4    1  0.9508302E-005  0.7103456E+03  0.7818608E-02  0.9699702E-01
         -2   -1    0    0    0  501 -0.00000000000E+00  0.00000000000E+00  0.11216695194E+03  0.11216695197E+03  0.25500000000E-02 0. -1.
          2   -1    0    0  501    0  0.00000000000E+00 -0.00000000000E+00 -0.11246424772E+04  0.11246424772E+04  0.25500000000E-02 0.  1.
    5000001    1    1    2    0    0 -0.32077897402E+03  0.16241932525E+02 -0.65040319973E+03  0.73642126040E+03  0.12700000000E+03 0.  0.
   -5000001    1    1    2    0    0  0.32077897402E+03 -0.16241932525E+02 -0.36207232557E+03  0.50038816881E+03  0.12700000000E+03 0.  0.
<mgrwt>
<rscale>  0 0.71034560E+03</rscale>
<asrwt>0</asrwt>
<pdfrwt beam="1">  1        2 0.16066320E+00 0.71034560E+03</pdfrwt>
<pdfrwt beam="2">  1       -2 0.16023851E-01 0.71034560E+03</pdfrwt>
<totfact> 0.74389199E+02</totfact>
</mgrwt>
</event>
<event>
 4    1  0.9508302E-005  0.3158091E+03  0.7818608E-02  0.1077594E+00
         -2   -1    0    0    0  501 -0.00000000000E+00  0.00000000000E+00  0.12506381970E+03  0.12506381972E+03  0.25500000000E-02 0. -1.
          2   -1    0    0  501    0  0.00000000000E+00 -0.00000000000E+00 -0.19936894412E+03  0.19936894414E+03  0.25500000000E-02 0.  1.
    5000001    1    1    2    0    0 -0.30267404039E+02 -0.86211179029E+02 -0.15206671695E+02  0.15719009511E+03  0.12700000000E+03 0.  0.
   -5000001    1    1    2    0    0  0.30267404039E+02  0.86211179029E+02 -0.59098452732E+02  0.16724266875E+03  0.12700000000E+03 0.  0.
<mgrwt>
<rscale>  0 0.31580907E+03</rscale>
<asrwt>0</asrwt>
<pdfrwt beam="1">  1        2 0.28481278E-01 0.31580907E+03</pdfrwt>
<pdfrwt beam="2">  1       -2 0.17866260E-01 0.31580907E+03</pdfrwt>
<totfact> 0.47370627E+03</totfact>
</mgrwt>
</event>
<event>
 4    1  0.9508302E-005  0.1435160E+04  0.7818608E-02  0.8928754E-01
         -2   -1    0    0    0  501 -0.00000000000E+00  0.00000000000E+00  0.63781829400E+03  0.63781829400E+03  0.25500000000E-02 0. -1.
          2   -1    0    0  501    0  0.00000000000E+00 -0.00000000000E+00 -0.80731571349E+03  0.80731571349E+03  0.25500000000E-02 0.  1.
    5000001    1    1    2    0    0  0.51222103625E+03  0.37716385760E+03 -0.39375077050E+03  0.75880935335E+03  0.12700000000E+03 0.  0.
   -5000001    1    1    2    0    0 -0.51222103625E+03 -0.37716385760E+03  0.22425335101E+03  0.68632465415E+03  0.12700000000E+03 0.  0.
<mgrwt>
<rscale>  0 0.14351595E+04</rscale>
<asrwt>0</asrwt>
<pdfrwt beam="1">  1        2 0.11533082E+00 0.14351595E+04</pdfrwt>
<pdfrwt beam="2">  1       -2 0.91116899E-01 0.14351595E+04</pdfrwt>
<totfact> 0.37531646E+01</totfact>
</mgrwt>
</event>
<event>
 4    1  0.9508302E-005  0.4199999E+03  0.7818608E-02  0.1037066E+00
         -2   -1    0    0    0  501 -0.00000000000E+00  0.00000000000E+00  0.14669386261E+03  0.14669386263E+03  0.25500000000E-02 0. -1.
          2   -1    0    0  501    0  0.00000000000E+00 -0.00000000000E+00 -0.30062599364E+03  0.30062599365E+03  0.25500000000E-02 0.  1.
    5000001    1    1    2    0    0 -0.99856309246E+02 -0.78345372898E+02  0.39029814361E+02  0.18374331650E+03  0.12700000000E+03 0.  0.
   -5000001    1    1    2    0    0  0.99856309246E+02  0.78345372898E+02 -0.19296194539E+03  0.26357653977E+03  0.12700000000E+03 0.  0.
<mgrwt>
<rscale>  0 0.41999994E+03</rscale>
<asrwt>0</asrwt>
<pdfrwt beam="1">  1        2 0.42946570E-01 0.41999994E+03</pdfrwt>
<pdfrwt beam="2">  1       -2 0.20956266E-01 0.41999994E+03</pdfrwt>
<totfact> 0.23105237E+03</totfact>
</mgrwt>
</event>
<event>
 4    1  0.9508302E-005  0.4993067E+03  0.7818608E-02  0.1013960E+00
          2   -1    0    0  501    0  0.00000000000E+00  0.00000000000E+00  0.94539032169E+03  0.94539032169E+03  0.25500000000E-02 0.  1.
         -2   -1    0    0    0  501 -0.00000000000E+00 -0.00000000000E+00 -0.65927044705E+02  0.65927044754E+02  0.25500000000E-02 0. -1.
    5000001    1    1    2    0    0  0.11285216878E+02 -0.21380788452E+03  0.40148225726E+03  0.47239620076E+03  0.12700000000E+03 0.  0.
   -5000001    1    1    2    0    0 -0.11285216878E+02  0.21380788452E+03  0.47798101973E+03  0.53892116568E+03  0.12700000000E+03 0.  0.
<mgrwt>
<rscale>  0 0.49930668E+03</rscale>
<asrwt>0</asrwt>
<pdfrwt beam="1">  1        2 0.13505576E+00 0.49930668E+03</pdfrwt>
<pdfrwt beam="2">  1       -2 0.94181492E-02 0.49930668E+03</pdfrwt>
<totfact> 0.23015723E+03</totfact>
</mgrwt>
</event>
<event>
 4    1  0.9508302E-005  0.5232254E+03  0.7818608E-02  0.1007888E+00
          2   -1    0    0  501    0  0.00000000000E+00  0.00000000000E+00  0.13196675800E+04  0.13196675800E+04  0.25500000000E-02 0.  1.
         -2   -1    0    0    0  501 -0.00000000000E+00 -0.00000000000E+00 -0.51862450026E+02  0.51862450089E+02  0.25500000000E-02 0. -1.
    5000001    1    1    2    0    0 -0.11536345354E+03 -0.19559651664E+03  0.70547267570E+03  0.75192248264E+03  0.12700000000E+03 0.  0.
   -5000001    1    1    2    0    0  0.11536345354E+03  0.19559651664E+03  0.56233245426E+03  0.61960754745E+03  0.12700000000E+03 0.  0.
<mgrwt>
<rscale>  0 0.52322536E+03</rscale>
<asrwt>0</asrwt>
<pdfrwt beam="1">  1        2 0.18852391E+00 0.52322536E+03</pdfrwt>
<pdfrwt beam="2">  1       -2 0.74089228E-02 0.52322536E+03</pdfrwt>
<totfact> 0.20561577E+03</totfact>
</mgrwt>
</event>
<event>
 4    1  0.9508302E-005  0.6157370E+03  0.7818608E-02  0.9873284E-01
          2   -1    0    0  501    0  0.00000000000E+00  0.00000000000E+00  0.14847620124E+04  0.14847620124E+04  0.25500000000E-02 0.  1.
         -2   -1    0    0    0  501 -0.00000000000E+00 -0.00000000000E+00 -0.63837182551E+02  0.63837182602E+02  0.25500000000E-02 0. -1.
    5000001    1    1    2    0    0 -0.26714427916E+03 -0.58477957691E+02  0.55403853424E+03  0.63077209421E+03  0.12700000000E+03 0.  0.
   -5000001    1    1    2    0    0  0.26714427916E+03  0.58477957691E+02  0.86688629562E+03  0.91782710079E+03  0.12700000000E+03 0.  0.
<mgrwt>
<rscale>  0 0.61573703E+03</rscale>
<asrwt>0</asrwt>
<pdfrwt beam="1">  1        2 0.21210884E+00 0.61573703E+03</pdfrwt>
<pdfrwt beam="2">  1       -2 0.91195985E-02 0.61573703E+03</pdfrwt>
<totfact> 0.12036324E+03</totfact>
</mgrwt>
</event>
<event>
 4    1  0.9508302E-005  0.3936104E+03  0.7818608E-02  0.1046015E+00
          2   -1    0    0  501    0  0.00000000000E+00  0.00000000000E+00  0.29046133608E+03  0.29046133609E+03  0.25500000000E-02 0.  1.
         -2   -1    0    0    0  501 -0.00000000000E+00 -0.00000000000E+00 -0.13334747390E+03  0.13334747393E+03  0.25500000000E-02 0. -1.
    5000001    1    1    2    0    0 -0.14697097798E+03 -0.19833512401E+02  0.51975885729E+02  0.20205031373E+03  0.12700000000E+03 0.  0.
   -5000001    1    1    2    0    0  0.14697097798E+03  0.19833512401E+02  0.10513797645E+03  0.22175849628E+03  0.12700000000E+03 0.  0.
<mgrwt>
<rscale>  0 0.39361039E+03</rscale>
<asrwt>0</asrwt>
<pdfrwt beam="1">  1        2 0.41494476E-01 0.39361039E+03</pdfrwt>
<pdfrwt beam="2">  1       -2 0.19049639E-01 0.39361039E+03</pdfrwt>
<totfact> 0.28254371E+03</totfact>
</mgrwt>
</event>
<event>
 4    1  0.9508302E-005  0.3607067E+03  0.7818608E-02  0.1058304E+00
          2   -1    0    0  501    0  0.00000000000E+00  0.00000000000E+00  0.12308054316E+04  0.12308054316E+04  0.25500000000E-02 0.  1.
         -2   -1    0    0    0  501 -0.00000000000E+00 -0.00000000000E+00 -0.26427673535E+02  0.26427673658E+02  0.25500000000E-02 0. -1.
    5000001    1    1    2    0    0  0.95328033601E+02 -0.16997005208E+02  0.31011561129E+03  0.34882233951E+03  0.12700000000E+03 0.  0.
   -5000001    1    1    2    0    0 -0.95328033601E+02  0.16997005208E+02  0.89426214679E+03  0.90841076576E+03  0.12700000000E+03 0.  0.
<mgrwt>
<rscale>  0 0.36070666E+03</rscale>
<asrwt>0</asrwt>
<pdfrwt beam="1">  1        2 0.17582943E+00 0.36070666E+03</pdfrwt>
<pdfrwt beam="2">  1       -2 0.37753803E-02 0.36070666E+03</pdfrwt>
<totfact> 0.64992967E+03</totfact>
</mgrwt>
</event>
<event>
 4    1  0.9508302E-005  0.3215115E+03  0.7818608E-02  0.1074956E+00
         -2   -1    0    0    0  501 -0.00000000000E+00  0.00000000000E+00  0.18630779022E+02  0.18630779196E+02  0.25500000000E-02 0. -1.
          2   -1    0    0  501    0  0.00000000000E+00 -0.00000000000E+00 -0.13870813181E+04  0.13870813181E+04  0.25500000000E-02 0.  1.
    5000001    1    1    2    0    0 -0.93101694079E+02  0.27237186449E+02 -0.76040898671E+03  0.77702034519E+03  0.12700000000E+03 0.  0.
   -5000001    1    1    2    0    0  0.93101694079E+02 -0.27237186449E+02 -0.60804155236E+03  0.62869175210E+03  0.12700000000E+03 0.  0.
<mgrwt>
<rscale>  0 0.32151147E+03</rscale>
<asrwt>0</asrwt>
<pdfrwt beam="1">  1        2 0.19815441E+00 0.32151147E+03</pdfrwt>
<pdfrwt beam="2">  1       -2 0.26615408E-02 0.32151147E+03</pdfrwt>
<totfact> 0.90548750E+03</totfact>
</mgrwt>
</event>
<event>
 4    1  0.9508302E-005  0.3670937E+03  0.7818608E-02  0.1055810E+00
         -2   -1    0    0    0  501 -0.00000000000E+00  0.00000000000E+00  0.21065582617E+02  0.21065582771E+02  0.25500000000E-02 0. -1.
          2   -1    0    0  501    0  0.00000000000E+00 -0.00000000000E+00 -0.15992651650E+04  0.15992651650E+04  0.25500000000E-02 0.  1.
    5000001    1    1    2    0    0  0.12472605128E+03 -0.36858220464E+02 -0.67697032643E+03  0.70095145278E+03  0.12700000000E+03 0.  0.
   -5000001    1    1    2    0    0 -0.12472605128E+03  0.36858220464E+02 -0.90122925595E+03  0.91937929499E+03  0.12700000000E+03 0.  0.
<mgrwt>
<rscale>  0 0.36709374E+03</rscale>
<asrwt>0</asrwt>
<pdfrwt beam="1">  1        2 0.22846638E+00 0.36709374E+03</pdfrwt>
<pdfrwt beam="2">  1       -2 0.30093700E-02 0.36709374E+03</pdfrwt>
<totfact> 0.58817295E+03</totfact>
</mgrwt>
</event>
<event>
 4    1  0.9508302E-005  0.2893389E+03  0.7818608E-02  0.1090695E+00
          2   -1    0    0  501    0  0.00000000000E+00  0.00000000000E+00  0.82458147606E+03  0.82458147607E+03  0.25500000000E-02 0.  1.
         -2   -1    0    0    0  501 -0.00000000000E+00 -0.00000000000E+00 -0.25381659003E+02  0.25381659131E+02  0.25500000000E-02 0. -1.
    5000001    1    1    2    0    0 -0.36521330970E+02 -0.55653845920E+02  0.34316366462E+03  0.37191592988E+03  0.12700000000E+03 0.  0.
   -5000001    1    1    2    0    0  0.36521330970E+02  0.55653845920E+02  0.45603615244E+03  0.47804720532E+03  0.12700000000E+03 0.  0.
<mgrwt>
<rscale>  0 0.28933887E+03</rscale>
<asrwt>0</asrwt>
<pdfrwt beam="1">  1        2 0.11779734E+00 0.28933887E+03</pdfrwt>
<pdfrwt beam="2">  1       -2 0.36259517E-02 0.28933887E+03</pdfrwt>
<totfact> 0.11942743E+04</totfact>
</mgrwt>
</event>
<event>
 4    1  0.9508302E-005  0.4598224E+03  0.7818608E-02  0.1024833E+00
         -2   -1    0    0    0  501 -0.00000000000E+00  0.00000000000E+00  0.85273179534E+02  0.85273179573E+02  0.25500000000E-02 0. -1.
          2   -1    0    0  501    0  0.00000000000E+00 -0.00000000000E+00 -0.61988015377E+03  0.61988015378E+03  0.25500000000E-02 0.  1.
    5000001    1    1    2    0    0 -0.13604883718E+03 -0.13495459962E+03 -0.27167381743E+03  0.35589000145E+03  0.12700000000E+03 0.  0.
   -5000001    1    1    2    0    0  0.13604883718E+03  0.13495459962E+03 -0.26293315681E+03  0.34926333190E+03  0.12700000000E+03 0.  0.
<mgrwt>
<rscale>  0 0.45982236E+03</rscale>
<asrwt>0</asrwt>
<pdfrwt beam="1">  1        2 0.88554305E-01 0.45982236E+03</pdfrwt>
<pdfrwt beam="2">  1       -2 0.12181883E-01 0.45982236E+03</pdfrwt>
<totfact> 0.25731458E+03</totfact>
</mgrwt>
</event>
<event>
 4    1  0.9508302E-005  0.2711960E+03  0.7818608E-02  0.1100597E+00
         -2   -1    0    0    0  501 -0.00000000000E+00  0.00000000000E+00  0.20880521133E+03  0.20880521134E+03  0.25500000000E-02 0. -1.
          2   -1    0    0  501    0  0.00000000000E+00 -0.00000000000E+00 -0.88057244573E+02  0.88057244610E+02  0.25500000000E-02 0.  1.
    5000001    1    1    2    0    0 -0.30660096820E+02  0.24813630722E+02  0.31370026316E+02  0.13663395024E+03  0.12700000000E+03 0.  0.
   -5000001    1    1    2    0    0  0.30660096820E+02 -0.24813630722E+02  0.89377940439E+02  0.16022850572E+03  0.12700000000E+03 0.  0.
<mgrwt>
<rscale>  0 0.27119596E+03</rscale>
<asrwt>0</asrwt>
<pdfrwt beam="1">  1        2 0.12579607E-01 0.27119596E+03</pdfrwt>
<pdfrwt beam="2">  1       -2 0.29829315E-01 0.27119596E+03</pdfrwt>
<totfact> 0.49476529E+03</totfact>
</mgrwt>
</event>
<event>
 4    1  0.9508302E-005  0.3594902E+03  0.7818608E-02  0.1058786E+00
          2   -1    0    0  501    0  0.00000000000E+00  0.00000000000E+00  0.33909927570E+04  0.33909927570E+04  0.25500000000E-02 0.  1.
         -2   -1    0    0    0  501 -0.00000000000E+00 -0.00000000000E+00 -0.95276826005E+01  0.95276829417E+01  0.25500000000E-02 0. -1.
    5000001    1    1    2    0    0  0.37211965051E+02  0.11255473118E+03  0.21268871821E+04  0.21339708019E+04  0.12700000000E+03 0.  0.
   -5000001    1    1    2    0    0 -0.37211965051E+02 -0.11255473118E+03  0.12545778923E+04  0.12665496380E+04  0.12700000000E+03 0.  0.
<mgrwt>
<rscale>  0 0.35949021E+03</rscale>
<asrwt>0</asrwt>
<pdfrwt beam="1">  1        2 0.48442720E+00 0.35949021E+03</pdfrwt>
<pdfrwt beam="2">  1       -2 0.13610985E-02 0.35949021E+03</pdfrwt>
<totfact> 0.22839788E+03</totfact>
</mgrwt>
</event>
<event>
 4    1  0.9508302E-005  0.2815829E+03  0.7818608E-02  0.1094828E+00
          2   -1    0    0  501    0  0.00000000000E+00  0.00000000000E+00  0.16250886736E+02  0.16250886936E+02  0.25500000000E-02 0.  1.
         -2   -1    0    0    0  501 -0.00000000000E+00 -0.00000000000E+00 -0.12197631064E+04  0.12197631064E+04  0.25500000000E-02 0. -1.
    5000001    1    1    2    0    0 -0.47713960935E+02 -0.33850787117E+02 -0.67398131707E+03  0.68833299617E+03  0.12700000000E+03 0.  0.
   -5000001    1    1    2    0    0  0.47713960935E+02  0.33850787117E+02 -0.52953090254E+03  0.54768099712E+03  0.12700000000E+03 0.  0.
<mgrwt>
<rscale>  0 0.28158290E+03</rscale>
<asrwt>0</asrwt>
<pdfrwt beam="1">  1        2 0.23215560E-02 0.28158290E+03</pdfrwt>
<pdfrwt beam="2">  1       -2 0.17425181E+00 0.28158290E+03</pdfrwt>
<totfact> 0.94963089E+02</totfact>
</mgrwt>
</event>
<event>
 4    1  0.9508302E-005  0.4084992E+03  0.7818608E-02  0.1040876E+00
         -2   -1    0    0    0  501 -0.00000000000E+00  0.00000000000E+00  0.14567986084E+03  0.14567986086E+03  0.25500000000E-02 0. -1.
          2   -1    0    0  501    0  0.00000000000E+00 -0.00000000000E+00 -0.28636694116E+03  0.28636694117E+03  0.25500000000E-02 0.  1.
    5000001    1    1    2    0    0  0.13552975171E+03 -0.84958806826E+02 -0.68643497963E+02  0.21546981753E+03  0.12700000000E+03 0.  0.
   -5000001    1    1    2    0    0 -0.13552975171E+03  0.84958806826E+02 -0.72043582357E+02  0.21657698450E+03  0.12700000000E+03 0.  0.
<mgrwt>
<rscale>  0 0.40849919E+03</rscale>
<asrwt>0</asrwt>
<pdfrwt beam="1">  1        2 0.40909563E-01 0.40849919E+03</pdfrwt>
<pdfrwt beam="2">  1       -2 0.20811409E-01 0.40849919E+03</pdfrwt>
<totfact> 0.24650003E+03</totfact>
</mgrwt>
</event>
<event>
 4    1  0.9508302E-005  0.3703005E+03  0.7818608E-02  0.1054578E+00
         -2   -1    0    0    0  501 -0.00000000000E+00  0.00000000000E+00  0.22802957085E+02  0.22802957228E+02  0.25500000000E-02 0. -1.
          2   -1    0    0  501    0  0.00000000000E+00 -0.00000000000E+00 -0.15033406118E+04  0.15033406118E+04  0.25500000000E-02 0.  1.
    5000001    1    1    2    0    0 -0.10362693768E+03  0.84472339763E+02 -0.80892305121E+03  0.82967440673E+03  0.12700000000E+03 0.  0.
   -5000001    1    1    2    0    0  0.10362693768E+03 -0.84472339763E+02 -0.67161460351E+03  0.69646916231E+03  0.12700000000E+03 0.  0.
<mgrwt>
<rscale>  0 0.37030048E+03</rscale>
<asrwt>0</asrwt>
<pdfrwt beam="1">  1        2 0.21476288E+00 0.37030048E+03</pdfrwt>
<pdfrwt beam="2">  1       -2 0.32575663E-02 0.37030048E+03</pdfrwt>
<totfact> 0.58408240E+03</totfact>
</mgrwt>
</event>
<event>
 4    1  0.9508302E-005  0.3626199E+03  0.7818608E-02  0.1057551E+00
         -2   -1    0    0    0  501 -0.00000000000E+00  0.00000000000E+00  0.17943314731E+02  0.17943314912E+02  0.25500000000E-02 0.  1.
          2   -1    0    0  501    0  0.00000000000E+00 -0.00000000000E+00 -0.18320633240E+04  0.18320633240E+04  0.25500000000E-02 0. -1.
    5000001    1    1    2    0    0  0.33847403142E+02 -0.10855387146E+03 -0.59195749167E+03  0.61601319925E+03  0.12700000000E+03 0.  0.
   -5000001    1    1    2    0    0 -0.33847403142E+02  0.10855387146E+03 -0.12221625176E+04  0.12339934396E+04  0.12700000000E+03 0.  0.
<mgrwt>
<rscale>  0 0.36261985E+03</rscale>
<asrwt>0</asrwt>
<pdfrwt beam="1">  1        2 0.26172321E+00 0.36261985E+03</pdfrwt>
<pdfrwt beam="2">  1       -2 0.25633319E-02 0.36261985E+03</pdfrwt>
<totfact> 0.57238750E+03</totfact>
</mgrwt>
</event>
<event>
 4    1  0.9508302E-005  0.4169563E+03  0.7818608E-02  0.1038061E+00
          2   -1    0    0  501    0  0.00000000000E+00  0.00000000000E+00  0.81787232210E+03  0.81787232210E+03  0.25500000000E-02 0.  1.
         -2   -1    0    0    0  501 -0.00000000000E+00 -0.00000000000E+00 -0.53141715396E+02  0.53141715458E+02  0.25500000000E-02 0. -1.
    5000001    1    1    2    0    0  0.89823568201E+02  0.13870047640E+03  0.39342756880E+03  0.44521943741E+03  0.12700000000E+03 0.  0.
   -5000001    1    1    2    0    0 -0.89823568201E+02 -0.13870047640E+03  0.37130303790E+03  0.42579460014E+03  0.12700000000E+03 0.  0.
<mgrwt>
<rscale>  0 0.41695630E+03</rscale>
<asrwt>0</asrwt>
<pdfrwt beam="1">  1        2 0.11683890E+00 0.41695630E+03</pdfrwt>
<pdfrwt beam="2">  1       -2 0.75916741E-02 0.41695630E+03</pdfrwt>
<totfact> 0.39170395E+03</totfact>
</mgrwt>
</event>
<event>
 4    1  0.9508302E-005  0.6671298E+03  0.7818608E-02  0.9775157E-01
          2   -1    0    0  501    0  0.00000000000E+00  0.00000000000E+00  0.98509933295E+03  0.98509933295E+03  0.25500000000E-02 0. -1.
         -2   -1    0    0    0  501 -0.00000000000E+00 -0.00000000000E+00 -0.11294854250E+03  0.11294854253E+03  0.25500000000E-02 0.  1.
    5000001    1    1    2    0    0 -0.82006466308E+01 -0.27634190422E+03  0.66117941598E+03  0.72781819072E+03  0.12700000000E+03 0.  0.
   -5000001    1    1    2    0    0  0.82006466308E+01  0.27634190422E+03  0.21097137447E+03  0.37022968476E+03  0.12700000000E+03 0.  0.
<mgrwt>
<rscale>  0 0.66712977E+03</rscale>
<asrwt>0</asrwt>
<pdfrwt beam="1">  1        2 0.14072848E+00 0.66712977E+03</pdfrwt>
<pdfrwt beam="2">  1       -2 0.16135506E-01 0.66712977E+03</pdfrwt>
<totfact> 0.89179499E+02</totfact>
</mgrwt>
</event>
<event>
 4    1  0.9508302E-005  0.5183028E+03  0.7818608E-02  0.1009109E+00
          2   -1    0    0  501    0  0.00000000000E+00  0.00000000000E+00  0.46664037226E+03  0.46664037226E+03  0.25500000000E-02 0.  1.
         -2   -1    0    0    0  501 -0.00000000000E+00 -0.00000000000E+00 -0.14392118756E+03  0.14392118758E+03  0.25500000000E-02 0. -1.
    5000001    1    1    2    0    0 -0.19577242967E+03  0.10864508780E+03  0.12602273538E+03  0.28660308643E+03  0.12700000000E+03 0.  0.
   -5000001    1    1    2    0    0  0.19577242967E+03 -0.10864508780E+03  0.19669644932E+03  0.32395847341E+03  0.12700000000E+03 0.  0.
<mgrwt>
<rscale>  0 0.51830276E+03</rscale>
<asrwt>0</asrwt>
<pdfrwt beam="1">  1        2 0.66662909E-01 0.51830276E+03</pdfrwt>
<pdfrwt beam="2">  1       -2 0.20560170E-01 0.51830276E+03</pdfrwt>
<totfact> 0.14738530E+03</totfact>
</mgrwt>
</event>
<event>
 4    1  0.9508302E-005  0.2909638E+03  0.7818608E-02  0.1089847E+00
          2   -1    0    0  501    0  0.00000000000E+00  0.00000000000E+00  0.27903389880E+04  0.27903389880E+04  0.25500000000E-02 0. -1.
         -2   -1    0    0    0  501 -0.00000000000E+00 -0.00000000000E+00 -0.75850916968E+01  0.75850921255E+01  0.25500000000E-02 0.  1.
    5000001    1    1    2    0    0  0.43046610811E+02 -0.52287561335E+02  0.15951325295E+04  0.16016128703E+04  0.12700000000E+03 0.  0.
   -5000001    1    1    2    0    0 -0.43046610811E+02  0.52287561335E+02  0.11876213669E+04  0.11963112099E+04  0.12700000000E+03 0.  0.
<mgrwt>
<rscale>  0 0.29096376E+03</rscale>
<asrwt>0</asrwt>
<pdfrwt beam="1">  1        2 0.39862085E+00 0.29096376E+03</pdfrwt>
<pdfrwt beam="2">  1       -2 0.10835819E-02 0.29096376E+03</pdfrwt>
<totfact> 0.67772697E+03</totfact>
</mgrwt>
</event>
<event>
 4    1  0.9508302E-005  0.3168494E+03  0.7818608E-02  0.1077108E+00
         -2   -1    0    0    0  501 -0.00000000000E+00  0.00000000000E+00  0.17500991805E+02  0.17500991991E+02  0.25500000000E-02 0.  1.
          2   -1    0    0  501    0  0.00000000000E+00 -0.00000000000E+00 -0.14341124584E+04  0.14341124584E+04  0.25500000000E-02 0. -1.
    5000001    1    1    2    0    0  0.71695358798E+02 -0.61397818959E+01 -0.99040490666E+03  0.10011037911E+04  0.12700000000E+03 0.  0.
   -5000001    1    1    2    0    0 -0.71695358798E+02  0.61397818959E+01 -0.42620655991E+03  0.45050965928E+03  0.12700000000E+03 0.  0.
<mgrwt>
<rscale>  0 0.31684943E+03</rscale>
<asrwt>0</asrwt>
<pdfrwt beam="1">  1        2 0.20487313E+00 0.31684943E+03</pdfrwt>
<pdfrwt beam="2">  1       -2 0.25001426E-02 0.31684943E+03</pdfrwt>
<totfact> 0.93946009E+03</totfact>
</mgrwt>
</event>
<event>
 4    1  0.9508302E-005  0.3511321E+03  0.7818608E-02  0.1062151E+00
         -2   -1    0    0    0  501 -0.00000000000E+00  0.00000000000E+00  0.39103519602E+03  0.39103519602E+03  0.25500000000E-02 0. -1.
          2   -1    0    0  501    0  0.00000000000E+00 -0.00000000000E+00 -0.78825205333E+02  0.78825205374E+02  0.25500000000E-02 0.  1.
    5000001    1    1    2    0    0  0.45134618830E+02 -0.87953707282E+02  0.24997882155E+03  0.29730691157E+03  0.12700000000E+03 0.  0.
   -5000001    1    1    2    0    0 -0.45134618830E+02  0.87953707282E+02  0.62231169134E+02  0.17255348983E+03  0.12700000000E+03 0.  0.
<mgrwt>
<rscale>  0 0.35113205E+03</rscale>
<asrwt>0</asrwt>
<pdfrwt beam="1">  1        2 0.11260743E-01 0.35113205E+03</pdfrwt>
<pdfrwt beam="2">  1       -2 0.55862172E-01 0.35113205E+03</pdfrwt>
<totfact> 0.17042806E+03</totfact>
</mgrwt>
</event>
<event>
 4    1  0.9508302E-005  0.3064697E+03  0.7818608E-02  0.1082050E+00
          2   -1    0    0  501    0  0.00000000000E+00  0.00000000000E+00  0.84768644448E+03  0.84768644448E+03  0.25500000000E-02 0.  1.
         -2   -1    0    0    0  501 -0.00000000000E+00 -0.00000000000E+00 -0.27700012117E+02  0.27700012235E+02  0.25500000000E-02 0. -1.
    5000001    1    1    2    0    0 -0.62410547995E+02 -0.58044029711E+02  0.38323800109E+03  0.41263125350E+03  0.12700000000E+03 0.  0.
   -5000001    1    1    2    0    0  0.62410547995E+02  0.58044029711E+02  0.43674843127E+03  0.46275520321E+03  0.12700000000E+03 0.  0.
<mgrwt>
<rscale>  0 0.30646974E+03</rscale>
<asrwt>0</asrwt>
<pdfrwt beam="1">  1        2 0.12109808E+00 0.30646974E+03</pdfrwt>
<pdfrwt beam="2">  1       -2 0.39571440E-02 0.30646974E+03</pdfrwt>
<totfact> 0.10131975E+04</totfact>
</mgrwt>
</event>
<event>
 4    1  0.9508302E-005  0.4905673E+03  0.7818608E-02  0.1016271E+00
          2   -1    0    0  501    0  0.00000000000E+00  0.00000000000E+00  0.69627503635E+03  0.69627503635E+03  0.25500000000E-02 0.  1.
         -2   -1    0    0    0  501 -0.00000000000E+00 -0.00000000000E+00 -0.86408491154E+02  0.86408491192E+02  0.25500000000E-02 0. -1.
    5000001    1    1    2    0    0  0.12307970264E+02 -0.19828462140E+03  0.41275182131E+03  0.47535391363E+03  0.12700000000E+03 0.  0.
   -5000001    1    1    2    0    0 -0.12307970264E+02  0.19828462140E+03  0.19711472389E+03  0.30732961391E+03  0.12700000000E+03 0.  0.
<mgrwt>
<rscale>  0 0.49056733E+03</rscale>
<asrwt>0</asrwt>
<pdfrwt beam="1">  1        2 0.99467860E-01 0.49056733E+03</pdfrwt>
<pdfrwt beam="2">  1       -2 0.12344070E-01 0.49056733E+03</pdfrwt>
<totfact> 0.21929235E+03</totfact>
</mgrwt>
</event>
<event>
 4    1  0.9508302E-005  0.7143968E+03  0.7818608E-02  0.9692924E-01
         -2   -1    0    0    0  501 -0.00000000000E+00  0.00000000000E+00  0.19111717331E+03  0.19111717333E+03  0.25500000000E-02 0. -1.
          2   -1    0    0  501    0  0.00000000000E+00 -0.00000000000E+00 -0.66760449472E+03  0.66760449472E+03  0.25500000000E-02 0.  1.
    5000001    1    1    2    0    0 -0.26514189633E+03 -0.47562605432E+02 -0.47531748090E+03  0.56090831182E+03  0.12700000000E+03 0.  0.
   -5000001    1    1    2    0    0  0.26514189633E+03  0.47562605432E+02 -0.11698405109E+01  0.29781335623E+03  0.12700000000E+03 0.  0.
<mgrwt>
<rscale>  0 0.71439676E+03</rscale>
<asrwt>0</asrwt>
<pdfrwt beam="1">  1        2 0.95372069E-01 0.71439676E+03</pdfrwt>
<pdfrwt beam="2">  1       -2 0.27302454E-01 0.71439676E+03</pdfrwt>
<totfact> 0.58453526E+02</totfact>
</mgrwt>
</event>
<event>
 4    1  0.9508302E-005  0.9229806E+03  0.7818608E-02  0.9397302E-01
         -2   -1    0    0    0  501 -0.00000000000E+00  0.00000000000E+00  0.81830406674E+02  0.81830406713E+02  0.25500000000E-02 0. -1.
          2   -1    0    0  501    0  0.00000000000E+00 -0.00000000000E+00 -0.26026178793E+04  0.26026178793E+04  0.25500000000E-02 0.  1.
    5000001    1    1    2    0    0  0.14565886596E+03  0.37183221705E+03 -0.69816147101E+03  0.81426908480E+03  0.12700000000E+03 0.  0.
   -5000001    1    1    2    0    0 -0.14565886596E+03 -0.37183221705E+03 -0.18226260016E+04  0.18701792012E+04  0.12700000000E+03 0.  0.
<mgrwt>
<rscale>  0 0.92298056E+03</rscale>
<asrwt>0</asrwt>
<pdfrwt beam="1">  1        2 0.37180250E+00 0.92298056E+03</pdfrwt>
<pdfrwt beam="2">  1       -2 0.11690060E-01 0.92298056E+03</pdfrwt>
<totfact> 0.21069667E+02</totfact>
</mgrwt>
</event>
<event>
 4    1  0.9508302E-005  0.3408801E+03  0.7818608E-02  0.1066422E+00
          2   -1    0    0  501    0  0.00000000000E+00  0.00000000000E+00  0.12559563243E+04  0.12559563243E+04  0.25500000000E-02 0.  1.
         -2   -1    0    0    0  501 -0.00000000000E+00 -0.00000000000E+00 -0.23129628481E+02  0.23129628622E+02  0.25500000000E-02 0. -1.
    5000001    1    1    2    0    0 -0.81751855179E+02  0.78667236440E+02  0.59017313079E+03  0.61425175964E+03  0.12700000000E+03 0.  0.
   -5000001    1    1    2    0    0  0.81751855179E+02 -0.78667236440E+02  0.64265356499E+03  0.66483419325E+03  0.12700000000E+03 0.  0.
<mgrwt>
<rscale>  0 0.34088006E+03</rscale>
<asrwt>0</asrwt>
<pdfrwt beam="1">  1        2 0.17942240E+00 0.34088006E+03</pdfrwt>
<pdfrwt beam="2">  1       -2 0.33042314E-02 0.34088006E+03</pdfrwt>
<totfact> 0.76934863E+03</totfact>
</mgrwt>
</event>
<event>
 4    1  0.9508302E-005  0.6735065E+03  0.7818608E-02  0.9763644E-01
         -2   -1    0    0    0  501 -0.00000000000E+00  0.00000000000E+00  0.64195130450E+02  0.64195130500E+02  0.25500000000E-02 0. -1.
          2   -1    0    0  501    0  0.00000000000E+00 -0.00000000000E+00 -0.17665319470E+04  0.17665319470E+04  0.25500000000E-02 0.  1.
    5000001    1    1    2    0    0  0.13444783351E+03 -0.27761460288E+03 -0.72578702645E+03  0.79877524714E+03  0.12700000000E+03 0.  0.
   -5000001    1    1    2    0    0 -0.13444783351E+03  0.27761460288E+03 -0.97654979014E+03  0.10319518304E+04  0.12700000000E+03 0.  0.
<mgrwt>
<rscale>  0 0.67350649E+03</rscale>
<asrwt>0</asrwt>
<pdfrwt beam="1">  1        2 0.25236168E+00 0.67350649E+03</pdfrwt>
<pdfrwt beam="2">  1       -2 0.91707340E-02 0.67350649E+03</pdfrwt>
<totfact> 0.85218673E+02</totfact>
</mgrwt>
</event>
<event>
 4    1  0.9508302E-005  0.7453928E+03  0.7818608E-02  0.9642606E-01
          2   -1    0    0  501    0  0.00000000000E+00  0.00000000000E+00  0.10391723685E+04  0.10391723685E+04  0.25500000000E-02 0.  1.
         -2   -1    0    0    0  501 -0.00000000000E+00 -0.00000000000E+00 -0.13366658800E+03  0.13366658802E+03  0.25500000000E-02 0. -1.
    5000001    1    1    2    0    0 -0.30676873849E+02  0.32914815086E+03  0.26997472937E+03  0.44530318918E+03  0.12700000000E+03 0.  0.
   -5000001    1    1    2    0    0  0.30676873849E+02 -0.32914815086E+03  0.63553105113E+03  0.72753576733E+03  0.12700000000E+03 0.  0.
<mgrwt>
<rscale>  0 0.74539285E+03</rscale>
<asrwt>0</asrwt>
<pdfrwt beam="1">  1        2 0.14845320E+00 0.74539285E+03</pdfrwt>
<pdfrwt beam="2">  1       -2 0.19095227E-01 0.74539285E+03</pdfrwt>
<totfact> 0.61729786E+02</totfact>
</mgrwt>
</event>
<event>
 4    1  0.9508302E-005  0.3722850E+03  0.7818608E-02  0.1053823E+00
         -2   -1    0    0    0  501 -0.00000000000E+00  0.00000000000E+00  0.84363756519E+02  0.84363756558E+02  0.25500000000E-02 0. -1.
          2   -1    0    0  501    0  0.00000000000E+00 -0.00000000000E+00 -0.41070997193E+03  0.41070997194E+03  0.25500000000E-02 0.  1.
    5000001    1    1    2    0    0  0.11447968064E+03 -0.30734785032E+02 -0.25208071550E+03  0.30614361241E+03  0.12700000000E+03 0.  0.
   -5000001    1    1    2    0    0 -0.11447968064E+03  0.30734785032E+02 -0.74265499916E+02  0.18893011609E+03  0.12700000000E+03 0.  0.
<mgrwt>
<rscale>  0 0.37228503E+03</rscale>
<asrwt>0</asrwt>
<pdfrwt beam="1">  1        2 0.58672852E-01 0.37228503E+03</pdfrwt>
<pdfrwt beam="2">  1       -2 0.12051965E-01 0.37228503E+03</pdfrwt>
<totfact> 0.41527602E+03</totfact>
</mgrwt>
</event>
<event>
 4    1  0.9508302E-005  0.4314631E+03  0.7818608E-02  0.1033399E+00
         -2   -1    0    0    0  501 -0.00000000000E+00  0.00000000000E+00  0.20346366195E+03  0.20346366196E+03  0.25500000000E-02 0. -1.
          2   -1    0    0  501    0  0.00000000000E+00 -0.00000000000E+00 -0.22873916659E+03  0.22873916660E+03  0.25500000000E-02 0.  1.
    5000001    1    1    2    0    0  0.13457392556E+03 -0.41882923849E+02  0.90235866169E+02  0.21008529766E+03  0.12700000000E+03 0.  0.
   -5000001    1    1    2    0    0 -0.13457392556E+03  0.41882923849E+02 -0.11551137081E+03  0.22211753091E+03  0.12700000000E+03 0.  0.
<mgrwt>
<rscale>  0 0.43146313E+03</rscale>
<asrwt>0</asrwt>
<pdfrwt beam="1">  1        2 0.32677024E-01 0.43146313E+03</pdfrwt>
<pdfrwt beam="2">  1       -2 0.29066238E-01 0.43146313E+03</pdfrwt>
<totfact> 0.17429494E+03</totfact>
</mgrwt>
</event>
<event>
 4    1  0.9508302E-005  0.3469068E+03  0.7818608E-02  0.1063892E+00
         -2   -1    0    0    0  501 -0.00000000000E+00  0.00000000000E+00  0.88900260018E+01  0.88900263675E+01  0.25500000000E-02 0. -1.
          2   -1    0    0  501    0  0.00000000000E+00 -0.00000000000E+00 -0.33842513642E+04  0.33842513642E+04  0.25500000000E-02 0.  1.
    5000001    1    1    2    0    0 -0.11384125371E+03 -0.31344083981E+02 -0.17253101993E+04  0.17340030468E+04  0.12700000000E+03 0.  0.
   -5000001    1    1    2    0    0  0.11384125371E+03  0.31344083981E+02 -0.16500511389E+04  0.16591383438E+04  0.12700000000E+03 0.  0.
<mgrwt>
<rscale>  0 0.34690681E+03</rscale>
<asrwt>0</asrwt>
<pdfrwt beam="1">  1        2 0.48346365E+00 0.34690681E+03</pdfrwt>
<pdfrwt beam="2">  1       -2 0.12700059E-02 0.34690681E+03</pdfrwt>
<totfact> 0.25543818E+03</totfact>
</mgrwt>
</event>
<event>
 4    1  0.9508302E-005  0.3631277E+03  0.7818608E-02  0.1057352E+00
          2   -1    0    0  501    0  0.00000000000E+00  0.00000000000E+00  0.56875304758E+03  0.56875304758E+03  0.25500000000E-02 0.  1.
         -2   -1    0    0    0  501 -0.00000000000E+00 -0.00000000000E+00 -0.57960873476E+02  0.57960873532E+02  0.25500000000E-02 0. -1.
    5000001    1    1    2    0    0  0.79147490860E+01 -0.12550892921E+03  0.20024115936E+03  0.26840390546E+03  0.12700000000E+03 0.  0.
   -5000001    1    1    2    0    0 -0.79147490860E+01  0.12550892921E+03  0.31055101474E+03  0.35831001566E+03  0.12700000000E+03 0.  0.
<mgrwt>
<rscale>  0 0.36312765E+03</rscale>
<asrwt>0</asrwt>
<pdfrwt beam="1">  1        2 0.81250438E-01 0.36312765E+03</pdfrwt>
<pdfrwt beam="2">  1       -2 0.82801245E-02 0.36312765E+03</pdfrwt>
<totfact> 0.52669300E+03</totfact>
</mgrwt>
</event>
<event>
 4    1  0.9508302E-005  0.4572473E+03  0.7818608E-02  0.1025583E+00
         -2   -1    0    0    0  501 -0.00000000000E+00  0.00000000000E+00  0.16550278407E+02  0.16550278604E+02  0.25500000000E-02 0. -1.
          2   -1    0    0  501    0  0.00000000000E+00 -0.00000000000E+00 -0.31581815395E+04  0.31581815395E+04  0.25500000000E-02 0.  1.
    5000001    1    1    2    0    0 -0.15582702359E+02  0.17184925276E+03 -0.10168942164E+04  0.10392198197E+04  0.12700000000E+03 0.  0.
   -5000001    1    1    2    0    0  0.15582702359E+02 -0.17184925276E+03 -0.21247370446E+04  0.21355119984E+04  0.12700000000E+03 0.  0.
<mgrwt>
<rscale>  0 0.45724735E+03</rscale>
<asrwt>0</asrwt>
<pdfrwt beam="1">  1        2 0.45116841E+00 0.45724735E+03</pdfrwt>
<pdfrwt beam="2">  1       -2 0.23643275E-02 0.45724735E+03</pdfrwt>
<totfact> 0.13465477E+03</totfact>
</mgrwt>
</event>
<event>
 4    1  0.9508302E-005  0.3850677E+03  0.7818608E-02  0.1049076E+00
         -2   -1    0    0    0  501 -0.00000000000E+00  0.00000000000E+00  0.48571355841E+02  0.48571355908E+02  0.25500000000E-02 0. -1.
          2   -1    0    0  501    0  0.00000000000E+00 -0.00000000000E+00 -0.76319226325E+03  0.76319226326E+03  0.25500000000E-02 0.  1.
    5000001    1    1    2    0    0  0.78177289231E+02  0.11874219556E+03 -0.30039605659E+03  0.35577828542E+03  0.12700000000E+03 0.  0.
   -5000001    1    1    2    0    0 -0.78177289231E+02 -0.11874219556E+03 -0.41422485082E+03  0.45598533375E+03  0.12700000000E+03 0.  0.
<mgrwt>
<rscale>  0 0.38506770E+03</rscale>
<asrwt>0</asrwt>
<pdfrwt beam="1">  1        2 0.10902746E+00 0.38506770E+03</pdfrwt>
<pdfrwt beam="2">  1       -2 0.69387656E-02 0.38506770E+03</pdfrwt>
<totfact> 0.49124729E+03</totfact>
</mgrwt>
</event>
<event>
 4    1  0.9508302E-005  0.8845128E+03  0.7818608E-02  0.9445151E-01
         -2   -1    0    0    0  501 -0.00000000000E+00  0.00000000000E+00  0.13802803420E+03  0.13802803422E+03  0.25500000000E-02 0. -1.
          2   -1    0    0  501    0  0.00000000000E+00 -0.00000000000E+00 -0.14170363132E+04  0.14170363132E+04  0.25500000000E-02 0.  1.
    5000001    1    1    2    0    0  0.46244521655E+02  0.41218542437E+03 -0.48799733608E+03  0.65292095989E+03  0.12700000000E+03 0.  0.
   -5000001    1    1    2    0    0 -0.46244521655E+02 -0.41218542437E+03 -0.79101094290E+03  0.90214338751E+03  0.12700000000E+03 0.  0.
<mgrwt>
<rscale>  0 0.88451283E+03</rscale>
<asrwt>0</asrwt>
<pdfrwt beam="1">  1        2 0.20243375E+00 0.88451283E+03</pdfrwt>
<pdfrwt beam="2">  1       -2 0.19718291E-01 0.88451283E+03</pdfrwt>
<totfact> 0.35514414E+02</totfact>
</mgrwt>
</event>
<event>
 4    1  0.9508302E-005  0.3027874E+03  0.7818608E-02  0.1083855E+00
         -2   -1    0    0    0  501 -0.00000000000E+00  0.00000000000E+00  0.25073463103E+02  0.25073463233E+02  0.25500000000E-02 0. -1.
          2   -1    0    0  501    0  0.00000000000E+00 -0.00000000000E+00 -0.91411608244E+03  0.91411608244E+03  0.25500000000E-02 0.  1.
    5000001    1    1    2    0    0 -0.44512069649E+02 -0.47901813740E+02 -0.60008103765E+03  0.61684857125E+03  0.12700000000E+03 0.  0.
   -5000001    1    1    2    0    0  0.44512069649E+02  0.47901813740E+02 -0.28896158169E+03  0.32234097443E+03  0.12700000000E+03 0.  0.
<mgrwt>
<rscale>  0 0.30278742E+03</rscale>
<asrwt>0</asrwt>
<pdfrwt beam="1">  1        2 0.13058799E+00 0.30278742E+03</pdfrwt>
<pdfrwt beam="2">  1       -2 0.35819239E-02 0.30278742E+03</pdfrwt>
<totfact> 0.10674987E+04</totfact>
</mgrwt>
</event>
<event>
 4    1  0.9508302E-005  0.6226227E+03  0.7818608E-02  0.9859552E-01
          2   -1    0    0  501    0  0.00000000000E+00  0.00000000000E+00  0.18981594721E+04  0.18981594721E+04  0.25500000000E-02 0.  1.
         -2   -1    0    0    0  501 -0.00000000000E+00 -0.00000000000E+00 -0.51057230668E+02  0.51057230732E+02  0.25500000000E-02 0. -1.
    5000001    1    1    2    0    0  0.15993281674E+03 -0.60737369821E+02  0.16341354545E+04  0.16479669953E+04  0.12700000000E+03 0.  0.
   -5000001    1    1    2    0    0 -0.15993281674E+03  0.60737369821E+02  0.21296678700E+03  0.30124970760E+03  0.12700000000E+03 0.  0.
<mgrwt>
<rscale>  0 0.62262273E+03</rscale>
<asrwt>0</asrwt>
<pdfrwt beam="1">  1        2 0.27116560E+00 0.62262273E+03</pdfrwt>
<pdfrwt beam="2">  1       -2 0.72938910E-02 0.62262273E+03</pdfrwt>
<totfact> 0.10571770E+03</totfact>
</mgrwt>
</event>
<event>
 4    1  0.9508302E-005  0.5066977E+03  0.7818608E-02  0.1012045E+00
          2   -1    0    0  501    0  0.00000000000E+00  0.00000000000E+00  0.66908442928E+03  0.66908442929E+03  0.25500000000E-02 0.  1.
         -2   -1    0    0    0  501 -0.00000000000E+00 -0.00000000000E+00 -0.95930561442E+02  0.95930561476E+02  0.25500000000E-02 0. -1.
    5000001    1    1    2    0    0  0.88796402125E+02  0.15726715893E+03  0.98978608957E+02  0.24195769328E+03  0.12700000000E+03 0.  0.
   -5000001    1    1    2    0    0 -0.88796402125E+02 -0.15726715893E+03  0.47417525889E+03  0.52305729748E+03  0.12700000000E+03 0.  0.
<mgrwt>
<rscale>  0 0.50669772E+03</rscale>
<asrwt>0</asrwt>
<pdfrwt beam="1">  1        2 0.95583488E-01 0.50669772E+03</pdfrwt>
<pdfrwt beam="2">  1       -2 0.13704366E-01 0.50669772E+03</pdfrwt>
<totfact> 0.19361291E+03</totfact>
</mgrwt>
</event>
<event>
 4    1  0.9508302E-005  0.2560620E+03  0.7818608E-02  0.1109533E+00
          2   -1    0    0  501    0  0.00000000000E+00  0.00000000000E+00  0.11139176927E+04  0.11139176927E+04  0.25500000000E-02 0.  1.
         -2   -1    0    0    0  501 -0.00000000000E+00 -0.00000000000E+00 -0.14715572341E+02  0.14715572562E+02  0.25500000000E-02 0. -1.
    5000001    1    1    2    0    0  0.92573877747E+01  0.12128779351E+02  0.57379503793E+03  0.58787970885E+03  0.12700000000E+03 0.  0.
   -5000001    1    1    2    0    0 -0.92573877747E+01 -0.12128779351E+02  0.52540708246E+03  0.54075355645E+03  0.12700000000E+03 0.  0.
<mgrwt>
<rscale>  0 0.25606200E+03</rscale>
<asrwt>0</asrwt>
<pdfrwt beam="1">  1        2 0.15913112E+00 0.25606200E+03</pdfrwt>
<pdfrwt beam="2">  1       -2 0.21022244E-02 0.25606200E+03</pdfrwt>
<totfact> 0.17863530E+04</totfact>
</mgrwt>
</event>
<event>
 4    1  0.9508302E-005  0.3627200E+03  0.7818608E-02  0.1057512E+00
          2   -1    0    0  501    0  0.00000000000E+00  0.00000000000E+00  0.12813530400E+04  0.12813530400E+04  0.25500000000E-02 0.  1.
         -2   -1    0    0    0  501 -0.00000000000E+00 -0.00000000000E+00 -0.25669308388E+02  0.25669308515E+02  0.25500000000E-02 0. -1.
    5000001    1    1    2    0    0  0.23205967680E+02 -0.11132138983E+03  0.85088798960E+03  0.86779625466E+03  0.12700000000E+03 0.  0.
   -5000001    1    1    2    0    0 -0.23205967680E+02  0.11132138983E+03  0.40479574203E+03  0.43922609387E+03  0.12700000000E+03 0.  0.
<mgrwt>
<rscale>  0 0.36271998E+03</rscale>
<asrwt>0</asrwt>
<pdfrwt beam="1">  1        2 0.18305046E+00 0.36271998E+03</pdfrwt>
<pdfrwt beam="2">  1       -2 0.36670436E-02 0.36271998E+03</pdfrwt>
<totfact> 0.63788324E+03</totfact>
</mgrwt>
</event>
<event>
 4    1  0.9508302E-005  0.9132206E+03  0.7818608E-02  0.9409204E-01
         -2   -1    0    0    0  501 -0.00000000000E+00  0.00000000000E+00  0.17162414603E+03  0.17162414605E+03  0.25500000000E-02 0. -1.
          2   -1    0    0  501    0  0.00000000000E+00 -0.00000000000E+00 -0.12148229773E+04  0.12148229773E+04  0.25500000000E-02 0.  1.
    5000001    1    1    2    0    0  0.28155651592E+03  0.30404148804E+03 -0.73975861808E+03  0.85737221271E+03  0.12700000000E+03 0.  0.
   -5000001    1    1    2    0    0 -0.28155651592E+03 -0.30404148804E+03 -0.30344021321E+03  0.52907491067E+03  0.12700000000E+03 0.  0.
<mgrwt>
<rscale>  0 0.91322058E+03</rscale>
<asrwt>0</asrwt>
<pdfrwt beam="1">  1        2 0.17354613E+00 0.91322058E+03</pdfrwt>
<pdfrwt beam="2">  1       -2 0.24517736E-01 0.91322058E+03</pdfrwt>
<totfact> 0.31107355E+02</totfact>
</mgrwt>
</event>
<event>
 4    1  0.9508302E-005  0.8997146E+03  0.7818608E-02  0.9425938E-01
         -2   -1    0    0    0  501 -0.00000000000E+00  0.00000000000E+00  0.12762705041E+03  0.12762705043E+03  0.25500000000E-02 0.  1.
          2   -1    0    0  501    0  0.00000000000E+00 -0.00000000000E+00 -0.15856482763E+04  0.15856482763E+04  0.25500000000E-02 0. -1.
    5000001    1    1    2    0    0 -0.26212245656E+03  0.33302738138E+03 -0.57399080463E+03  0.72471364192E+03  0.12700000000E+03 0.  0.
   -5000001    1    1    2    0    0  0.26212245656E+03 -0.33302738138E+03 -0.88403042130E+03  0.98856168485E+03  0.12700000000E+03 0.  0.
<mgrwt>
<rscale>  0 0.89971465E+03</rscale>
<asrwt>0</asrwt>
<pdfrwt beam="1">  1        2 0.22652117E+00 0.89971465E+03</pdfrwt>
<pdfrwt beam="2">  1       -2 0.18232437E-01 0.89971465E+03</pdfrwt>
<totfact> 0.33129615E+02</totfact>
</mgrwt>
</event>
<event>
 4    1  0.9508302E-005  0.5805715E+03  0.7818608E-02  0.9946555E-01
          2   -1    0    0  501    0  0.00000000000E+00  0.00000000000E+00  0.41827889449E+03  0.41827889449E+03  0.25500000000E-02 0.  1.
         -2   -1    0    0    0  501 -0.00000000000E+00 -0.00000000000E+00 -0.20145843939E+03  0.20145843941E+03  0.25500000000E-02 0. -1.
    5000001    1    1    2    0    0  0.15607955016E+03 -0.20839582056E+03  0.12829967068E+03  0.31682716030E+03  0.12700000000E+03 0.  0.
   -5000001    1    1    2    0    0 -0.15607955016E+03  0.20839582056E+03  0.88520784408E+02  0.30291017361E+03  0.12700000000E+03 0.  0.
<mgrwt>
<rscale>  0 0.58057149E+03</rscale>
<asrwt>0</asrwt>
<pdfrwt beam="1">  1        2 0.59754126E-01 0.58057149E+03</pdfrwt>
<pdfrwt beam="2">  1       -2 0.28779778E-01 0.58057149E+03</pdfrwt>
<totfact> 0.91322146E+02</totfact>
</mgrwt>
</event>
<event>
 4    1  0.9508302E-005  0.5270803E+03  0.7818608E-02  0.1006943E+00
         -2   -1    0    0    0  501 -0.00000000000E+00  0.00000000000E+00  0.10673610629E+03  0.10673610632E+03  0.25500000000E-02 0. -1.
          2   -1    0    0  501    0  0.00000000000E+00 -0.00000000000E+00 -0.65070204348E+03  0.65070204348E+03  0.25500000000E-02 0.  1.
    5000001    1    1    2    0    0 -0.16019440275E+03 -0.61025297469E+02 -0.49644314321E+02  0.21904312714E+03  0.12700000000E+03 0.  0.
   -5000001    1    1    2    0    0  0.16019440275E+03  0.61025297469E+02 -0.49432162286E+03  0.53839502266E+03  0.12700000000E+03 0.  0.
<mgrwt>
<rscale>  0 0.52708027E+03</rscale>
<asrwt>0</asrwt>
<pdfrwt beam="1">  1        2 0.92957432E-01 0.52708027E+03</pdfrwt>
<pdfrwt beam="2">  1       -2 0.15248016E-01 0.52708027E+03</pdfrwt>
<totfact> 0.16747702E+03</totfact>
</mgrwt>
</event>
<event>
 4    1  0.9508302E-005  0.3251285E+03  0.7818608E-02  0.1073313E+00
          2   -1    0    0  501    0  0.00000000000E+00  0.00000000000E+00  0.90116401312E+03  0.90116401312E+03  0.25500000000E-02 0.  1.
         -2   -1    0    0    0  501 -0.00000000000E+00 -0.00000000000E+00 -0.29325554928E+02  0.29325555038E+02  0.25500000000E-02 0. -1.
    5000001    1    1    2    0    0  0.61274850724E+02 -0.39135215556E+02  0.63852899487E+03  0.65508354407E+03  0.12700000000E+03 0.  0.
   -5000001    1    1    2    0    0 -0.61274850724E+02  0.39135215556E+02  0.23330946332E+03  0.27540602409E+03  0.12700000000E+03 0.  0.
<mgrwt>
<rscale>  0 0.32512850E+03</rscale>
<asrwt>0</asrwt>
<pdfrwt beam="1">  1        2 0.12873770E+00 0.32512850E+03</pdfrwt>
<pdfrwt beam="2">  1       -2 0.41893657E-02 0.32512850E+03</pdfrwt>
<totfact> 0.86062114E+03</totfact>
</mgrwt>
</event>
<event>
 4    1  0.9508302E-005  0.2966101E+03  0.7818608E-02  0.1086948E+00
         -2   -1    0    0    0  501 -0.00000000000E+00  0.00000000000E+00  0.29164641997E+02  0.29164642109E+02  0.25500000000E-02 0. -1.
          2   -1    0    0  501    0  0.00000000000E+00 -0.00000000000E+00 -0.75414568780E+03  0.75414568780E+03  0.25500000000E-02 0.  1.
    5000001    1    1    2    0    0 -0.22473199955E+02 -0.69863543089E+02 -0.30466622577E+03  0.33813676004E+03  0.12700000000E+03 0.  0.
   -5000001    1    1    2    0    0  0.22473199955E+02  0.69863543089E+02 -0.42031482003E+03  0.44517356987E+03  0.12700000000E+03 0.  0.
<mgrwt>
<rscale>  0 0.29661011E+03</rscale>
<asrwt>0</asrwt>
<pdfrwt beam="1">  1        2 0.10773509E+00 0.29661011E+03</pdfrwt>
<pdfrwt beam="2">  1       -2 0.41663779E-02 0.29661011E+03</pdfrwt>
<totfact> 0.10828913E+04</totfact>
</mgrwt>
</event>
<event>
 4    1  0.9508302E-005  0.4351921E+03  0.7818608E-02  0.1032232E+00
         -2   -1    0    0    0  501 -0.00000000000E+00  0.00000000000E+00  0.21155163087E+02  0.21155163241E+02  0.25500000000E-02 0. -1.
          2   -1    0    0  501    0  0.00000000000E+00 -0.00000000000E+00 -0.22381320987E+04  0.22381320987E+04  0.25500000000E-02 0.  1.
    5000001    1    1    2    0    0  0.67164628870E+02  0.13671594854E+03 -0.64366446590E+03  0.67352452266E+03  0.12700000000E+03 0.  0.
   -5000001    1    1    2    0    0 -0.67164628870E+02 -0.13671594854E+03 -0.15733124697E+04  0.15857627393E+04  0.12700000000E+03 0.  0.
<mgrwt>
<rscale>  0 0.43519214E+03</rscale>
<asrwt>0</asrwt>
<pdfrwt beam="1">  1        2 0.31973301E+00 0.43519214E+03</pdfrwt>
<pdfrwt beam="2">  1       -2 0.30221676E-02 0.43519214E+03</pdfrwt>
<totfact> 0.28095044E+03</totfact>
</mgrwt>
</event>
<event>
 4    1  0.9508302E-005  0.4752847E+03  0.7818608E-02  0.1020439E+00
         -2   -1    0    0    0  501 -0.00000000000E+00  0.00000000000E+00  0.18686720412E+03  0.18686720414E+03  0.25500000000E-02 0. -1.
          2   -1    0    0  501    0  0.00000000000E+00 -0.00000000000E+00 -0.30221397425E+03  0.30221397426E+03  0.25500000000E-02 0.  1.
    5000001    1    1    2    0    0 -0.96949169211E+02 -0.10809160459E+03 -0.20048949437E+03  0.27822288502E+03  0.12700000000E+03 0.  0.
   -5000001    1    1    2    0    0  0.96949169211E+02  0.10809160459E+03  0.85142724251E+02  0.21085829338E+03  0.12700000000E+03 0.  0.
<mgrwt>
<rscale>  0 0.47528467E+03</rscale>
<asrwt>0</asrwt>
<pdfrwt beam="1">  1        2 0.43173425E-01 0.47528467E+03</pdfrwt>
<pdfrwt beam="2">  1       -2 0.26695315E-01 0.47528467E+03</pdfrwt>
<totfact> 0.14983164E+03</totfact>
</mgrwt>
</event>
<event>
 4    1  0.9508302E-005  0.2968623E+03  0.7818608E-02  0.1086820E+00
          2   -1    0    0  501    0  0.00000000000E+00  0.00000000000E+00  0.39086545837E+03  0.39086545838E+03  0.25500000000E-02 0.  1.
         -2   -1    0    0    0  501 -0.00000000000E+00 -0.00000000000E+00 -0.56366740621E+02  0.56366740679E+02  0.25500000000E-02 0. -1.
    5000001    1    1    2    0    0  0.46212795757E+02  0.66414200497E+01  0.25917341960E+03  0.29236893197E+03  0.12700000000E+03 0.  0.
   -5000001    1    1    2    0    0 -0.46212795757E+02 -0.66414200497E+01  0.75325298144E+02  0.15486326709E+03  0.12700000000E+03 0.  0.
<mgrwt>
<rscale>  0 0.29686234E+03</rscale>
<asrwt>0</asrwt>
<pdfrwt beam="1">  1        2 0.55837922E-01 0.29686234E+03</pdfrwt>
<pdfrwt beam="2">  1       -2 0.80523916E-02 0.29686234E+03</pdfrwt>
<totfact> 0.82863374E+03</totfact>
</mgrwt>
</event>
<event>
 4    1  0.9508302E-005  0.3184956E+03  0.7818608E-02  0.1076344E+00
         -2   -1    0    0    0  501 -0.00000000000E+00  0.00000000000E+00  0.31186187962E+02  0.31186188066E+02  0.25500000000E-02 0. -1.
          2   -1    0    0  501    0  0.00000000000E+00 -0.00000000000E+00 -0.81317617988E+03  0.81317617988E+03  0.25500000000E-02 0.  1.
    5000001    1    1    2    0    0  0.18925187944E+02 -0.66729836142E+02 -0.21474534825E+03  0.25895095745E+03  0.12700000000E+03 0.  0.
   -5000001    1    1    2    0    0 -0.18925187944E+02  0.66729836142E+02 -0.56724464367E+03  0.58541141049E+03  0.12700000000E+03 0.  0.
<mgrwt>
<rscale>  0 0.31849562E+03</rscale>
<asrwt>0</asrwt>
<pdfrwt beam="1">  1        2 0.11616801E+00 0.31849562E+03</pdfrwt>
<pdfrwt beam="2">  1       -2 0.44551702E-02 0.31849562E+03</pdfrwt>
<totfact> 0.89353413E+03</totfact>
</mgrwt>
</event>
<event>
 4    1  0.9508302E-005  0.2608814E+03  0.7818608E-02  0.1106615E+00
          2   -1    0    0  501    0  0.00000000000E+00  0.00000000000E+00  0.56413955872E+03  0.56413955872E+03  0.25500000000E-02 0.  1.
         -2   -1    0    0    0  501 -0.00000000000E+00 -0.00000000000E+00 -0.30160571869E+02  0.30160571977E+02  0.25500000000E-02 0. -1.
    5000001    1    1    2    0    0  0.88628325149E+01 -0.27922280239E+02  0.27895048021E+03  0.30789701841E+03  0.12700000000E+03 0.  0.
   -5000001    1    1    2    0    0 -0.88628325149E+01  0.27922280239E+02  0.25502850664E+03  0.28640311229E+03  0.12700000000E+03 0.  0.
<mgrwt>
<rscale>  0 0.26088137E+03</rscale>
<asrwt>0</asrwt>
<pdfrwt beam="1">  1        2 0.80591362E-01 0.26088137E+03</pdfrwt>
<pdfrwt beam="2">  1       -2 0.43086533E-02 0.26088137E+03</pdfrwt>
<totfact> 0.14369281E+04</totfact>
</mgrwt>
</event>
<event>
 4    1  0.9508302E-005  0.6329706E+03  0.7818608E-02  0.9839269E-01
          2   -1    0    0  501    0  0.00000000000E+00  0.00000000000E+00  0.42070056140E+03  0.42070056141E+03  0.25500000000E-02 0.  1.
         -2   -1    0    0    0  501 -0.00000000000E+00 -0.00000000000E+00 -0.23808605080E+03  0.23808605081E+03  0.25500000000E-02 0. -1.
    5000001    1    1    2    0    0  0.17465947519E+03 -0.91839502734E+02  0.31232048052E+03  0.39065779026E+03  0.12700000000E+03 0.  0.
   -5000001    1    1    2    0    0 -0.17465947519E+03  0.91839502734E+02 -0.12970596992E+03  0.26812882196E+03  0.12700000000E+03 0.  0.
<mgrwt>
<rscale>  0 0.63297057E+03</rscale>
<asrwt>0</asrwt>
<pdfrwt beam="1">  1        2 0.60100080E-01 0.63297057E+03</pdfrwt>
<pdfrwt beam="2">  1       -2 0.34012293E-01 0.63297057E+03</pdfrwt>
<totfact> 0.66449112E+02</totfact>
</mgrwt>
</event>
<event>
 4    1  0.9508302E-005  0.6319081E+03  0.7818608E-02  0.9841332E-01
          2   -1    0    0  501    0  0.00000000000E+00  0.00000000000E+00  0.73377387477E+03  0.73377387477E+03  0.25500000000E-02 0.  1.
         -2   -1    0    0    0  501 -0.00000000000E+00 -0.00000000000E+00 -0.13604593415E+03  0.13604593418E+03  0.25500000000E-02 0. -1.
    5000001    1    1    2    0    0  0.22478657963E+03  0.17398519748E+03  0.22476164328E+03  0.38398782743E+03  0.12700000000E+03 0.  0.
   -5000001    1    1    2    0    0 -0.22478657963E+03 -0.17398519748E+03  0.37296629733E+03  0.48583198152E+03  0.12700000000E+03 0.  0.
<mgrwt>
<rscale>  0 0.63190807E+03</rscale>
<asrwt>0</asrwt>
<pdfrwt beam="1">  1        2 0.10482484E+00 0.63190807E+03</pdfrwt>
<pdfrwt beam="2">  1       -2 0.19435133E-01 0.63190807E+03</pdfrwt>
<totfact> 0.95477867E+02</totfact>
</mgrwt>
</event>
<event>
 4    1  0.9508302E-005  0.5277693E+03  0.7818608E-02  0.1006775E+00
         -2   -1    0    0    0  501 -0.00000000000E+00  0.00000000000E+00  0.39659768353E+02  0.39659768435E+02  0.25500000000E-02 0. -1.
          2   -1    0    0  501    0  0.00000000000E+00 -0.00000000000E+00 -0.17558123137E+04  0.17558123137E+04  0.25500000000E-02 0.  1.
    5000001    1    1    2    0    0  0.19096286716E+03  0.12881853021E+03 -0.92984797536E+03  0.96633704661E+03  0.12700000000E+03 0.  0.
   -5000001    1    1    2    0    0 -0.19096286716E+03 -0.12881853021E+03 -0.78630456996E+03  0.82913503551E+03  0.12700000000E+03 0.  0.
<mgrwt>
<rscale>  0 0.52776930E+03</rscale>
<asrwt>0</asrwt>
<pdfrwt beam="1">  1        2 0.25083028E+00 0.52776930E+03</pdfrwt>
<pdfrwt beam="2">  1       -2 0.56656823E-02 0.52776930E+03</pdfrwt>
<totfact> 0.18621456E+03</totfact>
</mgrwt>
</event>
<event>
 4    1  0.9508302E-005  0.2766768E+03  0.7818608E-02  0.1097518E+00
         -2   -1    0    0    0  501 -0.00000000000E+00  0.00000000000E+00  0.43282265973E+03  0.43282265974E+03  0.25500000000E-02 0. -1.
          2   -1    0    0  501    0  0.00000000000E+00 -0.00000000000E+00 -0.44215591812E+02  0.44215591886E+02  0.25500000000E-02 0.  1.
    5000001    1    1    2    0    0  0.35664146109E+02  0.58369087277E+01  0.12316167116E+03  0.18056521831E+03  0.12700000000E+03 0.  0.
   -5000001    1    1    2    0    0 -0.35664146109E+02 -0.58369087277E+01  0.26544539676E+03  0.29647303331E+03  0.12700000000E+03 0.  0.
<mgrwt>
<rscale>  0 0.27667678E+03</rscale>
<asrwt>0</asrwt>
<pdfrwt beam="1">  1        2 0.63165130E-02 0.27667678E+03</pdfrwt>
<pdfrwt beam="2">  1       -2 0.61831809E-01 0.27667678E+03</pdfrwt>
<totfact> 0.28601040E+03</totfact>
</mgrwt>
</event>
<event>
 4    1  0.9508302E-005  0.4509728E+03  0.7818608E-02  0.1027432E+00
         -2   -1    0    0    0  501 -0.00000000000E+00  0.00000000000E+00  0.45785891185E+02  0.45785891256E+02  0.25500000000E-02 0. -1.
          2   -1    0    0  501    0  0.00000000000E+00 -0.00000000000E+00 -0.11104758593E+04  0.11104758593E+04  0.25500000000E-02 0.  1.
    5000001    1    1    2    0    0  0.12757984506E+03  0.10133143454E+03 -0.30059016910E+03  0.36473021022E+03  0.12700000000E+03 0.  0.
   -5000001    1    1    2    0    0 -0.12757984506E+03 -0.10133143454E+03 -0.76409979903E+03  0.79153154035E+03  0.12700000000E+03 0.  0.
<mgrwt>
<rscale>  0 0.45097285E+03</rscale>
<asrwt>0</asrwt>
<pdfrwt beam="1">  1        2 0.15863939E+00 0.45097285E+03</pdfrwt>
<pdfrwt beam="2">  1       -2 0.65408423E-02 0.45097285E+03</pdfrwt>
<totfact> 0.32674884E+03</totfact>
</mgrwt>
</event>
<event>
 4    1  0.9508302E-005  0.4410947E+03  0.7818608E-02  0.1030411E+00
         -2   -1    0    0    0  501 -0.00000000000E+00  0.00000000000E+00  0.16070532237E+03  0.16070532240E+03  0.25500000000E-02 0. -1.
          2   -1    0    0  501    0  0.00000000000E+00 -0.00000000000E+00 -0.30267286530E+03  0.30267286531E+03  0.25500000000E-02 0.  1.
    5000001    1    1    2    0    0 -0.17448789550E+03 -0.40560980979E+02 -0.49430941874E+02  0.22508584333E+03  0.12700000000E+03 0.  0.
   -5000001    1    1    2    0    0  0.17448789550E+03  0.40560980979E+02 -0.92536601055E+02  0.23829234438E+03  0.12700000000E+03 0.  0.
<mgrwt>
<rscale>  0 0.44109473E+03</rscale>
<asrwt>0</asrwt>
<pdfrwt beam="1">  1        2 0.43238981E-01 0.44109473E+03</pdfrwt>
<pdfrwt beam="2">  1       -2 0.22957903E-01 0.44109473E+03</pdfrwt>
<totfact> 0.19561107E+03</totfact>
</mgrwt>
</event>
<event>
 4    1  0.9508302E-005  0.5917207E+03  0.7818608E-02  0.9922733E-01
         -2   -1    0    0    0  501 -0.00000000000E+00  0.00000000000E+00  0.70967355841E+02  0.70967355887E+02  0.25500000000E-02 0. -1.
          2   -1    0    0  501    0  0.00000000000E+00 -0.00000000000E+00 -0.12334309806E+04  0.12334309806E+04  0.25500000000E-02 0.  1.
    5000001    1    1    2    0    0  0.24381852465E+03 -0.36237859593E+02 -0.80865744148E+03  0.85487806914E+03  0.12700000000E+03 0.  0.
   -5000001    1    1    2    0    0 -0.24381852465E+03  0.36237859593E+02 -0.35380618327E+03  0.44952026735E+03  0.12700000000E+03 0.  0.
<mgrwt>
<rscale>  0 0.59172066E+03</rscale>
<asrwt>0</asrwt>
<pdfrwt beam="1">  1        2 0.17620441E+00 0.59172066E+03</pdfrwt>
<pdfrwt beam="2">  1       -2 0.10138194E-01 0.59172066E+03</pdfrwt>
<totfact> 0.13849895E+03</totfact>
</mgrwt>
</event>
<event>
 4    1  0.9508302E-005  0.2990791E+03  0.7818608E-02  0.1085702E+00
          2   -1    0    0  501    0  0.00000000000E+00  0.00000000000E+00  0.35001847437E+03  0.35001847438E+03  0.25500000000E-02 0.  1.
         -2   -1    0    0    0  501 -0.00000000000E+00 -0.00000000000E+00 -0.63888288490E+02  0.63888288541E+02  0.25500000000E-02 0. -1.
    5000001    1    1    2    0    0 -0.73203466195E+02 -0.29300668190E+02  0.13756323967E+03  0.20314999761E+03  0.12700000000E+03 0.  0.
   -5000001    1    1    2    0    0  0.73203466195E+02  0.29300668190E+02  0.14856694622E+03  0.21075676532E+03  0.12700000000E+03 0.  0.
<mgrwt>
<rscale>  0 0.29907913E+03</rscale>
<asrwt>0</asrwt>
<pdfrwt beam="1">  1        2 0.50002638E-01 0.29907913E+03</pdfrwt>
<pdfrwt beam="2">  1       -2 0.91268986E-02 0.29907913E+03</pdfrwt>
<totfact> 0.76691394E+03</totfact>
</mgrwt>
</event>
<event>
 4    1  0.9508302E-005  0.4334522E+03  0.7818608E-02  0.1032775E+00
          2   -1    0    0  501    0  0.00000000000E+00  0.00000000000E+00  0.14764321195E+03  0.14764321197E+03  0.25500000000E-02 0.  1.
         -2   -1    0    0    0  501 -0.00000000000E+00 -0.00000000000E+00 -0.31813316231E+03  0.31813316232E+03  0.25500000000E-02 0. -1.
    5000001    1    1    2    0    0  0.15501081088E+03 -0.64164260107E+02 -0.29451947144E+02  0.21246604659E+03  0.12700000000E+03 0.  0.
   -5000001    1    1    2    0    0 -0.15501081088E+03  0.64164260107E+02 -0.14103800322E+03  0.25331032770E+03  0.12700000000E+03 0.  0.
<mgrwt>
<rscale>  0 0.43345220E+03</rscale>
<asrwt>0</asrwt>
<pdfrwt beam="1">  1        2 0.21091887E-01 0.43345220E+03</pdfrwt>
<pdfrwt beam="2">  1       -2 0.45447594E-01 0.43345220E+03</pdfrwt>
<totfact> 0.12233376E+03</totfact>
</mgrwt>
</event>
<event>
 4    1  0.9508302E-005  0.3387865E+03  0.7818608E-02  0.1067314E+00
          2   -1    0    0  501    0  0.00000000000E+00  0.00000000000E+00  0.25520889841E+04  0.25520889841E+04  0.25500000000E-02 0.  1.
         -2   -1    0    0    0  501 -0.00000000000E+00 -0.00000000000E+00 -0.11243367087E+02  0.11243367376E+02  0.25500000000E-02 0. -1.
    5000001    1    1    2    0    0 -0.83079526623E+02 -0.62553338318E+02  0.95391012712E+03  0.96793008968E+03  0.12700000000E+03 0.  0.
   -5000001    1    1    2    0    0  0.83079526623E+02  0.62553338318E+02  0.15869354898E+04  0.15954022618E+04  0.12700000000E+03 0.  0.
<mgrwt>
<rscale>  0 0.33878650E+03</rscale>
<asrwt>0</asrwt>
<pdfrwt beam="1">  1        2 0.36458493E+00 0.33878650E+03</pdfrwt>
<pdfrwt beam="2">  1       -2 0.16061919E-02 0.33878650E+03</pdfrwt>
<totfact> 0.50319902E+03</totfact>
</mgrwt>
</event>
<event>
 4    1  0.9508302E-005  0.6375306E+03  0.7818608E-02  0.9830463E-01
         -2   -1    0    0    0  501 -0.00000000000E+00  0.00000000000E+00  0.14268224188E+03  0.14268224190E+03  0.25500000000E-02 0. -1.
          2   -1    0    0  501    0  0.00000000000E+00 -0.00000000000E+00 -0.71215110969E+03  0.71215110969E+03  0.25500000000E-02 0.  1.
    5000001    1    1    2    0    0  0.26518224662E+03 -0.84923237646E+02 -0.40427890026E+03  0.50705424701E+03  0.12700000000E+03 0.  0.
   -5000001    1    1    2    0    0 -0.26518224662E+03  0.84923237646E+02 -0.16518996755E+03  0.34777910459E+03  0.12700000000E+03 0.  0.
<mgrwt>
<rscale>  0 0.63753060E+03</rscale>
<asrwt>0</asrwt>
<pdfrwt beam="1">  1        2 0.10173587E+00 0.63753060E+03</pdfrwt>
<pdfrwt beam="2">  1       -2 0.20383178E-01 0.63753060E+03</pdfrwt>
<totfact> 0.91178217E+02</totfact>
</mgrwt>
</event>
<event>
 4    1  0.9508302E-005  0.4184702E+03  0.7818608E-02  0.1037565E+00
          2   -1    0    0  501    0  0.00000000000E+00  0.00000000000E+00  0.10488983202E+04  0.10488983202E+04  0.25500000000E-02 0.  1.
         -2   -1    0    0    0  501 -0.00000000000E+00 -0.00000000000E+00 -0.41738388153E+02  0.41738388231E+02  0.25500000000E-02 0. -1.
    5000001    1    1    2    0    0  0.50953095862E+02 -0.11468884355E+03  0.78789484147E+03  0.80787191437E+03  0.12700000000E+03 0.  0.
   -5000001    1    1    2    0    0 -0.50953095862E+02  0.11468884355E+03  0.21926509055E+03  0.28276479404E+03  0.12700000000E+03 0.  0.
<mgrwt>
<rscale>  0 0.41847019E+03</rscale>
<asrwt>0</asrwt>
<pdfrwt beam="1">  1        2 0.14984260E+00 0.41847019E+03</pdfrwt>
<pdfrwt beam="2">  1       -2 0.59626275E-02 0.41847019E+03</pdfrwt>
<totfact> 0.40954553E+03</totfact>
</mgrwt>
</event>
<event>
 4    1  0.9508302E-005  0.4296339E+03  0.7818608E-02  0.1033976E+00
         -2   -1    0    0    0  501 -0.00000000000E+00  0.00000000000E+00  0.44105785121E+03  0.44105785122E+03  0.25500000000E-02 0. -1.
          2   -1    0    0  501    0  0.00000000000E+00 -0.00000000000E+00 -0.10462644588E+03  0.10462644591E+03  0.25500000000E-02 0.  1.
    5000001    1    1    2    0    0 -0.15494291283E+03 -0.88391007731E+01  0.70393124465E+02  0.21253147511E+03  0.12700000000E+03 0.  0.
   -5000001    1    1    2    0    0  0.15494291283E+03  0.88391007731E+01  0.26603828086E+03  0.33315282203E+03  0.12700000000E+03 0.  0.
<mgrwt>
<rscale>  0 0.42963387E+03</rscale>
<asrwt>0</asrwt>
<pdfrwt beam="1">  1        2 0.14946635E-01 0.42963387E+03</pdfrwt>
<pdfrwt beam="2">  1       -2 0.63008265E-01 0.42963387E+03</pdfrwt>
<totfact> 0.94167369E+02</totfact>
</mgrwt>
</event>
<event>
 4    1  0.9508302E-005  0.9144801E+03  0.7818608E-02  0.9407659E-01
          2   -1    0    0  501    0  0.00000000000E+00  0.00000000000E+00  0.22445643616E+03  0.22445643618E+03  0.25500000000E-02 0.  1.
         -2   -1    0    0    0  501 -0.00000000000E+00 -0.00000000000E+00 -0.93144343163E+03  0.93144343163E+03  0.25500000000E-02 0. -1.
    5000001    1    1    2    0    0  0.14584556255E+03 -0.36864394625E+03 -0.11443370236E+03  0.43173297240E+03  0.12700000000E+03 0.  0.
   -5000001    1    1    2    0    0 -0.14584556255E+03  0.36864394625E+03 -0.59255329311E+03  0.72416689541E+03  0.12700000000E+03 0.  0.
<mgrwt>
<rscale>  0 0.91448012E+03</rscale>
<asrwt>0</asrwt>
<pdfrwt beam="1">  1        2 0.32065206E-01 0.91448012E+03</pdfrwt>
<pdfrwt beam="2">  1       -2 0.13306335E+00 0.91448012E+03</pdfrwt>
<totfact> 0.67741826E+01</totfact>
</mgrwt>
</event>
<event>
 4    1  0.9508302E-005  0.9037646E+03  0.7818608E-02  0.9420888E-01
         -2   -1    0    0    0  501 -0.00000000000E+00  0.00000000000E+00  0.70310008783E+02  0.70310008829E+02  0.25500000000E-02 0. -1.
          2   -1    0    0  501    0  0.00000000000E+00 -0.00000000000E+00 -0.29042467453E+04  0.29042467453E+04  0.25500000000E-02 0.  1.
    5000001    1    1    2    0    0  0.21191432754E+03  0.27081074261E+03 -0.22866585110E+04  0.23158545478E+04  0.12700000000E+03 0.  0.
   -5000001    1    1    2    0    0 -0.21191432754E+03 -0.27081074261E+03 -0.54727822551E+03  0.65870220635E+03  0.12700000000E+03 0.  0.
<mgrwt>
<rscale>  0 0.90376460E+03</rscale>
<asrwt>0</asrwt>
<pdfrwt beam="1">  1        2 0.41489232E+00 0.90376460E+03</pdfrwt>
<pdfrwt beam="2">  1       -2 0.10044289E-01 0.90376460E+03</pdfrwt>
<totfact> 0.18699660E+02</totfact>
</mgrwt>
</event>
<event>
 4    1  0.9508302E-005  0.3498477E+03  0.7818608E-02  0.1062678E+00
         -2   -1    0    0    0  501 -0.00000000000E+00  0.00000000000E+00  0.36910401882E+02  0.36910401970E+02  0.25500000000E-02 0. -1.
          2   -1    0    0  501    0  0.00000000000E+00 -0.00000000000E+00 -0.82898998795E+03  0.82898998796E+03  0.25500000000E-02 0.  1.
    5000001    1    1    2    0    0  0.65302932565E+02 -0.22125493396E+02 -0.63999943252E+03  0.65611148754E+03  0.12700000000E+03 0.  0.
   -5000001    1    1    2    0    0 -0.65302932565E+02  0.22125493396E+02 -0.15208015355E+03  0.20978890238E+03  0.12700000000E+03 0.  0.
<mgrwt>
<rscale>  0 0.34984770E+03</rscale>
<asrwt>0</asrwt>
<pdfrwt beam="1">  1        2 0.11842713E+00 0.34984770E+03</pdfrwt>
<pdfrwt beam="2">  1       -2 0.52729151E-02 0.34984770E+03</pdfrwt>
<totfact> 0.67609934E+03</totfact>
</mgrwt>
</event>
<event>
 4    1  0.9508302E-005  0.3666415E+03  0.7818608E-02  0.1055985E+00
         -2   -1    0    0    0  501 -0.00000000000E+00  0.00000000000E+00  0.60508221228E+02  0.60508221281E+02  0.25500000000E-02 0. -1.
          2   -1    0    0  501    0  0.00000000000E+00 -0.00000000000E+00 -0.55540396887E+03  0.55540396887E+03  0.25500000000E-02 0.  1.
    5000001    1    1    2    0    0  0.11734368311E+03  0.37978793301E+02 -0.32740673240E+03  0.37220437548E+03  0.12700000000E+03 0.  0.
   -5000001    1    1    2    0    0 -0.11734368311E+03 -0.37978793301E+02 -0.16748901525E+03  0.24370781468E+03  0.12700000000E+03 0.  0.
<mgrwt>
<rscale>  0 0.36664155E+03</rscale>
<asrwt>0</asrwt>
<pdfrwt beam="1">  1        2 0.79343421E-01 0.36664155E+03</pdfrwt>
<pdfrwt beam="2">  1       -2 0.86440319E-02 0.36664155E+03</pdfrwt>
<totfact> 0.50570259E+03</totfact>
</mgrwt>
</event>
<event>
 4    1  0.9508302E-005  0.3521428E+03  0.7818608E-02  0.1061739E+00
         -2   -1    0    0    0  501 -0.00000000000E+00  0.00000000000E+00  0.16727632045E+02  0.16727632239E+02  0.25500000000E-02 0.  1.
          2   -1    0    0  501    0  0.00000000000E+00 -0.00000000000E+00 -0.18532888104E+04  0.18532888104E+04  0.25500000000E-02 0. -1.
    5000001    1    1    2    0    0 -0.11995998621E+02 -0.10606676297E+03 -0.12314619326E+04  0.12425866383E+04  0.12700000000E+03 0.  0.
   -5000001    1    1    2    0    0  0.11995998621E+02  0.10606676297E+03 -0.60509924582E+03  0.62742980442E+03  0.12700000000E+03 0.  0.
<mgrwt>
<rscale>  0 0.35214277E+03</rscale>
<asrwt>0</asrwt>
<pdfrwt beam="1">  1        2 0.26475541E+00 0.35214277E+03</pdfrwt>
<pdfrwt beam="2">  1       -2 0.23896629E-02 0.35214277E+03</pdfrwt>
<totfact> 0.62027637E+03</totfact>
</mgrwt>
</event>
<event>
 4    1  0.9508302E-005  0.5347891E+03  0.7818608E-02  0.1005077E+00
          2   -1    0    0  501    0  0.00000000000E+00  0.00000000000E+00  0.14413949310E+04  0.14413949310E+04  0.25500000000E-02 0.  1.
         -2   -1    0    0    0  501 -0.00000000000E+00 -0.00000000000E+00 -0.49604622983E+02  0.49604623049E+02  0.25500000000E-02 0. -1.
    5000001    1    1    2    0    0  0.10861762123E+03 -0.11091136933E+03  0.20286790999E+03  0.28527794936E+03  0.12700000000E+03 0.  0.
   -5000001    1    1    2    0    0 -0.10861762123E+03  0.11091136933E+03  0.11889223981E+04  0.12057216047E+04  0.12700000000E+03 0.  0.
<mgrwt>
<rscale>  0 0.53478913E+03</rscale>
<asrwt>0</asrwt>
<pdfrwt beam="1">  1        2 0.20591355E+00 0.53478913E+03</pdfrwt>
<pdfrwt beam="2">  1       -2 0.70863749E-02 0.53478913E+03</pdfrwt>
<totfact> 0.19003787E+03</totfact>
</mgrwt>
</event>
<event>
 4    1  0.9508302E-005  0.5132458E+03  0.7818608E-02  0.1010378E+00
          2   -1    0    0  501    0  0.00000000000E+00  0.00000000000E+00  0.43989052803E+02  0.43989052877E+02  0.25500000000E-02 0.  1.
         -2   -1    0    0    0  501 -0.00000000000E+00 -0.00000000000E+00 -0.14970843598E+04  0.14970843598E+04  0.25500000000E-02 0. -1.
    5000001    1    1    2    0    0  0.14033330773E+03 -0.16657562210E+03 -0.87009115988E+03  0.90588547932E+03  0.12700000000E+03 0.  0.
   -5000001    1    1    2    0    0 -0.14033330773E+03  0.16657562210E+03 -0.58300414711E+03  0.63518793336E+03  0.12700000000E+03 0.  0.
<mgrwt>
<rscale>  0 0.51324584E+03</rscale>
<asrwt>0</asrwt>
<pdfrwt beam="1">  1        2 0.62841514E-02 0.51324584E+03</pdfrwt>
<pdfrwt beam="2">  1       -2 0.21386916E+00 0.51324584E+03</pdfrwt>
<totfact> 0.13589243E+02</totfact>
</mgrwt>
</event>
<event>
 4    1  0.9508302E-005  0.3212108E+03  0.7818608E-02  0.1075093E+00
          2   -1    0    0  501    0  0.00000000000E+00  0.00000000000E+00  0.59481304248E+02  0.59481304303E+02  0.25500000000E-02 0.  1.
         -2   -1    0    0    0  501 -0.00000000000E+00 -0.00000000000E+00 -0.43365056381E+03  0.43365056382E+03  0.25500000000E-02 0. -1.
    5000001    1    1    2    0    0  0.40966885890E+02 -0.73034622750E+02 -0.10801279877E+03  0.18656930765E+03  0.12700000000E+03 0.  0.
   -5000001    1    1    2    0    0 -0.40966885890E+02  0.73034622750E+02 -0.26615646079E+03  0.30656256047E+03  0.12700000000E+03 0.  0.
<mgrwt>
<rscale>  0 0.32121084E+03</rscale>
<asrwt>0</asrwt>
<pdfrwt beam="1">  1        2 0.84973294E-02 0.32121084E+03</pdfrwt>
<pdfrwt beam="2">  1       -2 0.61950079E-01 0.32121084E+03</pdfrwt>
<totfact> 0.19539414E+03</totfact>
</mgrwt>
</event>
<event>
 4    1  0.9508302E-005  0.3036358E+03  0.7818608E-02  0.1083437E+00
          2   -1    0    0  501    0  0.00000000000E+00  0.00000000000E+00  0.25202244881E+03  0.25202244883E+03  0.25500000000E-02 0.  1.
         -2   -1    0    0    0  501 -0.00000000000E+00 -0.00000000000E+00 -0.91454855260E+02  0.91454855296E+02  0.25500000000E-02 0. -1.
    5000001    1    1    2    0    0 -0.44890343065E+01 -0.69194452890E+02  0.28301398302E+02  0.14743809849E+03  0.12700000000E+03 0.  0.
   -5000001    1    1    2    0    0  0.44890343065E+01  0.69194452890E+02  0.13226619525E+03  0.19603920563E+03  0.12700000000E+03 0.  0.
<mgrwt>
<rscale>  0 0.30363581E+03</rscale>
<asrwt>0</asrwt>
<pdfrwt beam="1">  1        2 0.36003207E-01 0.30363581E+03</pdfrwt>
<pdfrwt beam="2">  1       -2 0.13064979E-01 0.30363581E+03</pdfrwt>
<totfact> 0.61528884E+03</totfact>
</mgrwt>
</event>
<event>
 4    1  0.9508302E-005  0.4832179E+03  0.7818608E-02  0.1018255E+00
          2   -1    0    0  501    0  0.00000000000E+00  0.00000000000E+00  0.18069081019E+04  0.18069081019E+04  0.25500000000E-02 0.  1.
         -2   -1    0    0    0  501 -0.00000000000E+00 -0.00000000000E+00 -0.32306501601E+02  0.32306501701E+02  0.25500000000E-02 0. -1.
    5000001    1    1    2    0    0  0.85623752565E+02 -0.14874940379E+03  0.45688136696E+03  0.50430882960E+03  0.12700000000E+03 0.  0.
   -5000001    1    1    2    0    0 -0.85623752565E+02  0.14874940379E+03  0.13177202333E+04  0.13349057740E+04  0.12700000000E+03 0.  0.
<mgrwt>
<rscale>  0 0.48321788E+03</rscale>
<asrwt>0</asrwt>
<pdfrwt beam="1">  1        2 0.25812985E+00 0.48321788E+03</pdfrwt>
<pdfrwt beam="2">  1       -2 0.46152124E-02 0.48321788E+03</pdfrwt>
<totfact> 0.24140770E+03</totfact>
</mgrwt>
</event>
<event>
 4    1  0.9508302E-005  0.2999527E+03  0.7818608E-02  0.1085264E+00
         -2   -1    0    0    0  501 -0.00000000000E+00  0.00000000000E+00  0.15276840298E+02  0.15276840511E+02  0.25500000000E-02 0. -1.
          2   -1    0    0  501    0  0.00000000000E+00 -0.00000000000E+00 -0.14723535553E+04  0.14723535553E+04  0.25500000000E-02 0.  1.
    5000001    1    1    2    0    0  0.48017450890E+02 -0.58465421103E+02 -0.85400900143E+03  0.86670886437E+03  0.12700000000E+03 0.  0.
   -5000001    1    1    2    0    0 -0.48017450890E+02  0.58465421103E+02 -0.60306771355E+03  0.62092153142E+03  0.12700000000E+03 0.  0.
<mgrwt>
<rscale>  0 0.29995273E+03</rscale>
<asrwt>0</asrwt>
<pdfrwt beam="1">  1        2 0.21033613E+00 0.29995273E+03</pdfrwt>
<pdfrwt beam="2">  1       -2 0.21824067E-02 0.29995273E+03</pdfrwt>
<totfact> 0.10972149E+04</totfact>
</mgrwt>
</event>
<event>
 4    1  0.9508302E-005  0.4156662E+03  0.7818608E-02  0.1038486E+00
         -2   -1    0    0    0  501 -0.00000000000E+00  0.00000000000E+00  0.26520935828E+02  0.26520935951E+02  0.25500000000E-02 0. -1.
          2   -1    0    0  501    0  0.00000000000E+00 -0.00000000000E+00 -0.16286980147E+04  0.16286980147E+04  0.25500000000E-02 0.  1.
    5000001    1    1    2    0    0  0.59789388919E+02 -0.14510364799E+03 -0.60455909171E+03  0.63737785893E+03  0.12700000000E+03 0.  0.
   -5000001    1    1    2    0    0 -0.59789388919E+02  0.14510364799E+03 -0.99761798719E+03  0.10178410918E+04  0.12700000000E+03 0.  0.
<mgrwt>
<rscale>  0 0.41566619E+03</rscale>
<asrwt>0</asrwt>
<pdfrwt beam="1">  1        2 0.23267108E+00 0.41566619E+03</pdfrwt>
<pdfrwt beam="2">  1       -2 0.37887061E-02 0.41566619E+03</pdfrwt>
<totfact> 0.40160397E+03</totfact>
</mgrwt>
</event>
<event>
 4    1  0.9508302E-005  0.3134050E+03  0.7818608E-02  0.1078725E+00
         -2   -1    0    0    0  501 -0.00000000000E+00  0.00000000000E+00  0.75269419677E+02  0.75269419720E+02  0.25500000000E-02 0. -1.
          2   -1    0    0  501    0  0.00000000000E+00 -0.00000000000E+00 -0.32623704677E+03  0.32623704678E+03  0.25500000000E-02 0.  1.
    5000001    1    1    2    0    0  0.52998858482E+02 -0.38498141347E+02 -0.20787115214E+03  0.25225067251E+03  0.12700000000E+03 0.  0.
   -5000001    1    1    2    0    0 -0.52998858482E+02  0.38498141347E+02 -0.43096474952E+02  0.14925579399E+03  0.12700000000E+03 0.  0.
<mgrwt>
<rscale>  0 0.31340500E+03</rscale>
<asrwt>0</asrwt>
<pdfrwt beam="1">  1        2 0.46605292E-01 0.31340500E+03</pdfrwt>
<pdfrwt beam="2">  1       -2 0.10752774E-01 0.31340500E+03</pdfrwt>
<totfact> 0.63834487E+03</totfact>
</mgrwt>
</event>
<event>
 4    1  0.9508302E-005  0.2864330E+03  0.7818608E-02  0.1092226E+00
          2   -1    0    0  501    0  0.00000000000E+00  0.00000000000E+00  0.25652706325E+04  0.25652706325E+04  0.25500000000E-02 0.  1.
         -2   -1    0    0    0  501 -0.00000000000E+00 -0.00000000000E+00 -0.79956349736E+01  0.79956353802E+01  0.25500000000E-02 0. -1.
    5000001    1    1    2    0    0  0.97094499605E+01  0.54367774433E+02  0.95077809452E+03  0.96081117465E+03  0.12700000000E+03 0.  0.
   -5000001    1    1    2    0    0 -0.97094499605E+01 -0.54367774433E+02  0.16064969030E+04  0.16124550932E+04  0.12700000000E+03 0.  0.
<mgrwt>
<rscale>  0 0.28643302E+03</rscale>
<asrwt>0</asrwt>
<pdfrwt beam="1">  1        2 0.36646788E+00 0.28643302E+03</pdfrwt>
<pdfrwt beam="2">  1       -2 0.11422316E-02 0.28643302E+03</pdfrwt>
<totfact> 0.81716582E+03</totfact>
</mgrwt>
</event>
<event>
 4    1  0.9508302E-005  0.3917481E+03  0.7818608E-02  0.1046675E+00
          2   -1    0    0  501    0  0.00000000000E+00  0.00000000000E+00  0.79198498955E+03  0.79198498955E+03  0.25500000000E-02 0.  1.
         -2   -1    0    0    0  501 -0.00000000000E+00 -0.00000000000E+00 -0.48443659084E+02  0.48443659151E+02  0.25500000000E-02 0. -1.
    5000001    1    1    2    0    0  0.12398246716E+03  0.15552098820E+02  0.19716498766E+03  0.26573775099E+03  0.12700000000E+03 0.  0.
   -5000001    1    1    2    0    0 -0.12398246716E+03 -0.15552098820E+02  0.54637634281E+03  0.57469089772E+03  0.12700000000E+03 0.  0.
<mgrwt>
<rscale>  0 0.39174814E+03</rscale>
<asrwt>0</asrwt>
<pdfrwt beam="1">  1        2 0.11314071E+00 0.39174814E+03</pdfrwt>
<pdfrwt beam="2">  1       -2 0.69205231E-02 0.39174814E+03</pdfrwt>
<totfact> 0.47120849E+03</totfact>
</mgrwt>
</event>
<event>
 4    1  0.9508302E-005  0.3607093E+03  0.7818608E-02  0.1058303E+00
         -2   -1    0    0    0  501 -0.00000000000E+00  0.00000000000E+00  0.70653845460E+02  0.70653845506E+02  0.25500000000E-02 0. -1.
          2   -1    0    0  501    0  0.00000000000E+00 -0.00000000000E+00 -0.46038246828E+03  0.46038246829E+03  0.25500000000E-02 0.  1.
    5000001    1    1    2    0    0 -0.32416974047E+02  0.12370132922E+03 -0.20483978365E+03  0.27283917611E+03  0.12700000000E+03 0.  0.
   -5000001    1    1    2    0    0  0.32416974047E+02 -0.12370132922E+03 -0.18488883917E+03  0.25819713768E+03  0.12700000000E+03 0.  0.
<mgrwt>
<rscale>  0 0.36070926E+03</rscale>
<asrwt>0</asrwt>
<pdfrwt beam="1">  1        2 0.65768922E-01 0.36070926E+03</pdfrwt>
<pdfrwt beam="2">  1       -2 0.10093407E-01 0.36070926E+03</pdfrwt>
<totfact> 0.48734562E+03</totfact>
</mgrwt>
</event>
<event>
 4    1  0.9508302E-005  0.7209966E+03  0.7818608E-02  0.9681984E-01
         -2   -1    0    0    0  501 -0.00000000000E+00  0.00000000000E+00  0.62366780010E+02  0.62366780062E+02  0.25500000000E-02 0. -1.
          2   -1    0    0  501    0  0.00000000000E+00 -0.00000000000E+00 -0.20837862649E+04  0.20837862649E+04  0.25500000000E-02 0.  1.
    5000001    1    1    2    0    0 -0.15191489635E+03  0.26771827592E+03 -0.59955689708E+03  0.68581971671E+03  0.12700000000E+03 0.  0.
   -5000001    1    1    2    0    0  0.15191489635E+03 -0.26771827592E+03 -0.14218625878E+04  0.14603333283E+04  0.12700000000E+03 0.  0.
<mgrwt>
<rscale>  0 0.72099664E+03</rscale>
<asrwt>0</asrwt>
<pdfrwt beam="1">  1        2 0.29768371E+00 0.72099664E+03</pdfrwt>
<pdfrwt beam="2">  1       -2 0.89095413E-02 0.72099664E+03</pdfrwt>
<totfact> 0.61535353E+02</totfact>
</mgrwt>
</event>
<event>
 4    1  0.9508302E-005  0.4084185E+03  0.7818608E-02  0.1040903E+00
          2   -1    0    0  501    0  0.00000000000E+00  0.00000000000E+00  0.13293681110E+04  0.13293681110E+04  0.25500000000E-02 0.  1.
         -2   -1    0    0    0  501 -0.00000000000E+00 -0.00000000000E+00 -0.31369357903E+02  0.31369358007E+02  0.25500000000E-02 0. -1.
    5000001    1    1    2    0    0  0.67744965789E+02  0.12192853367E+03  0.90956646335E+03  0.92892200908E+03  0.12700000000E+03 0.  0.
   -5000001    1    1    2    0    0 -0.67744965789E+02 -0.12192853367E+03  0.38843228978E+03  0.43181545995E+03  0.12700000000E+03 0.  0.
<mgrwt>
<rscale>  0 0.40841853E+03</rscale>
<asrwt>0</asrwt>
<pdfrwt beam="1">  1        2 0.18990971E+00 0.40841853E+03</pdfrwt>
<pdfrwt beam="2">  1       -2 0.44813373E-02 0.40841853E+03</pdfrwt>
<totfact> 0.44389268E+03</totfact>
</mgrwt>
</event>
<event>
 4    1  0.9508302E-005  0.2934684E+03  0.7818608E-02  0.1088552E+00
          2   -1    0    0  501    0  0.00000000000E+00  0.00000000000E+00  0.74085292287E+03  0.74085292288E+03  0.25500000000E-02 0.  1.
         -2   -1    0    0    0  501 -0.00000000000E+00 -0.00000000000E+00 -0.29062342260E+02  0.29062342371E+02  0.25500000000E-02 0. -1.
    5000001    1    1    2    0    0  0.30982423155E+02 -0.63978508349E+02  0.40488960605E+03  0.43025312685E+03  0.12700000000E+03 0.  0.
   -5000001    1    1    2    0    0 -0.30982423155E+02  0.63978508349E+02  0.30690097456E+03  0.33966213840E+03  0.12700000000E+03 0.  0.
<mgrwt>
<rscale>  0 0.29346837E+03</rscale>
<asrwt>0</asrwt>
<pdfrwt beam="1">  1        2 0.10583614E+00 0.29346837E+03</pdfrwt>
<pdfrwt beam="2">  1       -2 0.41517627E-02 0.29346837E+03</pdfrwt>
<totfact> 0.11119890E+04</totfact>
</mgrwt>
</event>
<event>
 4    1  0.9508302E-005  0.6114742E+03  0.7818608E-02  0.9881883E-01
          2   -1    0    0  501    0  0.00000000000E+00  0.00000000000E+00  0.79375108633E+02  0.79375108674E+02  0.25500000000E-02 0.  1.
         -2   -1    0    0    0  501 -0.00000000000E+00 -0.00000000000E+00 -0.11776385333E+04  0.11776385333E+04  0.25500000000E-02 0. -1.
    5000001    1    1    2    0    0 -0.25851842512E+03 -0.95293049613E-01 -0.75992370049E+03  0.81267755954E+03  0.12700000000E+03 0.  0.
   -5000001    1    1    2    0    0  0.25851842512E+03  0.95293049613E-01 -0.33833972421E+03  0.44433608247E+03  0.12700000000E+03 0.  0.
<mgrwt>
<rscale>  0 0.61147424E+03</rscale>
<asrwt>0</asrwt>
<pdfrwt beam="1">  1        2 0.11339302E-01 0.61147424E+03</pdfrwt>
<pdfrwt beam="2">  1       -2 0.16823407E+00 0.61147424E+03</pdfrwt>
<totfact> 0.12672064E+02</totfact>
</mgrwt>
</event>
<event>
 4    1  0.9508302E-005  0.4981510E+03  0.7818608E-02  0.1014263E+00
         -2   -1    0    0    0  501 -0.00000000000E+00  0.00000000000E+00  0.20026172770E+03  0.20026172772E+03  0.25500000000E-02 0. -1.
          2   -1    0    0  501    0  0.00000000000E+00 -0.00000000000E+00 -0.30978767957E+03  0.30978767958E+03  0.25500000000E-02 0.  1.
    5000001    1    1    2    0    0 -0.68768005581E+02  0.16905095526E+03  0.60178561582E+02  0.23034262163E+03  0.12700000000E+03 0.  0.
   -5000001    1    1    2    0    0  0.68768005581E+02 -0.16905095526E+03 -0.16970451345E+03  0.27970678567E+03  0.12700000000E+03 0.  0.
<mgrwt>
<rscale>  0 0.49815105E+03</rscale>
<asrwt>0</asrwt>
<pdfrwt beam="1">  1        2 0.44255383E-01 0.49815105E+03</pdfrwt>
<pdfrwt beam="2">  1       -2 0.28608818E-01 0.49815105E+03</pdfrwt>
<totfact> 0.12862715E+03</totfact>
</mgrwt>
</event>
<event>
 4    1  0.9508302E-005  0.6108459E+03  0.7818608E-02  0.9883156E-01
         -2   -1    0    0    0  501 -0.00000000000E+00  0.00000000000E+00  0.37462828714E+02  0.37462828801E+02  0.25500000000E-02 0. -1.
          2   -1    0    0  501    0  0.00000000000E+00 -0.00000000000E+00 -0.24900195158E+04  0.24900195158E+04  0.25500000000E-02 0.  1.
    5000001    1    1    2    0    0 -0.10877029399E+03  0.22208229330E+03 -0.17497009409E+04  0.17716472291E+04  0.12700000000E+03 0.  0.
   -5000001    1    1    2    0    0  0.10877029399E+03 -0.22208229330E+03 -0.70285574618E+03  0.75583511548E+03  0.12700000000E+03 0.  0.
<mgrwt>
<rscale>  0 0.61084589E+03</rscale>
<asrwt>0</asrwt>
<pdfrwt beam="1">  1        2 0.35571697E+00 0.61084589E+03</pdfrwt>
<pdfrwt beam="2">  1       -2 0.53518343E-02 0.61084589E+03</pdfrwt>
<totfact> 0.86390696E+02</totfact>
</mgrwt>
</event>
<event>
 4    1  0.9508302E-005  0.2948162E+03  0.7818608E-02  0.1087861E+00
         -2   -1    0    0    0  501 -0.00000000000E+00  0.00000000000E+00  0.11614868839E+03  0.11614868842E+03  0.25500000000E-02 0. -1.
          2   -1    0    0  501    0  0.00000000000E+00 -0.00000000000E+00 -0.18708049361E+03  0.18708049363E+03  0.25500000000E-02 0.  1.
    5000001    1    1    2    0    0 -0.63128210700E+02 -0.38248502077E+02 -0.22783793858E+02  0.14864797395E+03  0.12700000000E+03 0.  0.
   -5000001    1    1    2    0    0  0.63128210700E+02  0.38248502077E+02 -0.48148011365E+02  0.15458120809E+03  0.12700000000E+03 0.  0.
<mgrwt>
<rscale>  0 0.29481624E+03</rscale>
<asrwt>0</asrwt>
<pdfrwt beam="1">  1        2 0.26725785E-01 0.29481624E+03</pdfrwt>
<pdfrwt beam="2">  1       -2 0.16592670E-01 0.29481624E+03</pdfrwt>
<totfact> 0.57443223E+03</totfact>
</mgrwt>
</event>
<event>
 4    1  0.9508302E-005  0.7307591E+03  0.7818608E-02  0.9666029E-01
         -2   -1    0    0    0  501 -0.00000000000E+00  0.00000000000E+00  0.67636288902E+02  0.67636288950E+02  0.25500000000E-02 0. -1.
          2   -1    0    0  501    0  0.00000000000E+00 -0.00000000000E+00 -0.19738250508E+04  0.19738250508E+04  0.25500000000E-02 0.  1.
    5000001    1    1    2    0    0  0.22415372984E+03  0.24965727927E+03 -0.75955595766E+03  0.84001660966E+03  0.12700000000E+03 0.  0.
   -5000001    1    1    2    0    0 -0.22415372984E+03 -0.24965727927E+03 -0.11466328042E+04  0.12014447301E+04  0.12700000000E+03 0.  0.
<mgrwt>
<rscale>  0 0.73075906E+03</rscale>
<asrwt>0</asrwt>
<pdfrwt beam="1">  1        2 0.28197497E+00 0.73075906E+03</pdfrwt>
<pdfrwt beam="2">  1       -2 0.96623282E-02 0.73075906E+03</pdfrwt>
<totfact> 0.61298379E+02</totfact>
</mgrwt>
</event>
<event>
 4    1  0.9508302E-005  0.3435377E+03  0.7818608E-02  0.1065299E+00
          2   -1    0    0  501    0  0.00000000000E+00  0.00000000000E+00  0.53095868299E+03  0.53095868300E+03  0.25500000000E-02 0.  1.
         -2   -1    0    0    0  501 -0.00000000000E+00 -0.00000000000E+00 -0.55568424557E+02  0.55568424615E+02  0.25500000000E-02 0. -1.
    5000001    1    1    2    0    0  0.93516083063E+02  0.53302965963E+02  0.30991019092E+03  0.35179509719E+03  0.12700000000E+03 0.  0.
   -5000001    1    1    2    0    0 -0.93516083063E+02 -0.53302965963E+02  0.16548006752E+03  0.23473201042E+03  0.12700000000E+03 0.  0.
<mgrwt>
<rscale>  0 0.34353770E+03</rscale>
<asrwt>0</asrwt>
<pdfrwt beam="1">  1        2 0.75851241E-01 0.34353770E+03</pdfrwt>
<pdfrwt beam="2">  1       -2 0.79383463E-02 0.34353770E+03</pdfrwt>
<totfact> 0.60764314E+03</totfact>
</mgrwt>
</event>
<event>
 4    1  0.9508302E-005  0.5958333E+03  0.7818608E-02  0.9914089E-01
         -2   -1    0    0    0  501 -0.00000000000E+00  0.00000000000E+00  0.46982038070E+02  0.46982038139E+02  0.25500000000E-02 0. -1.
          2   -1    0    0  501    0  0.00000000000E+00 -0.00000000000E+00 -0.18891118734E+04  0.18891118734E+04  0.25500000000E-02 0.  1.
    5000001    1    1    2    0    0  0.17957431036E+03 -0.14898592080E+03 -0.48292020992E+03  0.55116664149E+03  0.12700000000E+03 0.  0.
   -5000001    1    1    2    0    0 -0.17957431036E+03  0.14898592080E+03 -0.13592096254E+04  0.13849272700E+04  0.12700000000E+03 0.  0.
<mgrwt>
<rscale>  0 0.59583329E+03</rscale>
<asrwt>0</asrwt>
<pdfrwt beam="1">  1        2 0.26987308E+00 0.59583329E+03</pdfrwt>
<pdfrwt beam="2">  1       -2 0.67117209E-02 0.59583329E+03</pdfrwt>
<totfact> 0.12201068E+03</totfact>
</mgrwt>
</event>
<event>
 4    1  0.9508302E-005  0.3378611E+03  0.7818608E-02  0.1067711E+00
         -2   -1    0    0    0  501 -0.00000000000E+00  0.00000000000E+00  0.13758528564E+02  0.13758528800E+02  0.25500000000E-02 0.  1.
          2   -1    0    0  501    0  0.00000000000E+00 -0.00000000000E+00 -0.20741706167E+04  0.20741706167E+04  0.25500000000E-02 0. -1.
    5000001    1    1    2    0    0  0.10474409247E+03 -0.17284004816E+02 -0.82169017102E+03  0.83819675428E+03  0.12700000000E+03 0.  0.
   -5000001    1    1    2    0    0 -0.10474409247E+03  0.17284004816E+02 -0.12387219171E+04  0.12497323913E+04  0.12700000000E+03 0.  0.
<mgrwt>
<rscale>  0 0.33786113E+03</rscale>
<asrwt>0</asrwt>
<pdfrwt beam="1">  1        2 0.29630989E+00 0.33786113E+03</pdfrwt>
<pdfrwt beam="2">  1       -2 0.19655054E-02 0.33786113E+03</pdfrwt>
<totfact> 0.64533139E+03</totfact>
</mgrwt>
</event>
<event>
 4    1  0.9508302E-005  0.4831013E+03  0.7818608E-02  0.1018286E+00
          2   -1    0    0  501    0  0.00000000000E+00  0.00000000000E+00  0.83261672372E+02  0.83261672411E+02  0.25500000000E-02 0.  1.
         -2   -1    0    0    0  501 -0.00000000000E+00 -0.00000000000E+00 -0.70076311959E+03  0.70076311959E+03  0.25500000000E-02 0. -1.
    5000001    1    1    2    0    0 -0.14084337646E+03 -0.14880522799E+03 -0.28372138753E+03  0.37229917850E+03  0.12700000000E+03 0.  0.
   -5000001    1    1    2    0    0  0.14084337646E+03  0.14880522799E+03 -0.33378005968E+03  0.41172561350E+03  0.12700000000E+03 0.  0.
<mgrwt>
<rscale>  0 0.48310127E+03</rscale>
<asrwt>0</asrwt>
<pdfrwt beam="1">  1        2 0.11894525E-01 0.48310127E+03</pdfrwt>
<pdfrwt beam="2">  1       -2 0.10010901E+00 0.48310127E+03</pdfrwt>
<totfact> 0.44420865E+02</totfact>
</mgrwt>
</event>
<event>
 4    1  0.9508302E-005  0.4029819E+03  0.7818608E-02  0.1042752E+00
         -2   -1    0    0    0  501 -0.00000000000E+00  0.00000000000E+00  0.10111363933E+02  0.10111364255E+02  0.25500000000E-02 0. -1.
          2   -1    0    0  501    0  0.00000000000E+00 -0.00000000000E+00 -0.40151464052E+04  0.40151464052E+04  0.25500000000E-02 0.  1.
    5000001    1    1    2    0    0 -0.10329165382E+03  0.10732147432E+03 -0.15252986819E+04  0.15378075736E+04  0.12700000000E+03 0.  0.
   -5000001    1    1    2    0    0  0.10329165382E+03 -0.10732147432E+03 -0.24797363593E+04  0.24874501958E+04  0.12700000000E+03 0.  0.
<mgrwt>
<rscale>  0 0.40298192E+03</rscale>
<asrwt>0</asrwt>
<pdfrwt beam="1">  1        2 0.57359132E+00 0.40298192E+03</pdfrwt>
<pdfrwt beam="2">  1       -2 0.14444832E-02 0.40298192E+03</pdfrwt>
<totfact> 0.86107310E+02</totfact>
</mgrwt>
</event>
<event>
 4    1  0.9508302E-005  0.3700337E+03  0.7818608E-02  0.1054680E+00
         -2   -1    0    0    0  501 -0.00000000000E+00  0.00000000000E+00  0.35508096929E+02  0.35508097021E+02  0.25500000000E-02 0. -1.
          2   -1    0    0  501    0  0.00000000000E+00 -0.00000000000E+00 -0.96404010209E+03  0.96404010209E+03  0.25500000000E-02 0.  1.
    5000001    1    1    2    0    0 -0.88034604143E+01  0.12414948754E+03 -0.60231033870E+03  0.62801062115E+03  0.12700000000E+03 0.  0.
   -5000001    1    1    2    0    0  0.88034604143E+01 -0.12414948754E+03 -0.32622166646E+03  0.37153757796E+03  0.12700000000E+03 0.  0.
<mgrwt>
<rscale>  0 0.37003367E+03</rscale>
<asrwt>0</asrwt>
<pdfrwt beam="1">  1        2 0.13772000E+00 0.37003367E+03</pdfrwt>
<pdfrwt beam="2">  1       -2 0.50725859E-02 0.37003367E+03</pdfrwt>
<totfact> 0.58960079E+03</totfact>
</mgrwt>
</event>
<event>
 4    1  0.9508302E-005  0.5031448E+03  0.7818608E-02  0.1012961E+00
          2   -1    0    0  501    0  0.00000000000E+00  0.00000000000E+00  0.79970693262E+03  0.79970693263E+03  0.25500000000E-02 0.  1.
         -2   -1    0    0    0  501 -0.00000000000E+00 -0.00000000000E+00 -0.79139829428E+02  0.79139829469E+02  0.25500000000E-02 0. -1.
    5000001    1    1    2    0    0 -0.15279063614E+03 -0.11979446160E+03  0.19035863954E+03  0.30010182134E+03  0.12700000000E+03 0.  0.
   -5000001    1    1    2    0    0  0.15279063614E+03  0.11979446160E+03  0.53020846365E+03  0.57874494076E+03  0.12700000000E+03 0.  0.
<mgrwt>
<rscale>  0 0.50314479E+03</rscale>
<asrwt>0</asrwt>
<pdfrwt beam="1">  1        2 0.11424385E+00 0.50314479E+03</pdfrwt>
<pdfrwt beam="2">  1       -2 0.11305690E-01 0.50314479E+03</pdfrwt>
<totfact> 0.21326983E+03</totfact>
</mgrwt>
</event>
<event>
 4    1  0.9508302E-005  0.2912026E+03  0.7818608E-02  0.1089723E+00
         -2   -1    0    0    0  501 -0.00000000000E+00  0.00000000000E+00  0.89364646845E+01  0.89364650483E+01  0.25500000000E-02 0. -1.
          2   -1    0    0  501    0  0.00000000000E+00 -0.00000000000E+00 -0.23722733407E+04  0.23722733407E+04  0.25500000000E-02 0.  1.
    5000001    1    1    2    0    0  0.48364311424E+02  0.51134632737E+02 -0.10932642826E+04  0.11028642931E+04  0.12700000000E+03 0.  0.
   -5000001    1    1    2    0    0 -0.48364311424E+02 -0.51134632737E+02 -0.12700725934E+04  0.12783455127E+04  0.12700000000E+03 0.  0.
<mgrwt>
<rscale>  0 0.29120259E+03</rscale>
<asrwt>0</asrwt>
<pdfrwt beam="1">  1        2 0.33889579E+00 0.29120259E+03</pdfrwt>
<pdfrwt beam="2">  1       -2 0.12766394E-02 0.29120259E+03</pdfrwt>
<totfact> 0.86721899E+03</totfact>
</mgrwt>
</event>
<event>
 4    1  0.9508302E-005  0.3691232E+03  0.7818608E-02  0.1055029E+00
          2   -1    0    0  501    0  0.00000000000E+00  0.00000000000E+00  0.15179786732E+03  0.15179786734E+03  0.25500000000E-02 0.  1.
         -2   -1    0    0    0  501 -0.00000000000E+00 -0.00000000000E+00 -0.22439697028E+03  0.22439697029E+03  0.25500000000E-02 0. -1.
    5000001    1    1    2    0    0  0.25003059828E+02  0.12736139251E+03 -0.26842633481E+01  0.18161024909E+03  0.12700000000E+03 0.  0.
   -5000001    1    1    2    0    0 -0.25003059828E+02 -0.12736139251E+03 -0.69914839608E+02  0.19458458855E+03  0.12700000000E+03 0.  0.
<mgrwt>
<rscale>  0 0.36912319E+03</rscale>
<asrwt>0</asrwt>
<pdfrwt beam="1">  1        2 0.21685410E-01 0.36912319E+03</pdfrwt>
<pdfrwt beam="2">  1       -2 0.32056710E-01 0.36912319E+03</pdfrwt>
<totfact> 0.23033656E+03</totfact>
</mgrwt>
</event>
<event>
 4    1  0.9508302E-005  0.5183997E+03  0.7818608E-02  0.1009085E+00
          2   -1    0    0  501    0  0.00000000000E+00  0.00000000000E+00  0.31691594282E+03  0.31691594283E+03  0.25500000000E-02 0.  1.
         -2   -1    0    0    0  501 -0.00000000000E+00 -0.00000000000E+00 -0.21199492884E+03  0.21199492885E+03  0.25500000000E-02 0. -1.
    5000001    1    1    2    0    0  0.13182957135E+03  0.12960510802E+03  0.18501417650E+03  0.29075034894E+03  0.12700000000E+03 0.  0.
   -5000001    1    1    2    0    0 -0.13182957135E+03 -0.12960510802E+03 -0.80093162520E+02  0.23816052273E+03  0.12700000000E+03 0.  0.
<mgrwt>
<rscale>  0 0.51839974E+03</rscale>
<asrwt>0</asrwt>
<pdfrwt beam="1">  1        2 0.45273705E-01 0.51839974E+03</pdfrwt>
<pdfrwt beam="2">  1       -2 0.30284990E-01 0.51839974E+03</pdfrwt>
<totfact> 0.11300988E+03</totfact>
</mgrwt>
</event>
<event>
 4    1  0.9508302E-005  0.4604220E+03  0.7818608E-02  0.1024659E+00
          2   -1    0    0  501    0  0.00000000000E+00  0.00000000000E+00  0.68546753279E+03  0.68546753280E+03  0.25500000000E-02 0.  1.
         -2   -1    0    0    0  501 -0.00000000000E+00 -0.00000000000E+00 -0.77315280566E+02  0.77315280608E+02  0.25500000000E-02 0. -1.
    5000001    1    1    2    0    0  0.16655174852E+02  0.18947707300E+03  0.26058462694E+03  0.34671646029E+03  0.12700000000E+03 0.  0.
   -5000001    1    1    2    0    0 -0.16655174852E+02 -0.18947707300E+03  0.34756762529E+03  0.41606635311E+03  0.12700000000E+03 0.  0.
<mgrwt>
<rscale>  0 0.46042204E+03</rscale>
<asrwt>0</asrwt>
<pdfrwt beam="1">  1        2 0.97923929E-01 0.46042204E+03</pdfrwt>
<pdfrwt beam="2">  1       -2 0.11045041E-01 0.46042204E+03</pdfrwt>
<totfact> 0.26787872E+03</totfact>
</mgrwt>
</event>
<event>
 4    1  0.9508302E-005  0.5496282E+03  0.7818608E-02  0.1001580E+00
         -2   -1    0    0    0  501 -0.00000000000E+00  0.00000000000E+00  0.10452607959E+03  0.10452607963E+03  0.25500000000E-02 0. -1.
          2   -1    0    0  501    0  0.00000000000E+00 -0.00000000000E+00 -0.72252591798E+03  0.72252591799E+03  0.25500000000E-02 0.  1.
    5000001    1    1    2    0    0  0.92123689841E+02 -0.18925092970E+03 -0.12414781070E+03  0.27539856122E+03  0.12700000000E+03 0.  0.
   -5000001    1    1    2    0    0 -0.92123689841E+02  0.18925092970E+03 -0.49385202769E+03  0.55165343639E+03  0.12700000000E+03 0.  0.
<mgrwt>
<rscale>  0 0.54962824E+03</rscale>
<asrwt>0</asrwt>
<pdfrwt beam="1">  1        2 0.10321799E+00 0.54962824E+03</pdfrwt>
<pdfrwt beam="2">  1       -2 0.14932298E-01 0.54962824E+03</pdfrwt>
<totfact> 0.15278125E+03</totfact>
</mgrwt>
</event>
<event>
 4    1  0.9508302E-005  0.4245711E+03  0.7818608E-02  0.1035589E+00
         -2   -1    0    0    0  501 -0.00000000000E+00  0.00000000000E+00  0.39796916104E+02  0.39796916186E+02  0.25500000000E-02 0. -1.
          2   -1    0    0  501    0  0.00000000000E+00 -0.00000000000E+00 -0.11323782744E+04  0.11323782744E+04  0.25500000000E-02 0.  1.
    5000001    1    1    2    0    0 -0.78916016024E+02  0.13953636581E+03 -0.70339291751E+03  0.73252217125E+03  0.12700000000E+03 0.  0.
   -5000001    1    1    2    0    0  0.78916016024E+02 -0.13953636581E+03 -0.38918844076E+03  0.43965301931E+03  0.12700000000E+03 0.  0.
<mgrwt>
<rscale>  0 0.42457114E+03</rscale>
<asrwt>0</asrwt>
<pdfrwt beam="1">  1        2 0.16176830E+00 0.42457114E+03</pdfrwt>
<pdfrwt beam="2">  1       -2 0.56852745E-02 0.42457114E+03</pdfrwt>
<totfact> 0.39473283E+03</totfact>
</mgrwt>
</event>
<event>
 4    1  0.9508302E-005  0.4089513E+03  0.7818608E-02  0.1040724E+00
          2   -1    0    0  501    0  0.00000000000E+00  0.00000000000E+00  0.14516681953E+04  0.14516681953E+04  0.25500000000E-02 0.  1.
         -2   -1    0    0    0  501 -0.00000000000E+00 -0.00000000000E+00 -0.28801544067E+02  0.28801544180E+02  0.25500000000E-02 0. -1.
    5000001    1    1    2    0    0 -0.35772198066E+02  0.10743238022E+03  0.11219653971E+04  0.11347936900E+04  0.12700000000E+03 0.  0.
   -5000001    1    1    2    0    0  0.35772198066E+02 -0.10743238022E+03  0.30090125409E+03  0.34567604948E+03  0.12700000000E+03 0.  0.
<mgrwt>
<rscale>  0 0.40895127E+03</rscale>
<asrwt>0</asrwt>
<pdfrwt beam="1">  1        2 0.20738119E+00 0.40895127E+03</pdfrwt>
<pdfrwt beam="2">  1       -2 0.41145059E-02 0.40895127E+03</pdfrwt>
<totfact> 0.43626017E+03</totfact>
</mgrwt>
</event>
<event>
 4    1  0.9508302E-005  0.3021491E+03  0.7818608E-02  0.1084171E+00
          2   -1    0    0  501    0  0.00000000000E+00  0.00000000000E+00  0.22352970258E+03  0.22352970259E+03  0.25500000000E-02 0.  1.
         -2   -1    0    0    0  501 -0.00000000000E+00 -0.00000000000E+00 -0.10210509913E+03  0.10210509916E+03  0.25500000000E-02 0. -1.
    5000001    1    1    2    0    0 -0.55126344361E+02 -0.59082801983E+02  0.74548891987E+02  0.16797686933E+03  0.12700000000E+03 0.  0.
   -5000001    1    1    2    0    0  0.55126344361E+02  0.59082801983E+02  0.46875711456E+02  0.15765793243E+03  0.12700000000E+03 0.  0.
<mgrwt>
<rscale>  0 0.30214912E+03</rscale>
<asrwt>0</asrwt>
<pdfrwt beam="1">  1        2 0.31932815E-01 0.30214912E+03</pdfrwt>
<pdfrwt beam="2">  1       -2 0.14586443E-01 0.30214912E+03</pdfrwt>
<totfact> 0.58524571E+03</totfact>
</mgrwt>
</event>
<event>
 4    1  0.9508302E-005  0.5169334E+03  0.7818608E-02  0.1009451E+00
          2   -1    0    0  501    0  0.00000000000E+00  0.00000000000E+00  0.47258026185E+03  0.47258026186E+03  0.25500000000E-02 0.  1.
         -2   -1    0    0    0  501 -0.00000000000E+00 -0.00000000000E+00 -0.14136227858E+03  0.14136227861E+03  0.25500000000E-02 0. -1.
    5000001    1    1    2    0    0 -0.99263741915E+02  0.20054097496E+03  0.19484696299E+03  0.32274496446E+03  0.12700000000E+03 0.  0.
   -5000001    1    1    2    0    0  0.99263741915E+02 -0.20054097496E+03  0.13637102027E+03  0.29119757600E+03  0.12700000000E+03 0.  0.
<mgrwt>
<rscale>  0 0.51693335E+03</rscale>
<asrwt>0</asrwt>
<pdfrwt beam="1">  1        2 0.67511465E-01 0.51693335E+03</pdfrwt>
<pdfrwt beam="2">  1       -2 0.20194611E-01 0.51693335E+03</pdfrwt>
<totfact> 0.14991464E+03</totfact>
</mgrwt>
</event>
<event>
 4    1  0.9508302E-005  0.4172018E+03  0.7818608E-02  0.1037981E+00
          2   -1    0    0  501    0  0.00000000000E+00  0.00000000000E+00  0.29904218489E+04  0.29904218489E+04  0.25500000000E-02 0.  1.
         -2   -1    0    0    0  501 -0.00000000000E+00 -0.00000000000E+00 -0.14551235106E+02  0.14551235330E+02  0.25500000000E-02 0. -1.
    5000001    1    1    2    0    0  0.28560551425E+02  0.81646964483E+02  0.47178473671E+03  0.49617715556E+03  0.12700000000E+03 0.  0.
   -5000001    1    1    2    0    0 -0.28560551425E+02 -0.81646964483E+02  0.25040858771E+04  0.25087959287E+04  0.12700000000E+03 0.  0.
<mgrwt>
<rscale>  0 0.41720178E+03</rscale>
<asrwt>0</asrwt>
<pdfrwt beam="1">  1        2 0.42720288E+00 0.41720178E+03</pdfrwt>
<pdfrwt beam="2">  1       -2 0.20787491E-02 0.41720178E+03</pdfrwt>
<totfact> 0.20219628E+03</totfact>
</mgrwt>
</event>
<event>
 4    1  0.9508302E-005  0.3073686E+03  0.7818608E-02  0.1081614E+00
         -2   -1    0    0    0  501 -0.00000000000E+00  0.00000000000E+00  0.19821679067E+02  0.19821679231E+02  0.25500000000E-02 0. -1.
          2   -1    0    0  501    0  0.00000000000E+00 -0.00000000000E+00 -0.11915673456E+04  0.11915673456E+04  0.25500000000E-02 0.  1.
    5000001    1    1    2    0    0  0.33292416337E+02 -0.57246845983E+02 -0.36628690159E+03  0.39329464863E+03  0.12700000000E+03 0.  0.
   -5000001    1    1    2    0    0 -0.33292416337E+02  0.57246845983E+02 -0.80545876496E+03  0.81809437622E+03  0.12700000000E+03 0.  0.
<mgrwt>
<rscale>  0 0.30736861E+03</rscale>
<asrwt>0</asrwt>
<pdfrwt beam="1">  1        2 0.17022386E+00 0.30736861E+03</pdfrwt>
<pdfrwt beam="2">  1       -2 0.28316692E-02 0.30736861E+03</pdfrwt>
<totfact> 0.10479184E+04</totfact>
</mgrwt>
</event>
<event>
 4    1  0.9508302E-005  0.5846313E+03  0.7818608E-02  0.9937814E-01
          2   -1    0    0  501    0  0.00000000000E+00  0.00000000000E+00  0.20948240406E+04  0.20948240406E+04  0.25500000000E-02 0.  1.
         -2   -1    0    0    0  501 -0.00000000000E+00 -0.00000000000E+00 -0.40790276722E+02  0.40790276802E+02  0.25500000000E-02 0. -1.
    5000001    1    1    2    0    0 -0.15151524914E+03 -0.11073032484E+03  0.17015863558E+04  0.17166080513E+04  0.12700000000E+03 0.  0.
   -5000001    1    1    2    0    0  0.15151524914E+03  0.11073032484E+03  0.35244740802E+03  0.41900626604E+03  0.12700000000E+03 0.  0.
<mgrwt>
<rscale>  0 0.58463134E+03</rscale>
<asrwt>0</asrwt>
<pdfrwt beam="1">  1        2 0.29926057E+00 0.58463134E+03</pdfrwt>
<pdfrwt beam="2">  1       -2 0.58271825E-02 0.58463134E+03</pdfrwt>
<totfact> 0.12013912E+03</totfact>
</mgrwt>
</event>
<event>
 4    1  0.9508302E-005  0.3951172E+03  0.7818608E-02  0.1045484E+00
          2   -1    0    0  501    0  0.00000000000E+00  0.00000000000E+00  0.38807389524E+03  0.38807389525E+03  0.25500000000E-02 0.  1.
         -2   -1    0    0    0  501 -0.00000000000E+00 -0.00000000000E+00 -0.10057206500E+03  0.10057206503E+03  0.25500000000E-02 0. -1.
    5000001    1    1    2    0    0  0.36149606667E+02  0.14639573193E+03  0.12801555805E+03  0.23506485805E+03  0.12700000000E+03 0.  0.
   -5000001    1    1    2    0    0 -0.36149606667E+02 -0.14639573193E+03  0.15948627220E+03  0.25358110223E+03  0.12700000000E+03 0.  0.
<mgrwt>
<rscale>  0 0.39511716E+03</rscale>
<asrwt>0</asrwt>
<pdfrwt beam="1">  1        2 0.55439127E-01 0.39511716E+03</pdfrwt>
<pdfrwt beam="2">  1       -2 0.14367438E-01 0.39511716E+03</pdfrwt>
<totfact> 0.33143633E+03</totfact>
</mgrwt>
</event>
<event>
 4    1  0.9508302E-005  0.3652731E+03  0.7818608E-02  0.1056515E+00
          2   -1    0    0  501    0  0.00000000000E+00  0.00000000000E+00  0.19109080248E+04  0.19109080248E+04  0.25500000000E-02 0.  1.
         -2   -1    0    0    0  501 -0.00000000000E+00 -0.00000000000E+00 -0.17455634431E+02  0.17455634618E+02  0.25500000000E-02 0. -1.
    5000001    1    1    2    0    0  0.10703702964E+03 -0.75895510600E+02  0.96346883158E+03  0.98062135591E+03  0.12700000000E+03 0.  0.
   -5000001    1    1    2    0    0 -0.10703702964E+03  0.75895510600E+02  0.92998355881E+03  0.94774230353E+03  0.12700000000E+03 0.  0.
<mgrwt>
<rscale>  0 0.36527311E+03</rscale>
<asrwt>0</asrwt>
<pdfrwt beam="1">  1        2 0.27298683E+00 0.36527311E+03</pdfrwt>
<pdfrwt beam="2">  1       -2 0.24936623E-02 0.36527311E+03</pdfrwt>
<totfact> 0.54527006E+03</totfact>
</mgrwt>
</event>
<event>
 4    1  0.9508302E-005  0.3478882E+03  0.7818608E-02  0.1063485E+00
          2   -1    0    0  501    0  0.00000000000E+00  0.00000000000E+00  0.79863709584E+03  0.79863709584E+03  0.25500000000E-02 0.  1.
         -2   -1    0    0    0  501 -0.00000000000E+00 -0.00000000000E+00 -0.37885228063E+02  0.37885228148E+02  0.25500000000E-02 0. -1.
    5000001    1    1    2    0    0 -0.28374914498E+02  0.62666431849E+02  0.14730190049E+03  0.20629849089E+03  0.12700000000E+03 0.  0.
   -5000001    1    1    2    0    0  0.28374914498E+02 -0.62666431849E+02  0.61344996728E+03  0.63022383310E+03  0.12700000000E+03 0.  0.
<mgrwt>
<rscale>  0 0.34788819E+03</rscale>
<asrwt>0</asrwt>
<pdfrwt beam="1">  1        2 0.11409101E+00 0.34788819E+03</pdfrwt>
<pdfrwt beam="2">  1       -2 0.54121756E-02 0.34788819E+03</pdfrwt>
<totfact> 0.68071315E+03</totfact>
</mgrwt>
</event>
<event>
 4    1  0.9508302E-005  0.3675616E+03  0.7818608E-02  0.1055629E+00
          2   -1    0    0  501    0  0.00000000000E+00  0.00000000000E+00  0.32880349977E+04  0.32880349977E+04  0.25500000000E-02 0.  1.
         -2   -1    0    0    0  501 -0.00000000000E+00 -0.00000000000E+00 -0.10272210662E+02  0.10272210978E+02  0.25500000000E-02 0. -1.
    5000001    1    1    2    0    0  0.30580420835E+01 -0.12803799156E+03  0.19552916882E+04  0.19635930497E+04  0.12700000000E+03 0.  0.
   -5000001    1    1    2    0    0 -0.30580420835E+01  0.12803799156E+03  0.13224710988E+04  0.13347141590E+04  0.12700000000E+03 0.  0.
<mgrwt>
<rscale>  0 0.36756163E+03</rscale>
<asrwt>0</asrwt>
<pdfrwt beam="1">  1        2 0.46971974E+00 0.36756163E+03</pdfrwt>
<pdfrwt beam="2">  1       -2 0.14674573E-02 0.36756163E+03</pdfrwt>
<totfact> 0.23365619E+03</totfact>
</mgrwt>
</event>
<event>
 4    1  0.9508302E-005  0.7214736E+03  0.7818608E-02  0.9681198E-01
         -2   -1    0    0    0  501 -0.00000000000E+00  0.00000000000E+00  0.90354909419E+02  0.90354909455E+02  0.25500000000E-02 0. -1.
          2   -1    0    0  501    0  0.00000000000E+00 -0.00000000000E+00 -0.14402211878E+04  0.14402211878E+04  0.25500000000E-02 0.  1.
    5000001    1    1    2    0    0 -0.25417370879E+03  0.21690025713E+03 -0.77781968371E+03  0.85602713517E+03  0.12700000000E+03 0.  0.
   -5000001    1    1    2    0    0  0.25417370879E+03 -0.21690025713E+03 -0.57204659467E+03  0.67454896209E+03  0.12700000000E+03 0.  0.
<mgrwt>
<rscale>  0 0.72147364E+03</rscale>
<asrwt>0</asrwt>
<pdfrwt beam="1">  1        2 0.20574587E+00 0.72147364E+03</pdfrwt>
<pdfrwt beam="2">  1       -2 0.12907845E-01 0.72147364E+03</pdfrwt>
<totfact> 0.71653491E+02</totfact>
</mgrwt>
</event>
<event>
 4    1  0.9508302E-005  0.3217905E+03  0.7818608E-02  0.1074828E+00
          2   -1    0    0  501    0  0.00000000000E+00  0.00000000000E+00  0.44188418801E+03  0.44188418802E+03  0.25500000000E-02 0.  1.
         -2   -1    0    0    0  501 -0.00000000000E+00 -0.00000000000E+00 -0.58583874497E+02  0.58583874553E+02  0.25500000000E-02 0. -1.
    5000001    1    1    2    0    0 -0.78082060370E+02 -0.13868361679E+02  0.28325417490E+03  0.32039205234E+03  0.12700000000E+03 0.  0.
   -5000001    1    1    2    0    0  0.78082060370E+02  0.13868361679E+02  0.10004613861E+03  0.18007601023E+03  0.12700000000E+03 0.  0.
<mgrwt>
<rscale>  0 0.32179054E+03</rscale>
<asrwt>0</asrwt>
<pdfrwt beam="1">  1        2 0.63126309E-01 0.32179054E+03</pdfrwt>
<pdfrwt beam="2">  1       -2 0.83691254E-02 0.32179054E+03</pdfrwt>
<totfact> 0.68426942E+03</totfact>
</mgrwt>
</event>
<event>
 4    1  0.9508302E-005  0.1164068E+04  0.7818608E-02  0.9144903E-01
         -2   -1    0    0    0  501 -0.00000000000E+00  0.00000000000E+00  0.24521094706E+03  0.24521094708E+03  0.25500000000E-02 0. -1.
          2   -1    0    0  501    0  0.00000000000E+00 -0.00000000000E+00 -0.13815182166E+04  0.13815182166E+04  0.25500000000E-02 0.  1.
    5000001    1    1    2    0    0 -0.45547530363E+03  0.33894532381E+03 -0.59206214355E+03  0.83006521827E+03  0.12700000000E+03 0.  0.
   -5000001    1    1    2    0    0  0.45547530363E+03 -0.33894532381E+03 -0.54424512596E+03  0.79666394539E+03  0.12700000000E+03 0.  0.
<mgrwt>
<rscale>  0 0.11640677E+04</rscale>
<asrwt>0</asrwt>
<pdfrwt beam="1">  1        2 0.19735974E+00 0.11640677E+04</pdfrwt>
<pdfrwt beam="2">  1       -2 0.35030136E-01 0.11640677E+04</pdfrwt>
<totfact> 0.12792492E+02</totfact>
</mgrwt>
</event>
<event>
 4    1  0.9508302E-005  0.7334062E+03  0.7818608E-02  0.9661749E-01
          2   -1    0    0  501    0  0.00000000000E+00  0.00000000000E+00  0.17572585062E+04  0.17572585062E+04  0.25500000000E-02 0.  1.
         -2   -1    0    0    0  501 -0.00000000000E+00 -0.00000000000E+00 -0.76523277641E+02  0.76523277683E+02  0.25500000000E-02 0. -1.
    5000001    1    1    2    0    0  0.17989298431E+03 -0.10235618238E+03  0.15331853577E+03  0.28718260269E+03  0.12700000000E+03 0.  0.
   -5000001    1    1    2    0    0 -0.17989298431E+03  0.10235618238E+03  0.15274166928E+04  0.15465991812E+04  0.12700000000E+03 0.  0.
<mgrwt>
<rscale>  0 0.73340625E+03</rscale>
<asrwt>0</asrwt>
<pdfrwt beam="1">  1        2 0.25103688E+00 0.73340625E+03</pdfrwt>
<pdfrwt beam="2">  1       -2 0.10931899E-01 0.73340625E+03</pdfrwt>
<totfact> 0.64533694E+02</totfact>
</mgrwt>
</event>
<event>
 4    1  0.9508302E-005  0.3431278E+03  0.7818608E-02  0.1065472E+00
         -2   -1    0    0    0  501 -0.00000000000E+00  0.00000000000E+00  0.19394305381E+02  0.19394305548E+02  0.25500000000E-02 0. -1.
          2   -1    0    0  501    0  0.00000000000E+00 -0.00000000000E+00 -0.15176705737E+04  0.15176705737E+04  0.25500000000E-02 0.  1.
    5000001    1    1    2    0    0  0.83979063554E+02  0.49578866301E+02 -0.47319445264E+03  0.49955233670E+03  0.12700000000E+03 0.  0.
   -5000001    1    1    2    0    0 -0.83979063554E+02 -0.49578866301E+02 -0.10250818157E+04  0.10375125425E+04  0.12700000000E+03 0.  0.
<mgrwt>
<rscale>  0 0.34312777E+03</rscale>
<asrwt>0</asrwt>
<pdfrwt beam="1">  1        2 0.21681001E+00 0.34312777E+03</pdfrwt>
<pdfrwt beam="2">  1       -2 0.27706160E-02 0.34312777E+03</pdfrwt>
<totfact> 0.73160660E+03</totfact>
</mgrwt>
</event>
<event>
 4    1  0.9508302E-005  0.3034850E+03  0.7818608E-02  0.1083511E+00
          2   -1    0    0  501    0  0.00000000000E+00  0.00000000000E+00  0.18610321233E+03  0.18610321234E+03  0.25500000000E-02 0.  1.
         -2   -1    0    0    0  501 -0.00000000000E+00 -0.00000000000E+00 -0.12372588803E+03  0.12372588805E+03  0.25500000000E-02 0. -1.
    5000001    1    1    2    0    0 -0.80871038137E+02  0.11056791119E+02  0.15558229701E+02  0.15176770391E+03  0.12700000000E+03 0.  0.
   -5000001    1    1    2    0    0  0.80871038137E+02 -0.11056791119E+02  0.46819094600E+02  0.15806139648E+03  0.12700000000E+03 0.  0.
<mgrwt>
<rscale>  0 0.30348499E+03</rscale>
<asrwt>0</asrwt>
<pdfrwt beam="1">  1        2 0.26586173E-01 0.30348499E+03</pdfrwt>
<pdfrwt beam="2">  1       -2 0.17675127E-01 0.30348499E+03</pdfrwt>
<totfact> 0.52007414E+03</totfact>
</mgrwt>
</event>
<event>
 4    1  0.9508302E-005  0.3198373E+03  0.7818608E-02  0.1075724E+00
          2   -1    0    0  501    0  0.00000000000E+00  0.00000000000E+00  0.11313316195E+04  0.11313316195E+04  0.25500000000E-02 0.  1.
         -2   -1    0    0    0  501 -0.00000000000E+00 -0.00000000000E+00 -0.22605196913E+02  0.22605197057E+02  0.25500000000E-02 0. -1.
    5000001    1    1    2    0    0  0.53732794926E+02  0.80979078164E+02  0.55296697103E+03  0.57562687168E+03  0.12700000000E+03 0.  0.
   -5000001    1    1    2    0    0 -0.53732794926E+02 -0.80979078164E+02  0.55575945153E+03  0.57830994485E+03  0.12700000000E+03 0.  0.
<mgrwt>
<rscale>  0 0.31983730E+03</rscale>
<asrwt>0</asrwt>
<pdfrwt beam="1">  1        2 0.16161875E+00 0.31983730E+03</pdfrwt>
<pdfrwt beam="2">  1       -2 0.32293149E-02 0.31983730E+03</pdfrwt>
<totfact> 0.93071497E+03</totfact>
</mgrwt>
</event>
<event>
 4    1  0.9508302E-005  0.3828252E+03  0.7818608E-02  0.1049894E+00
          2   -1    0    0  501    0  0.00000000000E+00  0.00000000000E+00  0.19812156185E+04  0.19812156185E+04  0.25500000000E-02 0.  1.
         -2   -1    0    0    0  501 -0.00000000000E+00 -0.00000000000E+00 -0.18493077976E+02  0.18493078152E+02  0.25500000000E-02 0. -1.
    5000001    1    1    2    0    0  0.11950559879E+03  0.78438121095E+02  0.10267936329E+04  0.10444464044E+04  0.12700000000E+03 0.  0.
   -5000001    1    1    2    0    0 -0.11950559879E+03 -0.78438121095E+02  0.93592890756E+03  0.95526229224E+03  0.12700000000E+03 0.  0.
<mgrwt>
<rscale>  0 0.38282516E+03</rscale>
<asrwt>0</asrwt>
<pdfrwt beam="1">  1        2 0.28303079E+00 0.38282516E+03</pdfrwt>
<pdfrwt beam="2">  1       -2 0.26418684E-02 0.38282516E+03</pdfrwt>
<totfact> 0.46173979E+03</totfact>
</mgrwt>
</event>
<event>
 4    1  0.9508302E-005  0.4169072E+03  0.7818608E-02  0.1038078E+00
          2   -1    0    0  501    0  0.00000000000E+00  0.00000000000E+00  0.10936525280E+04  0.10936525280E+04  0.25500000000E-02 0.  1.
         -2   -1    0    0    0  501 -0.00000000000E+00 -0.00000000000E+00 -0.39731901269E+02  0.39731901351E+02  0.25500000000E-02 0. -1.
    5000001    1    1    2    0    0 -0.56781772712E+02  0.11454727319E+03  0.81180773879E+03  0.83156842909E+03  0.12700000000E+03 0.  0.
   -5000001    1    1    2    0    0  0.56781772712E+02 -0.11454727319E+03  0.24211288795E+03  0.30181600027E+03  0.12700000000E+03 0.  0.
<mgrwt>
<rscale>  0 0.41690716E+03</rscale>
<asrwt>0</asrwt>
<pdfrwt beam="1">  1        2 0.15623607E+00 0.41690716E+03</pdfrwt>
<pdfrwt beam="2">  1       -2 0.56759859E-02 0.41690716E+03</pdfrwt>
<totfact> 0.41633776E+03</totfact>
</mgrwt>
</event>
<event>
 4    1  0.9508302E-005  0.3322111E+03  0.7818608E-02  0.1070163E+00
         -2   -1    0    0    0  501 -0.00000000000E+00  0.00000000000E+00  0.83129136546E+02  0.83129136585E+02  0.25500000000E-02 0. -1.
          2   -1    0    0  501    0  0.00000000000E+00 -0.00000000000E+00 -0.33190600166E+03  0.33190600167E+03  0.25500000000E-02 0.  1.
    5000001    1    1    2    0    0  0.70120126367E+02 -0.74437038028E+02 -0.16398105042E+03  0.23124984248E+03  0.12700000000E+03 0.  0.
   -5000001    1    1    2    0    0 -0.70120126367E+02  0.74437038028E+02 -0.84795814697E+02  0.18378529577E+03  0.12700000000E+03 0.  0.
<mgrwt>
<rscale>  0 0.33221113E+03</rscale>
<asrwt>0</asrwt>
<pdfrwt beam="1">  1        2 0.47415143E-01 0.33221113E+03</pdfrwt>
<pdfrwt beam="2">  1       -2 0.11875591E-01 0.33221113E+03</pdfrwt>
<totfact> 0.53481236E+03</totfact>
</mgrwt>
</event>
<event>
 4    1  0.9508302E-005  0.4068944E+03  0.7818608E-02  0.1041418E+00
          2   -1    0    0  501    0  0.00000000000E+00  0.00000000000E+00  0.41330559308E+03  0.41330559309E+03  0.25500000000E-02 0.  1.
         -2   -1    0    0    0  501 -0.00000000000E+00 -0.00000000000E+00 -0.10014564216E+03  0.10014564219E+03  0.25500000000E-02 0. -1.
    5000001    1    1    2    0    0  0.14342673414E+03  0.68008234796E+02  0.16678528646E+03  0.26294995692E+03  0.12700000000E+03 0.  0.
   -5000001    1    1    2    0    0 -0.14342673414E+03 -0.68008234796E+02  0.14637466446E+03  0.25050127836E+03  0.12700000000E+03 0.  0.
<mgrwt>
<rscale>  0 0.40689436E+03</rscale>
<asrwt>0</asrwt>
<pdfrwt beam="1">  1        2 0.59043658E-01 0.40689436E+03</pdfrwt>
<pdfrwt beam="2">  1       -2 0.14306520E-01 0.40689436E+03</pdfrwt>
<totfact> 0.31165795E+03</totfact>
</mgrwt>
</event>
<event>
 4    1  0.9508302E-005  0.5261136E+03  0.7818608E-02  0.1007179E+00
          2   -1    0    0  501    0  0.00000000000E+00  0.00000000000E+00  0.87253018617E+03  0.87253018617E+03  0.25500000000E-02 0.  1.
         -2   -1    0    0    0  501 -0.00000000000E+00 -0.00000000000E+00 -0.79308300861E+02  0.79308300902E+02  0.25500000000E-02 0. -1.
    5000001    1    1    2    0    0  0.17527293517E+03 -0.50400391856E+02  0.14197721798E+03  0.26371828099E+03  0.12700000000E+03 0.  0.
   -5000001    1    1    2    0    0 -0.17527293517E+03  0.50400391856E+02  0.65124466733E+03  0.68812020609E+03  0.12700000000E+03 0.  0.
<mgrwt>
<rscale>  0 0.52611362E+03</rscale>
<asrwt>0</asrwt>
<pdfrwt beam="1">  1        2 0.12464717E+00 0.52611362E+03</pdfrwt>
<pdfrwt beam="2">  1       -2 0.11329757E-01 0.52611362E+03</pdfrwt>
<totfact> 0.18990311E+03</totfact>
</mgrwt>
</event>
<event>
 4    1  0.9508302E-005  0.3201624E+03  0.7818608E-02  0.1075575E+00
         -2   -1    0    0    0  501 -0.00000000000E+00  0.00000000000E+00  0.19116431812E+02  0.19116431982E+02  0.25500000000E-02 0. -1.
          2   -1    0    0  501    0  0.00000000000E+00 -0.00000000000E+00 -0.13405217409E+04  0.13405217409E+04  0.25500000000E-02 0.  1.
    5000001    1    1    2    0    0  0.87455412661E+02  0.38586841390E+02 -0.74123350151E+03  0.75808541556E+03  0.12700000000E+03 0.  0.
   -5000001    1    1    2    0    0 -0.87455412661E+02 -0.38586841390E+02 -0.58017180762E+03  0.60155275736E+03  0.12700000000E+03 0.  0.
<mgrwt>
<rscale>  0 0.32016241E+03</rscale>
<asrwt>0</asrwt>
<pdfrwt beam="1">  1        2 0.19150305E+00 0.32016241E+03</pdfrwt>
<pdfrwt beam="2">  1       -2 0.27309197E-02 0.32016241E+03</pdfrwt>
<totfact> 0.92150035E+03</totfact>
</mgrwt>
</event>
<event>
 4    1  0.9508302E-005  0.2991915E+03  0.7818608E-02  0.1085645E+00
         -2   -1    0    0    0  501 -0.00000000000E+00  0.00000000000E+00  0.22084132538E+03  0.22084132539E+03  0.25500000000E-02 0. -1.
          2   -1    0    0  501    0  0.00000000000E+00 -0.00000000000E+00 -0.10133467605E+03  0.10133467608E+03  0.25500000000E-02 0.  1.
    5000001    1    1    2    0    0 -0.14924772096E+02  0.36324032700E+02 -0.14130329522E+02  0.13368189999E+03  0.12700000000E+03 0.  0.
   -5000001    1    1    2    0    0  0.14924772096E+02 -0.36324032700E+02  0.13363697886E+03  0.18849410148E+03  0.12700000000E+03 0.  0.
<mgrwt>
<rscale>  0 0.29919147E+03</rscale>
<asrwt>0</asrwt>
<pdfrwt beam="1">  1        2 0.14476382E-01 0.29919147E+03</pdfrwt>
<pdfrwt beam="2">  1       -2 0.31548761E-01 0.29919147E+03</pdfrwt>
<totfact> 0.37853511E+03</totfact>
</mgrwt>
</event>
<event>
 4    1  0.9508302E-005  0.6578152E+03  0.7818608E-02  0.9792224E-01
          2   -1    0    0  501    0  0.00000000000E+00  0.00000000000E+00  0.11437114138E+04  0.11437114138E+04  0.25500000000E-02 0.  1.
         -2   -1    0    0    0  501 -0.00000000000E+00 -0.00000000000E+00 -0.94586989625E+02  0.94586989660E+02  0.25500000000E-02 0. -1.
    5000001    1    1    2    0    0 -0.11625224366E+03 -0.21750090580E+03  0.85722737288E+03  0.90099333904E+03  0.12700000000E+03 0.  0.
   -5000001    1    1    2    0    0  0.11625224366E+03  0.21750090580E+03  0.19189705126E+03  0.33730506439E+03  0.12700000000E+03 0.  0.
<mgrwt>
<rscale>  0 0.65781523E+03</rscale>
<asrwt>0</asrwt>
<pdfrwt beam="1">  1        2 0.16338733E+00 0.65781523E+03</pdfrwt>
<pdfrwt beam="2">  1       -2 0.13512428E-01 0.65781523E+03</pdfrwt>
<totfact> 0.96827712E+02</totfact>
</mgrwt>
</event>
<event>
 4    1  0.9508302E-005  0.3044928E+03  0.7818608E-02  0.1083016E+00
          2   -1    0    0  501    0  0.00000000000E+00  0.00000000000E+00  0.10450520045E+04  0.10450520045E+04  0.25500000000E-02 0.  1.
         -2   -1    0    0    0  501 -0.00000000000E+00 -0.00000000000E+00 -0.22179727958E+02  0.22179728104E+02  0.25500000000E-02 0. -1.
    5000001    1    1    2    0    0  0.72798021328E+02 -0.41066776130E+02  0.48341030172E+03  0.50675492283E+03  0.12700000000E+03 0.  0.
   -5000001    1    1    2    0    0 -0.72798021328E+02  0.41066776130E+02  0.53946197484E+03  0.56047680979E+03  0.12700000000E+03 0.  0.
<mgrwt>
<rscale>  0 0.30449282E+03</rscale>
<asrwt>0</asrwt>
<pdfrwt beam="1">  1        2 0.14929317E+00 0.30449282E+03</pdfrwt>
<pdfrwt beam="2">  1       -2 0.31685321E-02 0.30449282E+03</pdfrwt>
<totfact> 0.10708288E+04</totfact>
</mgrwt>
</event>
<event>
 4    1  0.9508302E-005  0.3337224E+03  0.7818608E-02  0.1069502E+00
         -2   -1    0    0    0  501 -0.00000000000E+00  0.00000000000E+00  0.17801189755E+02  0.17801189938E+02  0.25500000000E-02 0. -1.
          2   -1    0    0  501    0  0.00000000000E+00 -0.00000000000E+00 -0.15640893660E+04  0.15640893660E+04  0.25500000000E-02 0.  1.
    5000001    1    1    2    0    0  0.42639028196E+01  0.91668997825E+02 -0.10451250965E+04  0.10568050215E+04  0.12700000000E+03 0.  0.
   -5000001    1    1    2    0    0 -0.42639028196E+01 -0.91668997825E+02 -0.50116307974E+03  0.52508553448E+03  0.12700000000E+03 0.  0.
<mgrwt>
<rscale>  0 0.33372235E+03</rscale>
<asrwt>0</asrwt>
<pdfrwt beam="1">  1        2 0.22344125E+00 0.33372235E+03</pdfrwt>
<pdfrwt beam="2">  1       -2 0.25430281E-02 0.33372235E+03</pdfrwt>
<totfact> 0.78728658E+03</totfact>
</mgrwt>
</event>
<event>
 4    1  0.9508302E-005  0.3320437E+03  0.7818608E-02  0.1070236E+00
         -2   -1    0    0    0  501 -0.00000000000E+00  0.00000000000E+00  0.22291696893E+02  0.22291697039E+02  0.25500000000E-02 0. -1.
          2   -1    0    0  501    0  0.00000000000E+00 -0.00000000000E+00 -0.12364805576E+04  0.12364805576E+04  0.25500000000E-02 0.  1.
    5000001    1    1    2    0    0  0.98533160672E+01 -0.10574847875E+03 -0.55998524858E+03  0.58394546597E+03  0.12700000000E+03 0.  0.
   -5000001    1    1    2    0    0 -0.98533160672E+01  0.10574847875E+03 -0.65420361215E+03  0.67482678870E+03  0.12700000000E+03 0.  0.
<mgrwt>
<rscale>  0 0.33204367E+03</rscale>
<asrwt>0</asrwt>
<pdfrwt beam="1">  1        2 0.17664004E+00 0.33204367E+03</pdfrwt>
<pdfrwt beam="2">  1       -2 0.31845289E-02 0.33204367E+03</pdfrwt>
<totfact> 0.83264470E+03</totfact>
</mgrwt>
</event>
<event>
 4    1  0.9508302E-005  0.4009656E+03  0.7818608E-02  0.1043446E+00
         -2   -1    0    0    0  501 -0.00000000000E+00  0.00000000000E+00  0.35997801898E+03  0.35997801899E+03  0.25500000000E-02 0. -1.
          2   -1    0    0  501    0  0.00000000000E+00 -0.00000000000E+00 -0.11165499697E+03  0.11165499700E+03  0.25500000000E-02 0.  1.
    5000001    1    1    2    0    0 -0.14695142610E+03 -0.39193728147E+02  0.16009905544E+03  0.25473825294E+03  0.12700000000E+03 0.  0.
   -5000001    1    1    2    0    0  0.14695142610E+03  0.39193728147E+02  0.88223966569E+02  0.21689476304E+03  0.12700000000E+03 0.  0.
<mgrwt>
<rscale>  0 0.40096556E+03</rscale>
<asrwt>0</asrwt>
<pdfrwt beam="1">  1        2 0.15950714E-01 0.40096556E+03</pdfrwt>
<pdfrwt beam="2">  1       -2 0.51425430E-01 0.40096556E+03</pdfrwt>
<totfact> 0.13248389E+03</totfact>
</mgrwt>
</event>
<event>
 4    1  0.9508302E-005  0.3800520E+03  0.7818608E-02  0.1050915E+00
          2   -1    0    0  501    0  0.00000000000E+00  0.00000000000E+00  0.17257467749E+04  0.17257467749E+04  0.25500000000E-02 0.  1.
         -2   -1    0    0    0  501 -0.00000000000E+00 -0.00000000000E+00 -0.20924210226E+02  0.20924210382E+02  0.25500000000E-02 0. -1.
    5000001    1    1    2    0    0 -0.52699813176E+02 -0.95374059162E+02  0.43859361881E+03  0.46943247004E+03  0.12700000000E+03 0.  0.
   -5000001    1    1    2    0    0  0.52699813176E+02  0.95374059162E+02  0.12662289458E+04  0.12772385152E+04  0.12700000000E+03 0.  0.
<mgrwt>
<rscale>  0 0.38005204E+03</rscale>
<asrwt>0</asrwt>
<pdfrwt beam="1">  1        2 0.24653541E+00 0.38005204E+03</pdfrwt>
<pdfrwt beam="2">  1       -2 0.29891710E-02 0.38005204E+03</pdfrwt>
<totfact> 0.51353591E+03</totfact>
</mgrwt>
</event>
<event>
 4    1  0.9508302E-005  0.4632223E+03  0.7818608E-02  0.1023851E+00
         -2   -1    0    0    0  501 -0.00000000000E+00  0.00000000000E+00  0.68787636422E+03  0.68787636422E+03  0.25500000000E-02 0. -1.
          2   -1    0    0  501    0  0.00000000000E+00 -0.00000000000E+00 -0.77984546184E+02  0.77984546225E+02  0.25500000000E-02 0.  1.
    5000001    1    1    2    0    0  0.42785848683E+02  0.17829582049E+03  0.20176548350E+03  0.30076292787E+03  0.12700000000E+03 0.  0.
   -5000001    1    1    2    0    0 -0.42785848683E+02 -0.17829582049E+03  0.40812633454E+03  0.46509798257E+03  0.12700000000E+03 0.  0.
<mgrwt>
<rscale>  0 0.46322231E+03</rscale>
<asrwt>0</asrwt>
<pdfrwt beam="1">  1        2 0.11140650E-01 0.46322231E+03</pdfrwt>
<pdfrwt beam="2">  1       -2 0.98268051E-01 0.46322231E+03</pdfrwt>
<totfact> 0.50331334E+02</totfact>
</mgrwt>
</event>
<event>
 4    1  0.9508302E-005  0.4573060E+03  0.7818608E-02  0.1025565E+00
          2   -1    0    0  501    0  0.00000000000E+00  0.00000000000E+00  0.29702291993E+04  0.29702291993E+04  0.25500000000E-02 0.  1.
         -2   -1    0    0    0  501 -0.00000000000E+00 -0.00000000000E+00 -0.17602076310E+02  0.17602076495E+02  0.25500000000E-02 0. -1.
    5000001    1    1    2    0    0  0.35056916876E+02 -0.14023016528E+03  0.22834042686E+04  0.22914967904E+04  0.12700000000E+03 0.  0.
   -5000001    1    1    2    0    0 -0.35056916876E+02  0.14023016528E+03  0.66922285437E+03  0.69633448535E+03  0.12700000000E+03 0.  0.
<mgrwt>
<rscale>  0 0.45730603E+03</rscale>
<asrwt>0</asrwt>
<pdfrwt beam="1">  1        2 0.42431878E+00 0.45730603E+03</pdfrwt>
<pdfrwt beam="2">  1       -2 0.25145804E-02 0.45730603E+03</pdfrwt>
<totfact> 0.15540049E+03</totfact>
</mgrwt>
</event>
<event>
 4    1  0.9508302E-005  0.3717166E+03  0.7818608E-02  0.1054039E+00
         -2   -1    0    0    0  501 -0.00000000000E+00  0.00000000000E+00  0.12612404689E+03  0.12612404692E+03  0.25500000000E-02 0. -1.
          2   -1    0    0  501    0  0.00000000000E+00 -0.00000000000E+00 -0.27388352583E+03  0.27388352584E+03  0.25500000000E-02 0.  1.
    5000001    1    1    2    0    0  0.13507172991E+03 -0.12596417982E+02 -0.77490192978E+02  0.20133745795E+03  0.12700000000E+03 0.  0.
   -5000001    1    1    2    0    0 -0.13507172991E+03  0.12596417982E+02 -0.70269285956E+02  0.19867011480E+03  0.12700000000E+03 0.  0.
<mgrwt>
<rscale>  0 0.37171655E+03</rscale>
<asrwt>0</asrwt>
<pdfrwt beam="1">  1        2 0.39126218E-01 0.37171655E+03</pdfrwt>
<pdfrwt beam="2">  1       -2 0.18017721E-01 0.37171655E+03</pdfrwt>
<totfact> 0.33090477E+03</totfact>
</mgrwt>
</event>
<event>
 4    1  0.9508302E-005  0.5917653E+03  0.7818608E-02  0.9922639E-01
         -2   -1    0    0    0  501 -0.00000000000E+00  0.00000000000E+00  0.76367947809E+02  0.76367947852E+02  0.25500000000E-02 0. -1.
          2   -1    0    0  501    0  0.00000000000E+00 -0.00000000000E+00 -0.11463782696E+04  0.11463782696E+04  0.25500000000E-02 0.  1.
    5000001    1    1    2    0    0  0.21251550817E+03 -0.14542512673E+03 -0.38735371056E+03  0.48216512294E+03  0.12700000000E+03 0.  0.
   -5000001    1    1    2    0    0 -0.21251550817E+03  0.14542512673E+03 -0.68265661123E+03  0.74058109451E+03  0.12700000000E+03 0.  0.
<mgrwt>
<rscale>  0 0.59176535E+03</rscale>
<asrwt>0</asrwt>
<pdfrwt beam="1">  1        2 0.16376831E+00 0.59176535E+03</pdfrwt>
<pdfrwt beam="2">  1       -2 0.10909708E-01 0.59176535E+03</pdfrwt>
<totfact> 0.13758277E+03</totfact>
</mgrwt>
</event>
<event>
 4    1  0.9508302E-005  0.6911351E+03  0.7818608E-02  0.9732514E-01
         -2   -1    0    0    0  501 -0.00000000000E+00  0.00000000000E+00  0.11712757752E+03  0.11712757755E+03  0.25500000000E-02 0. -1.
          2   -1    0    0  501    0  0.00000000000E+00 -0.00000000000E+00 -0.10195458944E+04  0.10195458944E+04  0.25500000000E-02 0.  1.
    5000001    1    1    2    0    0 -0.31514747566E+03 -0.13202598586E+02 -0.34988366155E+03  0.48789324308E+03  0.12700000000E+03 0.  0.
   -5000001    1    1    2    0    0  0.31514747566E+03  0.13202598586E+02 -0.55253465536E+03  0.64878022889E+03  0.12700000000E+03 0.  0.
<mgrwt>
<rscale>  0 0.69113513E+03</rscale>
<asrwt>0</asrwt>
<pdfrwt beam="1">  1        2 0.14564941E+00 0.69113513E+03</pdfrwt>
<pdfrwt beam="2">  1       -2 0.16732512E-01 0.69113513E+03</pdfrwt>
<totfact> 0.79799405E+02</totfact>
</mgrwt>
</event>
<event>
 4    1  0.9508302E-005  0.3556545E+03  0.7818608E-02  0.1060318E+00
          2   -1    0    0  501    0  0.00000000000E+00  0.00000000000E+00  0.50952254971E+03  0.50952254971E+03  0.25500000000E-02 0.  1.
         -2   -1    0    0    0  501 -0.00000000000E+00 -0.00000000000E+00 -0.62063052751E+02  0.62063052803E+02  0.25500000000E-02 0. -1.
    5000001    1    1    2    0    0 -0.72347031965E+02  0.14536208136E+02  0.38482978818E+03  0.41190819396E+03  0.12700000000E+03 0.  0.
   -5000001    1    1    2    0    0  0.72347031965E+02 -0.14536208136E+02  0.62629708772E+02  0.15967740855E+03  0.12700000000E+03 0.  0.
<mgrwt>
<rscale>  0 0.35565447E+03</rscale>
<asrwt>0</asrwt>
<pdfrwt beam="1">  1        2 0.72788933E-01 0.35565447E+03</pdfrwt>
<pdfrwt beam="2">  1       -2 0.88661507E-02 0.35565447E+03</pdfrwt>
<totfact> 0.53505372E+03</totfact>
</mgrwt>
</event>
<event>
 4    1  0.9508302E-005  0.2889194E+03  0.7818608E-02  0.1090915E+00
         -2   -1    0    0    0  501 -0.00000000000E+00  0.00000000000E+00  0.11271367481E+03  0.11271367484E+03  0.25500000000E-02 0. -1.
          2   -1    0    0  501    0  0.00000000000E+00 -0.00000000000E+00 -0.18514711010E+03  0.18514711012E+03  0.25500000000E-02 0.  1.
    5000001    1    1    2    0    0 -0.37023774512E+02  0.32187107318E+02 -0.86010964552E+02  0.16103929887E+03  0.12700000000E+03 0.  0.
   -5000001    1    1    2    0    0  0.37023774512E+02 -0.32187107318E+02  0.13577529260E+02  0.13682148610E+03  0.12700000000E+03 0.  0.
<mgrwt>
<rscale>  0 0.28891944E+03</rscale>
<asrwt>0</asrwt>
<pdfrwt beam="1">  1        2 0.26449587E-01 0.28891944E+03</pdfrwt>
<pdfrwt beam="2">  1       -2 0.16101954E-01 0.28891944E+03</pdfrwt>
<totfact> 0.61056984E+03</totfact>
</mgrwt>
</event>
<event>
 4    1  0.9508302E-005  0.6470013E+03  0.7818608E-02  0.9812422E-01
          2   -1    0    0  501    0  0.00000000000E+00  0.00000000000E+00  0.16063977474E+03  0.16063977476E+03  0.25500000000E-02 0.  1.
         -2   -1    0    0    0  501 -0.00000000000E+00 -0.00000000000E+00 -0.65147418597E+03  0.65147418597E+03  0.25500000000E-02 0. -1.
    5000001    1    1    2    0    0 -0.16293278449E+02 -0.28808252738E+03 -0.33650898456E+03  0.46111203649E+03  0.12700000000E+03 0.  0.
   -5000001    1    1    2    0    0  0.16293278449E+02  0.28808252738E+03 -0.15432542667E+03  0.35100192424E+03  0.12700000000E+03 0.  0.
<mgrwt>
<rscale>  0 0.64700129E+03</rscale>
<asrwt>0</asrwt>
<pdfrwt beam="1">  1        2 0.22948540E-01 0.64700129E+03</pdfrwt>
<pdfrwt beam="2">  1       -2 0.93067739E-01 0.64700129E+03</pdfrwt>
<totfact> 0.23911840E+02</totfact>
</mgrwt>
</event>
<event>
 4    1  0.9508302E-005  0.4390823E+03  0.7818608E-02  0.1031029E+00
         -2   -1    0    0    0  501 -0.00000000000E+00  0.00000000000E+00  0.22130744969E+02  0.22130745116E+02  0.25500000000E-02 0. -1.
          2   -1    0    0  501    0  0.00000000000E+00 -0.00000000000E+00 -0.21778891824E+04  0.21778891824E+04  0.25500000000E-02 0.  1.
    5000001    1    1    2    0    0  0.16497072820E+03 -0.57986418835E+02 -0.12713871592E+04  0.12896247805E+04  0.12700000000E+03 0.  0.
   -5000001    1    1    2    0    0 -0.16497072820E+03  0.57986418835E+02 -0.88437127829E+03  0.91039514706E+03  0.12700000000E+03 0.  0.
<mgrwt>
<rscale>  0 0.43908227E+03</rscale>
<asrwt>0</asrwt>
<pdfrwt beam="1">  1        2 0.31112689E+00 0.43908227E+03</pdfrwt>
<pdfrwt beam="2">  1       -2 0.31615364E-02 0.43908227E+03</pdfrwt>
<totfact> 0.28120232E+03</totfact>
</mgrwt>
</event>
<event>
 4    1  0.9508302E-005  0.4586092E+03  0.7818608E-02  0.1025185E+00
          2   -1    0    0  501    0  0.00000000000E+00  0.00000000000E+00  0.11372554115E+04  0.11372554115E+04  0.25500000000E-02 0.  1.
         -2   -1    0    0    0  501 -0.00000000000E+00 -0.00000000000E+00 -0.46234637327E+02  0.46234637397E+02  0.25500000000E-02 0. -1.
    5000001    1    1    2    0    0 -0.18574664226E+03 -0.35782690779E+02  0.47874416871E+03  0.53019543108E+03  0.12700000000E+03 0.  0.
   -5000001    1    1    2    0    0  0.18574664226E+03  0.35782690779E+02  0.61227660546E+03  0.65329461781E+03  0.12700000000E+03 0.  0.
<mgrwt>
<rscale>  0 0.45860916E+03</rscale>
<asrwt>0</asrwt>
<pdfrwt beam="1">  1        2 0.16246503E+00 0.45860916E+03</pdfrwt>
<pdfrwt beam="2">  1       -2 0.66049495E-02 0.45860916E+03</pdfrwt>
<totfact> 0.31070252E+03</totfact>
</mgrwt>
</event>
<event>
 4    1  0.9508302E-005  0.3786518E+03  0.7818608E-02  0.1051433E+00
         -2   -1    0    0    0  501 -0.00000000000E+00  0.00000000000E+00  0.55300205498E+02  0.55300205557E+02  0.25500000000E-02 0. -1.
          2   -1    0    0  501    0  0.00000000000E+00 -0.00000000000E+00 -0.64817647576E+03  0.64817647577E+03  0.25500000000E-02 0.  1.
    5000001    1    1    2    0    0 -0.73412427770E+02  0.11262235819E+03 -0.37172359733E+03  0.41518744313E+03  0.12700000000E+03 0.  0.
   -5000001    1    1    2    0    0  0.73412427770E+02 -0.11262235819E+03 -0.22115267293E+03  0.28828923820E+03  0.12700000000E+03 0.  0.
<mgrwt>
<rscale>  0 0.37865178E+03</rscale>
<asrwt>0</asrwt>
<pdfrwt beam="1">  1        2 0.92596635E-01 0.37865178E+03</pdfrwt>
<pdfrwt beam="2">  1       -2 0.79000297E-02 0.37865178E+03</pdfrwt>
<totfact> 0.48787987E+03</totfact>
</mgrwt>
</event>
<event>
 4    1  0.9508302E-005  0.3093583E+03  0.7818608E-02  0.1080654E+00
          2   -1    0    0  501    0  0.00000000000E+00  0.00000000000E+00  0.19899729247E+03  0.19899729249E+03  0.25500000000E-02 0.  1.
         -2   -1    0    0    0  501 -0.00000000000E+00 -0.00000000000E+00 -0.12023097556E+03  0.12023097558E+03  0.25500000000E-02 0. -1.
    5000001    1    1    2    0    0 -0.29068427670E+02  0.16505428638E+02 -0.44950893972E+02  0.13880556736E+03  0.12700000000E+03 0.  0.
   -5000001    1    1    2    0    0  0.29068427670E+02 -0.16505428638E+02  0.12371721088E+03  0.18042270071E+03  0.12700000000E+03 0.  0.
<mgrwt>
<rscale>  0 0.30935829E+03</rscale>
<asrwt>0</asrwt>
<pdfrwt beam="1">  1        2 0.28428184E-01 0.30935829E+03</pdfrwt>
<pdfrwt beam="2">  1       -2 0.17175854E-01 0.30935829E+03</pdfrwt>
<totfact> 0.50698807E+03</totfact>
</mgrwt>
</event>
<event>
 4    1  0.9508302E-005  0.6135560E+03  0.7818608E-02  0.9877674E-01
         -2   -1    0    0    0  501 -0.00000000000E+00  0.00000000000E+00  0.35993541611E+02  0.35993541702E+02  0.25500000000E-02 0. -1.
          2   -1    0    0  501    0  0.00000000000E+00 -0.00000000000E+00 -0.26147120120E+04  0.26147120120E+04  0.25500000000E-02 0.  1.
    5000001    1    1    2    0    0 -0.26970407232E+03  0.71817562482E+02 -0.13293527551E+04  0.13642601645E+04  0.12700000000E+03 0.  0.
   -5000001    1    1    2    0    0  0.26970407232E+03 -0.71817562482E+02 -0.12493657154E+04  0.12864453893E+04  0.12700000000E+03 0.  0.
<mgrwt>
<rscale>  0 0.61355601E+03</rscale>
<asrwt>0</asrwt>
<pdfrwt beam="1">  1        2 0.37353017E+00 0.61355601E+03</pdfrwt>
<pdfrwt beam="2">  1       -2 0.51419362E-02 0.61355601E+03</pdfrwt>
<totfact> 0.79264736E+02</totfact>
</mgrwt>
</event>
<event>
 4    1  0.9508302E-005  0.4396750E+03  0.7818608E-02  0.1030847E+00
         -2   -1    0    0    0  501 -0.00000000000E+00  0.00000000000E+00  0.13969764414E+02  0.13969764646E+02  0.25500000000E-02 0. -1.
          2   -1    0    0  501    0  0.00000000000E+00 -0.00000000000E+00 -0.34595083754E+04  0.34595083754E+04  0.25500000000E-02 0.  1.
    5000001    1    1    2    0    0  0.48962805250E-01  0.16952570020E+03 -0.21875044606E+04  0.21977360466E+04  0.12700000000E+03 0.  0.
   -5000001    1    1    2    0    0 -0.48962805250E-01 -0.16952570020E+03 -0.12580341503E+04  0.12757420934E+04  0.12700000000E+03 0.  0.
<mgrwt>
<rscale>  0 0.43967496E+03</rscale>
<asrwt>0</asrwt>
<pdfrwt beam="1">  1        2 0.49421494E+00 0.43967496E+03</pdfrwt>
<pdfrwt beam="2">  1       -2 0.19956829E-02 0.43967496E+03</pdfrwt>
<totfact> 0.11724310E+03</totfact>
</mgrwt>
</event>
<event>
 4    1  0.9508302E-005  0.5059716E+03  0.7818608E-02  0.1012232E+00
         -2   -1    0    0    0  501 -0.00000000000E+00  0.00000000000E+00  0.58182026097E+02  0.58182026153E+02  0.25500000000E-02 0. -1.
          2   -1    0    0  501    0  0.00000000000E+00 -0.00000000000E+00 -0.11000274692E+04  0.11000274692E+04  0.25500000000E-02 0.  1.
    5000001    1    1    2    0    0  0.25897600118E+02  0.15965466798E+03 -0.85822256384E+03  0.88251644052E+03  0.12700000000E+03 0.  0.
   -5000001    1    1    2    0    0 -0.25897600118E+02 -0.15965466798E+03 -0.18362287927E+03  0.27569305485E+03  0.12700000000E+03 0.  0.
<mgrwt>
<rscale>  0 0.50597165E+03</rscale>
<asrwt>0</asrwt>
<pdfrwt beam="1">  1        2 0.15714677E+00 0.50597165E+03</pdfrwt>
<pdfrwt beam="2">  1       -2 0.83117187E-02 0.50597165E+03</pdfrwt>
<totfact> 0.22705385E+03</totfact>
</mgrwt>
</event>
<event>
 4    1  0.9508302E-005  0.3693346E+03  0.7818608E-02  0.1054948E+00
          2   -1    0    0  501    0  0.00000000000E+00  0.00000000000E+00  0.13114923382E+04  0.13114923382E+04  0.25500000000E-02 0.  1.
         -2   -1    0    0    0  501 -0.00000000000E+00 -0.00000000000E+00 -0.26002444983E+02  0.26002445108E+02  0.25500000000E-02 0. -1.
    5000001    1    1    2    0    0 -0.68689494651E+02  0.18413738238E+02  0.23118697377E+03  0.27319174451E+03  0.12700000000E+03 0.  0.
   -5000001    1    1    2    0    0  0.68689494651E+02 -0.18413738238E+02  0.10543029195E+04  0.10643030388E+04  0.12700000000E+03 0.  0.
<mgrwt>
<rscale>  0 0.36933458E+03</rscale>
<asrwt>0</asrwt>
<pdfrwt beam="1">  1        2 0.18735606E+00 0.36933458E+03</pdfrwt>
<pdfrwt beam="2">  1       -2 0.37146347E-02 0.36933458E+03</pdfrwt>
<totfact> 0.60296302E+03</totfact>
</mgrwt>
</event>
<event>
 4    1  0.9508302E-005  0.3524766E+03  0.7818608E-02  0.1061603E+00
         -2   -1    0    0    0  501 -0.00000000000E+00  0.00000000000E+00  0.53658366834E+03  0.53658366835E+03  0.25500000000E-02 0. -1.
          2   -1    0    0  501    0  0.00000000000E+00 -0.00000000000E+00 -0.57884610488E+02  0.57884610544E+02  0.25500000000E-02 0.  1.
    5000001    1    1    2    0    0 -0.47995836430E+02  0.10662455296E+03  0.17951772474E+03  0.24905422925E+03  0.12700000000E+03 0.  0.
   -5000001    1    1    2    0    0  0.47995836430E+02 -0.10662455296E+03  0.29918133311E+03  0.34541404964E+03  0.12700000000E+03 0.  0.
<mgrwt>
<rscale>  0 0.35247659E+03</rscale>
<asrwt>0</asrwt>
<pdfrwt beam="1">  1        2 0.82692300E-02 0.35247659E+03</pdfrwt>
<pdfrwt beam="2">  1       -2 0.76654811E-01 0.35247659E+03</pdfrwt>
<totfact> 0.12838103E+03</totfact>
</mgrwt>
</event>
<event>
 4    1  0.9508302E-005  0.3821995E+03  0.7818608E-02  0.1050124E+00
          2   -1    0    0  501    0  0.00000000000E+00  0.00000000000E+00  0.30237733571E+03  0.30237733572E+03  0.25500000000E-02 0.  1.
         -2   -1    0    0    0  501 -0.00000000000E+00 -0.00000000000E+00 -0.12077334857E+03  0.12077334860E+03  0.25500000000E-02 0. -1.
    5000001    1    1    2    0    0  0.13497534115E+03  0.32056869798E+02  0.53352664764E+02  0.19550317761E+03  0.12700000000E+03 0.  0.
   -5000001    1    1    2    0    0 -0.13497534115E+03 -0.32056869798E+02  0.12825132237E+03  0.22764750671E+03  0.12700000000E+03 0.  0.
<mgrwt>
<rscale>  0 0.38219955E+03</rscale>
<asrwt>0</asrwt>
<pdfrwt beam="1">  1        2 0.43196761E-01 0.38219955E+03</pdfrwt>
<pdfrwt beam="2">  1       -2 0.17253336E-01 0.38219955E+03</pdfrwt>
<totfact> 0.31994552E+03</totfact>
</mgrwt>
</event>
<event>
 4    1  0.9508302E-005  0.3880188E+03  0.7818608E-02  0.1048009E+00
         -2   -1    0    0    0  501 -0.00000000000E+00  0.00000000000E+00  0.47668943381E+03  0.47668943382E+03  0.25500000000E-02 0. -1.
          2   -1    0    0  501    0  0.00000000000E+00 -0.00000000000E+00 -0.78960534187E+02  0.78960534228E+02  0.25500000000E-02 0.  1.
    5000001    1    1    2    0    0  0.10347622843E+03  0.98544310694E+02  0.24619348799E+03  0.31170265406E+03  0.12700000000E+03 0.  0.
   -5000001    1    1    2    0    0 -0.10347622843E+03 -0.98544310694E+02  0.15153541164E+03  0.24394731399E+03  0.12700000000E+03 0.  0.
<mgrwt>
<rscale>  0 0.38801883E+03</rscale>
<asrwt>0</asrwt>
<pdfrwt beam="1">  1        2 0.11280077E-01 0.38801883E+03</pdfrwt>
<pdfrwt beam="2">  1       -2 0.68098488E-01 0.38801883E+03</pdfrwt>
<totfact> 0.11244061E+03</totfact>
</mgrwt>
</event>
<event>
 4    1  0.9508302E-005  0.3610692E+03  0.7818608E-02  0.1058161E+00
         -2   -1    0    0    0  501 -0.00000000000E+00  0.00000000000E+00  0.93289426646E+02  0.93289426681E+02  0.25500000000E-02 0. -1.
          2   -1    0    0  501    0  0.00000000000E+00 -0.00000000000E+00 -0.34937238100E+03  0.34937238101E+03  0.25500000000E-02 0.  1.
    5000001    1    1    2    0    0 -0.18737001579E+02  0.12657797267E+03 -0.13971664150E+03  0.22808506813E+03  0.12700000000E+03 0.  0.
   -5000001    1    1    2    0    0  0.18737001579E+02 -0.12657797267E+03 -0.11636631285E+03  0.21457673956E+03  0.12700000000E+03 0.  0.
<mgrwt>
<rscale>  0 0.36106924E+03</rscale>
<asrwt>0</asrwt>
<pdfrwt beam="1">  1        2 0.49910339E-01 0.36106924E+03</pdfrwt>
<pdfrwt beam="2">  1       -2 0.13327061E-01 0.36106924E+03</pdfrwt>
<totfact> 0.42000845E+03</totfact>
</mgrwt>
</event>
<event>
 4    1  0.9508302E-005  0.3563854E+03  0.7818608E-02  0.1060024E+00
          2   -1    0    0  501    0  0.00000000000E+00  0.00000000000E+00  0.55180343101E+03  0.55180343102E+03  0.25500000000E-02 0.  1.
         -2   -1    0    0    0  501 -0.00000000000E+00 -0.00000000000E+00 -0.57543381842E+02  0.57543381898E+02  0.25500000000E-02 0. -1.
    5000001    1    1    2    0    0  0.40482161570E+01 -0.11480966570E+03  0.16291511295E+03  0.23636408657E+03  0.12700000000E+03 0.  0.
   -5000001    1    1    2    0    0 -0.40482161570E+01  0.11480966570E+03  0.33134493622E+03  0.37298272635E+03  0.12700000000E+03 0.  0.
<mgrwt>
<rscale>  0 0.35638538E+03</rscale>
<asrwt>0</asrwt>
<pdfrwt beam="1">  1        2 0.78829064E-01 0.35638538E+03</pdfrwt>
<pdfrwt beam="2">  1       -2 0.82204829E-02 0.35638538E+03</pdfrwt>
<totfact> 0.55116185E+03</totfact>
</mgrwt>
</event>
<event>
 4    1  0.9508302E-005  0.1064049E+04  0.7818608E-02  0.9240958E-01
         -2   -1    0    0    0  501 -0.00000000000E+00  0.00000000000E+00  0.20735043707E+03  0.20735043709E+03  0.25500000000E-02 0. -1.
          2   -1    0    0  501    0  0.00000000000E+00 -0.00000000000E+00 -0.13650806742E+04  0.13650806742E+04  0.25500000000E-02 0.  1.
    5000001    1    1    2    0    0 -0.24071760128E+03 -0.41983576559E+03 -0.84615165984E+03  0.98301000253E+03  0.12700000000E+03 0.  0.
   -5000001    1    1    2    0    0  0.24071760128E+03  0.41983576559E+03 -0.31157857729E+03  0.58942110876E+03  0.12700000000E+03 0.  0.
<mgrwt>
<rscale>  0 0.10640490E+04</rscale>
<asrwt>0</asrwt>
<pdfrwt beam="1">  1        2 0.19501152E+00 0.10640490E+04</pdfrwt>
<pdfrwt beam="2">  1       -2 0.29621492E-01 0.10640490E+04</pdfrwt>
<totfact> 0.18019124E+02</totfact>
</mgrwt>
</event>
<event>
 4    1  0.9508302E-005  0.3388632E+03  0.7818608E-02  0.1067281E+00
         -2   -1    0    0    0  501 -0.00000000000E+00  0.00000000000E+00  0.24221791481E+02  0.24221791616E+02  0.25500000000E-02 0. -1.
          2   -1    0    0  501    0  0.00000000000E+00 -0.00000000000E+00 -0.11851751610E+04  0.11851751610E+04  0.25500000000E-02 0.  1.
    5000001    1    1    2    0    0 -0.10788402640E+03  0.30073268720E+02 -0.55945266137E+03  0.58451659083E+03  0.12700000000E+03 0.  0.
   -5000001    1    1    2    0    0  0.10788402640E+03 -0.30073268720E+02 -0.60150070812E+03  0.62488036175E+03  0.12700000000E+03 0.  0.
<mgrwt>
<rscale>  0 0.33886319E+03</rscale>
<asrwt>0</asrwt>
<pdfrwt beam="1">  1        2 0.16931070E+00 0.33886319E+03</pdfrwt>
<pdfrwt beam="2">  1       -2 0.34602567E-02 0.33886319E+03</pdfrwt>
<totfact> 0.78425541E+03</totfact>
</mgrwt>
</event>
<event>
 4    1  0.9508302E-005  0.2600379E+03  0.7818608E-02  0.1107120E+00
          2   -1    0    0  501    0  0.00000000000E+00  0.00000000000E+00  0.75910787280E+03  0.75910787281E+03  0.25500000000E-02 0.  1.
         -2   -1    0    0    0  501 -0.00000000000E+00 -0.00000000000E+00 -0.22269467966E+02  0.22269468112E+02  0.25500000000E-02 0. -1.
    5000001    1    1    2    0    0  0.17704160090E+02 -0.15931289617E+02  0.41182722637E+03  0.43162241329E+03  0.12700000000E+03 0.  0.
   -5000001    1    1    2    0    0 -0.17704160090E+02  0.15931289617E+02  0.32501117847E+03  0.34975492763E+03  0.12700000000E+03 0.  0.
<mgrwt>
<rscale>  0 0.26003791E+03</rscale>
<asrwt>0</asrwt>
<pdfrwt beam="1">  1        2 0.10844399E+00 0.26003791E+03</pdfrwt>
<pdfrwt beam="2">  1       -2 0.31813524E-02 0.26003791E+03</pdfrwt>
<totfact> 0.16011523E+04</totfact>
</mgrwt>
</event>
<event>
 4    1  0.9508302E-005  0.7051487E+03  0.7818608E-02  0.9708467E-01
         -2   -1    0    0    0  501 -0.00000000000E+00  0.00000000000E+00  0.33659445787E+03  0.33659445788E+03  0.25500000000E-02 0. -1.
          2   -1    0    0  501    0  0.00000000000E+00 -0.00000000000E+00 -0.36931293694E+03  0.36931293695E+03  0.25500000000E-02 0.  1.
    5000001    1    1    2    0    0  0.10296425750E+03 -0.29081365597E+03 -0.13052344805E+03  0.35824515532E+03  0.12700000000E+03 0.  0.
   -5000001    1    1    2    0    0 -0.10296425750E+03  0.29081365597E+03  0.97804968985E+02  0.34766223951E+03  0.12700000000E+03 0.  0.
<mgrwt>
<rscale>  0 0.70514874E+03</rscale>
<asrwt>0</asrwt>
<pdfrwt beam="1">  1        2 0.52758991E-01 0.70514874E+03</pdfrwt>
<pdfrwt beam="2">  1       -2 0.48084923E-01 0.70514874E+03</pdfrwt>
<totfact> 0.39054866E+02</totfact>
</mgrwt>
</event>
<event>
 4    1  0.9508302E-005  0.4792601E+03  0.7818608E-02  0.1019339E+00
          2   -1    0    0  501    0  0.00000000000E+00  0.00000000000E+00  0.15341568905E+04  0.15341568905E+04  0.25500000000E-02 0.  1.
         -2   -1    0    0    0  501 -0.00000000000E+00 -0.00000000000E+00 -0.37429387916E+02  0.37429388003E+02  0.25500000000E-02 0. -1.
    5000001    1    1    2    0    0  0.54838777812E+02  0.16183917006E+03  0.11089906837E+04  0.11292424651E+04  0.12700000000E+03 0.  0.
   -5000001    1    1    2    0    0 -0.54838777812E+02 -0.16183917006E+03  0.38773681891E+03  0.44234381341E+03  0.12700000000E+03 0.  0.
<mgrwt>
<rscale>  0 0.47926007E+03</rscale>
<asrwt>0</asrwt>
<pdfrwt beam="1">  1        2 0.21916523E+00 0.47926007E+03</pdfrwt>
<pdfrwt beam="2">  1       -2 0.53470565E-02 0.47926007E+03</pdfrwt>
<totfact> 0.26441369E+03</totfact>
</mgrwt>
</event>
<event>
 4    1  0.9508302E-005  0.3235802E+03  0.7818608E-02  0.1074013E+00
         -2   -1    0    0    0  501 -0.00000000000E+00  0.00000000000E+00  0.44913300029E+03  0.44913300030E+03  0.25500000000E-02 0. -1.
          2   -1    0    0  501    0  0.00000000000E+00 -0.00000000000E+00 -0.58281243892E+02  0.58281243948E+02  0.25500000000E-02 0.  1.
    5000001    1    1    2    0    0 -0.87572570683E+01 -0.90154081899E+02  0.26273813806E+03  0.30555650415E+03  0.12700000000E+03 0.  0.
   -5000001    1    1    2    0    0  0.87572570683E+01  0.90154081899E+02  0.12811361834E+03  0.20185774010E+03  0.12700000000E+03 0.  0.
<mgrwt>
<rscale>  0 0.32358016E+03</rscale>
<asrwt>0</asrwt>
<pdfrwt beam="1">  1        2 0.83258917E-02 0.32358016E+03</pdfrwt>
<pdfrwt beam="2">  1       -2 0.64161859E-01 0.32358016E+03</pdfrwt>
<totfact> 0.18631367E+03</totfact>
</mgrwt>
</event>
<event>
 4    1  0.9508302E-005  0.3984627E+03  0.7818608E-02  0.1044313E+00
          2   -1    0    0  501    0  0.00000000000E+00  0.00000000000E+00  0.18623543797E+03  0.18623543799E+03  0.25500000000E-02 0.  1.
         -2   -1    0    0    0  501 -0.00000000000E+00 -0.00000000000E+00 -0.21313410837E+03  0.21313410839E+03  0.25500000000E-02 0. -1.
    5000001    1    1    2    0    0 -0.14903466338E+03  0.48066951916E+01 -0.49997225862E+02  0.20214637717E+03  0.12700000000E+03 0.  0.
   -5000001    1    1    2    0    0  0.14903466338E+03 -0.48066951916E+01  0.23098555467E+02  0.19722316921E+03  0.12700000000E+03 0.  0.
<mgrwt>
<rscale>  0 0.39846267E+03</rscale>
<asrwt>0</asrwt>
<pdfrwt beam="1">  1        2 0.26605063E-01 0.39846267E+03</pdfrwt>
<pdfrwt beam="2">  1       -2 0.30447730E-01 0.39846267E+03</pdfrwt>
<totfact> 0.20110128E+03</totfact>
</mgrwt>
</event>
<event>
 4    1  0.9508302E-005  0.4103247E+03  0.7818608E-02  0.1040262E+00
          2   -1    0    0  501    0  0.00000000000E+00  0.00000000000E+00  0.38105894142E+03  0.38105894143E+03  0.25500000000E-02 0.  1.
         -2   -1    0    0    0  501 -0.00000000000E+00 -0.00000000000E+00 -0.11045952743E+03  0.11045952746E+03  0.25500000000E-02 0. -1.
    5000001    1    1    2    0    0  0.13174507654E+03  0.13176230860E+02  0.24529723977E+03  0.30631701567E+03  0.12700000000E+03 0.  0.
   -5000001    1    1    2    0    0 -0.13174507654E+03 -0.13176230860E+02  0.25302174219E+02  0.18520145321E+03  0.12700000000E+03 0.  0.
<mgrwt>
<rscale>  0 0.41032470E+03</rscale>
<asrwt>0</asrwt>
<pdfrwt beam="1">  1        2 0.54436991E-01 0.41032470E+03</pdfrwt>
<pdfrwt beam="2">  1       -2 0.15779933E-01 0.41032470E+03</pdfrwt>
<totfact> 0.28934514E+03</totfact>
</mgrwt>
</event>
<event>
 4    1  0.9508302E-005  0.5801817E+03  0.7818608E-02  0.9947398E-01
         -2   -1    0    0    0  501 -0.00000000000E+00  0.00000000000E+00  0.36743848200E+03  0.36743848200E+03  0.25500000000E-02 0. -1.
          2   -1    0    0  501    0  0.00000000000E+00 -0.00000000000E+00 -0.22902528509E+03  0.22902528511E+03  0.25500000000E-02 0.  1.
    5000001    1    1    2    0    0 -0.26117082226E+02  0.24829645549E+03 -0.83456073813E+01  0.28023540275E+03  0.12700000000E+03 0.  0.
   -5000001    1    1    2    0    0  0.26117082226E+02 -0.24829645549E+03  0.14675880428E+03  0.31622836436E+03  0.12700000000E+03 0.  0.
<mgrwt>
<rscale>  0 0.58018171E+03</rscale>
<asrwt>0</asrwt>
<pdfrwt beam="1">  1        2 0.32717898E-01 0.58018171E+03</pdfrwt>
<pdfrwt beam="2">  1       -2 0.52491211E-01 0.58018171E+03</pdfrwt>
<totfact> 0.55674609E+02</totfact>
</mgrwt>
</event>
<event>
 4    1  0.9508302E-005  0.4011538E+03  0.7818608E-02  0.1043381E+00
         -2   -1    0    0    0  501 -0.00000000000E+00  0.00000000000E+00  0.64673297092E+02  0.64673297142E+02  0.25500000000E-02 0. -1.
          2   -1    0    0  501    0  0.00000000000E+00 -0.00000000000E+00 -0.62206640325E+03  0.62206640326E+03  0.25500000000E-02 0.  1.
    5000001    1    1    2    0    0  0.63817937881E+02  0.18689492789E+02 -0.38539977362E+02  0.14844647585E+03  0.12700000000E+03 0.  0.
   -5000001    1    1    2    0    0 -0.63817937881E+02 -0.18689492789E+02 -0.51885312880E+03  0.53829322455E+03  0.12700000000E+03 0.  0.
<mgrwt>
<rscale>  0 0.40115376E+03</rscale>
<asrwt>0</asrwt>
<pdfrwt beam="1">  1        2 0.88866626E-01 0.40115376E+03</pdfrwt>
<pdfrwt beam="2">  1       -2 0.92390428E-02 0.40115376E+03</pdfrwt>
<totfact> 0.39994752E+03</totfact>
</mgrwt>
</event>
<event>
 4    1  0.9508302E-005  0.3605832E+03  0.7818608E-02  0.1058353E+00
          2   -1    0    0  501    0  0.00000000000E+00  0.00000000000E+00  0.44238063545E+03  0.44238063546E+03  0.25500000000E-02 0.  1.
         -2   -1    0    0    0  501 -0.00000000000E+00 -0.00000000000E+00 -0.73477579988E+02  0.73477580032E+02  0.25500000000E-02 0. -1.
    5000001    1    1    2    0    0  0.85433177472E+02  0.92423913654E+02  0.15135957207E+03  0.23426422622E+03  0.12700000000E+03 0.  0.
   -5000001    1    1    2    0    0 -0.85433177472E+02 -0.92423913654E+02  0.21754348339E+03  0.28159398927E+03  0.12700000000E+03 0.  0.
<mgrwt>
<rscale>  0 0.36058319E+03</rscale>
<asrwt>0</asrwt>
<pdfrwt beam="1">  1        2 0.63197234E-01 0.36058319E+03</pdfrwt>
<pdfrwt beam="2">  1       -2 0.10496797E-01 0.36058319E+03</pdfrwt>
<totfact> 0.47823318E+03</totfact>
</mgrwt>
</event>
<event>
 4    1  0.9508302E-005  0.4110925E+03  0.7818608E-02  0.1040005E+00
          2   -1    0    0  501    0  0.00000000000E+00  0.00000000000E+00  0.86364016855E+02  0.86364016892E+02  0.25500000000E-02 0.  1.
         -2   -1    0    0    0  501 -0.00000000000E+00 -0.00000000000E+00 -0.48919977734E+03  0.48919977735E+03  0.25500000000E-02 0. -1.
    5000001    1    1    2    0    0  0.10286623786E+03  0.11217489360E+03 -0.27753386838E+03  0.34105530013E+03  0.12700000000E+03 0.  0.
   -5000001    1    1    2    0    0 -0.10286623786E+03 -0.11217489360E+03 -0.12530189210E+03  0.23450849411E+03  0.12700000000E+03 0.  0.
<mgrwt>
<rscale>  0 0.41109249E+03</rscale>
<asrwt>0</asrwt>
<pdfrwt beam="1">  1        2 0.12337717E-01 0.41109249E+03</pdfrwt>
<pdfrwt beam="2">  1       -2 0.69885681E-01 0.41109249E+03</pdfrwt>
<totfact> 0.95272829E+02</totfact>
</mgrwt>
</event>
<event>
 4    1  0.9508302E-005  0.4933835E+03  0.7818608E-02  0.1015520E+00
         -2   -1    0    0    0  501 -0.00000000000E+00  0.00000000000E+00  0.69700429207E+02  0.69700429254E+02  0.25500000000E-02 0. -1.
          2   -1    0    0  501    0  0.00000000000E+00 -0.00000000000E+00 -0.87311961950E+03  0.87311961951E+03  0.25500000000E-02 0.  1.
    5000001    1    1    2    0    0  0.43156424841E+02  0.84625635817E+02 -0.40631070610E+02  0.16371884174E+03  0.12700000000E+03 0.  0.
   -5000001    1    1    2    0    0 -0.43156424841E+02 -0.84625635817E+02 -0.76278811968E+03  0.77910120702E+03  0.12700000000E+03 0.  0.
<mgrwt>
<rscale>  0 0.49338347E+03</rscale>
<asrwt>0</asrwt>
<pdfrwt beam="1">  1        2 0.12473137E+00 0.49338347E+03</pdfrwt>
<pdfrwt beam="2">  1       -2 0.99572047E-02 0.49338347E+03</pdfrwt>
<totfact> 0.23398300E+03</totfact>
</mgrwt>
</event>
<event>
 4    1  0.9508302E-005  0.4458507E+03  0.7818608E-02  0.1028967E+00
         -2   -1    0    0    0  501 -0.00000000000E+00  0.00000000000E+00  0.10115900935E+04  0.10115900935E+04  0.25500000000E-02 0.  1.
          2   -1    0    0  501    0  0.00000000000E+00 -0.00000000000E+00 -0.49126341295E+02  0.49126341362E+02  0.25500000000E-02 0. -1.
    5000001    1    1    2    0    0 -0.85761863930E+02 -0.13973379382E+03  0.28669770010E+03  0.35384347060E+03  0.12700000000E+03 0.  0.
   -5000001    1    1    2    0    0  0.85761863930E+02  0.13973379382E+03  0.67576605213E+03  0.70687296430E+03  0.12700000000E+03 0.  0.
<mgrwt>
<rscale>  0 0.44585074E+03</rscale>
<asrwt>0</asrwt>
<pdfrwt beam="1">  1        2 0.70180494E-02 0.44585074E+03</pdfrwt>
<pdfrwt beam="2">  1       -2 0.14451286E+00 0.44585074E+03</pdfrwt>
<totfact> 0.35271603E+02</totfact>
</mgrwt>
</event>
<event>
 4    1  0.9508302E-005  0.3999266E+03  0.7818608E-02  0.1043805E+00
          2   -1    0    0  501    0  0.00000000000E+00  0.00000000000E+00  0.13503700607E+04  0.13503700607E+04  0.25500000000E-02 0.  1.
         -2   -1    0    0    0  501 -0.00000000000E+00 -0.00000000000E+00 -0.29610640784E+02  0.29610640894E+02  0.25500000000E-02 0. -1.
    5000001    1    1    2    0    0 -0.44568157005E+02  0.14658823161E+03  0.59294812964E+03  0.62545256791E+03  0.12700000000E+03 0.  0.
   -5000001    1    1    2    0    0  0.44568157005E+02 -0.14658823161E+03  0.72781129025E+03  0.75452813366E+03  0.12700000000E+03 0.  0.
<mgrwt>
<rscale>  0 0.39992661E+03</rscale>
<asrwt>0</asrwt>
<pdfrwt beam="1">  1        2 0.19291004E+00 0.39992661E+03</pdfrwt>
<pdfrwt beam="2">  1       -2 0.42300910E-02 0.39992661E+03</pdfrwt>
<totfact> 0.47243029E+03</totfact>
</mgrwt>
</event>
<event>
 4    1  0.9508302E-005  0.4064947E+03  0.7818608E-02  0.1041554E+00
          2   -1    0    0  501    0  0.00000000000E+00  0.00000000000E+00  0.33624417972E+03  0.33624417972E+03  0.25500000000E-02 0.  1.
         -2   -1    0    0    0  501 -0.00000000000E+00 -0.00000000000E+00 -0.12285560951E+03  0.12285560953E+03  0.25500000000E-02 0. -1.
    5000001    1    1    2    0    0  0.55432554062E+02 -0.12302743143E+03  0.20099823144E+03  0.27338216105E+03  0.12700000000E+03 0.  0.
   -5000001    1    1    2    0    0 -0.55432554062E+02  0.12302743143E+03  0.12390338765E+02  0.18571762821E+03  0.12700000000E+03 0.  0.
<mgrwt>
<rscale>  0 0.40649469E+03</rscale>
<asrwt>0</asrwt>
<pdfrwt beam="1">  1        2 0.48034883E-01 0.40649469E+03</pdfrwt>
<pdfrwt beam="2">  1       -2 0.17550801E-01 0.40649469E+03</pdfrwt>
<totfact> 0.27718583E+03</totfact>
</mgrwt>
</event>
<event>
 4    1  0.9508302E-005  0.3356085E+03  0.7818608E-02  0.1068682E+00
         -2   -1    0    0    0  501 -0.00000000000E+00  0.00000000000E+00  0.27650015093E+02  0.27650015211E+02  0.25500000000E-02 0. -1.
          2   -1    0    0  501    0  0.00000000000E+00 -0.00000000000E+00 -0.10183817405E+04  0.10183817405E+04  0.25500000000E-02 0.  1.
    5000001    1    1    2    0    0  0.26094978484E+02 -0.10148913439E+03 -0.39445215248E+03  0.42743712157E+03  0.12700000000E+03 0.  0.
   -5000001    1    1    2    0    0 -0.26094978484E+02  0.10148913439E+03 -0.59627957293E+03  0.61859463415E+03  0.12700000000E+03 0.  0.
<mgrwt>
<rscale>  0 0.33560853E+03</rscale>
<asrwt>0</asrwt>
<pdfrwt beam="1">  1        2 0.14548308E+00 0.33560853E+03</pdfrwt>
<pdfrwt beam="2">  1       -2 0.39500028E-02 0.33560853E+03</pdfrwt>
<totfact> 0.79891859E+03</totfact>
</mgrwt>
</event>
<event>
 4    1  0.9508302E-005  0.4661999E+03  0.7818608E-02  0.1022998E+00
         -2   -1    0    0    0  501 -0.00000000000E+00  0.00000000000E+00  0.80087973974E+03  0.80087973975E+03  0.25500000000E-02 0. -1.
          2   -1    0    0  501    0  0.00000000000E+00 -0.00000000000E+00 -0.67844875137E+02  0.67844875185E+02  0.25500000000E-02 0.  1.
    5000001    1    1    2    0    0  0.34547423940E+02  0.11515397982E+03  0.79329797815E+02  0.19203171714E+03  0.12700000000E+03 0.  0.
   -5000001    1    1    2    0    0 -0.34547423940E+02 -0.11515397982E+03  0.65370506679E+03  0.67669289779E+03  0.12700000000E+03 0.  0.
<mgrwt>
<rscale>  0 0.46619990E+03</rscale>
<asrwt>0</asrwt>
<pdfrwt beam="1">  1        2 0.96921246E-02 0.46619990E+03</pdfrwt>
<pdfrwt beam="2">  1       -2 0.11441140E+00 0.46619990E+03</pdfrwt>
<totfact> 0.41742897E+02</totfact>
</mgrwt>
</event>
<event>
 4    1  0.9508302E-005  0.6802712E+03  0.7818608E-02  0.9751579E-01
         -2   -1    0    0    0  501 -0.00000000000E+00  0.00000000000E+00  0.46424032346E+03  0.46424032346E+03  0.25500000000E-02 0. -1.
          2   -1    0    0  501    0  0.00000000000E+00 -0.00000000000E+00 -0.24920765115E+03  0.24920765116E+03  0.25500000000E-02 0.  1.
    5000001    1    1    2    0    0  0.18791491157E+03  0.17632900346E+03  0.29849415742E+03  0.41428455615E+03  0.12700000000E+03 0.  0.
   -5000001    1    1    2    0    0 -0.18791491157E+03 -0.17632900346E+03 -0.83461485111E+02  0.29916341847E+03  0.12700000000E+03 0.  0.
<mgrwt>
<rscale>  0 0.68027124E+03</rscale>
<asrwt>0</asrwt>
<pdfrwt beam="1">  1        2 0.35601093E-01 0.68027124E+03</pdfrwt>
<pdfrwt beam="2">  1       -2 0.66320045E-01 0.68027124E+03</pdfrwt>
<totfact> 0.30961236E+02</totfact>
</mgrwt>
</event>
<event>
 4    1  0.9508302E-005  0.3048953E+03  0.7818608E-02  0.1082819E+00
          2   -1    0    0  501    0  0.00000000000E+00  0.00000000000E+00  0.52585441301E+03  0.52585441301E+03  0.25500000000E-02 0.  1.
         -2   -1    0    0    0  501 -0.00000000000E+00 -0.00000000000E+00 -0.44195275916E+02  0.44195275990E+02  0.25500000000E-02 0. -1.
    5000001    1    1    2    0    0 -0.31215966069E+02 -0.11859847882E+02  0.38560659908E+03  0.40735309227E+03  0.12700000000E+03 0.  0.
   -5000001    1    1    2    0    0  0.31215966069E+02  0.11859847882E+02  0.96052538009E+02  0.16269659673E+03  0.12700000000E+03 0.  0.
<mgrwt>
<rscale>  0 0.30489527E+03</rscale>
<asrwt>0</asrwt>
<pdfrwt beam="1">  1        2 0.75122062E-01 0.30489527E+03</pdfrwt>
<pdfrwt beam="2">  1       -2 0.63136106E-02 0.30489527E+03</pdfrwt>
<totfact> 0.87404972E+03</totfact>
</mgrwt>
</event>
<event>
 4    1  0.9508302E-005  0.6119299E+03  0.7818608E-02  0.9880960E-01
         -2   -1    0    0    0  501 -0.00000000000E+00  0.00000000000E+00  0.33122709298E+02  0.33122709396E+02  0.25500000000E-02 0. -1.
          2   -1    0    0  501    0  0.00000000000E+00 -0.00000000000E+00 -0.28262946986E+04  0.28262946986E+04  0.25500000000E-02 0.  1.
    5000001    1    1    2    0    0  0.11410304378E+03  0.24232031067E+03 -0.10423499558E+04  0.10836794120E+04  0.12700000000E+03 0.  0.
   -5000001    1    1    2    0    0 -0.11410304378E+03 -0.24232031067E+03 -0.17508220335E+04  0.17757379960E+04  0.12700000000E+03 0.  0.
<mgrwt>
<rscale>  0 0.61192986E+03</rscale>
<asrwt>0</asrwt>
<pdfrwt beam="1">  1        2 0.40375623E+00 0.61192986E+03</pdfrwt>
<pdfrwt beam="2">  1       -2 0.47318174E-02 0.61192986E+03</pdfrwt>
<totfact> 0.69831580E+02</totfact>
</mgrwt>
</event>
<event>
 4    1  0.9508302E-005  0.3742712E+03  0.7818608E-02  0.1053072E+00
         -2   -1    0    0    0  501 -0.00000000000E+00  0.00000000000E+00  0.30115489153E+02  0.30115489261E+02  0.25500000000E-02 0. -1.
          2   -1    0    0  501    0  0.00000000000E+00 -0.00000000000E+00 -0.11628481032E+04  0.11628481032E+04  0.25500000000E-02 0.  1.
    5000001    1    1    2    0    0  0.19507202118E+02  0.11862446923E+03 -0.35401442978E+03  0.39485125316E+03  0.12700000000E+03 0.  0.
   -5000001    1    1    2    0    0 -0.19507202118E+02 -0.11862446923E+03 -0.77871818432E+03  0.79811233935E+03  0.12700000000E+03 0.  0.
<mgrwt>
<rscale>  0 0.37427124E+03</rscale>
<asrwt>0</asrwt>
<pdfrwt beam="1">  1        2 0.16612113E+00 0.37427124E+03</pdfrwt>
<pdfrwt beam="2">  1       -2 0.43022135E-02 0.37427124E+03</pdfrwt>
<totfact> 0.58132459E+03</totfact>
</mgrwt>
</event>
<event>
 4    1  0.9508302E-005  0.4133791E+03  0.7818608E-02  0.1039243E+00
         -2   -1    0    0    0  501 -0.00000000000E+00  0.00000000000E+00  0.24393300251E+03  0.24393300253E+03  0.25500000000E-02 0. -1.
          2   -1    0    0  501    0  0.00000000000E+00 -0.00000000000E+00 -0.17513235754E+03  0.17513235756E+03  0.25500000000E-02 0.  1.
    5000001    1    1    2    0    0  0.94935268973E+02  0.26796918424E+02 -0.97234909383E+02  0.18792128069E+03  0.12700000000E+03 0.  0.
   -5000001    1    1    2    0    0 -0.94935268973E+02 -0.26796918424E+02  0.16603555436E+03  0.23114407940E+03  0.12700000000E+03 0.  0.
<mgrwt>
<rscale>  0 0.41337906E+03</rscale>
<asrwt>0</asrwt>
<pdfrwt beam="1">  1        2 0.25018908E-01 0.41337906E+03</pdfrwt>
<pdfrwt beam="2">  1       -2 0.34847572E-01 0.41337906E+03</pdfrwt>
<totfact> 0.16782303E+03</totfact>
</mgrwt>
</event>
<event>
 4    1  0.9508302E-005  0.4104961E+03  0.7818608E-02  0.1040205E+00
         -2   -1    0    0    0  501 -0.00000000000E+00  0.00000000000E+00  0.34085046019E+02  0.34085046114E+02  0.25500000000E-02 0. -1.
          2   -1    0    0  501    0  0.00000000000E+00 -0.00000000000E+00 -0.12359309627E+04  0.12359309628E+04  0.25500000000E-02 0.  1.
    5000001    1    1    2    0    0  0.88073412125E+02  0.75673338322E+02 -0.25482033990E+03  0.30748298438E+03  0.12700000000E+03 0.  0.
   -5000001    1    1    2    0    0 -0.88073412125E+02 -0.75673338322E+02 -0.94702557683E+03  0.96253302449E+03  0.12700000000E+03 0.  0.
<mgrwt>
<rscale>  0 0.41049611E+03</rscale>
<asrwt>0</asrwt>
<pdfrwt beam="1">  1        2 0.17656154E+00 0.41049611E+03</pdfrwt>
<pdfrwt beam="2">  1       -2 0.48692931E-02 0.41049611E+03</pdfrwt>
<totfact> 0.43890323E+03</totfact>
</mgrwt>
</event>
<event>
 4    1  0.9508302E-005  0.3777364E+03  0.7818608E-02  0.1051774E+00
         -2   -1    0    0    0  501 -0.00000000000E+00  0.00000000000E+00  0.76890435986E+02  0.76890436028E+02  0.25500000000E-02 0. -1.
          2   -1    0    0  501    0  0.00000000000E+00 -0.00000000000E+00 -0.46392238933E+03  0.46392238933E+03  0.25500000000E-02 0.  1.
    5000001    1    1    2    0    0 -0.81241380103E+02  0.53339546610E+02 -0.49651775274E+02  0.16745019517E+03  0.12700000000E+03 0.  0.
   -5000001    1    1    2    0    0  0.81241380103E+02 -0.53339546610E+02 -0.33738017807E+03  0.37336263019E+03  0.12700000000E+03 0.  0.
<mgrwt>
<rscale>  0 0.37773639E+03</rscale>
<asrwt>0</asrwt>
<pdfrwt beam="1">  1        2 0.66274625E-01 0.37773639E+03</pdfrwt>
<pdfrwt beam="2">  1       -2 0.10984348E-01 0.37773639E+03</pdfrwt>
<totfact> 0.42219885E+03</totfact>
</mgrwt>
</event>
<event>
 4    1  0.9508302E-005  0.4335532E+03  0.7818608E-02  0.1032743E+00
          2   -1    0    0  501    0  0.00000000000E+00  0.00000000000E+00  0.30483408067E+04  0.30483408067E+04  0.25500000000E-02 0.  1.
         -2   -1    0    0    0  501 -0.00000000000E+00 -0.00000000000E+00 -0.15415627649E+02  0.15415627860E+02  0.25500000000E-02 0. -1.
    5000001    1    1    2    0    0 -0.80121232160E+02  0.14954078952E+03  0.11940799409E+04  0.12127397762E+04  0.12700000000E+03 0.  0.
   -5000001    1    1    2    0    0  0.80121232160E+02 -0.14954078952E+03  0.18388452382E+04  0.18510166583E+04  0.12700000000E+03 0.  0.
<mgrwt>
<rscale>  0 0.43355317E+03</rscale>
<asrwt>0</asrwt>
<pdfrwt beam="1">  1        2 0.43547796E+00 0.43355317E+03</pdfrwt>
<pdfrwt beam="2">  1       -2 0.22022290E-02 0.43355317E+03</pdfrwt>
<totfact> 0.17238754E+03</totfact>
</mgrwt>
</event>
<event>
 4    1  0.9508302E-005  0.5413537E+03  0.7818608E-02  0.1003515E+00
         -2   -1    0    0    0  501 -0.00000000000E+00  0.00000000000E+00  0.36311417283E+02  0.36311417372E+02  0.25500000000E-02 0. -1.
          2   -1    0    0  501    0  0.00000000000E+00 -0.00000000000E+00 -0.20177115636E+04  0.20177115636E+04  0.25500000000E-02 0.  1.
    5000001    1    1    2    0    0 -0.16024339626E+03 -0.14783752930E+03 -0.61888280220E+03  0.66834033544E+03  0.12700000000E+03 0.  0.
   -5000001    1    1    2    0    0  0.16024339626E+03  0.14783752930E+03 -0.13625173441E+04  0.13856826455E+04  0.12700000000E+03 0.  0.
<mgrwt>
<rscale>  0 0.54135374E+03</rscale>
<asrwt>0</asrwt>
<pdfrwt beam="1">  1        2 0.28824444E+00 0.54135374E+03</pdfrwt>
<pdfrwt beam="2">  1       -2 0.51873466E-02 0.54135374E+03</pdfrwt>
<totfact> 0.15774060E+03</totfact>
</mgrwt>
</event>
<event>
 4    1  0.9508302E-005  0.5449107E+03  0.7818608E-02  0.1002679E+00
         -2   -1    0    0    0  501 -0.00000000000E+00  0.00000000000E+00  0.60597061913E+02  0.60597061967E+02  0.25500000000E-02 0. -1.
          2   -1    0    0  501    0  0.00000000000E+00 -0.00000000000E+00 -0.12250085060E+04  0.12250085060E+04  0.25500000000E-02 0.  1.
    5000001    1    1    2    0    0 -0.10293959906E+03  0.20931519250E+03 -0.72559008310E+03  0.77267029162E+03  0.12700000000E+03 0.  0.
   -5000001    1    1    2    0    0  0.10293959906E+03 -0.20931519250E+03 -0.43882136099E+03  0.51293527635E+03  0.12700000000E+03 0.  0.
<mgrwt>
<rscale>  0 0.54491069E+03</rscale>
<asrwt>0</asrwt>
<pdfrwt beam="1">  1        2 0.17500120E+00 0.54491069E+03</pdfrwt>
<pdfrwt beam="2">  1       -2 0.86567239E-02 0.54491069E+03</pdfrwt>
<totfact> 0.18074765E+03</totfact>
</mgrwt>
</event>
<event>
 4    1  0.9508302E-005  0.7837342E+03  0.7818608E-02  0.9583864E-01
         -2   -1    0    0    0  501 -0.00000000000E+00  0.00000000000E+00  0.39819850584E+03  0.39819850585E+03  0.25500000000E-02 0. -1.
          2   -1    0    0  501    0  0.00000000000E+00 -0.00000000000E+00 -0.38563635074E+03  0.38563635075E+03  0.25500000000E-02 0.  1.
    5000001    1    1    2    0    0  0.26499786872E+03  0.22776593905E+03  0.13010984510E+03  0.39390197411E+03  0.12700000000E+03 0.  0.
   -5000001    1    1    2    0    0 -0.26499786872E+03 -0.22776593905E+03 -0.11754769000E+03  0.38993288248E+03  0.12700000000E+03 0.  0.
<mgrwt>
<rscale>  0 0.78373419E+03</rscale>
<asrwt>0</asrwt>
<pdfrwt beam="1">  1        2 0.55090907E-01 0.78373419E+03</pdfrwt>
<pdfrwt beam="2">  1       -2 0.56885501E-01 0.78373419E+03</pdfrwt>
<totfact> 0.26298481E+02</totfact>
</mgrwt>
</event>
<event>
 4    1  0.9508302E-005  0.3108968E+03  0.7818608E-02  0.1079917E+00
          2   -1    0    0  501    0  0.00000000000E+00  0.00000000000E+00  0.91343847215E+02  0.91343847250E+02  0.25500000000E-02 0.  1.
         -2   -1    0    0    0  501 -0.00000000000E+00 -0.00000000000E+00 -0.26454115066E+03  0.26454115067E+03  0.25500000000E-02 0. -1.
    5000001    1    1    2    0    0  0.29204507002E+02  0.32809344139E+02 -0.17604579768E+03  0.22147342769E+03  0.12700000000E+03 0.  0.
   -5000001    1    1    2    0    0 -0.29204507002E+02 -0.32809344139E+02  0.28484942388E+01  0.13441157023E+03  0.12700000000E+03 0.  0.
<mgrwt>
<rscale>  0 0.31089681E+03</rscale>
<asrwt>0</asrwt>
<pdfrwt beam="1">  1        2 0.13049121E-01 0.31089681E+03</pdfrwt>
<pdfrwt beam="2">  1       -2 0.37791593E-01 0.31089681E+03</pdfrwt>
<totfact> 0.30658445E+03</totfact>
</mgrwt>
</event>
<event>
 4    1  0.9508302E-005  0.7174580E+03  0.7818608E-02  0.9687834E-01
         -2   -1    0    0    0  501 -0.00000000000E+00  0.00000000000E+00  0.37272333637E+03  0.37272333638E+03  0.25500000000E-02 0. -1.
          2   -1    0    0  501    0  0.00000000000E+00 -0.00000000000E+00 -0.34526011031E+03  0.34526011032E+03  0.25500000000E-02 0.  1.
    5000001    1    1    2    0    0  0.96523007037E+02 -0.27048692459E+03 -0.15982444149E+03  0.35235311743E+03  0.12700000000E+03 0.  0.
   -5000001    1    1    2    0    0 -0.96523007037E+02  0.27048692459E+03  0.18728766755E+03  0.36563032927E+03  0.12700000000E+03 0.  0.
<mgrwt>
<rscale>  0 0.71745801E+03</rscale>
<asrwt>0</asrwt>
<pdfrwt beam="1">  1        2 0.49322873E-01 0.71745801E+03</pdfrwt>
<pdfrwt beam="2">  1       -2 0.53246191E-01 0.71745801E+03</pdfrwt>
<totfact> 0.34185961E+02</totfact>
</mgrwt>
</event>
<event>
 4    1  0.9508302E-005  0.3367515E+03  0.7818608E-02  0.1068188E+00
          2   -1    0    0  501    0  0.00000000000E+00  0.00000000000E+00  0.68041799131E+02  0.68041799179E+02  0.25500000000E-02 0.  1.
         -2   -1    0    0    0  501 -0.00000000000E+00 -0.00000000000E+00 -0.41666133369E+03  0.41666133369E+03  0.25500000000E-02 0. -1.
    5000001    1    1    2    0    0  0.10787161401E+03  0.13686877103E+02 -0.14560308952E+03  0.22170447761E+03  0.12700000000E+03 0.  0.
   -5000001    1    1    2    0    0 -0.10787161401E+03 -0.13686877103E+02 -0.20301644503E+03  0.26299865526E+03  0.12700000000E+03 0.  0.
<mgrwt>
<rscale>  0 0.33675146E+03</rscale>
<asrwt>0</asrwt>
<pdfrwt beam="1">  1        2 0.97202573E-02 0.33675146E+03</pdfrwt>
<pdfrwt beam="2">  1       -2 0.59523046E-01 0.33675146E+03</pdfrwt>
<totfact> 0.17940973E+03</totfact>
</mgrwt>
</event>
<event>
 4    1  0.9508302E-005  0.3736863E+03  0.7818608E-02  0.1053292E+00
         -2   -1    0    0    0  501 -0.00000000000E+00  0.00000000000E+00  0.36252286688E+03  0.36252286688E+03  0.25500000000E-02 0. -1.
          2   -1    0    0  501    0  0.00000000000E+00 -0.00000000000E+00 -0.96298372297E+02  0.96298372331E+02  0.25500000000E-02 0.  1.
    5000001    1    1    2    0    0 -0.80389731162E+02  0.10086368663E+03  0.18998279731E+03  0.26240894693E+03  0.12700000000E+03 0.  0.
   -5000001    1    1    2    0    0  0.80389731162E+02 -0.10086368663E+03  0.76241697267E+02  0.19641229228E+03  0.12700000000E+03 0.  0.
<mgrwt>
<rscale>  0 0.37368630E+03</rscale>
<asrwt>0</asrwt>
<pdfrwt beam="1">  1        2 0.13756910E-01 0.37368630E+03</pdfrwt>
<pdfrwt beam="2">  1       -2 0.51788980E-01 0.37368630E+03</pdfrwt>
<totfact> 0.15583239E+03</totfact>
</mgrwt>
</event>
<event>
 4    1  0.9508302E-005  0.4008673E+03  0.7818608E-02  0.1043480E+00
          2   -1    0    0  501    0  0.00000000000E+00  0.00000000000E+00  0.68907647313E+03  0.68907647313E+03  0.25500000000E-02 0.  1.
         -2   -1    0    0    0  501 -0.00000000000E+00 -0.00000000000E+00 -0.58300706061E+02  0.58300706116E+02  0.25500000000E-02 0. -1.
    5000001    1    1    2    0    0  0.41491686226E+02 -0.12304032814E+03  0.47341342756E+03  0.50705991339E+03  0.12700000000E+03 0.  0.
   -5000001    1    1    2    0    0 -0.41491686226E+02  0.12304032814E+03  0.15736233950E+03  0.24031726585E+03  0.12700000000E+03 0.  0.
<mgrwt>
<rscale>  0 0.40086728E+03</rscale>
<asrwt>0</asrwt>
<pdfrwt beam="1">  1        2 0.98439494E-01 0.40086728E+03</pdfrwt>
<pdfrwt beam="2">  1       -2 0.83286725E-02 0.40086728E+03</pdfrwt>
<totfact> 0.41780147E+03</totfact>
</mgrwt>
</event>
<event>
 4    1  0.9508302E-005  0.6288319E+03  0.7818608E-02  0.9847331E-01
         -2   -1    0    0    0  501 -0.00000000000E+00  0.00000000000E+00  0.13673377756E+03  0.13673377758E+03  0.25500000000E-02 0. -1.
          2   -1    0    0  501    0  0.00000000000E+00 -0.00000000000E+00 -0.72299176796E+03  0.72299176796E+03  0.25500000000E-02 0.  1.
    5000001    1    1    2    0    0 -0.24585526073E+03  0.11100893085E+03 -0.15668070984E+03  0.33681691880E+03  0.12700000000E+03 0.  0.
   -5000001    1    1    2    0    0  0.24585526073E+03 -0.11100893085E+03 -0.42957728056E+03  0.52290862675E+03  0.12700000000E+03 0.  0.
<mgrwt>
<rscale>  0 0.62883192E+03</rscale>
<asrwt>0</asrwt>
<pdfrwt beam="1">  1        2 0.10328454E+00 0.62883192E+03</pdfrwt>
<pdfrwt beam="2">  1       -2 0.19533397E-01 0.62883192E+03</pdfrwt>
<totfact> 0.96404727E+02</totfact>
</mgrwt>
</event>
<event>
 4    1  0.9508302E-005  0.2799645E+03  0.7818608E-02  0.1095708E+00
         -2   -1    0    0    0  501 -0.00000000000E+00  0.00000000000E+00  0.15087854591E+02  0.15087854807E+02  0.25500000000E-02 0. -1.
          2   -1    0    0  501    0  0.00000000000E+00 -0.00000000000E+00 -0.12987289263E+04  0.12987289263E+04  0.25500000000E-02 0.  1.
    5000001    1    1    2    0    0 -0.56879046036E+02 -0.15019417613E+02 -0.63109407617E+03  0.64642829591E+03  0.12700000000E+03 0.  0.
   -5000001    1    1    2    0    0  0.56879046036E+02  0.15019417613E+02 -0.65254699557E+03  0.66738848523E+03  0.12700000000E+03 0.  0.
<mgrwt>
<rscale>  0 0.27996452E+03</rscale>
<asrwt>0</asrwt>
<pdfrwt beam="1">  1        2 0.18553263E+00 0.27996452E+03</pdfrwt>
<pdfrwt beam="2">  1       -2 0.21554086E-02 0.27996452E+03</pdfrwt>
<totfact> 0.13718927E+04</totfact>
</mgrwt>
</event>
<event>
 4    1  0.9508302E-005  0.4168260E+03  0.7818608E-02  0.1038104E+00
          2   -1    0    0  501    0  0.00000000000E+00  0.00000000000E+00  0.12713801035E+04  0.12713801035E+04  0.25500000000E-02 0.  1.
         -2   -1    0    0    0  501 -0.00000000000E+00 -0.00000000000E+00 -0.34164427610E+02  0.34164427705E+02  0.25500000000E-02 0. -1.
    5000001    1    1    2    0    0 -0.15373193120E+03 -0.56065919367E+02  0.69071982359E+03  0.72111009470E+03  0.12700000000E+03 0.  0.
   -5000001    1    1    2    0    0  0.15373193120E+03  0.56065919367E+02  0.54649585225E+03  0.58443443646E+03  0.12700000000E+03 0.  0.
<mgrwt>
<rscale>  0 0.41682598E+03</rscale>
<asrwt>0</asrwt>
<pdfrwt beam="1">  1        2 0.18162575E+00 0.41682598E+03</pdfrwt>
<pdfrwt beam="2">  1       -2 0.48806320E-02 0.41682598E+03</pdfrwt>
<totfact> 0.41841407E+03</totfact>
</mgrwt>
</event>
<event>
 4    1  0.9508302E-005  0.2921579E+03  0.7818608E-02  0.1089228E+00
         -2   -1    0    0    0  501 -0.00000000000E+00  0.00000000000E+00  0.10721278181E+02  0.10721278485E+02  0.25500000000E-02 0. -1.
          2   -1    0    0  501    0  0.00000000000E+00 -0.00000000000E+00 -0.19903461799E+04  0.19903461799E+04  0.25500000000E-02 0.  1.
    5000001    1    1    2    0    0 -0.36997449862E+02 -0.49360744907E+02 -0.73310093537E+03  0.74657302112E+03  0.12700000000E+03 0.  0.
   -5000001    1    1    2    0    0  0.36997449862E+02  0.49360744907E+02 -0.12465239664E+04  0.12544944373E+04  0.12700000000E+03 0.  0.
<mgrwt>
<rscale>  0 0.29215787E+03</rscale>
<asrwt>0</asrwt>
<pdfrwt beam="1">  1        2 0.28433493E+00 0.29215787E+03</pdfrwt>
<pdfrwt beam="2">  1       -2 0.15316125E-02 0.29215787E+03</pdfrwt>
<totfact> 0.10229930E+04</totfact>
</mgrwt>
</event>
<event>
 4    1  0.9508302E-005  0.2893807E+03  0.7818608E-02  0.1090673E+00
          2   -1    0    0  501    0  0.00000000000E+00  0.00000000000E+00  0.20182631001E+04  0.20182631001E+04  0.25500000000E-02 0.  1.
         -2   -1    0    0    0  501 -0.00000000000E+00 -0.00000000000E+00 -0.10372924232E+02  0.10372924546E+02  0.25500000000E-02 0. -1.
    5000001    1    1    2    0    0 -0.57522700081E+02  0.32462066781E+02  0.11516013321E+04  0.11604642497E+04  0.12700000000E+03 0.  0.
   -5000001    1    1    2    0    0  0.57522700081E+02 -0.32462066781E+02  0.85628884376E+03  0.86817177491E+03  0.12700000000E+03 0.  0.
<mgrwt>
<rscale>  0 0.28938065E+03</rscale>
<asrwt>0</asrwt>
<pdfrwt beam="1">  1        2 0.28832341E+00 0.28938065E+03</pdfrwt>
<pdfrwt beam="2">  1       -2 0.14818458E-02 0.28938065E+03</pdfrwt>
<totfact> 0.10403783E+04</totfact>
</mgrwt>
</event>
<event>
 4    1  0.9508302E-005  0.2884630E+03  0.7818608E-02  0.1091154E+00
         -2   -1    0    0    0  501 -0.00000000000E+00  0.00000000000E+00  0.46026195696E+02  0.46026195766E+02  0.25500000000E-02 0. -1.
          2   -1    0    0  501    0  0.00000000000E+00 -0.00000000000E+00 -0.45197565123E+03  0.45197565123E+03  0.25500000000E-02 0.  1.
    5000001    1    1    2    0    0 -0.53413914520E+02 -0.11321118324E+02 -0.27399886748E+03  0.30689671449E+03  0.12700000000E+03 0.  0.
   -5000001    1    1    2    0    0  0.53413914520E+02  0.11321118324E+02 -0.13195058805E+03  0.19110513251E+03  0.12700000000E+03 0.  0.
<mgrwt>
<rscale>  0 0.28846296E+03</rscale>
<asrwt>0</asrwt>
<pdfrwt beam="1">  1        2 0.64567948E-01 0.28846296E+03</pdfrwt>
<pdfrwt beam="2">  1       -2 0.65751711E-02 0.28846296E+03</pdfrwt>
<totfact> 0.96857727E+03</totfact>
</mgrwt>
</event>
<event>
 4    1  0.9508302E-005  0.3472649E+03  0.7818608E-02  0.1063743E+00
         -2   -1    0    0    0  501 -0.00000000000E+00  0.00000000000E+00  0.67719921204E+02  0.67719921252E+02  0.25500000000E-02 0. -1.
          2   -1    0    0  501    0  0.00000000000E+00 -0.00000000000E+00 -0.44519005128E+03  0.44519005129E+03  0.25500000000E-02 0.  1.
    5000001    1    1    2    0    0  0.10995513284E+03  0.17486776317E+02 -0.24824395072E+03  0.30024985871E+03  0.12700000000E+03 0.  0.
   -5000001    1    1    2    0    0 -0.10995513284E+03 -0.17486776317E+02 -0.12922617935E+03  0.21266011383E+03  0.12700000000E+03 0.  0.
<mgrwt>
<rscale>  0 0.34726494E+03</rscale>
<asrwt>0</asrwt>
<pdfrwt beam="1">  1        2 0.63598577E-01 0.34726494E+03</pdfrwt>
<pdfrwt beam="2">  1       -2 0.96742747E-02 0.34726494E+03</pdfrwt>
<totfact> 0.54068213E+03</totfact>
</mgrwt>
</event>
<event>
 4    1  0.9508302E-005  0.2974857E+03  0.7818608E-02  0.1086504E+00
          2   -1    0    0  501    0  0.00000000000E+00  0.00000000000E+00  0.92212910298E+03  0.92212910298E+03  0.25500000000E-02 0.  1.
         -2   -1    0    0    0  501 -0.00000000000E+00 -0.00000000000E+00 -0.23992775202E+02  0.23992775338E+02  0.25500000000E-02 0. -1.
    5000001    1    1    2    0    0  0.11409108560E+02 -0.76387996013E+02  0.46652926719E+03  0.48963644762E+03  0.12700000000E+03 0.  0.
   -5000001    1    1    2    0    0 -0.11409108560E+02  0.76387996013E+02  0.43160706059E+03  0.45648543070E+03  0.12700000000E+03 0.  0.
<mgrwt>
<rscale>  0 0.29748571E+03</rscale>
<asrwt>0</asrwt>
<pdfrwt beam="1">  1        2 0.13173274E+00 0.29748571E+03</pdfrwt>
<pdfrwt beam="2">  1       -2 0.34275391E-02 0.29748571E+03</pdfrwt>
<totfact> 0.11268096E+04</totfact>
</mgrwt>
</event>
<event>
 4    1  0.9508302E-005  0.3028655E+03  0.7818608E-02  0.1083817E+00
         -2   -1    0    0    0  501 -0.00000000000E+00  0.00000000000E+00  0.22206116641E+02  0.22206116787E+02  0.25500000000E-02 0.  1.
          2   -1    0    0  501    0  0.00000000000E+00 -0.00000000000E+00 -0.10326832301E+04  0.10326832301E+04  0.25500000000E-02 0. -1.
    5000001    1    1    2    0    0 -0.53612360052E+02  0.62500227085E+02 -0.48878302356E+03  0.51168193994E+03  0.12700000000E+03 0.  0.
   -5000001    1    1    2    0    0  0.53612360052E+02 -0.62500227085E+02 -0.52169408994E+03  0.54320740699E+03  0.12700000000E+03 0.  0.
<mgrwt>
<rscale>  0 0.30286554E+03</rscale>
<asrwt>0</asrwt>
<pdfrwt beam="1">  1        2 0.14752615E+00 0.30286554E+03</pdfrwt>
<pdfrwt beam="2">  1       -2 0.31723030E-02 0.30286554E+03</pdfrwt>
<totfact> 0.10865996E+04</totfact>
</mgrwt>
</event>
<event>
 4    1  0.9508302E-005  0.9840936E+03  0.7818608E-02  0.9326165E-01
          2   -1    0    0  501    0  0.00000000000E+00  0.00000000000E+00  0.43793769839E+04  0.43793769839E+04  0.25500000000E-02 0.  1.
         -2   -1    0    0    0  501 -0.00000000000E+00 -0.00000000000E+00 -0.55284134057E+02  0.55284134116E+02  0.25500000000E-02 0. -1.
    5000001    1    1    2    0    0  0.14298683858E+03  0.23400189930E+03  0.41222244841E+03  0.51113449488E+03  0.12700000000E+03 0.  0.
   -5000001    1    1    2    0    0 -0.14298683858E+03 -0.23400189930E+03  0.39118704014E+04  0.39235266231E+04  0.12700000000E+03 0.  0.
<mgrwt>
<rscale>  0 0.98409362E+03</rscale>
<asrwt>0</asrwt>
<pdfrwt beam="1">  1        2 0.62562528E+00 0.98409362E+03</pdfrwt>
<pdfrwt beam="2">  1       -2 0.78977335E-02 0.98409362E+03</pdfrwt>
<totfact> 0.32324636E+01</totfact>
</mgrwt>
</event>
<event>
 4    1  0.9508302E-005  0.2868089E+03  0.7818608E-02  0.1092027E+00
          2   -1    0    0  501    0  0.00000000000E+00  0.00000000000E+00  0.57654248890E+03  0.57654248891E+03  0.25500000000E-02 0.  1.
         -2   -1    0    0    0  501 -0.00000000000E+00 -0.00000000000E+00 -0.35669247748E+02  0.35669247839E+02  0.25500000000E-02 0. -1.
    5000001    1    1    2    0    0  0.17949104486E+02 -0.48920879942E+02  0.35897376529E+03  0.38432614666E+03  0.12700000000E+03 0.  0.
   -5000001    1    1    2    0    0 -0.17949104486E+02  0.48920879942E+02  0.18189947587E+03  0.22788559008E+03  0.12700000000E+03 0.  0.
<mgrwt>
<rscale>  0 0.28680890E+03</rscale>
<asrwt>0</asrwt>
<pdfrwt beam="1">  1        2 0.82363203E-01 0.28680890E+03</pdfrwt>
<pdfrwt beam="2">  1       -2 0.50956074E-02 0.28680890E+03</pdfrwt>
<totfact> 0.10919122E+04</totfact>
</mgrwt>
</event>
<event>
 4    1  0.9508302E-005  0.5510590E+03  0.7818608E-02  0.1001249E+00
         -2   -1    0    0    0  501 -0.00000000000E+00  0.00000000000E+00  0.56132135981E+02  0.56132136039E+02  0.25500000000E-02 0. -1.
          2   -1    0    0  501    0  0.00000000000E+00 -0.00000000000E+00 -0.13524607654E+04  0.13524607654E+04  0.25500000000E-02 0.  1.
    5000001    1    1    2    0    0 -0.17298530337E+03 -0.66876460019E+01 -0.20676365083E+03  0.29807523731E+03  0.12700000000E+03 0.  0.
   -5000001    1    1    2    0    0  0.17298530337E+03  0.66876460019E+01 -0.10895649786E+04  0.11105176641E+04  0.12700000000E+03 0.  0.
<mgrwt>
<rscale>  0 0.55105902E+03</rscale>
<asrwt>0</asrwt>
<pdfrwt beam="1">  1        2 0.19320866E+00 0.55105902E+03</pdfrwt>
<pdfrwt beam="2">  1       -2 0.80188774E-02 0.55105902E+03</pdfrwt>
<totfact> 0.17406425E+03</totfact>
</mgrwt>
</event>
<event>
 4    1  0.9508302E-005  0.7336351E+03  0.7818608E-02  0.9661380E-01
          2   -1    0    0  501    0  0.00000000000E+00  0.00000000000E+00  0.14660951269E+04  0.14660951269E+04  0.25500000000E-02 0.  1.
         -2   -1    0    0    0  501 -0.00000000000E+00 -0.00000000000E+00 -0.91777896825E+02  0.91777896860E+02  0.25500000000E-02 0. -1.
    5000001    1    1    2    0    0  0.22970133505E+03 -0.24159616559E+03  0.50579249891E+03  0.61893978907E+03  0.12700000000E+03 0.  0.
   -5000001    1    1    2    0    0 -0.22970133505E+03  0.24159616559E+03  0.86852473115E+03  0.93893323467E+03  0.12700000000E+03 0.  0.
<mgrwt>
<rscale>  0 0.73363513E+03</rscale>
<asrwt>0</asrwt>
<pdfrwt beam="1">  1        2 0.20944215E+00 0.73363513E+03</pdfrwt>
<pdfrwt beam="2">  1       -2 0.13111129E-01 0.73363513E+03</pdfrwt>
<totfact> 0.67608547E+02</totfact>
</mgrwt>
</event>
<event>
 4    1  0.9508302E-005  0.1260836E+04  0.7818608E-02  0.9061212E-01
          2   -1    0    0  501    0  0.00000000000E+00  0.00000000000E+00  0.90657443471E+03  0.90657443472E+03  0.25500000000E-02 0.  1.
         -2   -1    0    0    0  501 -0.00000000000E+00 -0.00000000000E+00 -0.43838316852E+03  0.43838316853E+03  0.25500000000E-02 0. -1.
    5000001    1    1    2    0    0  0.49833278081E+03  0.18305740523E+03 -0.10230558628E+03  0.55537465465E+03  0.12700000000E+03 0.  0.
   -5000001    1    1    2    0    0 -0.49833278081E+03 -0.18305740523E+03  0.57049685247E+03  0.78958294860E+03  0.12700000000E+03 0.  0.
<mgrwt>
<rscale>  0 0.12608362E+04</rscale>
<asrwt>0</asrwt>
<pdfrwt beam="1">  1        2 0.12951063E+00 0.12608362E+04</pdfrwt>
<pdfrwt beam="2">  1       -2 0.62626167E-01 0.12608362E+04</pdfrwt>
<totfact> 0.74893129E+01</totfact>
</mgrwt>
</event>
<event>
 4    1  0.9508302E-005  0.3480526E+03  0.7818608E-02  0.1063417E+00
          2   -1    0    0  501    0  0.00000000000E+00  0.00000000000E+00  0.90781939845E+03  0.90781939845E+03  0.25500000000E-02 0.  1.
         -2   -1    0    0    0  501 -0.00000000000E+00 -0.00000000000E+00 -0.33360331427E+02  0.33360331524E+02  0.25500000000E-02 0. -1.
    5000001    1    1    2    0    0  0.36099262880E+02  0.11272453553E+03  0.46992362028E+03  0.50096625295E+03  0.12700000000E+03 0.  0.
   -5000001    1    1    2    0    0 -0.36099262880E+02 -0.11272453553E+03  0.40453544674E+03  0.44021347703E+03  0.12700000000E+03 0.  0.
<mgrwt>
<rscale>  0 0.34805262E+03</rscale>
<asrwt>0</asrwt>
<pdfrwt beam="1">  1        2 0.12968848E+00 0.34805262E+03</pdfrwt>
<pdfrwt beam="2">  1       -2 0.47657618E-02 0.34805262E+03</pdfrwt>
<totfact> 0.70187730E+03</totfact>
</mgrwt>
</event>
<event>
 4    1  0.9508302E-005  0.3530352E+03  0.7818608E-02  0.1061376E+00
         -2   -1    0    0    0  501 -0.00000000000E+00  0.00000000000E+00  0.51327592749E+02  0.51327592812E+02  0.25500000000E-02 0. -1.
          2   -1    0    0  501    0  0.00000000000E+00 -0.00000000000E+00 -0.60705092253E+03  0.60705092254E+03  0.25500000000E-02 0.  1.
    5000001    1    1    2    0    0 -0.91065281204E+02 -0.79044997103E+01 -0.12550766208E+03  0.20059047783E+03  0.12700000000E+03 0.  0.
   -5000001    1    1    2    0    0  0.91065281204E+02  0.79044997103E+01 -0.43021566770E+03  0.45778803752E+03  0.12700000000E+03 0.  0.
<mgrwt>
<rscale>  0 0.35303520E+03</rscale>
<asrwt>0</asrwt>
<pdfrwt beam="1">  1        2 0.86721556E-01 0.35303520E+03</pdfrwt>
<pdfrwt beam="2">  1       -2 0.73325136E-02 0.35303520E+03</pdfrwt>
<totfact> 0.59107801E+03</totfact>
</mgrwt>
</event>
<event>
 4    1  0.9508302E-005  0.3350509E+03  0.7818608E-02  0.1068924E+00
          2   -1    0    0  501    0  0.00000000000E+00  0.00000000000E+00  0.93379996451E+01  0.93379999933E+01  0.25500000000E-02 0.  1.
         -2   -1    0    0    0  501 -0.00000000000E+00 -0.00000000000E+00 -0.30054377931E+04  0.30054377931E+04  0.25500000000E-02 0. -1.
    5000001    1    1    2    0    0  0.70338056270E+02  0.43537675036E+02 -0.21401796585E+04  0.21455397787E+04  0.12700000000E+03 0.  0.
   -5000001    1    1    2    0    0 -0.70338056270E+02 -0.43537675036E+02 -0.85592013497E+03  0.86923601441E+03  0.12700000000E+03 0.  0.
<mgrwt>
<rscale>  0 0.33505091E+03</rscale>
<asrwt>0</asrwt>
<pdfrwt beam="1">  1        2 0.13340019E-02 0.33505091E+03</pdfrwt>
<pdfrwt beam="2">  1       -2 0.42934764E+00 0.33505091E+03</pdfrwt>
<totfact> 0.55737794E+01</totfact>
</mgrwt>
</event>
<event>
 4    1  0.9508302E-005  0.4005401E+03  0.7818608E-02  0.1043593E+00
         -2   -1    0    0    0  501 -0.00000000000E+00  0.00000000000E+00  0.57187357823E+03  0.57187357824E+03  0.25500000000E-02 0. -1.
          2   -1    0    0  501    0  0.00000000000E+00 -0.00000000000E+00 -0.70134556116E+02  0.70134556163E+02  0.25500000000E-02 0.  1.
    5000001    1    1    2    0    0 -0.67313377279E+02 -0.11726930559E+03  0.12989987140E+03  0.22646447268E+03  0.12700000000E+03 0.  0.
   -5000001    1    1    2    0    0  0.67313377279E+02  0.11726930559E+03  0.37183915071E+03  0.41554366172E+03  0.12700000000E+03 0.  0.
<mgrwt>
<rscale>  0 0.40054013E+03</rscale>
<asrwt>0</asrwt>
<pdfrwt beam="1">  1        2 0.10019222E-01 0.40054013E+03</pdfrwt>
<pdfrwt beam="2">  1       -2 0.81696231E-01 0.40054013E+03</pdfrwt>
<totfact> 0.87562627E+02</totfact>
</mgrwt>
</event>
<event>
 4    1  0.9508302E-005  0.2776135E+03  0.7818608E-02  0.1097000E+00
          2   -1    0    0  501    0  0.00000000000E+00  0.00000000000E+00  0.21858898772E+04  0.21858898772E+04  0.25500000000E-02 0.  1.
         -2   -1    0    0    0  501 -0.00000000000E+00 -0.00000000000E+00 -0.88144022332E+01  0.88144026021E+01  0.25500000000E-02 0. -1.
    5000001    1    1    2    0    0 -0.29332615109E+01  0.54036209270E+02  0.97402991279E+03  0.98376409111E+03  0.12700000000E+03 0.  0.
   -5000001    1    1    2    0    0  0.29332615109E+01 -0.54036209270E+02  0.12030455622E+04  0.12109401887E+04  0.12700000000E+03 0.  0.
<mgrwt>
<rscale>  0 0.27761349E+03</rscale>
<asrwt>0</asrwt>
<pdfrwt beam="1">  1        2 0.31227027E+00 0.27761349E+03</pdfrwt>
<pdfrwt beam="2">  1       -2 0.12591992E-02 0.27761349E+03</pdfrwt>
<totfact> 0.10923126E+04</totfact>
</mgrwt>
</event>
<event>
 4    1  0.9508302E-005  0.4147307E+03  0.7818608E-02  0.1038795E+00
         -2   -1    0    0    0  501 -0.00000000000E+00  0.00000000000E+00  0.11697589890E+03  0.11697589893E+03  0.25500000000E-02 0. -1.
          2   -1    0    0  501    0  0.00000000000E+00 -0.00000000000E+00 -0.36760032497E+03  0.36760032498E+03  0.25500000000E-02 0.  1.
    5000001    1    1    2    0    0 -0.46015593451E+02 -0.81398646773E+02 -0.28262837980E+03  0.32365255384E+03  0.12700000000E+03 0.  0.
   -5000001    1    1    2    0    0  0.46015593451E+02  0.81398646773E+02  0.32003953729E+02  0.16092367008E+03  0.12700000000E+03 0.  0.
<mgrwt>
<rscale>  0 0.41473065E+03</rscale>
<asrwt>0</asrwt>
<pdfrwt beam="1">  1        2 0.52514332E-01 0.41473065E+03</pdfrwt>
<pdfrwt beam="2">  1       -2 0.16710843E-01 0.41473065E+03</pdfrwt>
<totfact> 0.27332338E+03</totfact>
</mgrwt>
</event>
<event>
 4    1  0.9508302E-005  0.4014711E+03  0.7818608E-02  0.1043271E+00
         -2   -1    0    0    0  501 -0.00000000000E+00  0.00000000000E+00  0.21812221751E+02  0.21812221900E+02  0.25500000000E-02 0. -1.
          2   -1    0    0  501    0  0.00000000000E+00 -0.00000000000E+00 -0.18473479593E+04  0.18473479593E+04  0.25500000000E-02 0.  1.
    5000001    1    1    2    0    0 -0.14678915611E+03  0.41068273777E+02 -0.77062521822E+03  0.79575491605E+03  0.12700000000E+03 0.  0.
   -5000001    1    1    2    0    0  0.14678915611E+03 -0.41068273777E+02 -0.10549105193E+04  0.10734052651E+04  0.12700000000E+03 0.  0.
<mgrwt>
<rscale>  0 0.40147111E+03</rscale>
<asrwt>0</asrwt>
<pdfrwt beam="1">  1        2 0.26390675E+00 0.40147111E+03</pdfrwt>
<pdfrwt beam="2">  1       -2 0.31160329E-02 0.40147111E+03</pdfrwt>
<totfact> 0.41967112E+03</totfact>
</mgrwt>
</event>
<event>
 4    1  0.9508302E-005  0.3871129E+03  0.7818608E-02  0.1048336E+00
          2   -1    0    0  501    0  0.00000000000E+00  0.00000000000E+00  0.21179006702E+04  0.21179006702E+04  0.25500000000E-02 0.  1.
         -2   -1    0    0    0  501 -0.00000000000E+00 -0.00000000000E+00 -0.17689257643E+02  0.17689257826E+02  0.25500000000E-02 0. -1.
    5000001    1    1    2    0    0  0.49473627946E+02  0.63842205996E+02  0.37870529292E+03  0.40751707450E+03  0.12700000000E+03 0.  0.
   -5000001    1    1    2    0    0 -0.49473627946E+02 -0.63842205996E+02  0.17215061197E+04  0.17280728535E+04  0.12700000000E+03 0.  0.
<mgrwt>
<rscale>  0 0.38711286E+03</rscale>
<asrwt>0</asrwt>
<pdfrwt beam="1">  1        2 0.30255711E+00 0.38711286E+03</pdfrwt>
<pdfrwt beam="2">  1       -2 0.25270379E-02 0.38711286E+03</pdfrwt>
<totfact> 0.42238268E+03</totfact>
</mgrwt>
</event>
<event>
 4    1  0.9508302E-005  0.5540864E+03  0.7818608E-02  0.1000552E+00
          2   -1    0    0  501    0  0.00000000000E+00  0.00000000000E+00  0.12064279479E+04  0.12064279479E+04  0.25500000000E-02 0.  1.
         -2   -1    0    0    0  501 -0.00000000000E+00 -0.00000000000E+00 -0.63619995695E+02  0.63619995746E+02  0.25500000000E-02 0. -1.
    5000001    1    1    2    0    0  0.18292193517E+03  0.16475337949E+03  0.56119671861E+03  0.62583933034E+03  0.12700000000E+03 0.  0.
   -5000001    1    1    2    0    0 -0.18292193517E+03 -0.16475337949E+03  0.58161123361E+03  0.64420861333E+03  0.12700000000E+03 0.  0.
<mgrwt>
<rscale>  0 0.55408642E+03</rscale>
<asrwt>0</asrwt>
<pdfrwt beam="1">  1        2 0.17234685E+00 0.55408642E+03</pdfrwt>
<pdfrwt beam="2">  1       -2 0.90885707E-02 0.55408642E+03</pdfrwt>
<totfact> 0.17117481E+03</totfact>
</mgrwt>
</event>
<event>
 4    1  0.9508302E-005  0.3438869E+03  0.7818608E-02  0.1065152E+00
         -2   -1    0    0    0  501 -0.00000000000E+00  0.00000000000E+00  0.16082355025E+02  0.16082355227E+02  0.25500000000E-02 0. -1.
          2   -1    0    0  501    0  0.00000000000E+00 -0.00000000000E+00 -0.18383218238E+04  0.18383218238E+04  0.25500000000E-02 0.  1.
    5000001    1    1    2    0    0  0.13641893512E+02  0.99588157599E+02 -0.59986356275E+03  0.62134466788E+03  0.12700000000E+03 0.  0.
   -5000001    1    1    2    0    0 -0.13641893512E+02 -0.99588157599E+02 -0.12223759060E+04  0.12330595111E+04  0.12700000000E+03 0.  0.
<mgrwt>
<rscale>  0 0.34388687E+03</rscale>
<asrwt>0</asrwt>
<pdfrwt beam="1">  1        2 0.26261727E+00 0.34388687E+03</pdfrwt>
<pdfrwt beam="2">  1       -2 0.22974805E-02 0.34388687E+03</pdfrwt>
<totfact> 0.66885839E+03</totfact>
</mgrwt>
</event>
<event>
 4    1  0.9508302E-005  0.2690437E+03  0.7818608E-02  0.1101828E+00
         -2   -1    0    0    0  501 -0.00000000000E+00  0.00000000000E+00  0.14274172148E+02  0.14274172376E+02  0.25500000000E-02 0.  1.
          2   -1    0    0  501    0  0.00000000000E+00 -0.00000000000E+00 -0.12677531759E+04  0.12677531759E+04  0.25500000000E-02 0. -1.
    5000001    1    1    2    0    0 -0.36227158835E+02 -0.25180366697E+02 -0.60507555695E+03  0.61983214463E+03  0.12700000000E+03 0.  0.
   -5000001    1    1    2    0    0  0.36227158835E+02  0.25180366697E+02 -0.64840344679E+03  0.66219520363E+03  0.12700000000E+03 0.  0.
<mgrwt>
<rscale>  0 0.26904369E+03</rscale>
<asrwt>0</asrwt>
<pdfrwt beam="1">  1        2 0.18110753E+00 0.26904369E+03</pdfrwt>
<pdfrwt beam="2">  1       -2 0.20391683E-02 0.26904369E+03</pdfrwt>
<totfact> 0.15438027E+04</totfact>
</mgrwt>
</event>
<event>
 4    1  0.9508302E-005  0.3399048E+03  0.7818608E-02  0.1066836E+00
         -2   -1    0    0    0  501 -0.00000000000E+00  0.00000000000E+00  0.21916706143E+03  0.21916706144E+03  0.25500000000E-02 0. -1.
          2   -1    0    0  501    0  0.00000000000E+00 -0.00000000000E+00 -0.13178907922E+03  0.13178907924E+03  0.25500000000E-02 0.  1.
    5000001    1    1    2    0    0  0.48838791127E+02  0.95485944252E+02  0.71544852526E+01  0.16638202946E+03  0.12700000000E+03 0.  0.
   -5000001    1    1    2    0    0 -0.48838791127E+02 -0.95485944252E+02  0.80223496959E+02  0.18457411122E+03  0.12700000000E+03 0.  0.
<mgrwt>
<rscale>  0 0.33990484E+03</rscale>
<asrwt>0</asrwt>
<pdfrwt beam="1">  1        2 0.18827011E-01 0.33990484E+03</pdfrwt>
<pdfrwt beam="2">  1       -2 0.31309580E-01 0.33990484E+03</pdfrwt>
<totfact> 0.28268064E+03</totfact>
</mgrwt>
</event>
<event>
 4    1  0.9508302E-005  0.2869607E+03  0.7818608E-02  0.1091947E+00
          2   -1    0    0  501    0  0.00000000000E+00  0.00000000000E+00  0.74644816067E+03  0.74644816068E+03  0.25500000000E-02 0.  1.
         -2   -1    0    0    0  501 -0.00000000000E+00 -0.00000000000E+00 -0.27579427867E+02  0.27579427985E+02  0.25500000000E-02 0. -1.
    5000001    1    1    2    0    0  0.60731215493E+01  0.60871738862E+02  0.43157781205E+03  0.45401614427E+03  0.12700000000E+03 0.  0.
   -5000001    1    1    2    0    0 -0.60731215493E+01 -0.60871738862E+02  0.28729092075E+03  0.32001144439E+03  0.12700000000E+03 0.  0.
<mgrwt>
<rscale>  0 0.28696072E+03</rscale>
<asrwt>0</asrwt>
<pdfrwt beam="1">  1        2 0.10663546E+00 0.28696072E+03</pdfrwt>
<pdfrwt beam="2">  1       -2 0.39399178E-02 0.28696072E+03</pdfrwt>
<totfact> 0.11914256E+04</totfact>
</mgrwt>
</event>
<event>
 4    1  0.9508302E-005  0.3256216E+03  0.7818608E-02  0.1073091E+00
          2   -1    0    0  501    0  0.00000000000E+00  0.00000000000E+00  0.17463952325E+03  0.17463952326E+03  0.25500000000E-02 0.  1.
         -2   -1    0    0    0  501 -0.00000000000E+00 -0.00000000000E+00 -0.15178328557E+03  0.15178328559E+03  0.25500000000E-02 0. -1.
    5000001    1    1    2    0    0  0.43228422207E+02  0.68137106035E+02 -0.50910084963E+02  0.15884646189E+03  0.12700000000E+03 0.  0.
   -5000001    1    1    2    0    0 -0.43228422207E+02 -0.68137106035E+02  0.73766322638E+02  0.16757634696E+03  0.12700000000E+03 0.  0.
<mgrwt>
<rscale>  0 0.32562162E+03</rscale>
<asrwt>0</asrwt>
<pdfrwt beam="1">  1        2 0.24948503E-01 0.32562162E+03</pdfrwt>
<pdfrwt beam="2">  1       -2 0.21683326E-01 0.32562162E+03</pdfrwt>
<totfact> 0.39443863E+03</totfact>
</mgrwt>
</event>
<event>
 4    1  0.9508302E-005  0.4426960E+03  0.7818608E-02  0.1029923E+00
          2   -1    0    0  501    0  0.00000000000E+00  0.00000000000E+00  0.55972937825E+03  0.55972937825E+03  0.25500000000E-02 0.  1.
         -2   -1    0    0    0  501 -0.00000000000E+00 -0.00000000000E+00 -0.87533268731E+02  0.87533268768E+02  0.25500000000E-02 0. -1.
    5000001    1    1    2    0    0 -0.26498864444E+02  0.95044281902E+02  0.45846278441E+03  0.48585258055E+03  0.12700000000E+03 0.  0.
   -5000001    1    1    2    0    0  0.26498864444E+02 -0.95044281902E+02  0.13733325105E+02  0.16141006647E+03  0.12700000000E+03 0.  0.
<mgrwt>
<rscale>  0 0.44269602E+03</rscale>
<asrwt>0</asrwt>
<pdfrwt beam="1">  1        2 0.79961341E-01 0.44269602E+03</pdfrwt>
<pdfrwt beam="2">  1       -2 0.12504753E-01 0.44269602E+03</pdfrwt>
<totfact> 0.27740457E+03</totfact>
</mgrwt>
</event>
<event>
 4    1  0.9508302E-005  0.2749231E+03  0.7818608E-02  0.1098495E+00
         -2   -1    0    0    0  501 -0.00000000000E+00  0.00000000000E+00  0.18649506514E+02  0.18649506688E+02  0.25500000000E-02 0. -1.
          2   -1    0    0  501    0  0.00000000000E+00 -0.00000000000E+00 -0.10131996633E+04  0.10131996633E+04  0.25500000000E-02 0.  1.
    5000001    1    1    2    0    0 -0.42319509788E+01 -0.47776665927E+02 -0.41624056720E+03  0.43781928807E+03  0.12700000000E+03 0.  0.
   -5000001    1    1    2    0    0  0.42319509788E+01  0.47776665927E+02 -0.57830958956E+03  0.59402988190E+03  0.12700000000E+03 0.  0.
<mgrwt>
<rscale>  0 0.27492307E+03</rscale>
<asrwt>0</asrwt>
<pdfrwt beam="1">  1        2 0.14474277E+00 0.27492307E+03</pdfrwt>
<pdfrwt beam="2">  1       -2 0.26642159E-02 0.27492307E+03</pdfrwt>
<totfact> 0.14417938E+04</totfact>
</mgrwt>
</event>
<event>
 4    1  0.9508302E-005  0.3581231E+03  0.7818608E-02  0.1059330E+00
          2   -1    0    0  501    0  0.00000000000E+00  0.00000000000E+00  0.17841023629E+03  0.17841023631E+03  0.25500000000E-02 0.  1.
         -2   -1    0    0    0  501 -0.00000000000E+00 -0.00000000000E+00 -0.17971523572E+03  0.17971523574E+03  0.25500000000E-02 0. -1.
    5000001    1    1    2    0    0 -0.76222406096E+02  0.71020044244E+02  0.70624447898E+02  0.17880300477E+03  0.12700000000E+03 0.  0.
   -5000001    1    1    2    0    0  0.76222406096E+02 -0.71020044244E+02 -0.71929447326E+02  0.17932246727E+03  0.12700000000E+03 0.  0.
<mgrwt>
<rscale>  0 0.35812309E+03</rscale>
<asrwt>0</asrwt>
<pdfrwt beam="1">  1        2 0.25487177E-01 0.35812309E+03</pdfrwt>
<pdfrwt beam="2">  1       -2 0.25673605E-01 0.35812309E+03</pdfrwt>
<totfact> 0.28676126E+03</totfact>
</mgrwt>
</event>
<event>
 4    1  0.9508302E-005  0.3288335E+03  0.7818608E-02  0.1071654E+00
          2   -1    0    0  501    0  0.00000000000E+00  0.00000000000E+00  0.99687278225E+02  0.99687278258E+02  0.25500000000E-02 0.  1.
         -2   -1    0    0    0  501 -0.00000000000E+00 -0.00000000000E+00 -0.27117667655E+03  0.27117667657E+03  0.25500000000E-02 0. -1.
    5000001    1    1    2    0    0  0.25904729395E+02  0.98218757142E+02 -0.58445809217E+02  0.17280883043E+03  0.12700000000E+03 0.  0.
   -5000001    1    1    2    0    0 -0.25904729395E+02 -0.98218757142E+02 -0.11304358911E+03  0.19805512439E+03  0.12700000000E+03 0.  0.
<mgrwt>
<rscale>  0 0.32883348E+03</rscale>
<asrwt>0</asrwt>
<pdfrwt beam="1">  1        2 0.14241040E-01 0.32883348E+03</pdfrwt>
<pdfrwt beam="2">  1       -2 0.38739525E-01 0.32883348E+03</pdfrwt>
<totfact> 0.26363275E+03</totfact>
</mgrwt>
</event>
<event>
 4    1  0.9508302E-005  0.3952365E+03  0.7818608E-02  0.1045442E+00
          2   -1    0    0  501    0  0.00000000000E+00  0.00000000000E+00  0.56931101805E+02  0.56931101862E+02  0.25500000000E-02 0.  1.
         -2   -1    0    0    0  501 -0.00000000000E+00 -0.00000000000E+00 -0.68596887459E+03  0.68596887460E+03  0.25500000000E-02 0. -1.
    5000001    1    1    2    0    0 -0.44045593107E+02  0.14458532888E+03 -0.33122885156E+03  0.38559886373E+03  0.12700000000E+03 0.  0.
   -5000001    1    1    2    0    0  0.44045593107E+02 -0.14458532888E+03 -0.29780892123E+03  0.35730111274E+03  0.12700000000E+03 0.  0.
<mgrwt>
<rscale>  0 0.39523646E+03</rscale>
<asrwt>0</asrwt>
<pdfrwt beam="1">  1        2 0.81330150E-02 0.39523646E+03</pdfrwt>
<pdfrwt beam="2">  1       -2 0.97995549E-01 0.39523646E+03</pdfrwt>
<totfact> 0.75396600E+02</totfact>
</mgrwt>
</event>
<event>
 4    1  0.9508302E-005  0.5815523E+03  0.7818608E-02  0.9944436E-01
         -2   -1    0    0    0  501 -0.00000000000E+00  0.00000000000E+00  0.12774884155E+03  0.12774884158E+03  0.25500000000E-02 0. -1.
          2   -1    0    0  501    0  0.00000000000E+00 -0.00000000000E+00 -0.66185157063E+03  0.66185157063E+03  0.25500000000E-02 0.  1.
    5000001    1    1    2    0    0  0.77714733044E+02 -0.18998562915E+03 -0.48718909535E+03  0.54370610962E+03  0.12700000000E+03 0.  0.
   -5000001    1    1    2    0    0 -0.77714733044E+02  0.18998562915E+03 -0.46913633730E+02  0.24589430259E+03  0.12700000000E+03 0.  0.
<mgrwt>
<rscale>  0 0.58155231E+03</rscale>
<asrwt>0</asrwt>
<pdfrwt beam="1">  1        2 0.94550223E-01 0.58155231E+03</pdfrwt>
<pdfrwt beam="2">  1       -2 0.18249835E-01 0.58155231E+03</pdfrwt>
<totfact> 0.12085739E+03</totfact>
</mgrwt>
</event>
<event>
 4    1  0.9508302E-005  0.3894064E+03  0.7818608E-02  0.1047511E+00
         -2   -1    0    0    0  501 -0.00000000000E+00  0.00000000000E+00  0.20730573678E+03  0.20730573679E+03  0.25500000000E-02 0. -1.
          2   -1    0    0  501    0  0.00000000000E+00 -0.00000000000E+00 -0.18286680492E+03  0.18286680494E+03  0.25500000000E-02 0.  1.
    5000001    1    1    2    0    0 -0.10806887127E+03  0.66058833325E+02  0.88116018166E+02  0.19984014375E+03  0.12700000000E+03 0.  0.
   -5000001    1    1    2    0    0  0.10806887127E+03 -0.66058833325E+02 -0.63677086311E+02  0.19033239798E+03  0.12700000000E+03 0.  0.
<mgrwt>
<rscale>  0 0.38940641E+03</rscale>
<asrwt>0</asrwt>
<pdfrwt beam="1">  1        2 0.26123829E-01 0.38940641E+03</pdfrwt>
<pdfrwt beam="2">  1       -2 0.29615105E-01 0.38940641E+03</pdfrwt>
<totfact> 0.21588536E+03</totfact>
</mgrwt>
</event>
<event>
 4    1  0.9508302E-005  0.5303908E+03  0.7818608E-02  0.1006137E+00
         -2   -1    0    0    0  501 -0.00000000000E+00  0.00000000000E+00  0.23725050373E+03  0.23725050375E+03  0.25500000000E-02 0.  1.
          2   -1    0    0  501    0  0.00000000000E+00 -0.00000000000E+00 -0.29643184756E+03  0.29643184757E+03  0.25500000000E-02 0. -1.
    5000001    1    1    2    0    0  0.91596396253E+02  0.21300683141E+03 -0.85372688319E+01  0.26450651220E+03  0.12700000000E+03 0.  0.
   -5000001    1    1    2    0    0 -0.91596396253E+02 -0.21300683141E+03 -0.50644074997E+02  0.26917583912E+03  0.12700000000E+03 0.  0.
<mgrwt>
<rscale>  0 0.53039082E+03</rscale>
<asrwt>0</asrwt>
<pdfrwt beam="1">  1        2 0.42347407E-01 0.53039082E+03</pdfrwt>
<pdfrwt beam="2">  1       -2 0.33892929E-01 0.53039082E+03</pdfrwt>
<totfact> 0.98622664E+02</totfact>
</mgrwt>
</event>
<event>
 4    1  0.9508302E-005  0.2926645E+03  0.7818608E-02  0.1088966E+00
          2   -1    0    0  501    0  0.00000000000E+00  0.00000000000E+00  0.32329550954E+04  0.32329550954E+04  0.25500000000E-02 0.  1.
         -2   -1    0    0    0  501 -0.00000000000E+00 -0.00000000000E+00 -0.66233927988E+01  0.66233932896E+01  0.25500000000E-02 0. -1.
    5000001    1    1    2    0    0  0.44841844955E+02 -0.55426990365E+02  0.17701737780E+04  0.17761551583E+04  0.12700000000E+03 0.  0.
   -5000001    1    1    2    0    0 -0.44841844955E+02  0.55426990365E+02  0.14561579246E+04  0.14634233304E+04  0.12700000000E+03 0.  0.
<mgrwt>
<rscale>  0 0.29266453E+03</rscale>
<asrwt>0</asrwt>
<pdfrwt beam="1">  1        2 0.46184953E+00 0.29266453E+03</pdfrwt>
<pdfrwt beam="2">  1       -2 0.94620146E-03 0.29266453E+03</pdfrwt>
<totfact> 0.47962134E+03</totfact>
</mgrwt>
</event>
<event>
 4    1  0.9508302E-005  0.5574025E+03  0.7818608E-02  0.9997949E-01
          2   -1    0    0  501    0  0.00000000000E+00  0.00000000000E+00  0.51379535093E+03  0.51379535094E+03  0.25500000000E-02 0.  1.
         -2   -1    0    0    0  501 -0.00000000000E+00 -0.00000000000E+00 -0.15117768404E+03  0.15117768406E+03  0.25500000000E-02 0. -1.
    5000001    1    1    2    0    0 -0.17786350204E+02 -0.24308276912E+03  0.23649397258E+03  0.36257962707E+03  0.12700000000E+03 0.  0.
   -5000001    1    1    2    0    0  0.17786350204E+02  0.24308276912E+03  0.12612369431E+03  0.30239340794E+03  0.12700000000E+03 0.  0.
<mgrwt>
<rscale>  0 0.55740252E+03</rscale>
<asrwt>0</asrwt>
<pdfrwt beam="1">  1        2 0.73399335E-01 0.55740252E+03</pdfrwt>
<pdfrwt beam="2">  1       -2 0.21596812E-01 0.55740252E+03</pdfrwt>
<totfact> 0.12127792E+03</totfact>
</mgrwt>
</event>
<event>
 4    1  0.9508302E-005  0.2808590E+03  0.7818608E-02  0.1095221E+00
          2   -1    0    0  501    0  0.00000000000E+00  0.00000000000E+00  0.38248367140E+03  0.38248367140E+03  0.25500000000E-02 0.  1.
         -2   -1    0    0    0  501 -0.00000000000E+00 -0.00000000000E+00 -0.51558920250E+02  0.51558920313E+02  0.25500000000E-02 0. -1.
    5000001    1    1    2    0    0 -0.34509921567E+02  0.46038503266E+02  0.19136664731E+03  0.23677134999E+03  0.12700000000E+03 0.  0.
   -5000001    1    1    2    0    0  0.34509921567E+02 -0.46038503266E+02  0.13955810383E+03  0.19727124173E+03  0.12700000000E+03 0.  0.
<mgrwt>
<rscale>  0 0.28085900E+03</rscale>
<asrwt>0</asrwt>
<pdfrwt beam="1">  1        2 0.54640526E-01 0.28085900E+03</pdfrwt>
<pdfrwt beam="2">  1       -2 0.73655598E-02 0.28085900E+03</pdfrwt>
<totfact> 0.97285892E+03</totfact>
</mgrwt>
</event>
<event>
 4    1  0.9508302E-005  0.4309568E+03  0.7818608E-02  0.1033558E+00
         -2   -1    0    0    0  501 -0.00000000000E+00  0.00000000000E+00  0.54937558106E+02  0.54937558165E+02  0.25500000000E-02 0. -1.
          2   -1    0    0  501    0  0.00000000000E+00 -0.00000000000E+00 -0.84515826658E+03  0.84515826658E+03  0.25500000000E-02 0.  1.
    5000001    1    1    2    0    0  0.63599644985E+02 -0.15963071947E+03 -0.45325636242E+03  0.50109601027E+03  0.12700000000E+03 0.  0.
   -5000001    1    1    2    0    0 -0.63599644985E+02  0.15963071947E+03 -0.33696434606E+03  0.39899981448E+03  0.12700000000E+03 0.  0.
<mgrwt>
<rscale>  0 0.43095676E+03</rscale>
<asrwt>0</asrwt>
<pdfrwt beam="1">  1        2 0.12073689E+00 0.43095676E+03</pdfrwt>
<pdfrwt beam="2">  1       -2 0.78482231E-02 0.43095676E+03</pdfrwt>
<totfact> 0.35655757E+03</totfact>
</mgrwt>
</event>
<event>
 4    1  0.9508302E-005  0.4825305E+03  0.7818608E-02  0.1018442E+00
         -2   -1    0    0    0  501 -0.00000000000E+00  0.00000000000E+00  0.52885146665E+02  0.52885146726E+02  0.25500000000E-02 0. -1.
          2   -1    0    0  501    0  0.00000000000E+00 -0.00000000000E+00 -0.11006669401E+04  0.11006669401E+04  0.25500000000E-02 0.  1.
    5000001    1    1    2    0    0 -0.55480989296E+01 -0.14486069175E+03 -0.87085799540E+03  0.89192939719E+03  0.12700000000E+03 0.  0.
   -5000001    1    1    2    0    0  0.55480989296E+01  0.14486069175E+03 -0.17692379800E+03  0.26162268960E+03  0.12700000000E+03 0.  0.
<mgrwt>
<rscale>  0 0.48253055E+03</rscale>
<asrwt>0</asrwt>
<pdfrwt beam="1">  1        2 0.15723812E+00 0.48253055E+03</pdfrwt>
<pdfrwt beam="2">  1       -2 0.75550216E-02 0.48253055E+03</pdfrwt>
<totfact> 0.26395843E+03</totfact>
</mgrwt>
</event>
<event>
 4    1  0.9508302E-005  0.3102336E+03  0.7818608E-02  0.1080234E+00
         -2   -1    0    0    0  501 -0.00000000000E+00  0.00000000000E+00  0.74248722904E+02  0.74248722948E+02  0.25500000000E-02 0. -1.
          2   -1    0    0  501    0  0.00000000000E+00 -0.00000000000E+00 -0.32406248588E+03  0.32406248589E+03  0.25500000000E-02 0.  1.
    5000001    1    1    2    0    0  0.81959821142E+02  0.32508107216E+02 -0.14104720514E+03  0.20927853066E+03  0.12700000000E+03 0.  0.
   -5000001    1    1    2    0    0 -0.81959821142E+02 -0.32508107216E+02 -0.10876655783E+03  0.18903267818E+03  0.12700000000E+03 0.  0.
<mgrwt>
<rscale>  0 0.31023363E+03</rscale>
<asrwt>0</asrwt>
<pdfrwt beam="1">  1        2 0.46294640E-01 0.31023363E+03</pdfrwt>
<pdfrwt beam="2">  1       -2 0.10606961E-01 0.31023363E+03</pdfrwt>
<totfact> 0.65698007E+03</totfact>
</mgrwt>
</event>
<event>
 4    1  0.9508302E-005  0.2729117E+03  0.7818608E-02  0.1099625E+00
         -2   -1    0    0    0  501 -0.00000000000E+00  0.00000000000E+00  0.18654822670E+03  0.18654822672E+03  0.25500000000E-02 0. -1.
          2   -1    0    0  501    0  0.00000000000E+00 -0.00000000000E+00 -0.99814433638E+02  0.99814433670E+02  0.25500000000E-02 0.  1.
    5000001    1    1    2    0    0 -0.24676126577E+02 -0.30111829451E+02  0.76140473518E+02  0.15310782215E+03  0.12700000000E+03 0.  0.
   -5000001    1    1    2    0    0  0.24676126577E+02  0.30111829451E+02  0.10593319547E+02  0.13325483824E+03  0.12700000000E+03 0.  0.
<mgrwt>
<rscale>  0 0.27291175E+03</rscale>
<asrwt>0</asrwt>
<pdfrwt beam="1">  1        2 0.14259205E-01 0.27291175E+03</pdfrwt>
<pdfrwt beam="2">  1       -2 0.26649747E-01 0.27291175E+03</pdfrwt>
<totfact> 0.52133018E+03</totfact>
</mgrwt>
</event>
<event>
 4    1  0.9508302E-005  0.3904031E+03  0.7818608E-02  0.1047154E+00
         -2   -1    0    0    0  501 -0.00000000000E+00  0.00000000000E+00  0.14733196967E+03  0.14733196969E+03  0.25500000000E-02 0. -1.
          2   -1    0    0  501    0  0.00000000000E+00 -0.00000000000E+00 -0.25862443954E+03  0.25862443956E+03  0.25500000000E-02 0.  1.
    5000001    1    1    2    0    0  0.38610114914E+02 -0.33969481695E+02  0.88924985221E+02  0.16334417546E+03  0.12700000000E+03 0.  0.
   -5000001    1    1    2    0    0 -0.38610114914E+02  0.33969481695E+02 -0.20021745509E+03  0.24261223379E+03  0.12700000000E+03 0.  0.
<mgrwt>
<rscale>  0 0.39040312E+03</rscale>
<asrwt>0</asrwt>
<pdfrwt beam="1">  1        2 0.36946348E-01 0.39040312E+03</pdfrwt>
<pdfrwt beam="2">  1       -2 0.21047424E-01 0.39040312E+03</pdfrwt>
<totfact> 0.27000753E+03</totfact>
</mgrwt>
</event>
<event>
 4    1  0.9508302E-005  0.4144066E+03  0.7818608E-02  0.1038902E+00
          2   -1    0    0  501    0  0.00000000000E+00  0.00000000000E+00  0.58958874690E+03  0.58958874690E+03  0.25500000000E-02 0.  1.
         -2   -1    0    0    0  501 -0.00000000000E+00 -0.00000000000E+00 -0.72818901964E+02  0.72818902009E+02  0.25500000000E-02 0. -1.
    5000001    1    1    2    0    0 -0.94480442356E+02  0.15403209795E+02  0.47068629738E+03  0.49682834400E+03  0.12700000000E+03 0.  0.
   -5000001    1    1    2    0    0  0.94480442356E+02 -0.15403209795E+02  0.46083547551E+02  0.16557930491E+03  0.12700000000E+03 0.  0.
<mgrwt>
<rscale>  0 0.41440659E+03</rscale>
<asrwt>0</asrwt>
<pdfrwt beam="1">  1        2 0.84226966E-01 0.41440659E+03</pdfrwt>
<pdfrwt beam="2">  1       -2 0.10402700E-01 0.41440659E+03</pdfrwt>
<totfact> 0.35212872E+03</totfact>
</mgrwt>
</event>
<event>
 4    1  0.9508302E-005  0.3070371E+03  0.7818608E-02  0.1081775E+00
         -2   -1    0    0    0  501 -0.00000000000E+00  0.00000000000E+00  0.52953930501E+02  0.52953930563E+02  0.25500000000E-02 0. -1.
          2   -1    0    0  501    0  0.00000000000E+00 -0.00000000000E+00 -0.44506499059E+03  0.44506499060E+03  0.25500000000E-02 0.  1.
    5000001    1    1    2    0    0 -0.25224064612E+02 -0.81611277986E+02 -0.17670749663E+03  0.23377594721E+03  0.12700000000E+03 0.  0.
   -5000001    1    1    2    0    0  0.25224064612E+02  0.81611277986E+02 -0.21540356346E+03  0.26424297395E+03  0.12700000000E+03 0.  0.
<mgrwt>
<rscale>  0 0.30703707E+03</rscale>
<asrwt>0</asrwt>
<pdfrwt beam="1">  1        2 0.63580711E-01 0.30703707E+03</pdfrwt>
<pdfrwt beam="2">  1       -2 0.75648475E-02 0.30703707E+03</pdfrwt>
<totfact> 0.79415104E+03</totfact>
</mgrwt>
</event>
