<event>
 8    1  0.2682466E-027  0.1617876E+04  0.7818608E-02  0.8809641E-01
          2   -1    0    0  501    0  0.00000000000E+00  0.00000000000E+00  0.41741966817E+04  0.41741966817E+04  0.25500000000E-02 0.  1.
         -2   -1    0    0    0  501 -0.00000000000E+00 -0.00000000000E+00 -0.15676804994E+03  0.15676804996E+03  0.25500000000E-02 0. -1.
     200001    2    1    2    0    0 -0.22343557150E+03 -0.16053488588E+03  0.12200133647E+04  0.14342032502E+04  0.70200530524E+03 0.  0.
    5000001    2    3    3    0    0 -0.12615272068E+03 -0.10159581281E+03  0.10342800417E+03  0.20550449347E+03  0.72790979346E+02 0.  0.
        -13    1    4    4    0    0 -0.91687072852E+02 -0.69030340884E+02  0.41759169500E+02  0.12212922129E+03  0.10566000000E+00 0. -1.
     200003    1    4    4    0    0 -0.34465647825E+02 -0.32565471925E+02  0.61668834670E+02  0.83375272181E+02  0.30000000000E+02 0.  1.
     200000    1    3    3    0    0 -0.97282850823E+02 -0.58939073072E+02  0.11165853605E+04  0.12286987567E+04  0.50000000000E+03 0. -1.
    -200001    1    1    2    0    0  0.22343557150E+03  0.16053488588E+03  0.27974152671E+04  0.28967614815E+04  0.70000000000E+03 0.  1.
<mgrwt>
<rscale>  0 0.16178760E+04</rscale>
<asrwt>0</asrwt>
<pdfrwt beam="1">  1        2 0.59631383E+00 0.16178760E+04</pdfrwt>
<pdfrwt beam="2">  1       -2 0.22395435E-01 0.16178760E+04</pdfrwt>
<totfact> 0.73265152E+00</totfact>
</mgrwt>
</event>
<event>
 8    1  0.2682466E-027  0.2053432E+04  0.7818608E-02  0.8582039E-01
         -2   -1    0    0    0  501 -0.00000000000E+00  0.00000000000E+00  0.41601028847E+03  0.41601028848E+03  0.25500000000E-02 0. -1.
          2   -1    0    0  501    0  0.00000000000E+00 -0.00000000000E+00 -0.25339415967E+04  0.25339415967E+04  0.25500000000E-02 0.  1.
     200001    2    1    2    0    0  0.72769119574E+03  0.18499481957E+03 -0.10324206317E+04  0.14559334822E+04  0.70006598555E+03 0.  0.
    5000001    2    3    3    0    0  0.26326136437E+03  0.89956448766E+02 -0.37786225264E+03  0.50557879481E+03  0.18823210977E+03 0.  0.
        -13    1    4    4    0    0 -0.91060289489E+01  0.48995954067E+01  0.15539898085E+02  0.18666156404E+02  0.10566000000E+00 0. -1.
     200003    1    4    4    0    0  0.27236739332E+03  0.85056853359E+02 -0.39340215073E+03  0.48691263841E+03  0.30000000000E+02 0. -1.
     200000    1    3    3    0    0  0.46442983138E+03  0.95038370800E+02 -0.65455837904E+03  0.95035468735E+03  0.50000000000E+03 0.  1.
    -200001    1    1    2    0    0 -0.72769119574E+03 -0.18499481957E+03 -0.10855106765E+04  0.14940184030E+04  0.70000000000E+03 0.  1.
<mgrwt>
<rscale>  0 0.20534320E+04</rscale>
<asrwt>0</asrwt>
<pdfrwt beam="1">  1        2 0.36199165E+00 0.20534320E+04</pdfrwt>
<pdfrwt beam="2">  1       -2 0.59430043E-01 0.20534320E+04</pdfrwt>
<totfact> 0.10380137E+01</totfact>
</mgrwt>
</event>
<event>
 8    1  0.2682466E-027  0.1953422E+04  0.7818608E-02  0.8628712E-01
          2   -1    0    0  501    0  0.00000000000E+00  0.00000000000E+00  0.13379292872E+04  0.13379292872E+04  0.25500000000E-02 0.  1.
         -2   -1    0    0    0  501 -0.00000000000E+00 -0.00000000000E+00 -0.71301567981E+03  0.71301567982E+03  0.25500000000E-02 0. -1.
     200001    2    1    2    0    0 -0.54260915362E+03  0.40372646200E+03  0.21925539898E+03  0.99644113497E+03  0.69814200258E+03 0.  0.
    5000001    2    3    3    0    0 -0.16898080917E+03  0.23701865552E+03  0.16889905457E+03  0.34842462751E+03  0.90224572520E+02 0.  0.
        -13    1    4    4    0    0 -0.62890967746E+00  0.55000348313E+02  0.30720168093E+02  0.63001378823E+02  0.10566000000E+00 0. -1.
     200003    1    4    4    0    0 -0.16835189949E+03  0.18201830721E+03  0.13817888647E+03  0.28542324868E+03  0.30000000000E+02 0. -1.
     200000    1    3    3    0    0 -0.37362834445E+03  0.16670780647E+03  0.50356344410E+02  0.64801650746E+03  0.50000000000E+03 0. -1.
    -200001    1    1    2    0    0  0.54260915362E+03 -0.40372646200E+03  0.40565820837E+03  0.10545038320E+04  0.70000000000E+03 0.  1.
<mgrwt>
<rscale>  0 0.19534222E+04</rscale>
<asrwt>0</asrwt>
<pdfrwt beam="1">  1        2 0.19113275E+00 0.19534222E+04</pdfrwt>
<pdfrwt beam="2">  1       -2 0.10185938E+00 0.19534222E+04</pdfrwt>
<totfact> 0.13240594E+01</totfact>
</mgrwt>
</event>
<event>
 8    1  0.2682466E-027  0.1482681E+04  0.7818608E-02  0.8896052E-01
          2   -1    0    0  501    0  0.00000000000E+00  0.00000000000E+00  0.18515164971E+04  0.18515164971E+04  0.25500000000E-02 0.  1.
         -2   -1    0    0    0  501 -0.00000000000E+00 -0.00000000000E+00 -0.29683012151E+03  0.29683012152E+03  0.25500000000E-02 0. -1.
     200001    2    1    2    0    0  0.22653608864E+03 -0.84179116331E+02  0.76721263941E+03  0.10673657639E+04  0.70160510034E+03 0.  0.
    5000001    2    3    3    0    0  0.82024093882E+02  0.20406779875E+02  0.16775534735E+03  0.26663424129E+03  0.18922889162E+03 0.  0.
        -13    1    4    4    0    0  0.11715715073E+03  0.25371709735E+02  0.18209283580E+03  0.21800764582E+03  0.10566000000E+00 0. -1.
     200003    1    4    4    0    0 -0.35133056846E+02 -0.49649298607E+01 -0.14337488459E+02  0.48626595472E+02  0.30000000000E+02 0. -1.
     200000    1    3    3    0    0  0.14451199475E+03 -0.10458589621E+03  0.59945729206E+03  0.80073152262E+03  0.50000000000E+03 0.  1.
    -200001    1    1    2    0    0 -0.22653608864E+03  0.84179116331E+02  0.78747373618E+03  0.10809808547E+04  0.70000000000E+03 0. -1.
<mgrwt>
<rscale>  0 0.14826812E+04</rscale>
<asrwt>0</asrwt>
<pdfrwt beam="1">  1        2 0.26450235E+00 0.14826812E+04</pdfrwt>
<pdfrwt beam="2">  1       -2 0.42404304E-01 0.14826812E+04</pdfrwt>
<totfact> 0.48869710E+01</totfact>
</mgrwt>
</event>
<event>
 8    1  0.2682466E-027  0.1682164E+04  0.7818608E-02  0.8771603E-01
         -2   -1    0    0    0  501 -0.00000000000E+00  0.00000000000E+00  0.54072527734E+03  0.54072527735E+03  0.25500000000E-02 0.  1.
          2   -1    0    0  501    0  0.00000000000E+00 -0.00000000000E+00 -0.13082781084E+04  0.13082781084E+04  0.25500000000E-02 0. -1.
     200001    2    1    2    0    0 -0.30334182913E+03  0.24326201607E+03 -0.66655671907E+03  0.10419142405E+04  0.70006767609E+03 0.  0.
    5000001    2    3    3    0    0 -0.17059219520E+03  0.98115383113E+02 -0.12238598038E+03  0.27718435147E+03  0.15206745556E+03 0.  0.
        -13    1    4    4    0    0  0.54598097965E+01 -0.12723396486E+02 -0.54610114352E+02  0.56337998676E+02  0.10566000000E+00 0. -1.
     200003    1    4    4    0    0 -0.17605200500E+03  0.11083877960E+03 -0.67775866029E+02  0.22084635280E+03  0.30000000000E+02 0. -1.
     200000    1    3    3    0    0 -0.13274963392E+03  0.14514663295E+03 -0.54417073869E+03  0.76472988905E+03  0.50000000000E+03 0. -1.
    -200001    1    1    2    0    0  0.30334182913E+03 -0.24326201607E+03 -0.10099611203E+03  0.80708914526E+03  0.70000000000E+03 0.  1.
<mgrwt>
<rscale>  0 0.16821641E+04</rscale>
<asrwt>0</asrwt>
<pdfrwt beam="1">  1        2 0.18689687E+00 0.16821641E+04</pdfrwt>
<pdfrwt beam="2">  1       -2 0.77246468E-01 0.16821641E+04</pdfrwt>
<totfact> 0.26536442E+01</totfact>
</mgrwt>
</event>
<event>
 8    1  0.2682466E-027  0.1600759E+04  0.7818608E-02  0.8820082E-01
          2   -1    0    0  501    0  0.00000000000E+00  0.00000000000E+00  0.12359313270E+04  0.12359313270E+04  0.25500000000E-02 0.  1.
         -2   -1    0    0    0  501 -0.00000000000E+00 -0.00000000000E+00 -0.51831930130E+03  0.51831930130E+03  0.25500000000E-02 0. -1.
     200001    2    1    2    0    0 -0.31147438709E+03 -0.22461546290E+03  0.30051037162E+03  0.85344976805E+03  0.70042959900E+03 0.  0.
    5000001    2    3    3    0    0 -0.52726124883E+02 -0.10433656392E+03  0.79978552785E+02  0.23696622419E+03  0.18997436586E+03 0.  0.
        -13    1    4    4    0    0  0.21584093950E+01 -0.77852947681E+02  0.13073318386E+03  0.15217396860E+03  0.10566000000E+00 0. -1.
     200003    1    4    4    0    0 -0.54884534278E+02 -0.26483616242E+02 -0.50754631075E+02  0.84792255588E+02  0.30000000000E+02 0. -1.
     200000    1    3    3    0    0 -0.25874826221E+03 -0.12027889898E+03  0.22053181884E+03  0.61648354386E+03  0.50000000000E+03 0.  1.
    -200001    1    1    2    0    0  0.31147438709E+03  0.22461546290E+03  0.41710165407E+03  0.90080086024E+03  0.70000000000E+03 0. -1.
<mgrwt>
<rscale>  0 0.16007586E+04</rscale>
<asrwt>0</asrwt>
<pdfrwt beam="1">  1        2 0.17656162E+00 0.16007586E+04</pdfrwt>
<pdfrwt beam="2">  1       -2 0.74045615E-01 0.16007586E+04</pdfrwt>
<totfact> 0.32191987E+01</totfact>
</mgrwt>
</event>
<event>
 8    1  0.2682466E-027  0.2211878E+04  0.7818608E-02  0.8513500E-01
         -2   -1    0    0    0  501 -0.00000000000E+00  0.00000000000E+00  0.11985628854E+04  0.11985628854E+04  0.25500000000E-02 0. -1.
          2   -1    0    0  501    0  0.00000000000E+00 -0.00000000000E+00 -0.10204729126E+04  0.10204729126E+04  0.25500000000E-02 0.  1.
     200001    2    1    2    0    0 -0.70290176372E+03  0.32731682337E+03 -0.27506507862E+03  0.10803713641E+04  0.70023874121E+03 0.  0.
    5000001    2    3    3    0    0 -0.19318659655E+03  0.24354162942E+02 -0.10385756333E+03  0.28607422922E+03  0.18203814113E+03 0.  0.
        -13    1    4    4    0    0 -0.10807749028E+03 -0.42468469222E+02 -0.12629483550E+03  0.17156547269E+03  0.10566000000E+00 0. -1.
     200003    1    4    4    0    0 -0.85109106270E+02  0.66822632164E+02  0.22437272170E+02  0.11450875653E+03  0.30000000000E+02 0. -1.
     200000    1    3    3    0    0 -0.50971516717E+03  0.30296266043E+03 -0.17120751529E+03  0.79429713492E+03  0.50000000000E+03 0. -1.
    -200001    1    1    2    0    0  0.70290176372E+03 -0.32731682337E+03  0.45315505135E+03  0.11386644338E+04  0.70000000000E+03 0. -1.
<mgrwt>
<rscale>  0 0.22118779E+04</rscale>
<asrwt>0</asrwt>
<pdfrwt beam="1">  1        2 0.14578184E+00 0.22118779E+04</pdfrwt>
<pdfrwt beam="2">  1       -2 0.17122327E+00 0.22118779E+04</pdfrwt>
<totfact> 0.52273744E+00</totfact>
</mgrwt>
</event>
<event>
 8    1  0.2682466E-027  0.1709941E+04  0.7818608E-02  0.8755715E-01
          2   -1    0    0  501    0  0.00000000000E+00  0.00000000000E+00  0.20590466579E+04  0.20590466579E+04  0.25500000000E-02 0.  1.
         -2   -1    0    0    0  501 -0.00000000000E+00 -0.00000000000E+00 -0.35500618904E+03  0.35500618905E+03  0.25500000000E-02 0. -1.
     200001    2    1    2    0    0 -0.59450644895E+02  0.16636012360E+02  0.15385628428E+04  0.16921151898E+04  0.70161745857E+03 0.  0.
    5000001    2    3    3    0    0 -0.57721491749E+02  0.45660928634E+02  0.37623000343E+03  0.42646789878E+03  0.18683993738E+03 0.  0.
        -13    1    4    4    0    0 -0.11473289707E+03  0.77851941023E+01  0.29219652443E+03  0.31401125294E+03  0.10566000000E+00 0. -1.
     200003    1    4    4    0    0  0.57011405320E+02  0.37875734532E+02  0.84033478998E+02  0.11245664585E+03  0.30000000000E+02 0. -1.
     200000    1    3    3    0    0 -0.17291531458E+01 -0.29024916274E+02  0.11623328394E+04  0.12656472910E+04  0.50000000000E+03 0.  1.
    -200001    1    1    2    0    0  0.59450644895E+02 -0.16636012360E+02  0.16547762603E+03  0.72193765714E+03  0.70000000000E+03 0. -1.
<mgrwt>
<rscale>  0 0.17099407E+04</rscale>
<asrwt>0</asrwt>
<pdfrwt beam="1">  1        2 0.29414953E+00 0.17099407E+04</pdfrwt>
<pdfrwt beam="2">  1       -2 0.50715169E-01 0.17099407E+04</pdfrwt>
<totfact> 0.26203902E+01</totfact>
</mgrwt>
</event>
<event>
 8    1  0.2682466E-027  0.1749911E+04  0.7818608E-02  0.8733399E-01
         -2   -1    0    0    0  501 -0.00000000000E+00  0.00000000000E+00  0.62079663970E+03  0.62079663971E+03  0.25500000000E-02 0. -1.
          2   -1    0    0  501    0  0.00000000000E+00 -0.00000000000E+00 -0.12331694129E+04  0.12331694129E+04  0.25500000000E-02 0.  1.
     200001    2    1    2    0    0  0.44322690472E+03  0.26333010831E+03 -0.20026717231E+03  0.89187257415E+03  0.69966914553E+03 0.  0.
    5000001    2    3    3    0    0  0.17887647264E+03  0.15394552354E+03 -0.10623278539E+03  0.30818721006E+03  0.16732583504E+03 0.  0.
        -13    1    4    4    0    0  0.18866891538E+02  0.36938564094E+02 -0.99265149270E+02  0.10758251780E+03  0.10566000000E+00 0. -1.
     200003    1    4    4    0    0  0.16000958110E+03  0.11700695944E+03 -0.69676361246E+01  0.20060469225E+03  0.30000000000E+02 0. -1.
     200000    1    3    3    0    0  0.26435043208E+03  0.10938458478E+03 -0.94034386921E+02  0.58368536409E+03  0.50000000000E+03 0. -1.
    -200001    1    1    2    0    0 -0.44322690472E+03 -0.26333010831E+03 -0.41210560086E+03  0.96209347845E+03  0.70000000000E+03 0.  1.
<mgrwt>
<rscale>  0 0.17499113E+04</rscale>
<asrwt>0</asrwt>
<pdfrwt beam="1">  1        2 0.17616706E+00 0.17499113E+04</pdfrwt>
<pdfrwt beam="2">  1       -2 0.88685235E-01 0.17499113E+04</pdfrwt>
<totfact> 0.21269690E+01</totfact>
</mgrwt>
</event>
<event>
 8    1  0.2682466E-027  0.2646263E+04  0.7818608E-02  0.8352655E-01
         -2   -1    0    0    0  501 -0.00000000000E+00  0.00000000000E+00  0.12492056379E+04  0.12492056379E+04  0.25500000000E-02 0. -1.
          2   -1    0    0  501    0  0.00000000000E+00 -0.00000000000E+00 -0.14014317521E+04  0.14014317521E+04  0.25500000000E-02 0.  1.
     200001    2    1    2    0    0  0.10046218170E+04 -0.48590732200E+03 -0.20564107968E+03  0.13322201270E+04  0.69796224276E+03 0.  0.
    5000001    2    3    3    0    0  0.34805549004E+03 -0.11668910424E+03 -0.11338562938E+03  0.42342284368E+03  0.17796525617E+03 0.  0.
        -13    1    4    4    0    0  0.17385804755E+02  0.26178819077E+02  0.20991628710E+02  0.37792279836E+02  0.10566000000E+00 0. -1.
     200003    1    4    4    0    0  0.33066968529E+03 -0.14286792331E+03 -0.13437725809E+03  0.38563056385E+03  0.30000000000E+02 0. -1.
     200000    1    3    3    0    0  0.65656632698E+03 -0.36921821776E+03 -0.92255450301E+02  0.90879728331E+03  0.50000000000E+03 0. -1.
    -200001    1    1    2    0    0 -0.10046218170E+04  0.48590732200E+03  0.53414965529E+02  0.13184172630E+04  0.70000000000E+03 0. -1.
<mgrwt>
<rscale>  0 0.26462626E+04</rscale>
<asrwt>0</asrwt>
<pdfrwt beam="1">  1        2 0.20020454E+00 0.26462626E+04</pdfrwt>
<pdfrwt beam="2">  1       -2 0.17845795E+00 0.26462626E+04</pdfrwt>
<totfact> 0.27223789E+00</totfact>
</mgrwt>
</event>
<event>
 8    1  0.2682466E-027  0.1952912E+04  0.7818608E-02  0.8628958E-01
          2   -1    0    0  501    0  0.00000000000E+00  0.00000000000E+00  0.18592898078E+04  0.18592898078E+04  0.25500000000E-02 0.  1.
         -2   -1    0    0    0  501 -0.00000000000E+00 -0.00000000000E+00 -0.51281192710E+03  0.51281192710E+03  0.25500000000E-02 0. -1.
     200001    2    1    2    0    0  0.42147329300E+03 -0.37237823188E+03  0.11452692816E+04  0.14518897025E+04  0.69284680593E+03 0.  0.
    5000001    2    3    3    0    0  0.15341061273E+03 -0.80939705375E+02  0.40760114105E+03  0.47672392125E+03  0.17618443434E+03 0.  0.
        -13    1    4    4    0    0 -0.22666250248E+02  0.71851324338E+01  0.81079612078E+00  0.23791880607E+02  0.10566000000E+00 0. -1.
     200003    1    4    4    0    0  0.17607686298E+03 -0.88124837809E+02  0.40679034493E+03  0.45293204065E+03  0.30000000000E+02 0. -1.
     200000    1    3    3    0    0  0.26806268027E+03 -0.29143852650E+03  0.73766814055E+03  0.97516578122E+03  0.50000000000E+03 0.  1.
    -200001    1    1    2    0    0 -0.42147329300E+03  0.37237823188E+03  0.20120859911E+03  0.92021203244E+03  0.70000000000E+03 0. -1.
<mgrwt>
<rscale>  0 0.19529117E+04</rscale>
<asrwt>0</asrwt>
<pdfrwt beam="1">  1        2 0.26561283E+00 0.19529117E+04</pdfrwt>
<pdfrwt beam="2">  1       -2 0.73258846E-01 0.19529117E+04</pdfrwt>
<totfact> 0.14929022E+01</totfact>
</mgrwt>
</event>
<event>
 8    1  0.2682466E-027  0.1549121E+04  0.7818608E-02  0.8852429E-01
          2   -1    0    0  501    0  0.00000000000E+00  0.00000000000E+00  0.22526626270E+04  0.22526626270E+04  0.25500000000E-02 0.  1.
         -2   -1    0    0    0  501 -0.00000000000E+00 -0.00000000000E+00 -0.26632657772E+03  0.26632657773E+03  0.25500000000E-02 0. -1.
     200001    2    1    2    0    0  0.14874720629E+03 -0.70753436490E+02  0.52611531264E+03  0.89129869980E+03  0.70034582166E+03 0.  0.
    5000001    2    3    3    0    0  0.11518661075E+03 -0.13582358720E+03  0.13417017806E+03  0.25178214285E+03  0.11694703350E+03 0.  0.
        -13    1    4    4    0    0  0.88041399433E+02 -0.14222508595E+03  0.84504130810E+02  0.18740390171E+03  0.10566000000E+00 0. -1.
     200003    1    4    4    0    0  0.27145211315E+02  0.64014987517E+01  0.49666047245E+02  0.64378241142E+02  0.30000000000E+02 0. -1.
     200000    1    3    3    0    0  0.33560595538E+02  0.65070150709E+02  0.39194513458E+03  0.63951655695E+03  0.50000000000E+03 0. -1.
    -200001    1    1    2    0    0 -0.14874720629E+03  0.70753436490E+02  0.14602207367E+04  0.16276905050E+04  0.70000000000E+03 0. -1.
<mgrwt>
<rscale>  0 0.15491209E+04</rscale>
<asrwt>0</asrwt>
<pdfrwt beam="1">  1        2 0.32180894E+00 0.15491209E+04</pdfrwt>
<pdfrwt beam="2">  1       -2 0.38046655E-01 0.15491209E+04</pdfrwt>
<totfact> 0.37361609E+01</totfact>
</mgrwt>
</event>
<event>
 8    1  0.2682466E-027  0.1679289E+04  0.7818608E-02  0.8773266E-01
          2   -1    0    0  501    0  0.00000000000E+00  0.00000000000E+00  0.13816124565E+04  0.13816124565E+04  0.25500000000E-02 0.  1.
         -2   -1    0    0    0  501 -0.00000000000E+00 -0.00000000000E+00 -0.51027545655E+03  0.51027545656E+03  0.25500000000E-02 0. -1.
     200001    2    1    2    0    0 -0.12596214016E+03  0.44735856134E+03  0.42926715676E+03  0.94245550924E+03  0.69853843979E+03 0.  0.
    5000001    2    3    3    0    0 -0.13025357598E+03  0.10155574463E+03  0.71790654465E+02  0.23719849640E+03  0.15436860207E+03 0.  0.
        -13    1    4    4    0    0 -0.64346924358E+02  0.94627859039E+02  0.10674608402E+03  0.15649184004E+03  0.10566000000E+00 0. -1.
     200003    1    4    4    0    0 -0.65906651618E+02  0.69278855932E+01 -0.34955429555E+02  0.80706656366E+02  0.30000000000E+02 0. -1.
     200000    1    3    3    0    0  0.42914358123E+01  0.34580281671E+03  0.35747650229E+03  0.70525701284E+03  0.50000000000E+03 0. -1.
    -200001    1    1    2    0    0  0.12596214016E+03 -0.44735856134E+03  0.44206984318E+03  0.94943240381E+03  0.70000000000E+03 0.  1.
<mgrwt>
<rscale>  0 0.16792890E+04</rscale>
<asrwt>0</asrwt>
<pdfrwt beam="1">  1        2 0.19737321E+00 0.16792890E+04</pdfrwt>
<pdfrwt beam="2">  1       -2 0.72896494E-01 0.16792890E+04</pdfrwt>
<totfact> 0.27510582E+01</totfact>
</mgrwt>
</event>
<event>
 8    1  0.2682466E-027  0.1436397E+04  0.7818608E-02  0.8927886E-01
         -2   -1    0    0    0  501 -0.00000000000E+00  0.00000000000E+00  0.11741394972E+04  0.11741394972E+04  0.25500000000E-02 0. -1.
          2   -1    0    0  501    0  0.00000000000E+00 -0.00000000000E+00 -0.43930825152E+03  0.43930825152E+03  0.25500000000E-02 0.  1.
     200001    2    1    2    0    0  0.24687892631E+02 -0.12063469315E+03  0.24944825762E+03  0.75277425295E+03  0.69948725609E+03 0.  0.
    5000001    2    3    3    0    0 -0.40809003322E+02 -0.52755628278E+02  0.78341784065E+02  0.21595506912E+03  0.18987002313E+03 0.  0.
        -13    1    4    4    0    0  0.73530786328E+02 -0.66409991135E+01  0.21334231673E+02  0.76850764553E+02  0.10566000000E+00 0. -1.
     200003    1    4    4    0    0 -0.11433978965E+03 -0.46114629165E+02  0.57007552391E+02  0.13910430457E+03  0.30000000000E+02 0. -1.
     200000    1    3    3    0    0  0.65496895953E+02 -0.67879064871E+02  0.17110647356E+03  0.53681918382E+03  0.50000000000E+03 0.  1.
    -200001    1    1    2    0    0 -0.24687892631E+02  0.12063469315E+03  0.48538298805E+03  0.86067349577E+03  0.70000000000E+03 0. -1.
<mgrwt>
<rscale>  0 0.14363971E+04</rscale>
<asrwt>0</asrwt>
<pdfrwt beam="1">  1        2 0.62758322E-01 0.14363971E+04</pdfrwt>
<pdfrwt beam="2">  1       -2 0.16773421E+00 0.14363971E+04</pdfrwt>
<totfact> 0.16723849E+01</totfact>
</mgrwt>
</event>
<event>
 8    1  0.2682466E-027  0.1454740E+04  0.7818608E-02  0.8915121E-01
          2   -1    0    0  501    0  0.00000000000E+00  0.00000000000E+00  0.43004132669E+03  0.43004132670E+03  0.25500000000E-02 0.  1.
         -2   -1    0    0    0  501 -0.00000000000E+00 -0.00000000000E+00 -0.12302709174E+04  0.12302709174E+04  0.25500000000E-02 0. -1.
     200001    2    1    2    0    0  0.72337303671E+02 -0.99749776924E+02 -0.22349214702E+03  0.74499329288E+03  0.69991682588E+03 0.  0.
    5000001    2    3    3    0    0  0.82152413648E+02 -0.50054072038E+02 -0.12182893044E+03  0.23225416908E+03  0.17275786977E+03 0.  0.
        -13    1    4    4    0    0 -0.40928552678E+02 -0.52908783110E+02 -0.20370575799E+02  0.69924654285E+02  0.10566000000E+00 0. -1.
     200003    1    4    4    0    0  0.12308096633E+03  0.28547110717E+01 -0.10145835464E+03  0.16232951479E+03  0.30000000000E+02 0. -1.
     200000    1    3    3    0    0 -0.98151099766E+01 -0.49695704886E+02 -0.10166321658E+03  0.51273912380E+03  0.50000000000E+03 0.  1.
    -200001    1    1    2    0    0 -0.72337303671E+02  0.99749776924E+02 -0.57673744366E+03  0.91531895120E+03  0.70000000000E+03 0. -1.
<mgrwt>
<rscale>  0 0.14547403E+04</rscale>
<asrwt>0</asrwt>
<pdfrwt beam="1">  1        2 0.61434476E-01 0.14547403E+04</pdfrwt>
<pdfrwt beam="2">  1       -2 0.17575299E+00 0.14547403E+04</pdfrwt>
<totfact> 0.15010744E+01</totfact>
</mgrwt>
</event>
<event>
 8    1  0.2682466E-027  0.1508448E+04  0.7818608E-02  0.8878855E-01
          2   -1    0    0  501    0  0.00000000000E+00  0.00000000000E+00  0.14035426943E+04  0.14035426943E+04  0.25500000000E-02 0.  1.
         -2   -1    0    0    0  501 -0.00000000000E+00 -0.00000000000E+00 -0.40529839518E+03  0.40529839519E+03  0.25500000000E-02 0. -1.
     200001    2    1    2    0    0  0.16508147336E+03 -0.22487403003E+03  0.53686345377E+03  0.92527303513E+03  0.70006256814E+03 0.  0.
    5000001    2    3    3    0    0  0.26467351403E+02  0.23320787690E+02  0.19853449049E+03  0.25797922447E+03  0.16091288486E+03 0.  0.
        -13    1    4    4    0    0 -0.51164700354E+02 -0.30972557261E+02  0.43990891165E+02  0.74245104452E+02  0.10566000000E+00 0. -1.
     200003    1    4    4    0    0  0.77632051758E+02  0.54293344950E+02  0.15454359933E+03  0.18373412002E+03  0.30000000000E+02 0. -1.
     200000    1    3    3    0    0  0.13861412196E+03 -0.24819481772E+03  0.33832896328E+03  0.66729381066E+03  0.50000000000E+03 0.  1.
    -200001    1    1    2    0    0 -0.16508147336E+03  0.22487403003E+03  0.46138084535E+03  0.88356805436E+03  0.70000000000E+03 0.  1.
<mgrwt>
<rscale>  0 0.15084477E+04</rscale>
<asrwt>0</asrwt>
<pdfrwt beam="1">  1        2 0.20050610E+00 0.15084477E+04</pdfrwt>
<pdfrwt beam="2">  1       -2 0.57899770E-01 0.15084477E+04</pdfrwt>
<totfact> 0.44477160E+01</totfact>
</mgrwt>
</event>
<event>
 8    1  0.2682466E-027  0.2194708E+04  0.7818608E-02  0.8520634E-01
          2   -1    0    0  501    0  0.00000000000E+00  0.00000000000E+00  0.17841797799E+04  0.17841797799E+04  0.25500000000E-02 0.  1.
         -2   -1    0    0    0  501 -0.00000000000E+00 -0.00000000000E+00 -0.67492374493E+03  0.67492374493E+03  0.25500000000E-02 0. -1.
     200001    2    1    2    0    0 -0.18445704405E+03  0.43694674256E+03  0.13378796511E+04  0.15831950736E+04  0.70116889785E+03 0.  0.
    5000001    2    3    3    0    0 -0.71534496042E+02  0.13290241680E+03  0.28597830647E+03  0.37419098233E+03  0.18829514855E+03 0.  0.
        -13    1    4    4    0    0  0.47022242523E+02 -0.13800791448E+02  0.43499093215E+02  0.65526600789E+02  0.10566000000E+00 0. -1.
     200003    1    4    4    0    0 -0.11855673856E+03  0.14670320825E+03  0.24247921325E+03  0.30866438154E+03  0.30000000000E+02 0. -1.
     200000    1    3    3    0    0 -0.11292254801E+03  0.30404432575E+03  0.10519013447E+04  0.12090040913E+04  0.50000000000E+03 0.  1.
    -200001    1    1    2    0    0  0.18445704405E+03 -0.43694674256E+03 -0.22862361621E+03  0.87590845116E+03  0.70000000000E+03 0. -1.
<mgrwt>
<rscale>  0 0.21947075E+04</rscale>
<asrwt>0</asrwt>
<pdfrwt beam="1">  1        2 0.25488282E+00 0.21947075E+04</pdfrwt>
<pdfrwt beam="2">  1       -2 0.96417678E-01 0.21947075E+04</pdfrwt>
<totfact> 0.85788354E+00</totfact>
</mgrwt>
</event>
<event>
 8    1  0.2682466E-027  0.1730292E+04  0.7818608E-02  0.8744274E-01
          2   -1    0    0  501    0  0.00000000000E+00  0.00000000000E+00  0.39227225327E+04  0.39227225327E+04  0.25500000000E-02 0.  1.
         -2   -1    0    0    0  501 -0.00000000000E+00 -0.00000000000E+00 -0.19080573519E+03  0.19080573521E+03  0.25500000000E-02 0. -1.
     200001    2    1    2    0    0 -0.50274530449E+03  0.74750237742E+02  0.19008331689E+04  0.20883843979E+04  0.69988728965E+03 0.  0.
    5000001    2    3    3    0    0 -0.10457285420E+03 -0.38826891575E+02  0.61654552000E+03  0.64934449937E+03  0.17051947479E+03 0.  0.
        -13    1    4    4    0    0  0.97122017509E+01 -0.24249806201E+02  0.41085603575E+03  0.41168564857E+03  0.10566000000E+00 0. -1.
     200003    1    4    4    0    0 -0.11428505595E+03 -0.14577085375E+02  0.20568948425E+03  0.23765885080E+03  0.30000000000E+02 0. -1.
     200000    1    3    3    0    0 -0.39817245029E+03  0.11357712932E+03  0.12842876489E+04  0.14390398986E+04  0.50000000000E+03 0. -1.
    -200001    1    1    2    0    0  0.50274530449E+03 -0.74750237742E+02  0.18310836285E+04  0.20251438699E+04  0.70000000000E+03 0.  1.
<mgrwt>
<rscale>  0 0.17302924E+04</rscale>
<asrwt>0</asrwt>
<pdfrwt beam="1">  1        2 0.56038895E+00 0.17302924E+04</pdfrwt>
<pdfrwt beam="2">  1       -2 0.27257961E-01 0.17302924E+04</pdfrwt>
<totfact> 0.75763576E+00</totfact>
</mgrwt>
</event>
<event>
 8    1  0.2682466E-027  0.1410312E+04  0.7818608E-02  0.8946388E-01
         -2   -1    0    0    0  501 -0.00000000000E+00  0.00000000000E+00  0.33844151585E+03  0.33844151586E+03  0.25500000000E-02 0. -1.
          2   -1    0    0  501    0  0.00000000000E+00 -0.00000000000E+00 -0.14692195534E+04  0.14692195534E+04  0.25500000000E-02 0.  1.
     200001    2    1    2    0    0  0.72547147311E+02 -0.21611472041E+02 -0.61937993681E+03  0.93745525351E+03  0.69961468102E+03 0.  0.
    5000001    2    3    3    0    0 -0.14076825084E+02  0.26634277758E+02 -0.20465504101E+03  0.28031896310E+03  0.18917582696E+03 0.  0.
        -13    1    4    4    0    0 -0.37033513748E+02 -0.63889795469E+02 -0.29406912746E+02  0.79486884370E+02  0.10566000000E+00 0. -1.
     200003    1    4    4    0    0  0.22956688663E+02  0.90524073227E+02 -0.17524812826E+03  0.20083207873E+03  0.30000000000E+02 0. -1.
     200000    1    3    3    0    0  0.86623972395E+02 -0.48245749799E+02 -0.41472489581E+03  0.65713629041E+03  0.50000000000E+03 0. -1.
    -200001    1    1    2    0    0 -0.72547147311E+02  0.21611472041E+02 -0.51139810071E+03  0.87020581572E+03  0.70000000000E+03 0. -1.
<mgrwt>
<rscale>  0 0.14103119E+04</rscale>
<asrwt>0</asrwt>
<pdfrwt beam="1">  1        2 0.20988850E+00 0.14103119E+04</pdfrwt>
<pdfrwt beam="2">  1       -2 0.48348789E-01 0.14103119E+04</pdfrwt>
<totfact> 0.59882965E+01</totfact>
</mgrwt>
</event>
<event>
 8    1  0.2682466E-027  0.1479924E+04  0.7818608E-02  0.8897914E-01
         -2   -1    0    0    0  501 -0.00000000000E+00  0.00000000000E+00  0.97879786958E+03  0.97879786959E+03  0.25500000000E-02 0. -1.
          2   -1    0    0  501    0  0.00000000000E+00 -0.00000000000E+00 -0.55940458759E+03  0.55940458760E+03  0.25500000000E-02 0.  1.
     200001    2    1    2    0    0  0.12486190807E+02  0.34621553012E+02  0.45815701327E+03  0.83616457804E+03  0.69850468564E+03 0.  0.
    5000001    2    3    3    0    0 -0.50072070092E+02  0.44763466096E+02  0.59560599667E+02  0.19359513016E+03  0.17152442767E+03 0.  0.
        -13    1    4    4    0    0 -0.34105665254E+02  0.61970864399E+02  0.10976020773E+03  0.13057909022E+03  0.10566000000E+00 0. -1.
     200003    1    4    4    0    0 -0.15966404839E+02 -0.17207398304E+02 -0.50199608065E+02  0.63016039940E+02  0.30000000000E+02 0. -1.
     200000    1    3    3    0    0  0.62558260900E+02 -0.10141913084E+02  0.39859641361E+03  0.64256944788E+03  0.50000000000E+03 0. -1.
    -200001    1    1    2    0    0 -0.12486190807E+02 -0.34621553012E+02 -0.38763731287E+02  0.70203787915E+03  0.70000000000E+03 0.  1.
<mgrwt>
<rscale>  0 0.14799243E+04</rscale>
<asrwt>0</asrwt>
<pdfrwt beam="1">  1        2 0.79914942E-01 0.14799243E+04</pdfrwt>
<pdfrwt beam="2">  1       -2 0.13982827E+00 0.14799243E+04</pdfrwt>
<totfact> 0.20578252E+01</totfact>
</mgrwt>
</event>
<event>
 8    1  0.2682466E-027  0.1860502E+04  0.7818608E-02  0.8674771E-01
          2   -1    0    0  501    0  0.00000000000E+00  0.00000000000E+00  0.23905681826E+04  0.23905681826E+04  0.25500000000E-02 0.  1.
         -2   -1    0    0    0  501 -0.00000000000E+00 -0.00000000000E+00 -0.36199199070E+03  0.36199199071E+03  0.25500000000E-02 0. -1.
     200001    2    1    2    0    0 -0.17403303027E+03 -0.58782079279E+03  0.10270335668E+04  0.13854799233E+04  0.69923950869E+03 0.  0.
    5000001    2    3    3    0    0 -0.21588286140E+02 -0.14705954944E+03  0.23493130733E+03  0.33908809273E+03  0.19415316194E+03 0.  0.
        -13    1    4    4    0    0  0.23783778946E+02 -0.70038926750E+01 -0.27290911898E+02  0.36871773619E+02  0.10566000000E+00 0. -1.
     200003    1    4    4    0    0 -0.45372065086E+02 -0.14005565676E+03  0.26222221923E+03  0.30221631911E+03  0.30000000000E+02 0. -1.
     200000    1    3    3    0    0 -0.15244474413E+03 -0.44076124335E+03  0.79210225946E+03  0.10463918306E+04  0.50000000000E+03 0. -1.
    -200001    1    1    2    0    0  0.17403303027E+03  0.58782079279E+03  0.10015426251E+04  0.13670802500E+04  0.70000000000E+03 0. -1.
<mgrwt>
<rscale>  0 0.18605016E+04</rscale>
<asrwt>0</asrwt>
<pdfrwt beam="1">  1        2 0.34150976E+00 0.18605016E+04</pdfrwt>
<pdfrwt beam="2">  1       -2 0.51713139E-01 0.18605016E+04</pdfrwt>
<totfact> 0.16753073E+01</totfact>
</mgrwt>
</event>
<event>
 8    1  0.2682466E-027  0.1596559E+04  0.7818608E-02  0.8822665E-01
         -2   -1    0    0    0  501 -0.00000000000E+00  0.00000000000E+00  0.35195656425E+03  0.35195656426E+03  0.25500000000E-02 0. -1.
          2   -1    0    0  501    0  0.00000000000E+00 -0.00000000000E+00 -0.18105924580E+04  0.18105924580E+04  0.25500000000E-02 0.  1.
     200001    2    1    2    0    0 -0.48571788473E+01 -0.29054841644E+03 -0.39364156740E+03  0.85539375619E+03  0.70164294342E+03 0.  0.
    5000001    2    3    3    0    0  0.70957786307E+02  0.67733119622E+01 -0.84698834653E+02  0.19237510544E+03  0.15733214359E+03 0.  0.
        -13    1    4    4    0    0 -0.28458326656E+02 -0.47628700916E+02 -0.26163386132E+02  0.61342509281E+02  0.10566000000E+00 0. -1.
     200003    1    4    4    0    0  0.99416112963E+02  0.54402012878E+02 -0.58535448522E+02  0.13103259616E+03  0.30000000000E+02 0. -1.
     200000    1    3    3    0    0 -0.75814965154E+02 -0.29732172840E+03 -0.30894273275E+03  0.66301865075E+03  0.50000000000E+03 0. -1.
    -200001    1    1    2    0    0  0.48571788473E+01  0.29054841644E+03 -0.10649943264E+04  0.13071552661E+04  0.70000000000E+03 0.  1.
<mgrwt>
<rscale>  0 0.15965587E+04</rscale>
<asrwt>0</asrwt>
<pdfrwt beam="1">  1        2 0.25865606E+00 0.15965587E+04</pdfrwt>
<pdfrwt beam="2">  1       -2 0.50279510E-01 0.15965587E+04</pdfrwt>
<totfact> 0.36127729E+01</totfact>
</mgrwt>
</event>
<event>
 8    1  0.2682466E-027  0.1727377E+04  0.7818608E-02  0.8745902E-01
         -2   -1    0    0    0  501 -0.00000000000E+00  0.00000000000E+00  0.20948085664E+04  0.20948085664E+04  0.25500000000E-02 0. -1.
          2   -1    0    0  501    0  0.00000000000E+00 -0.00000000000E+00 -0.35609847529E+03  0.35609847530E+03  0.25500000000E-02 0.  1.
     200001    2    1    2    0    0  0.35057187992E+02 -0.33613779325E+03  0.33667762615E+03  0.84781232982E+03  0.70086824736E+03 0.  0.
    5000001    2    3    3    0    0  0.99981875416E+02 -0.20837904581E+03  0.91585118770E+02  0.27282724326E+03  0.11237734888E+03 0.  0.
        -13    1    4    4    0    0 -0.86785248246E+01  0.87419532350E+01  0.34073130676E+01  0.12781216134E+02  0.10566000000E+00 0. -1.
     200003    1    4    4    0    0  0.10866040024E+03 -0.21712099904E+03  0.88177805703E+02  0.26004602713E+03  0.30000000000E+02 0. -1.
     200000    1    3    3    0    0 -0.64924687424E+02 -0.12775874744E+03  0.24509250738E+03  0.57498508655E+03  0.50000000000E+03 0.  1.
    -200001    1    1    2    0    0 -0.35057187992E+02  0.33613779325E+03  0.14020324650E+04  0.16030947119E+04  0.70000000000E+03 0. -1.
<mgrwt>
<rscale>  0 0.17273774E+04</rscale>
<asrwt>0</asrwt>
<pdfrwt beam="1">  1        2 0.50871209E-01 0.17273774E+04</pdfrwt>
<pdfrwt beam="2">  1       -2 0.29925838E+00 0.17273774E+04</pdfrwt>
<totfact> 0.30179945E+00</totfact>
</mgrwt>
</event>
<event>
 8    1  0.2682466E-027  0.1572848E+04  0.7818608E-02  0.8837404E-01
         -2   -1    0    0    0  501 -0.00000000000E+00  0.00000000000E+00  0.41035991508E+03  0.41035991508E+03  0.25500000000E-02 0. -1.
          2   -1    0    0  501    0  0.00000000000E+00 -0.00000000000E+00 -0.15071232550E+04  0.15071232550E+04  0.25500000000E-02 0.  1.
     200001    2    1    2    0    0  0.85874793413E+02 -0.25105122750E+03 -0.84286649609E+03  0.11269992637E+04  0.69950140186E+03 0.  0.
    5000001    2    3    3    0    0  0.19856112448E+02 -0.10915187224E+02 -0.16975776632E+03  0.25229980323E+03  0.18526760367E+03 0.  0.
        -13    1    4    4    0    0  0.64212987443E+02 -0.36062769958E+02 -0.17793802404E+03  0.19257669302E+03  0.10566000000E+00 0. -1.
     200003    1    4    4    0    0 -0.44356874994E+02  0.25147582734E+02  0.81802577142E+01  0.59723110208E+02  0.30000000000E+02 0. -1.
     200000    1    3    3    0    0  0.66018680964E+02 -0.24013604028E+03 -0.67310872977E+03  0.87469946048E+03  0.50000000000E+03 0.  1.
    -200001    1    1    2    0    0 -0.85874793413E+02  0.25105122750E+03 -0.25389684388E+03  0.79048390642E+03  0.70000000000E+03 0. -1.
<mgrwt>
<rscale>  0 0.15728483E+04</rscale>
<asrwt>0</asrwt>
<pdfrwt beam="1">  1        2 0.21530332E+00 0.15728483E+04</pdfrwt>
<pdfrwt beam="2">  1       -2 0.58622846E-01 0.15728483E+04</pdfrwt>
<totfact> 0.37945356E+01</totfact>
</mgrwt>
</event>
<event>
 8    1  0.2682466E-027  0.1917694E+04  0.7818608E-02  0.8646099E-01
         -2   -1    0    0    0  501 -0.00000000000E+00  0.00000000000E+00  0.93566326982E+03  0.93566326983E+03  0.25500000000E-02 0. -1.
          2   -1    0    0  501    0  0.00000000000E+00 -0.00000000000E+00 -0.98260503069E+03  0.98260503069E+03  0.25500000000E-02 0.  1.
     200001    2    1    2    0    0  0.16220242282E+03  0.16549666054E+03  0.58970532255E+03  0.94409260823E+03  0.69989978915E+03 0.  0.
    5000001    2    3    3    0    0  0.74607152441E+02  0.75426967156E+02  0.31697822875E+03  0.36085547913E+03  0.13596332134E+03 0.  0.
        -13    1    4    4    0    0 -0.36224718679E+02  0.35783520887E+02  0.89080988793E+02  0.10260664861E+03  0.10566000000E+00 0. -1.
     200003    1    4    4    0    0  0.11083187112E+03  0.39643446269E+02  0.22789723996E+03  0.25824883053E+03  0.30000000000E+02 0. -1.
     200000    1    3    3    0    0  0.87595270379E+02  0.90069693382E+02  0.27272709381E+03  0.58323712909E+03  0.50000000000E+03 0. -1.
    -200001    1    1    2    0    0 -0.16220242282E+03 -0.16549666054E+03 -0.63664708342E+03  0.97417569229E+03  0.70000000000E+03 0.  1.
<mgrwt>
<rscale>  0 0.19176939E+04</rscale>
<asrwt>0</asrwt>
<pdfrwt beam="1">  1        2 0.14037215E+00 0.19176939E+04</pdfrwt>
<pdfrwt beam="2">  1       -2 0.13366618E+00 0.19176939E+04</pdfrwt>
<totfact> 0.10935579E+01</totfact>
</mgrwt>
</event>
<event>
 8    1  0.2682466E-027  0.1500115E+04  0.7818608E-02  0.8884377E-01
         -2   -1    0    0    0  501 -0.00000000000E+00  0.00000000000E+00  0.46899767647E+03  0.46899767647E+03  0.25500000000E-02 0. -1.
          2   -1    0    0  501    0  0.00000000000E+00 -0.00000000000E+00 -0.11995498798E+04  0.11995498798E+04  0.25500000000E-02 0.  1.
     200001    2    1    2    0    0 -0.17307890692E+03  0.55271036658E+02 -0.14476254916E+03  0.73786999963E+03  0.70034616098E+03 0.  0.
    5000001    2    3    3    0    0 -0.16597625066E+03 -0.15177402368E+01  0.12626777784E+02  0.21056855535E+03  0.12895449456E+03 0.  0.
        -13    1    4    4    0    0 -0.65240252453E+02 -0.16614002583E+02 -0.53049866583E+02  0.85712397764E+02  0.10566000000E+00 0. -1.
     200003    1    4    4    0    0 -0.10073599820E+03  0.15096262346E+02  0.65676644367E+02  0.12485615758E+03  0.30000000000E+02 0. -1.
     200000    1    3    3    0    0 -0.71026562672E+01  0.56788776895E+02 -0.15738932695E+03  0.52730144428E+03  0.50000000000E+03 0. -1.
    -200001    1    1    2    0    0  0.17307890692E+03 -0.55271036658E+02 -0.58578965419E+03  0.93067755666E+03  0.70000000000E+03 0.  1.
<mgrwt>
<rscale>  0 0.15001148E+04</rscale>
<asrwt>0</asrwt>
<pdfrwt beam="1">  1        2 0.17136427E+00 0.15001148E+04</pdfrwt>
<pdfrwt beam="2">  1       -2 0.66999669E-01 0.15001148E+04</pdfrwt>
<totfact> 0.42323475E+01</totfact>
</mgrwt>
</event>
<event>
 8    1  0.2682466E-027  0.1420243E+04  0.7818608E-02  0.8939295E-01
          2   -1    0    0  501    0  0.00000000000E+00  0.00000000000E+00  0.83512591127E+03  0.83512591128E+03  0.25500000000E-02 0.  1.
         -2   -1    0    0    0  501 -0.00000000000E+00 -0.00000000000E+00 -0.60382797795E+03  0.60382797795E+03  0.25500000000E-02 0. -1.
     200001    2    1    2    0    0  0.26896735723E+02  0.79107211815E+01  0.23313353014E+03  0.73839027091E+03  0.70005923706E+03 0.  0.
    5000001    2    3    3    0    0  0.19080595024E+02 -0.77699335159E+00  0.81492873324E+02  0.21577046910E+03  0.19887466935E+03 0.  0.
        -13    1    4    4    0    0 -0.63037835405E+02 -0.65186650377E+02  0.44828646247E+02  0.10115674356E+03  0.10566000000E+00 0. -1.
     200003    1    4    4    0    0  0.82118430429E+02  0.64409657025E+02  0.36664227077E+02  0.11461372554E+03  0.30000000000E+02 0. -1.
     200000    1    3    3    0    0  0.78161406992E+01  0.86877145331E+01  0.15164065682E+03  0.52261980181E+03  0.50000000000E+03 0.  1.
    -200001    1    1    2    0    0 -0.26896735723E+02 -0.79107211815E+01 -0.18355968152E+01  0.70056361832E+03  0.70000000000E+03 0. -1.
<mgrwt>
<rscale>  0 0.14202428E+04</rscale>
<asrwt>0</asrwt>
<pdfrwt beam="1">  1        2 0.11930370E+00 0.14202428E+04</pdfrwt>
<pdfrwt beam="2">  1       -2 0.86261140E-01 0.14202428E+04</pdfrwt>
<totfact> 0.40770963E+01</totfact>
</mgrwt>
</event>
<event>
 8    1  0.2682466E-027  0.1492639E+04  0.7818608E-02  0.8889363E-01
          2   -1    0    0  501    0  0.00000000000E+00  0.00000000000E+00  0.78369824412E+03  0.78369824412E+03  0.25500000000E-02 0.  1.
         -2   -1    0    0    0  501 -0.00000000000E+00 -0.00000000000E+00 -0.71072372711E+03  0.71072372711E+03  0.25500000000E-02 0. -1.
     200001    2    1    2    0    0  0.22054677223E+03  0.24644566093E+02 -0.95472168170E+02  0.74101469815E+03  0.70052809694E+03 0.  0.
    5000001    2    3    3    0    0  0.11998580846E+03 -0.15717593724E+02 -0.63564413905E+02  0.22841376550E+03  0.18299938953E+03 0.  0.
        -13    1    4    4    0    0  0.56392516881E+02  0.51873105391E+02 -0.98518156219E+02  0.12480694409E+03  0.10566000000E+00 0. -1.
     200003    1    4    4    0    0  0.63593291581E+02 -0.67590699115E+02  0.34953742314E+02  0.10360682141E+03  0.30000000000E+02 0. -1.
     200000    1    3    3    0    0  0.10056096377E+03  0.40362159817E+02 -0.31907754265E+02  0.51260093266E+03  0.50000000000E+03 0. -1.
    -200001    1    1    2    0    0 -0.22054677223E+03 -0.24644566093E+02  0.16844668518E+03  0.75340727308E+03  0.70000000000E+03 0.  1.
<mgrwt>
<rscale>  0 0.14926392E+04</rscale>
<asrwt>0</asrwt>
<pdfrwt beam="1">  1        2 0.11195689E+00 0.14926392E+04</pdfrwt>
<pdfrwt beam="2">  1       -2 0.10153196E+00 0.14926392E+04</pdfrwt>
<totfact> 0.30125708E+01</totfact>
</mgrwt>
</event>
<event>
 8    1  0.2682466E-027  0.1912762E+04  0.7818608E-02  0.8648530E-01
         -2   -1    0    0    0  501 -0.00000000000E+00  0.00000000000E+00  0.21000946387E+04  0.21000946387E+04  0.25500000000E-02 0. -1.
          2   -1    0    0  501    0  0.00000000000E+00 -0.00000000000E+00 -0.43553504979E+03  0.43553504980E+03  0.25500000000E-02 0.  1.
     200001    2    1    2    0    0  0.43124384440E+03 -0.25742383528E+03  0.13831682758E+04  0.16293078056E+04  0.69946491120E+03 0.  0.
    5000001    2    3    3    0    0 -0.10316738051E+02 -0.42818303045E+02  0.11283990774E+03  0.17852682797E+03  0.13114549693E+03 0.  0.
        -13    1    4    4    0    0 -0.17864792943E+02 -0.23464158164E+02 -0.23297805518E+02  0.37583459809E+02  0.10566000000E+00 0. -1.
     200003    1    4    4    0    0  0.75480548918E+01 -0.19354144880E+02  0.13613771326E+03  0.14094336816E+03  0.30000000000E+02 0. -1.
     200000    1    3    3    0    0  0.44156058245E+03 -0.21460553223E+03  0.12703283681E+04  0.14507809777E+04  0.50000000000E+03 0. -1.
    -200001    1    1    2    0    0 -0.43124384440E+03  0.25742383528E+03  0.28139131311E+03  0.90632188288E+03  0.70000000000E+03 0.  1.
<mgrwt>
<rscale>  0 0.19127622E+04</rscale>
<asrwt>0</asrwt>
<pdfrwt beam="1">  1        2 0.62219293E-01 0.19127622E+04</pdfrwt>
<pdfrwt beam="2">  1       -2 0.30001352E+00 0.19127622E+04</pdfrwt>
<totfact> 0.23463423E+00</totfact>
</mgrwt>
</event>
<event>
 8    1  0.2682466E-027  0.1422155E+04  0.7818608E-02  0.8937936E-01
          2   -1    0    0  501    0  0.00000000000E+00  0.00000000000E+00  0.15227542108E+04  0.15227542108E+04  0.25500000000E-02 0.  1.
         -2   -1    0    0    0  501 -0.00000000000E+00 -0.00000000000E+00 -0.33205032127E+03  0.33205032128E+03  0.25500000000E-02 0. -1.
     200001    2    1    2    0    0 -0.42975471674E+02  0.90151600796E+00  0.43247179557E+03  0.82196204061E+03  0.69766900342E+03 0.  0.
    5000001    2    3    3    0    0 -0.91718393191E+01 -0.75138580226E+02  0.16599278417E+03  0.24930521029E+03  0.16991043112E+03 0.  0.
        -13    1    4    4    0    0 -0.22508747747E+02 -0.59983869449E+02  0.19352647468E+03  0.20385587038E+03  0.10566000000E+00 0. -1.
     200003    1    4    4    0    0  0.13336908428E+02 -0.15154710777E+02 -0.27533690511E+02  0.45449339910E+02  0.30000000000E+02 0. -1.
     200000    1    3    3    0    0 -0.33803632354E+02  0.76040096234E+02  0.26647901140E+03  0.57265683032E+03  0.50000000000E+03 0. -1.
    -200001    1    1    2    0    0  0.42975471674E+02 -0.90151600796E+00  0.75823209394E+03  0.10328424915E+04  0.70000000000E+03 0.  1.
<mgrwt>
<rscale>  0 0.14221547E+04</rscale>
<asrwt>0</asrwt>
<pdfrwt beam="1">  1        2 0.21753632E+00 0.14221547E+04</pdfrwt>
<pdfrwt beam="2">  1       -2 0.47435759E-01 0.14221547E+04</pdfrwt>
<totfact> 0.58231383E+01</totfact>
</mgrwt>
</event>
<event>
 8    1  0.2682466E-027  0.2329613E+04  0.7818608E-02  0.8466336E-01
         -2   -1    0    0    0  501 -0.00000000000E+00  0.00000000000E+00  0.49620203984E+03  0.49620203985E+03  0.25500000000E-02 0. -1.
          2   -1    0    0  501    0  0.00000000000E+00 -0.00000000000E+00 -0.27343187333E+04  0.27343187333E+04  0.25500000000E-02 0.  1.
     200001    2    1    2    0    0  0.38627515751E+03  0.79702962402E+03 -0.71995765812E+03  0.13386244823E+04  0.69936525233E+03 0.  0.
    5000001    2    3    3    0    0  0.17695866056E+03  0.20512681504E+03 -0.21659950546E+03  0.39124295351E+03  0.18100918516E+03 0.  0.
        -13    1    4    4    0    0  0.11917849311E+03  0.13625181848E+03 -0.32126692165E+02  0.18384832546E+03  0.10566000000E+00 0. -1.
     200003    1    4    4    0    0  0.57780167453E+02  0.68874996556E+02 -0.18447281330E+03  0.20739462806E+03  0.30000000000E+02 0. -1.
     200000    1    3    3    0    0  0.20931649695E+03  0.59190280898E+03 -0.50335815266E+03  0.94738152875E+03  0.50000000000E+03 0. -1.
    -200001    1    1    2    0    0 -0.38627515751E+03 -0.79702962402E+03 -0.15181590353E+04  0.18918962909E+04  0.70000000000E+03 0. -1.
<mgrwt>
<rscale>  0 0.23296133E+04</rscale>
<asrwt>0</asrwt>
<pdfrwt beam="1">  1        2 0.39061696E+00 0.23296133E+04</pdfrwt>
<pdfrwt beam="2">  1       -2 0.70886007E-01 0.23296133E+04</pdfrwt>
<totfact> 0.54289106E+00</totfact>
</mgrwt>
</event>
<event>
 8    1  0.2682466E-027  0.1795251E+04  0.7818608E-02  0.8708829E-01
          2   -1    0    0  501    0  0.00000000000E+00  0.00000000000E+00  0.25424624201E+04  0.25424624201E+04  0.25500000000E-02 0.  1.
         -2   -1    0    0    0  501 -0.00000000000E+00 -0.00000000000E+00 -0.31691006024E+03  0.31691006025E+03  0.25500000000E-02 0. -1.
     200001    2    1    2    0    0 -0.13696047009E+03  0.35317728688E+03  0.17721945441E+04  0.19433890332E+04  0.70185117081E+03 0.  0.
    5000001    2    3    3    0    0 -0.78401110159E+02  0.91495781342E+02  0.62962660338E+03  0.66770572294E+03  0.18677007437E+03 0.  0.
        -13    1    4    4    0    0 -0.12642398293E+03  0.96722350185E+02  0.38605300858E+03  0.41758253446E+03  0.10566000000E+00 0. -1.
     200003    1    4    4    0    0  0.48022872770E+02 -0.52265688428E+01  0.24357359480E+03  0.25012318848E+03  0.30000000000E+02 0. -1.
     200000    1    3    3    0    0 -0.58559359931E+02  0.26168150554E+03  0.11425679407E+04  0.12756833102E+04  0.50000000000E+03 0. -1.
    -200001    1    1    2    0    0  0.13696047009E+03 -0.35317728688E+03  0.45335781581E+03  0.91598344717E+03  0.70000000000E+03 0. -1.
<mgrwt>
<rscale>  0 0.17952514E+04</rscale>
<asrwt>0</asrwt>
<pdfrwt beam="1">  1        2 0.36320892E+00 0.17952514E+04</pdfrwt>
<pdfrwt beam="2">  1       -2 0.45272865E-01 0.17952514E+04</pdfrwt>
<totfact> 0.18350959E+01</totfact>
</mgrwt>
</event>
<event>
 8    1  0.2682466E-027  0.1820022E+04  0.7818608E-02  0.8695724E-01
         -2   -1    0    0    0  501 -0.00000000000E+00  0.00000000000E+00  0.41151303820E+03  0.41151303820E+03  0.25500000000E-02 0. -1.
          2   -1    0    0  501    0  0.00000000000E+00 -0.00000000000E+00 -0.20123784793E+04  0.20123784793E+04  0.25500000000E-02 0.  1.
     200001    2    1    2    0    0 -0.51442992313E+03 -0.26931525689E+03 -0.84143225258E+03  0.12390254402E+04  0.70000496589E+03 0.  0.
    5000001    2    3    3    0    0 -0.15007962343E+03 -0.17337670707E+02 -0.32701219436E+03  0.39589327903E+03  0.16422553068E+03 0.  0.
        -13    1    4    4    0    0 -0.17334130615E+03  0.40839967994E+01 -0.29358207422E+03  0.34096089647E+03  0.10566000000E+00 0. -1.
     200003    1    4    4    0    0  0.23261682726E+02 -0.21421667506E+02 -0.33430120136E+02  0.54932382565E+02  0.30000000000E+02 0. -1.
     200000    1    3    3    0    0 -0.36435029971E+03 -0.25197758618E+03 -0.51442005822E+03  0.84313216113E+03  0.50000000000E+03 0.  1.
    -200001    1    1    2    0    0  0.51442992313E+03  0.26931525689E+03 -0.75943318852E+03  0.11848660773E+04  0.70000000000E+03 0.  1.
<mgrwt>
<rscale>  0 0.18200220E+04</rscale>
<asrwt>0</asrwt>
<pdfrwt beam="1">  1        2 0.28748264E+00 0.18200220E+04</pdfrwt>
<pdfrwt beam="2">  1       -2 0.58787578E-01 0.18200220E+04</pdfrwt>
<totfact> 0.20207840E+01</totfact>
</mgrwt>
</event>
<event>
 8    1  0.2682466E-027  0.1460983E+04  0.7818608E-02  0.8910822E-01
          2   -1    0    0  501    0  0.00000000000E+00  0.00000000000E+00  0.12993769249E+04  0.12993769249E+04  0.25500000000E-02 0.  1.
         -2   -1    0    0    0  501 -0.00000000000E+00 -0.00000000000E+00 -0.41067188287E+03  0.41067188288E+03  0.25500000000E-02 0. -1.
     200001    2    1    2    0    0 -0.12326734078E+03 -0.14413420630E+03  0.37187473003E+03  0.81949668798E+03  0.70520528929E+03 0.  0.
    5000001    2    3    3    0    0 -0.55888999865E+02 -0.12992377214E+03  0.63873292691E+02  0.22822123384E+03  0.16733609049E+03 0.  0.
        -13    1    4    4    0    0  0.39997483591E+02  0.13217637451E+02  0.25058256508E+00  0.42125747341E+02  0.10566000000E+00 0. -1.
     200003    1    4    4    0    0 -0.95886483456E+02 -0.14314140959E+03  0.63622710126E+02  0.18609548650E+03  0.30000000000E+02 0. -1.
     200000    1    3    3    0    0 -0.67378340913E+02 -0.14210434155E+02  0.30800143734E+03  0.59127545414E+03  0.50000000000E+03 0. -1.
    -200001    1    1    2    0    0  0.12326734078E+03  0.14413420630E+03  0.51683031203E+03  0.89055211985E+03  0.70000000000E+03 0. -1.
<mgrwt>
<rscale>  0 0.14609826E+04</rscale>
<asrwt>0</asrwt>
<pdfrwt beam="1">  1        2 0.18562528E+00 0.14609826E+04</pdfrwt>
<pdfrwt beam="2">  1       -2 0.58667411E-01 0.14609826E+04</pdfrwt>
<totfact> 0.49510301E+01</totfact>
</mgrwt>
</event>
<event>
 8    1  0.2682466E-027  0.1602550E+04  0.7818608E-02  0.8818983E-01
          2   -1    0    0  501    0  0.00000000000E+00  0.00000000000E+00  0.15966800671E+04  0.15966800671E+04  0.25500000000E-02 0.  1.
         -2   -1    0    0    0  501 -0.00000000000E+00 -0.00000000000E+00 -0.40211026654E+03  0.40211026655E+03  0.25500000000E-02 0. -1.
     200001    2    1    2    0    0 -0.19684317123E+03 -0.94471488039E+02  0.19414570116E+03  0.75841922999E+03  0.69988218939E+03 0.  0.
    5000001    2    3    3    0    0 -0.98507771469E+02  0.10376921634E+02  0.92094376990E+02  0.22825179170E+03  0.18386420151E+03 0.  0.
        -13    1    4    4    0    0 -0.79118580705E+02  0.33605649688E+02  0.13990950552E+03  0.16420648709E+03  0.10566000000E+00 0. -1.
     200003    1    4    4    0    0 -0.19389190764E+02 -0.23228728053E+02 -0.47815128533E+02  0.64045304606E+02  0.30000000000E+02 0. -1.
     200000    1    3    3    0    0 -0.98335399763E+02 -0.10484840967E+03  0.10205132417E+03  0.53016743829E+03  0.50000000000E+03 0. -1.
    -200001    1    1    2    0    0  0.19684317123E+03  0.94471488039E+02  0.10004240994E+04  0.12403711036E+04  0.70000000000E+03 0.  1.
<mgrwt>
<rscale>  0 0.16025498E+04</rscale>
<asrwt>0</asrwt>
<pdfrwt beam="1">  1        2 0.22809715E+00 0.16025498E+04</pdfrwt>
<pdfrwt beam="2">  1       -2 0.57444323E-01 0.16025498E+04</pdfrwt>
<totfact> 0.35428441E+01</totfact>
</mgrwt>
</event>
<event>
 8    1  0.2682466E-027  0.2626643E+04  0.7818608E-02  0.8359207E-01
         -2   -1    0    0    0  501 -0.00000000000E+00  0.00000000000E+00  0.79853979348E+03  0.79853979349E+03  0.25500000000E-02 0. -1.
          2   -1    0    0  501    0  0.00000000000E+00 -0.00000000000E+00 -0.21599598744E+04  0.21599598744E+04  0.25500000000E-02 0.  1.
     200001    2    1    2    0    0 -0.27018387647E+03 -0.29189542529E+03  0.48844116644E+03  0.94102875090E+03  0.69911234472E+03 0.  0.
    5000001    2    3    3    0    0  0.45992578510E+02 -0.50395082887E+02  0.84593868625E+02  0.18513020875E+03  0.14987357981E+03 0.  0.
        -13    1    4    4    0    0 -0.10058175793E+02 -0.77848764939E+02  0.85241993083E+02  0.11587840891E+03  0.10566000000E+00 0. -1.
     200003    1    4    4    0    0  0.56050754303E+02  0.27453682051E+02 -0.64812445768E+00  0.69251799842E+02  0.30000000000E+02 0. -1.
     200000    1    3    3    0    0 -0.31617645498E+03 -0.24150034240E+03  0.40384729782E+03  0.75589854215E+03  0.50000000000E+03 0. -1.
    -200001    1    1    2    0    0  0.27018387647E+03  0.29189542529E+03 -0.18498612474E+04  0.20174709170E+04  0.70000000000E+03 0.  1.
<mgrwt>
<rscale>  0 0.26266434E+04</rscale>
<asrwt>0</asrwt>
<pdfrwt beam="1">  1        2 0.30856569E+00 0.26266434E+04</pdfrwt>
<pdfrwt beam="2">  1       -2 0.11407711E+00 0.26266434E+04</pdfrwt>
<totfact> 0.35436855E+00</totfact>
</mgrwt>
</event>
<event>
 8    1  0.2682466E-027  0.2355672E+04  0.7818608E-02  0.8456288E-01
          2   -1    0    0  501    0  0.00000000000E+00  0.00000000000E+00  0.31320548896E+04  0.31320548896E+04  0.25500000000E-02 0.  1.
         -2   -1    0    0    0  501 -0.00000000000E+00 -0.00000000000E+00 -0.44293518810E+03  0.44293518811E+03  0.25500000000E-02 0. -1.
     200001    2    1    2    0    0  0.60827640123E+03  0.61285362817E+03  0.19352459792E+04  0.22318909231E+04  0.70040726936E+03 0.  0.
    5000001    2    3    3    0    0  0.14944473754E+03  0.86313411179E+02  0.30115809712E+03  0.38581012804E+03  0.16843254113E+03 0.  0.
        -13    1    4    4    0    0  0.12964713099E+03 -0.95528525255E+01  0.21840166413E+03  0.25416320274E+03  0.10566000000E+00 0. -1.
     200003    1    4    4    0    0  0.19797606556E+02  0.95866263704E+02  0.82756432988E+02  0.13164692531E+03  0.30000000000E+02 0. -1.
     200000    1    3    3    0    0  0.45883166369E+03  0.52654021699E+03  0.16340878820E+04  0.18460807951E+04  0.50000000000E+03 0.  1.
    -200001    1    1    2    0    0 -0.60827640123E+03 -0.61285362817E+03  0.75387372236E+03  0.13430991546E+04  0.70000000000E+03 0. -1.
<mgrwt>
<rscale>  0 0.23556717E+04</rscale>
<asrwt>0</asrwt>
<pdfrwt beam="1">  1        2 0.44743642E+00 0.23556717E+04</pdfrwt>
<pdfrwt beam="2">  1       -2 0.63276455E-01 0.23556717E+04</pdfrwt>
<totfact> 0.41642487E+00</totfact>
</mgrwt>
</event>
<event>
 8    1  0.2682466E-027  0.1687728E+04  0.7818608E-02  0.8768395E-01
          2   -1    0    0  501    0  0.00000000000E+00  0.00000000000E+00  0.24361388104E+04  0.24361388104E+04  0.25500000000E-02 0.  1.
         -2   -1    0    0    0  501 -0.00000000000E+00 -0.00000000000E+00 -0.29230941593E+03  0.29230941594E+03  0.25500000000E-02 0. -1.
     200001    2    1    2    0    0 -0.15381140977E+03  0.23741197980E+03  0.46100579948E+03  0.88401941238E+03  0.69924357444E+03 0.  0.
    5000001    2    3    3    0    0 -0.47613580268E+02  0.14488970582E+03  0.26904221839E+03  0.33022489577E+03  0.11577861042E+03 0.  0.
        -13    1    4    4    0    0 -0.48499541987E+02  0.98501903580E+02  0.87304770335E+02  0.14027460451E+03  0.10566000000E+00 0. -1.
     200003    1    4    4    0    0  0.88596171900E+00  0.46387802237E+02  0.18173744805E+03  0.18995029126E+03  0.30000000000E+02 0.  1.
     200000    1    3    3    0    0 -0.10619782950E+03  0.92522273978E+02  0.19196358109E+03  0.55379451662E+03  0.50000000000E+03 0. -1.
    -200001    1    1    2    0    0  0.15381140977E+03 -0.23741197980E+03  0.16828235950E+04  0.18444288140E+04  0.70000000000E+03 0.  1.
<mgrwt>
<rscale>  0 0.16877278E+04</rscale>
<asrwt>0</asrwt>
<pdfrwt beam="1">  1        2 0.34801983E+00 0.16877278E+04</pdfrwt>
<pdfrwt beam="2">  1       -2 0.41758488E-01 0.16877278E+04</pdfrwt>
<totfact> 0.24724700E+01</totfact>
</mgrwt>
</event>
<event>
 8    1  0.2682466E-027  0.1671254E+04  0.7818608E-02  0.8777931E-01
          2   -1    0    0  501    0  0.00000000000E+00  0.00000000000E+00  0.47204594388E+03  0.47204594389E+03  0.25500000000E-02 0.  1.
         -2   -1    0    0    0  501 -0.00000000000E+00 -0.00000000000E+00 -0.14792460720E+04  0.14792460720E+04  0.25500000000E-02 0. -1.
     200001    2    1    2    0    0  0.15537678722E+03  0.33663641804E+03 -0.19200133596E+03  0.81462359693E+03  0.69948628843E+03 0.  0.
    5000001    2    3    3    0    0  0.20710894442E+02  0.97986306032E+02 -0.99221229525E+02  0.23695853239E+03  0.19045796482E+03 0.  0.
        -13    1    4    4    0    0  0.25895194003E+02  0.15086426891E+03 -0.81530862651E+02  0.17342975937E+03  0.10566000000E+00 0. -1.
     200003    1    4    4    0    0 -0.51842995604E+01 -0.52877962883E+02 -0.17690366874E+02  0.63528773015E+02  0.30000000000E+02 0. -1.
     200000    1    3    3    0    0  0.13466589277E+03  0.23865011200E+03 -0.92780106439E+02  0.57766506454E+03  0.50000000000E+03 0.  1.
    -200001    1    1    2    0    0 -0.15537678722E+03 -0.33663641804E+03 -0.81519879217E+03  0.11366684190E+04  0.70000000000E+03 0.  1.
<mgrwt>
<rscale>  0 0.16712536E+04</rscale>
<asrwt>0</asrwt>
<pdfrwt beam="1">  1        2 0.67435135E-01 0.16712536E+04</pdfrwt>
<pdfrwt beam="2">  1       -2 0.21132087E+00 0.16712536E+04</pdfrwt>
<totfact> 0.76925563E+00</totfact>
</mgrwt>
</event>
<event>
 8    1  0.2682466E-027  0.1527175E+04  0.7818608E-02  0.8866580E-01
          2   -1    0    0  501    0  0.00000000000E+00  0.00000000000E+00  0.31108214214E+04  0.31108214215E+04  0.25500000000E-02 0.  1.
         -2   -1    0    0    0  501 -0.00000000000E+00 -0.00000000000E+00 -0.18743154480E+03  0.18743154482E+03  0.25500000000E-02 0. -1.
     200001    2    1    2    0    0  0.23979326465E+03 -0.13846250243E+03  0.17318236343E+04  0.18888194687E+04  0.70125117499E+03 0.  0.
    5000001    2    3    3    0    0  0.47088902671E+02 -0.82450712660E+02  0.48045796953E+03  0.52639944578E+03  0.19297935448E+03 0.  0.
        -13    1    4    4    0    0  0.12303803220E+02 -0.13447176073E+03  0.38777634279E+03  0.41061483315E+03  0.10566000000E+00 0. -1.
     200003    1    4    4    0    0  0.34785099452E+02  0.52021048073E+02  0.92681626741E+02  0.11578461263E+03  0.30000000000E+02 0. -1.
     200000    1    3    3    0    0  0.19270436198E+03 -0.56011789766E+02  0.12513656648E+04  0.13624200229E+04  0.50000000000E+03 0.  1.
    -200001    1    1    2    0    0 -0.23979326465E+03  0.13846250243E+03  0.11915662423E+04  0.14094334976E+04  0.70000000000E+03 0.  1.
<mgrwt>
<rscale>  0 0.15271753E+04</rscale>
<asrwt>0</asrwt>
<pdfrwt beam="1">  1        2 0.44440307E+00 0.15271753E+04</pdfrwt>
<pdfrwt beam="2">  1       -2 0.26775934E-01 0.15271753E+04</pdfrwt>
<totfact> 0.25093393E+01</totfact>
</mgrwt>
</event>
<event>
 8    1  0.2682466E-027  0.1704013E+04  0.7818608E-02  0.8759079E-01
          2   -1    0    0  501    0  0.00000000000E+00  0.00000000000E+00  0.10449555378E+04  0.10449555378E+04  0.25500000000E-02 0.  1.
         -2   -1    0    0    0  501 -0.00000000000E+00 -0.00000000000E+00 -0.69468522996E+03  0.69468522996E+03  0.25500000000E-02 0. -1.
     200001    2    1    2    0    0 -0.40222293644E+03  0.20077098983E+03 -0.13702656078E+02  0.83158317078E+03  0.69946445670E+03 0.  0.
    5000001    2    3    3    0    0 -0.17545650741E+03  0.13539823647E+03 -0.85310099403E+02  0.27406703993E+03  0.13681104081E+03 0.  0.
        -13    1    4    4    0    0 -0.33835588284E+02  0.10587495071E+03 -0.51514805576E+02  0.12250770825E+03  0.10566000000E+00 0. -1.
     200003    1    4    4    0    0 -0.14162091913E+03  0.29523285758E+02 -0.33795293827E+02  0.15155933169E+03  0.30000000000E+02 0. -1.
     200000    1    3    3    0    0 -0.22676642903E+03  0.65372753364E+02  0.71607443324E+02  0.55751613085E+03  0.50000000000E+03 0. -1.
    -200001    1    1    2    0    0  0.40222293644E+03 -0.20077098983E+03  0.36397296391E+03  0.90805759697E+03  0.70000000000E+03 0.  1.
<mgrwt>
<rscale>  0 0.17040131E+04</rscale>
<asrwt>0</asrwt>
<pdfrwt beam="1">  1        2 0.14927936E+00 0.17040131E+04</pdfrwt>
<pdfrwt beam="2">  1       -2 0.99240748E-01 0.17040131E+04</pdfrwt>
<totfact> 0.21150243E+01</totfact>
</mgrwt>
</event>
<event>
 8    1  0.2682466E-027  0.1765547E+04  0.7818608E-02  0.8724839E-01
         -2   -1    0    0    0  501 -0.00000000000E+00  0.00000000000E+00  0.12244803680E+04  0.12244803680E+04  0.25500000000E-02 0. -1.
          2   -1    0    0  501    0  0.00000000000E+00 -0.00000000000E+00 -0.63642457899E+03  0.63642457899E+03  0.25500000000E-02 0.  1.
     200001    2    1    2    0    0 -0.40078110849E+03  0.17537723069E+03  0.62384629213E+03  0.10346703374E+04  0.69998274334E+03 0.  0.
    5000001    2    3    3    0    0 -0.10590245225E+03  0.10182834280E+03  0.15351933979E+03  0.28395714125E+03  0.18835904434E+03 0.  0.
        -13    1    4    4    0    0 -0.82271101087E+02  0.12392046655E+03  0.17921474608E+03  0.23290073525E+03  0.10566000000E+00 0. -1.
     200003    1    4    4    0    0 -0.23631351165E+02 -0.22092123744E+02 -0.25695406287E+02  0.51056406000E+02  0.30000000000E+02 0. -1.
     200000    1    3    3    0    0 -0.29487865624E+03  0.73548887887E+02  0.47032695234E+03  0.75071319618E+03  0.50000000000E+03 0. -1.
    -200001    1    1    2    0    0  0.40078110849E+03 -0.17537723069E+03 -0.35790503104E+02  0.82623460959E+03  0.70000000000E+03 0.  1.
<mgrwt>
<rscale>  0 0.17655474E+04</rscale>
<asrwt>0</asrwt>
<pdfrwt beam="1">  1        2 0.90917797E-01 0.17655474E+04</pdfrwt>
<pdfrwt beam="2">  1       -2 0.17492577E+00 0.17655474E+04</pdfrwt>
<totfact> 0.94358174E+00</totfact>
</mgrwt>
</event>
<event>
 8    1  0.2682466E-027  0.2215350E+04  0.7818608E-02  0.8512066E-01
          2   -1    0    0  501    0  0.00000000000E+00  0.00000000000E+00  0.18132362982E+04  0.18132362982E+04  0.25500000000E-02 0.  1.
         -2   -1    0    0    0  501 -0.00000000000E+00 -0.00000000000E+00 -0.67665973549E+03  0.67665973550E+03  0.25500000000E-02 0. -1.
     200001    2    1    2    0    0 -0.91270061744E+01 -0.85593034206E+03  0.49686368721E+03  0.12124248537E+04  0.70028597686E+03 0.  0.
    5000001    2    3    3    0    0 -0.62908826094E+02 -0.33863017407E+03  0.13096285341E+03  0.40349014175E+03  0.16439315776E+03 0.  0.
        -13    1    4    4    0    0 -0.39107516848E+02 -0.18290492042E+03 -0.13669451107E+02  0.18753792375E+03  0.10566000000E+00 0. -1.
     200003    1    4    4    0    0 -0.23801309246E+02 -0.15572525366E+03  0.14463230452E+03  0.21595221800E+03  0.30000000000E+02 0. -1.
     200000    1    3    3    0    0  0.53781819920E+02 -0.51730016799E+03  0.36590083381E+03  0.80893471191E+03  0.50000000000E+03 0. -1.
    -200001    1    1    2    0    0  0.91270061744E+01  0.85593034206E+03  0.63971287545E+03  0.12774711800E+04  0.70000000000E+03 0.  1.
<mgrwt>
<rscale>  0 0.22153501E+04</rscale>
<asrwt>0</asrwt>
<pdfrwt beam="1">  1        2 0.25903375E+00 0.22153501E+04</pdfrwt>
<pdfrwt beam="2">  1       -2 0.96665680E-01 0.22153501E+04</pdfrwt>
<totfact> 0.82233758E+00</totfact>
</mgrwt>
</event>
<event>
 8    1  0.2682466E-027  0.2053866E+04  0.7818608E-02  0.8581842E-01
          2   -1    0    0  501    0  0.00000000000E+00  0.00000000000E+00  0.36003687320E+04  0.36003687320E+04  0.25500000000E-02 0.  1.
         -2   -1    0    0    0  501 -0.00000000000E+00 -0.00000000000E+00 -0.29291210381E+03  0.29291210382E+03  0.25500000000E-02 0. -1.
     200001    2    1    2    0    0 -0.46354975021E+02  0.62779511690E+03  0.24303439748E+04  0.26065788116E+04  0.70100340406E+03 0.  0.
    5000001    2    3    3    0    0 -0.18303177927E+02  0.11936639956E+03  0.58674801425E+03  0.62967903421E+03  0.19400801589E+03 0.  0.
        -13    1    4    4    0    0  0.72629444223E+02  0.16145435713E+02  0.31447581477E+03  0.32315748561E+03  0.10566000000E+00 0. -1.
     200003    1    4    4    0    0 -0.90932622150E+02  0.10322096385E+03  0.27227219948E+03  0.30652154860E+03  0.30000000000E+02 0. -1.
     200000    1    3    3    0    0 -0.28051797094E+02  0.50842871734E+03  0.18435959606E+04  0.19768997774E+04  0.50000000000E+03 0. -1.
    -200001    1    1    2    0    0  0.46354975021E+02 -0.62779511690E+03  0.87711265341E+03  0.12867020243E+04  0.70000000000E+03 0. -1.
<mgrwt>
<rscale>  0 0.20538662E+04</rscale>
<asrwt>0</asrwt>
<pdfrwt beam="1">  1        2 0.51433837E+00 0.20538662E+04</pdfrwt>
<pdfrwt beam="2">  1       -2 0.41844588E-01 0.20538662E+04</pdfrwt>
<totfact> 0.52521569E+00</totfact>
</mgrwt>
</event>
<event>
 8    1  0.2682466E-027  0.1989735E+04  0.7818608E-02  0.8611435E-01
          2   -1    0    0  501    0  0.00000000000E+00  0.00000000000E+00  0.13906260142E+04  0.13906260142E+04  0.25500000000E-02 0.  1.
         -2   -1    0    0    0  501 -0.00000000000E+00 -0.00000000000E+00 -0.71173762668E+03  0.71173762669E+03  0.25500000000E-02 0. -1.
     200001    2    1    2    0    0 -0.55700164791E+03  0.32048347952E+03  0.65026266272E+03  0.11516902330E+04  0.70042013517E+03 0.  0.
    5000001    2    3    3    0    0 -0.61903950908E+02  0.70703534730E+02  0.58330836532E+02  0.19885497057E+03  0.16525653957E+03 0.  0.
        -13    1    4    4    0    0  0.50663395444E+02  0.27697980057E+02  0.46453629414E+02  0.74107412496E+02  0.10566000000E+00 0. -1.
     200003    1    4    4    0    0 -0.11256734635E+03  0.43005554672E+02  0.11877207119E+02  0.12474755808E+03  0.30000000000E+02 0. -1.
     200000    1    3    3    0    0 -0.49509769700E+03  0.24977994479E+03  0.59193182619E+03  0.95283526239E+03  0.50000000000E+03 0.  1.
    -200001    1    1    2    0    0  0.55700164791E+03 -0.32048347952E+03  0.28625724791E+02  0.95067340792E+03  0.70000000000E+03 0.  1.
<mgrwt>
<rscale>  0 0.19897345E+04</rscale>
<asrwt>0</asrwt>
<pdfrwt beam="1">  1        2 0.19866086E+00 0.19897345E+04</pdfrwt>
<pdfrwt beam="2">  1       -2 0.10167680E+00 0.19897345E+04</pdfrwt>
<totfact> 0.12409326E+01</totfact>
</mgrwt>
</event>
<event>
 8    1  0.2682466E-027  0.1645542E+04  0.7818608E-02  0.8793048E-01
         -2   -1    0    0    0  501 -0.00000000000E+00  0.00000000000E+00  0.44215154617E+03  0.44215154618E+03  0.25500000000E-02 0. -1.
          2   -1    0    0  501    0  0.00000000000E+00 -0.00000000000E+00 -0.15310418330E+04  0.15310418331E+04  0.25500000000E-02 0.  1.
     200001    2    1    2    0    0 -0.59464467926E+02  0.40271756561E+03 -0.36912608664E+03  0.88978303936E+03  0.69981592487E+03 0.  0.
    5000001    2    3    3    0    0 -0.29009337468E+02 -0.19639894960E+02 -0.56000391087E+02  0.16358675689E+03  0.14965732890E+03 0.  0.
        -13    1    4    4    0    0  0.26072417731E+02 -0.12121867241E+02  0.39638456368E+02  0.48968653433E+02  0.10566000000E+00 0. -1.
     200003    1    4    4    0    0 -0.55081755198E+02 -0.75180277193E+01 -0.95638847455E+02  0.11461810345E+03  0.30000000000E+02 0. -1.
     200000    1    3    3    0    0 -0.30455130459E+02  0.42235746057E+03 -0.31312569555E+03  0.72619628248E+03  0.50000000000E+03 0. -1.
    -200001    1    1    2    0    0  0.59464467926E+02 -0.40271756561E+03 -0.71976420024E+03  0.10834103399E+04  0.70000000000E+03 0.  1.
<mgrwt>
<rscale>  0 0.16455425E+04</rscale>
<asrwt>0</asrwt>
<pdfrwt beam="1">  1        2 0.21872026E+00 0.16455425E+04</pdfrwt>
<pdfrwt beam="2">  1       -2 0.63164507E-01 0.16455425E+04</pdfrwt>
<totfact> 0.31288856E+01</totfact>
</mgrwt>
</event>
<event>
 8    1  0.2682466E-027  0.2136986E+04  0.7818608E-02  0.8545123E-01
         -2   -1    0    0    0  501 -0.00000000000E+00  0.00000000000E+00  0.10007485429E+04  0.10007485429E+04  0.25500000000E-02 0. -1.
          2   -1    0    0  501    0  0.00000000000E+00 -0.00000000000E+00 -0.11408237871E+04  0.11408237871E+04  0.25500000000E-02 0.  1.
     200001    2    1    2    0    0 -0.43915153883E+02 -0.43684188417E+03  0.60952131784E+03  0.10259315373E+04  0.69875597296E+03 0.  0.
    5000001    2    3    3    0    0 -0.16730008273E+02 -0.20401686882E+03  0.19354053006E+03  0.33456583395E+03  0.18048153515E+03 0.  0.
        -13    1    4    4    0    0 -0.11761173832E+02 -0.56052761339E+02  0.17285891083E+03  0.18210011389E+03  0.10566000000E+00 0. -1.
     200003    1    4    4    0    0 -0.49688344415E+01 -0.14796410748E+03  0.20681619239E+02  0.15246572006E+03  0.30000000000E+02 0. -1.
     200000    1    3    3    0    0 -0.27185145609E+02 -0.23282501534E+03  0.41598078777E+03  0.69136570331E+03  0.50000000000E+03 0. -1.
    -200001    1    1    2    0    0  0.43915153883E+02  0.43684188417E+03 -0.74959656210E+03  0.11156407927E+04  0.70000000000E+03 0.  1.
<mgrwt>
<rscale>  0 0.21369864E+04</rscale>
<asrwt>0</asrwt>
<pdfrwt beam="1">  1        2 0.16297483E+00 0.21369864E+04</pdfrwt>
<pdfrwt beam="2">  1       -2 0.14296408E+00 0.21369864E+04</pdfrwt>
<totfact> 0.72557545E+00</totfact>
</mgrwt>
</event>
<event>
 8    1  0.2682466E-027  0.1631806E+04  0.7818608E-02  0.8801243E-01
          2   -1    0    0  501    0  0.00000000000E+00  0.00000000000E+00  0.19049577772E+04  0.19049577772E+04  0.25500000000E-02 0.  1.
         -2   -1    0    0    0  501 -0.00000000000E+00 -0.00000000000E+00 -0.34945519438E+03  0.34945519439E+03  0.25500000000E-02 0. -1.
     200001    2    1    2    0    0 -0.11183316078E+03  0.14627920668E+03  0.12980162402E+04  0.14861659549E+04  0.69995630098E+03 0.  0.
    5000001    2    3    3    0    0 -0.60575178831E+02  0.13819223697E+02  0.34574414307E+03  0.40127187023E+03  0.19395818657E+03 0.  0.
        -13    1    4    4    0    0  0.55981533639E+02 -0.40498247042E+02  0.15006904003E+03  0.16521128309E+03  0.10566000000E+00 0. -1.
     200003    1    4    4    0    0 -0.11655671247E+03  0.54317470739E+02  0.19567510304E+03  0.23606058714E+03  0.30000000000E+02 0. -1.
     200000    1    3    3    0    0 -0.51257981953E+02  0.13245998299E+03  0.95227209717E+03  0.10848940846E+04  0.50000000000E+03 0.  1.
    -200001    1    1    2    0    0  0.11183316078E+03 -0.14627920668E+03  0.25748634263E+03  0.76824701678E+03  0.70000000000E+03 0. -1.
<mgrwt>
<rscale>  0 0.16318056E+04</rscale>
<asrwt>0</asrwt>
<pdfrwt beam="1">  1        2 0.27213683E+00 0.16318056E+04</pdfrwt>
<pdfrwt beam="2">  1       -2 0.49922170E-01 0.16318056E+04</pdfrwt>
<totfact> 0.32681897E+01</totfact>
</mgrwt>
</event>
<event>
 8    1  0.2682466E-027  0.1541544E+04  0.7818608E-02  0.8857287E-01
          2   -1    0    0  501    0  0.00000000000E+00  0.00000000000E+00  0.58583107227E+03  0.58583107228E+03  0.25500000000E-02 0.  1.
         -2   -1    0    0    0  501 -0.00000000000E+00 -0.00000000000E+00 -0.10140972998E+04  0.10140972998E+04  0.25500000000E-02 0. -1.
     200001    2    1    2    0    0 -0.14135206379E+03 -0.28183715475E+03 -0.14737313353E+03  0.78242392681E+03  0.70075371781E+03 0.  0.
    5000001    2    3    3    0    0 -0.11616055162E+03 -0.12175826939E+03 -0.80883990815E+02  0.25263088427E+03  0.17018164943E+03 0.  0.
        -13    1    4    4    0    0 -0.10714256357E+03 -0.14304203701E+03 -0.18531047130E+02  0.17967738909E+03  0.10566000000E+00 0. -1.
     200003    1    4    4    0    0 -0.90179880511E+01  0.21283767622E+02 -0.62352943685E+02  0.72953495179E+02  0.30000000000E+02 0. -1.
     200000    1    3    3    0    0 -0.25191512167E+02 -0.16007888536E+03 -0.66489142717E+02  0.52979304254E+03  0.50000000000E+03 0.  1.
    -200001    1    1    2    0    0  0.14135206379E+03  0.28183715475E+03 -0.28089309395E+03  0.81750444523E+03  0.70000000000E+03 0. -1.
<mgrwt>
<rscale>  0 0.15415443E+04</rscale>
<asrwt>0</asrwt>
<pdfrwt beam="1">  1        2 0.83690154E-01 0.15415443E+04</pdfrwt>
<pdfrwt beam="2">  1       -2 0.14487104E+00 0.15415443E+04</pdfrwt>
<totfact> 0.17687127E+01</totfact>
</mgrwt>
</event>
<event>
 8    1  0.2682466E-027  0.2434443E+04  0.7818608E-02  0.8426720E-01
          2   -1    0    0  501    0  0.00000000000E+00  0.00000000000E+00  0.27915272211E+04  0.27915272211E+04  0.25500000000E-02 0.  1.
         -2   -1    0    0    0  501 -0.00000000000E+00 -0.00000000000E+00 -0.53075912116E+03  0.53075912117E+03  0.25500000000E-02 0. -1.
     200001    2    1    2    0    0  0.23862183061E+03 -0.37859311673E+02  0.24470885558E+04  0.25586836852E+04  0.70728077568E+03 0.  0.
    5000001    2    3    3    0    0  0.35103314830E+02 -0.89874348835E+02  0.56765195755E+03  0.60256321932E+03  0.17760643871E+03 0.  0.
        -13    1    4    4    0    0 -0.23007263093E+02 -0.82653201589E+02  0.10658623524E+03  0.13682661508E+03  0.10566000000E+00 0. -1.
     200003    1    4    4    0    0  0.58110577923E+02 -0.72211472466E+01  0.46106572231E+03  0.46573660424E+03  0.30000000000E+02 0. -1.
     200000    1    3    3    0    0  0.20351851578E+03  0.52015037162E+02  0.18794365982E+04  0.19561204659E+04  0.50000000000E+03 0.  1.
    -200001    1    1    2    0    0 -0.23862183061E+03  0.37859311673E+02 -0.18632045588E+03  0.76360265702E+03  0.70000000000E+03 0. -1.
<mgrwt>
<rscale>  0 0.24344433E+04</rscale>
<asrwt>0</asrwt>
<pdfrwt beam="1">  1        2 0.39878960E+00 0.24344433E+04</pdfrwt>
<pdfrwt beam="2">  1       -2 0.75822733E-01 0.24344433E+04</pdfrwt>
<totfact> 0.43197414E+00</totfact>
</mgrwt>
</event>
<event>
 8    1  0.2682466E-027  0.1513688E+04  0.7818608E-02  0.8875401E-01
          2   -1    0    0  501    0  0.00000000000E+00  0.00000000000E+00  0.45403867636E+04  0.45403867636E+04  0.25500000000E-02 0.  1.
         -2   -1    0    0    0  501 -0.00000000000E+00 -0.00000000000E+00 -0.12615947826E+03  0.12615947828E+03  0.25500000000E-02 0. -1.
     200001    2    1    2    0    0  0.27894874485E+03  0.32497751309E+02  0.20209485275E+04  0.21572332445E+04  0.70039546993E+03 0.  0.
    5000001    2    3    3    0    0  0.21463544221E+02  0.63630842587E+02  0.33697346942E+03  0.38155312294E+03  0.16589785613E+03 0.  0.
        -13    1    4    4    0    0  0.11586774869E+02  0.52421686837E+02  0.34327828953E+03  0.34745112150E+03  0.10566000000E+00 0. -1.
     200003    1    4    4    0    0  0.98767693514E+01  0.11209155750E+02 -0.63048201080E+01  0.34102001438E+02  0.30000000000E+02 0. -1.
     200000    1    3    3    0    0  0.25748520063E+03 -0.31133091278E+02  0.16839750581E+04  0.17756801216E+04  0.50000000000E+03 0. -1.
    -200001    1    1    2    0    0 -0.27894874485E+03 -0.32497751309E+02  0.23932787579E+04  0.25093129974E+04  0.70000000000E+03 0.  1.
<mgrwt>
<rscale>  0 0.15136880E+04</rscale>
<asrwt>0</asrwt>
<pdfrwt beam="1">  1        2 0.64862666E+00 0.15136880E+04</pdfrwt>
<pdfrwt beam="2">  1       -2 0.18022783E-01 0.15136880E+04</pdfrwt>
<totfact> 0.57393182E+00</totfact>
</mgrwt>
</event>
<event>
 8    1  0.2682466E-027  0.2890187E+04  0.7818608E-02  0.8275803E-01
         -2   -1    0    0    0  501 -0.00000000000E+00  0.00000000000E+00  0.61000081622E+03  0.61000081623E+03  0.25500000000E-02 0. -1.
          2   -1    0    0  501    0  0.00000000000E+00 -0.00000000000E+00 -0.34234296439E+04  0.34234296439E+04  0.25500000000E-02 0.  1.
     200001    2    1    2    0    0  0.94720233453E+03 -0.83578789422E+03 -0.13591395483E+04  0.19838717333E+04  0.70196372818E+03 0.  0.
    5000001    2    3    3    0    0  0.29508788734E+03 -0.23345393999E+03 -0.39861102347E+03  0.58363086412E+03  0.20039120282E+03 0.  0.
        -13    1    4    4    0    0  0.20989570969E+03 -0.16437838519E+03 -0.13999777144E+03  0.30112430928E+03  0.10566000000E+00 0. -1.
     200003    1    4    4    0    0  0.85192177650E+02 -0.69075554798E+02 -0.25861325203E+03  0.28250655484E+03  0.30000000000E+02 0. -1.
     200000    1    3    3    0    0  0.65211444719E+03 -0.60233395423E+03 -0.96052852481E+03  0.14002408691E+04  0.50000000000E+03 0.  1.
    -200001    1    1    2    0    0 -0.94720233453E+03  0.83578789422E+03 -0.14542892794E+04  0.20495587269E+04  0.70000000000E+03 0.  1.
<mgrwt>
<rscale>  0 0.28901868E+04</rscale>
<asrwt>0</asrwt>
<pdfrwt beam="1">  1        2 0.48906137E+00 0.28901868E+04</pdfrwt>
<pdfrwt beam="2">  1       -2 0.87142976E-01 0.28901868E+04</pdfrwt>
<totfact> 0.13233688E+00</totfact>
</mgrwt>
</event>
<event>
 8    1  0.2682466E-027  0.1819620E+04  0.7818608E-02  0.8695935E-01
          2   -1    0    0  501    0  0.00000000000E+00  0.00000000000E+00  0.28153750071E+04  0.28153750071E+04  0.25500000000E-02 0.  1.
         -2   -1    0    0    0  501 -0.00000000000E+00 -0.00000000000E+00 -0.29401205639E+03  0.29401205640E+03  0.25500000000E-02 0. -1.
     200001    2    1    2    0    0  0.24211034443E+03  0.35257969802E+03  0.19330237828E+04  0.20998956872E+04  0.70003649185E+03 0.  0.
    5000001    2    3    3    0    0  0.21031682077E+03  0.42894876669E+02  0.49520865444E+03  0.54611711223E+03  0.83301580345E+02 0.  0.
        -13    1    4    4    0    0  0.13462382379E+03  0.37959287998E+02  0.38023990105E+03  0.40515043502E+03  0.10566000000E+00 0. -1.
     200003    1    4    4    0    0  0.75692996982E+02  0.49355886715E+01  0.11496875339E+03  0.14096667721E+03  0.30000000000E+02 0.  1.
     200000    1    3    3    0    0  0.31793523663E+02  0.30968482135E+03  0.14378151284E+04  0.15537785750E+04  0.50000000000E+03 0.  1.
    -200001    1    1    2    0    0 -0.24211034443E+03 -0.35257969802E+03  0.58833916791E+03  0.10094913763E+04  0.70000000000E+03 0.  1.
<mgrwt>
<rscale>  0 0.18196200E+04</rscale>
<asrwt>0</asrwt>
<pdfrwt beam="1">  1        2 0.40219646E+00 0.18196200E+04</pdfrwt>
<pdfrwt beam="2">  1       -2 0.42001719E-01 0.18196200E+04</pdfrwt>
<totfact> 0.15175566E+01</totfact>
</mgrwt>
</event>
<event>
 8    1  0.2682466E-027  0.2221898E+04  0.7818608E-02  0.8509368E-01
         -2   -1    0    0    0  501 -0.00000000000E+00  0.00000000000E+00  0.31364964869E+04  0.31364964869E+04  0.25500000000E-02 0.  1.
          2   -1    0    0  501    0  0.00000000000E+00 -0.00000000000E+00 -0.39349897710E+03  0.39349897711E+03  0.25500000000E-02 0. -1.
     200001    2    1    2    0    0  0.28109844536E+03  0.40510873038E+03  0.24955192511E+04  0.26387183421E+04  0.70149036840E+03 0.  0.
    5000001    2    3    3    0    0 -0.21421461668E+02  0.39894871852E+00  0.53190946746E+03  0.55040043434E+03  0.13983532588E+03 0.  0.
        -13    1    4    4    0    0  0.20154264882E+02 -0.54041955323E+02  0.13992680818E+03  0.15134810914E+03  0.10566000000E+00 0. -1.
     200003    1    4    4    0    0 -0.41575726549E+02  0.54440904041E+02  0.39198265928E+03  0.39905232520E+03  0.30000000000E+02 0. -1.
     200000    1    3    3    0    0  0.30251990703E+03  0.40470978166E+03  0.19636097837E+04  0.20883179078E+04  0.50000000000E+03 0.  1.
    -200001    1    1    2    0    0 -0.28109844536E+03 -0.40510873038E+03  0.24747825864E+03  0.89127712184E+03  0.70000000000E+03 0. -1.
<mgrwt>
<rscale>  0 0.22218984E+04</rscale>
<asrwt>0</asrwt>
<pdfrwt beam="1">  1        2 0.56214142E-01 0.22218984E+04</pdfrwt>
<pdfrwt beam="2">  1       -2 0.44807091E+00 0.22218984E+04</pdfrwt>
<totfact> 0.28836478E-01</totfact>
</mgrwt>
</event>
<event>
 8    1  0.2682466E-027  0.1750998E+04  0.7818608E-02  0.8732801E-01
          2   -1    0    0  501    0  0.00000000000E+00  0.00000000000E+00  0.13647350049E+04  0.13647350049E+04  0.25500000000E-02 0.  1.
         -2   -1    0    0    0  501 -0.00000000000E+00 -0.00000000000E+00 -0.56164610034E+03  0.56164610035E+03  0.25500000000E-02 0. -1.
     200001    2    1    2    0    0  0.37371100945E+03  0.34278421328E+03  0.24992722715E+03  0.90015073307E+03  0.70046183902E+03 0.  0.
    5000001    2    3    3    0    0  0.10027344400E+03  0.15966795606E+03 -0.16099779111E+02  0.24511635694E+03  0.15580181574E+03 0.  0.
        -13    1    4    4    0    0  0.30647068499E+02  0.57985825079E+01  0.51936668563E+02  0.60582960246E+02  0.10566000000E+00 0. -1.
     200003    1    4    4    0    0  0.69626375503E+02  0.15386937355E+03 -0.68036447675E+02  0.18453339669E+03  0.30000000000E+02 0. -1.
     200000    1    3    3    0    0  0.27343756545E+03  0.18311625722E+03  0.26602700626E+03  0.65503437613E+03  0.50000000000E+03 0. -1.
    -200001    1    1    2    0    0 -0.37371100945E+03 -0.34278421328E+03  0.55316167745E+03  0.10262303722E+04  0.70000000000E+03 0.  1.
<mgrwt>
<rscale>  0 0.17509975E+04</rscale>
<asrwt>0</asrwt>
<pdfrwt beam="1">  1        2 0.19496214E+00 0.17509975E+04</pdfrwt>
<pdfrwt beam="2">  1       -2 0.80235157E-01 0.17509975E+04</pdfrwt>
<totfact> 0.22572827E+01</totfact>
</mgrwt>
</event>
<event>
 8    1  0.2682466E-027  0.1573521E+04  0.7818608E-02  0.8836982E-01
         -2   -1    0    0    0  501 -0.00000000000E+00  0.00000000000E+00  0.16324523183E+03  0.16324523185E+03  0.25500000000E-02 0. -1.
          2   -1    0    0  501    0  0.00000000000E+00 -0.00000000000E+00 -0.37917935918E+04  0.37917935918E+04  0.25500000000E-02 0.  1.
     200001    2    1    2    0    0 -0.15661263026E+03 -0.29650158091E+03 -0.21384454238E+04  0.22749056551E+04  0.69986156201E+03 0.  0.
    5000001    2    3    3    0    0  0.39850984121E+02 -0.71716807486E+02 -0.81778168283E+03  0.83154885146E+03  0.12639307806E+03 0.  0.
        -13    1    4    4    0    0  0.63218764129E+02 -0.47280120853E+02 -0.71399604577E+03  0.71834698197E+03  0.10566000000E+00 0. -1.
     200003    1    4    4    0    0 -0.23367780008E+02 -0.24436686634E+02 -0.10378563706E+03  0.11320186949E+03  0.30000000000E+02 0. -1.
     200000    1    3    3    0    0 -0.19646361438E+03 -0.22478477342E+03 -0.13206637409E+04  0.14433568037E+04  0.50000000000E+03 0.  1.
    -200001    1    1    2    0    0  0.15661263026E+03  0.29650158091E+03 -0.14901029362E+04  0.16801331685E+04  0.70000000000E+03 0. -1.
<mgrwt>
<rscale>  0 0.15735212E+04</rscale>
<asrwt>0</asrwt>
<pdfrwt beam="1">  1        2 0.54168475E+00 0.15735212E+04</pdfrwt>
<pdfrwt beam="2">  1       -2 0.23320750E-01 0.15735212E+04</pdfrwt>
<totfact> 0.12458715E+01</totfact>
</mgrwt>
</event>
<event>
 8    1  0.2682466E-027  0.1688085E+04  0.7818608E-02  0.8768189E-01
         -2   -1    0    0    0  501 -0.00000000000E+00  0.00000000000E+00  0.30070081996E+03  0.30070081997E+03  0.25500000000E-02 0. -1.
          2   -1    0    0  501    0  0.00000000000E+00 -0.00000000000E+00 -0.23691581041E+04  0.23691581041E+04  0.25500000000E-02 0.  1.
     200001    2    1    2    0    0 -0.35140000682E+03 -0.31069330318E+03 -0.11211070874E+04  0.14019927290E+04  0.69906381483E+03 0.  0.
    5000001    2    3    3    0    0 -0.78145031898E+02 -0.14938974739E+03 -0.45008196854E+03  0.50702802096E+03  0.16149208339E+03 0.  0.
        -13    1    4    4    0    0  0.78386529703E+01 -0.12485757150E+03 -0.16709260599E+03  0.20873621579E+03  0.10566000000E+00 0. -1.
     200003    1    4    4    0    0 -0.85983684869E+02 -0.24532175899E+02 -0.28298936255E+03  0.29829180517E+03  0.30000000000E+02 0. -1.
     200000    1    3    3    0    0 -0.27325497492E+03 -0.16130355578E+03 -0.67102511888E+03  0.89496470801E+03  0.50000000000E+03 0. -1.
    -200001    1    1    2    0    0  0.35140000682E+03  0.31069330318E+03 -0.94735019667E+03  0.12678661951E+04  0.70000000000E+03 0.  1.
<mgrwt>
<rscale>  0 0.16880851E+04</rscale>
<asrwt>0</asrwt>
<pdfrwt beam="1">  1        2 0.33845115E+00 0.16880851E+04</pdfrwt>
<pdfrwt beam="2">  1       -2 0.42957261E-01 0.16880851E+04</pdfrwt>
<totfact> 0.25340412E+01</totfact>
</mgrwt>
</event>
<event>
 8    1  0.2682466E-027  0.2156907E+04  0.7818608E-02  0.8536581E-01
         -2   -1    0    0    0  501 -0.00000000000E+00  0.00000000000E+00  0.81987537993E+03  0.81987537993E+03  0.25500000000E-02 0. -1.
          2   -1    0    0  501    0  0.00000000000E+00 -0.00000000000E+00 -0.14185842260E+04  0.14185842260E+04  0.25500000000E-02 0.  1.
     200001    2    1    2    0    0 -0.23312693293E+03  0.60290845619E+03 -0.82400879167E+03  0.12593749115E+04  0.69941969203E+03 0.  0.
    5000001    2    3    3    0    0 -0.11347183277E+03  0.17657081459E+03 -0.26454964740E+03  0.38812542844E+03  0.19131576744E+03 0.  0.
        -13    1    4    4    0    0 -0.12133779322E+03  0.17268641631E+03 -0.28207415961E+03  0.35229150022E+03  0.10566000000E+00 0. -1.
     200003    1    4    4    0    0  0.78659604483E+01  0.38843982710E+01  0.17524512211E+02  0.35833928224E+02  0.30000000000E+02 0. -1.
     200000    1    3    3    0    0 -0.11965510016E+03  0.42633764160E+03 -0.55945914427E+03  0.87124948307E+03  0.50000000000E+03 0. -1.
    -200001    1    1    2    0    0  0.23312693293E+03 -0.60290845619E+03  0.22529994558E+03  0.97908469444E+03  0.70000000000E+03 0. -1.
<mgrwt>
<rscale>  0 0.21569073E+04</rscale>
<asrwt>0</asrwt>
<pdfrwt beam="1">  1        2 0.20265489E+00 0.21569073E+04</pdfrwt>
<pdfrwt beam="2">  1       -2 0.11712505E+00 0.21569073E+04</pdfrwt>
<totfact> 0.84011673E+00</totfact>
</mgrwt>
</event>
<event>
 8    1  0.2682466E-027  0.2138166E+04  0.7818608E-02  0.8544615E-01
          2   -1    0    0  501    0  0.00000000000E+00  0.00000000000E+00  0.40013866980E+04  0.40013866980E+04  0.25500000000E-02 0.  1.
         -2   -1    0    0    0  501 -0.00000000000E+00 -0.00000000000E+00 -0.28563558500E+03  0.28563558501E+03  0.25500000000E-02 0. -1.
     200001    2    1    2    0    0  0.11053437937E+03 -0.64464749804E+03  0.28037796710E+04  0.29643431244E+04  0.70594721440E+03 0.  0.
    5000001    2    3    3    0    0  0.14392688024E+02 -0.19059535800E+03  0.88796576288E+03  0.93068890072E+03  0.20289133523E+03 0.  0.
        -13    1    4    4    0    0  0.16745743835E+02 -0.19584144328E+03  0.87616645791E+03  0.89794318527E+03  0.10566000000E+00 0. -1.
     200003    1    4    4    0    0 -0.23530558109E+01  0.52460852776E+01  0.11799304970E+02  0.32745715447E+02  0.30000000000E+02 0. -1.
     200000    1    3    3    0    0  0.96141691346E+02 -0.45405214004E+03  0.19158139082E+04  0.20336542236E+04  0.50000000000E+03 0.  1.
    -200001    1    1    2    0    0 -0.11053437937E+03  0.64464749804E+03  0.91197144196E+03  0.13226791586E+04  0.70000000000E+03 0. -1.
<mgrwt>
<rscale>  0 0.21381660E+04</rscale>
<asrwt>0</asrwt>
<pdfrwt beam="1">  1        2 0.57162664E+00 0.21381660E+04</pdfrwt>
<pdfrwt beam="2">  1       -2 0.40805086E-01 0.21381660E+04</pdfrwt>
<totfact> 0.29958277E+00</totfact>
</mgrwt>
</event>
<event>
 8    1  0.2682466E-027  0.2847207E+04  0.7818608E-02  0.8288761E-01
         -2   -1    0    0    0  501 -0.00000000000E+00  0.00000000000E+00  0.12911366781E+04  0.12911366781E+04  0.25500000000E-02 0. -1.
          2   -1    0    0  501    0  0.00000000000E+00 -0.00000000000E+00 -0.15696606400E+04  0.15696606400E+04  0.25500000000E-02 0.  1.
     200001    2    1    2    0    0  0.21633182466E+02  0.52874496923E+03 -0.12654890234E+04  0.15401386681E+04  0.70037519342E+03 0.  0.
    5000001    2    3    3    0    0  0.92811273296E+02  0.18389424689E+03 -0.42400964178E+03  0.49990989951E+03  0.16641726116E+03 0.  0.
        -13    1    4    4    0    0 -0.37536936573E+02  0.88291704825E+02 -0.20225663115E+03  0.22385755014E+03  0.10566000000E+00 0. -1.
     200003    1    4    4    0    0  0.13034820987E+03  0.95602542066E+02 -0.22175301063E+03  0.27605234937E+03  0.30000000000E+02 0. -1.
     200000    1    3    3    0    0 -0.71178090830E+02  0.34485072234E+03 -0.84147938167E+03  0.10402287686E+04  0.50000000000E+03 0.  1.
    -200001    1    1    2    0    0 -0.21633182466E+02 -0.52874496923E+03  0.98696506155E+03  0.13206586500E+04  0.70000000000E+03 0. -1.
<mgrwt>
<rscale>  0 0.28472066E+04</rscale>
<asrwt>0</asrwt>
<pdfrwt beam="1">  1        2 0.22423723E+00 0.28472066E+04</pdfrwt>
<pdfrwt beam="2">  1       -2 0.18444810E+00 0.28472066E+04</pdfrwt>
<totfact> 0.19813688E+00</totfact>
</mgrwt>
</event>
<event>
 8    1  0.2682466E-027  0.1454681E+04  0.7818608E-02  0.8915162E-01
          2   -1    0    0  501    0  0.00000000000E+00  0.00000000000E+00  0.96379172424E+03  0.96379172425E+03  0.25500000000E-02 0.  1.
         -2   -1    0    0    0  501 -0.00000000000E+00 -0.00000000000E+00 -0.54889882931E+03  0.54889882931E+03  0.25500000000E-02 0. -1.
     200001    2    1    2    0    0  0.84578885369E+02  0.88627038014E+01  0.21235739917E+02  0.70510273105E+03  0.69963331061E+03 0.  0.
    5000001    2    3    3    0    0  0.30248237861E+02 -0.29124971797E+02  0.21260183370E+02  0.20072699476E+03  0.19513101023E+03 0.  0.
        -13    1    4    4    0    0 -0.78073916582E+02  0.55836692102E+01 -0.10254167037E+02  0.78942212522E+02  0.10566000000E+00 0. -1.
     200003    1    4    4    0    0  0.10832215444E+03 -0.34708641008E+02  0.31514350406E+02  0.12178478224E+03  0.30000000000E+02 0. -1.
     200000    1    3    3    0    0  0.54330647508E+02  0.37987675599E+02 -0.24443452385E-01  0.50437573629E+03  0.50000000000E+03 0. -1.
    -200001    1    1    2    0    0 -0.84578885369E+02 -0.88627038014E+01  0.39365715502E+03  0.80758782251E+03  0.70000000000E+03 0.  1.
<mgrwt>
<rscale>  0 0.14546809E+04</rscale>
<asrwt>0</asrwt>
<pdfrwt beam="1">  1        2 0.13768453E+00 0.14546809E+04</pdfrwt>
<pdfrwt beam="2">  1       -2 0.78414117E-01 0.14546809E+04</pdfrwt>
<totfact> 0.41553322E+01</totfact>
</mgrwt>
</event>
<event>
 8    1  0.2682466E-027  0.1619387E+04  0.7818608E-02  0.8808726E-01
          2   -1    0    0  501    0  0.00000000000E+00  0.00000000000E+00  0.11103766041E+04  0.11103766041E+04  0.25500000000E-02 0.  1.
         -2   -1    0    0    0  501 -0.00000000000E+00 -0.00000000000E+00 -0.59043324693E+03  0.59043324694E+03  0.25500000000E-02 0. -1.
     200001    2    1    2    0    0  0.33717164909E+03 -0.15695261081E+03  0.43194024200E+03  0.90327402662E+03  0.70072302054E+03 0.  0.
    5000001    2    3    3    0    0  0.11871455421E+03  0.64898684481E+01  0.14185281920E+03  0.26406540715E+03  0.18834291377E+03 0.  0.
        -13    1    4    4    0    0  0.41970396946E+02 -0.42428747197E+02 -0.30381296937E+02  0.66968254987E+02  0.10566000000E+00 0. -1.
     200003    1    4    4    0    0  0.76744157267E+02  0.48918615645E+02  0.17223411614E+03  0.19709715217E+03  0.30000000000E+02 0. -1.
     200000    1    3    3    0    0  0.21845709488E+03 -0.16344247926E+03  0.29008742280E+03  0.63920861946E+03  0.50000000000E+03 0.  1.
    -200001    1    1    2    0    0 -0.33717164909E+03  0.15695261081E+03  0.88003115195E+02  0.79753582445E+03  0.70000000000E+03 0.  1.
<mgrwt>
<rscale>  0 0.16193866E+04</rscale>
<asrwt>0</asrwt>
<pdfrwt beam="1">  1        2 0.15862523E+00 0.16193866E+04</pdfrwt>
<pdfrwt beam="2">  1       -2 0.84347607E-01 0.16193866E+04</pdfrwt>
<totfact> 0.28355376E+01</totfact>
</mgrwt>
</event>
<event>
 8    1  0.2682466E-027  0.1586961E+04  0.7818608E-02  0.8828599E-01
          2   -1    0    0  501    0  0.00000000000E+00  0.00000000000E+00  0.11986208923E+04  0.11986208923E+04  0.25500000000E-02 0.  1.
         -2   -1    0    0    0  501 -0.00000000000E+00 -0.00000000000E+00 -0.52527989410E+03  0.52527989411E+03  0.25500000000E-02 0. -1.
     200001    2    1    2    0    0  0.14689854961E+03 -0.67704446920E+01  0.71032516600E+03  0.10076655936E+04  0.69943054282E+03 0.  0.
    5000001    2    3    3    0    0  0.93725157113E+02 -0.50481038499E+02  0.27530714042E+03  0.34134832060E+03  0.17144070138E+03 0.  0.
        -13    1    4    4    0    0  0.11097454685E+02 -0.72221232647E+01 -0.23453811810E+02  0.26933343970E+02  0.10566000000E+00 0. -1.
     200003    1    4    4    0    0  0.82627702429E+02 -0.43258915234E+02  0.29876095223E+03  0.31441497663E+03  0.30000000000E+02 0. -1.
     200000    1    3    3    0    0  0.53173392492E+02  0.43710593807E+02  0.43501802558E+03  0.66631727297E+03  0.50000000000E+03 0.  1.
    -200001    1    1    2    0    0 -0.14689854961E+03  0.67704446920E+01 -0.36984167795E+02  0.71623519284E+03  0.70000000000E+03 0. -1.
<mgrwt>
<rscale>  0 0.15869612E+04</rscale>
<asrwt>0</asrwt>
<pdfrwt beam="1">  1        2 0.17123155E+00 0.15869612E+04</pdfrwt>
<pdfrwt beam="2">  1       -2 0.75039986E-01 0.15869612E+04</pdfrwt>
<totfact> 0.32851260E+01</totfact>
</mgrwt>
</event>
<event>
 8    1  0.2682466E-027  0.1579182E+04  0.7818608E-02  0.8833441E-01
         -2   -1    0    0    0  501 -0.00000000000E+00  0.00000000000E+00  0.48956069298E+03  0.48956069299E+03  0.25500000000E-02 0. -1.
          2   -1    0    0  501    0  0.00000000000E+00 -0.00000000000E+00 -0.12734962308E+04  0.12734962308E+04  0.25500000000E-02 0.  1.
     200001    2    1    2    0    0  0.34378574514E+03  0.33627286951E+02 -0.52437834587E+03  0.94044561283E+03  0.70010418373E+03 0.  0.
    5000001    2    3    3    0    0 -0.44907189580E+02 -0.48567802187E+02 -0.66226195793E+02  0.15448020468E+03  0.12289319568E+03 0.  0.
        -13    1    4    4    0    0 -0.46058303684E+02  0.29133663078E+02 -0.14382576199E+02  0.56364947661E+02  0.10566000000E+00 0. -1.
     200003    1    4    4    0    0  0.11511141048E+01 -0.77701465265E+02 -0.51843619595E+02  0.98115257023E+02  0.30000000000E+02 0. -1.
     200000    1    3    3    0    0  0.38869293472E+03  0.82195089138E+02 -0.45815215008E+03  0.78596540814E+03  0.50000000000E+03 0.  1.
    -200001    1    1    2    0    0 -0.34378574514E+03 -0.33627286951E+02 -0.25955719190E+03  0.82261131092E+03  0.70000000000E+03 0. -1.
<mgrwt>
<rscale>  0 0.15791817E+04</rscale>
<asrwt>0</asrwt>
<pdfrwt beam="1">  1        2 0.18192803E+00 0.15791817E+04</pdfrwt>
<pdfrwt beam="2">  1       -2 0.69937242E-01 0.15791817E+04</pdfrwt>
<totfact> 0.34818612E+01</totfact>
</mgrwt>
</event>
<event>
 8    1  0.2682466E-027  0.2319280E+04  0.7818608E-02  0.8470358E-01
          2   -1    0    0  501    0  0.00000000000E+00  0.00000000000E+00  0.14832842415E+04  0.14832842415E+04  0.25500000000E-02 0.  1.
         -2   -1    0    0    0  501 -0.00000000000E+00 -0.00000000000E+00 -0.90661315266E+03  0.90661315267E+03  0.25500000000E-02 0. -1.
     200001    2    1    2    0    0 -0.20518801271E+03  0.88003353669E+03  0.86947418765E+02  0.11463579218E+04  0.70001106061E+03 0.  0.
    5000001    2    3    3    0    0 -0.62067330478E+02  0.29217459789E+03 -0.11963362866E+03  0.33473153560E+03  0.92274843016E+02 0.  0.
        -13    1    4    4    0    0 -0.43844658135E+02  0.26391518885E+03 -0.10082017946E+03  0.28589910931E+03  0.10566000000E+00 0. -1.
     200003    1    4    4    0    0 -0.18222672344E+02  0.28259409037E+02 -0.18813449205E+02  0.48832426291E+02  0.30000000000E+02 0.  1.
     200000    1    3    3    0    0 -0.14312068223E+03  0.58785893880E+03  0.20658104743E+03  0.81162638620E+03  0.50000000000E+03 0. -1.
    -200001    1    1    2    0    0  0.20518801271E+03 -0.88003353669E+03  0.48972367003E+03  0.12435394723E+04  0.70000000000E+03 0. -1.
<mgrwt>
<rscale>  0 0.23192801E+04</rscale>
<asrwt>0</asrwt>
<pdfrwt beam="1">  1        2 0.21189775E+00 0.23192801E+04</pdfrwt>
<pdfrwt beam="2">  1       -2 0.12951616E+00 0.23192801E+04</pdfrwt>
<totfact> 0.59545820E+00</totfact>
</mgrwt>
</event>
<event>
 8    1  0.2682466E-027  0.1620529E+04  0.7818608E-02  0.8808035E-01
         -2   -1    0    0    0  501 -0.00000000000E+00  0.00000000000E+00  0.61886503380E+03  0.61886503381E+03  0.25500000000E-02 0. -1.
          2   -1    0    0  501    0  0.00000000000E+00 -0.00000000000E+00 -0.10608585138E+04  0.10608585138E+04  0.25500000000E-02 0.  1.
     200001    2    1    2    0    0 -0.81203060534E+02  0.13756745226E+03  0.16764695085E+03  0.73782111323E+03  0.70053961632E+03 0.  0.
    5000001    2    3    3    0    0  0.19402143497E+02  0.84139123590E+02  0.80139098467E+02  0.21759652940E+03  0.18294846054E+03 0.  0.
        -13    1    4    4    0    0  0.43290547143E+01  0.39473124199E+02 -0.57024191834E+02  0.69488400953E+02  0.10566000000E+00 0. -1.
     200003    1    4    4    0    0  0.15073088783E+02  0.44665999392E+02  0.13716329030E+03  0.14810812845E+03  0.30000000000E+02 0. -1.
     200000    1    3    3    0    0 -0.10060520403E+03  0.53428328674E+02  0.87507852381E+02  0.52022458382E+03  0.50000000000E+03 0. -1.
    -200001    1    1    2    0    0  0.81203060534E+02 -0.13756745226E+03 -0.60964043081E+03  0.94190243436E+03  0.70000000000E+03 0.  1.
<mgrwt>
<rscale>  0 0.16205286E+04</rscale>
<asrwt>0</asrwt>
<pdfrwt beam="1">  1        2 0.15155122E+00 0.16205286E+04</pdfrwt>
<pdfrwt beam="2">  1       -2 0.88409291E-01 0.16205286E+04</pdfrwt>
<totfact> 0.27251481E+01</totfact>
</mgrwt>
</event>
<event>
 8    1  0.2682466E-027  0.2076180E+04  0.7818608E-02  0.8571809E-01
         -2   -1    0    0    0  501 -0.00000000000E+00  0.00000000000E+00  0.52367502501E+03  0.52367502501E+03  0.25500000000E-02 0. -1.
          2   -1    0    0  501    0  0.00000000000E+00 -0.00000000000E+00 -0.20578235386E+04  0.20578235386E+04  0.25500000000E-02 0.  1.
     200001    2    1    2    0    0 -0.22225074834E+03 -0.72853320869E+03 -0.86932299261E+03  0.13518038841E+04  0.70106721818E+03 0.  0.
    5000001    2    3    3    0    0 -0.63445258604E+02 -0.60542545945E+02 -0.20098907351E+03  0.27101670042E+03  0.15925684766E+03 0.  0.
        -13    1    4    4    0    0  0.35203810165E+02 -0.35442414290E+02 -0.77452766214E+01  0.50551690920E+02  0.10566000000E+00 0. -1.
     200003    1    4    4    0    0 -0.98649068769E+02 -0.25100131655E+02 -0.19324379689E+03  0.22046500950E+03  0.30000000000E+02 0. -1.
     200000    1    3    3    0    0 -0.15880548974E+03 -0.66799066275E+03 -0.66833391910E+03  0.10807871837E+04  0.50000000000E+03 0.  1.
    -200001    1    1    2    0    0  0.22225074834E+03  0.72853320869E+03 -0.66482552095E+03  0.12296946794E+04  0.70000000000E+03 0. -1.
<mgrwt>
<rscale>  0 0.20761799E+04</rscale>
<asrwt>0</asrwt>
<pdfrwt beam="1">  1        2 0.29397479E+00 0.20761799E+04</pdfrwt>
<pdfrwt beam="2">  1       -2 0.74810719E-01 0.20761799E+04</pdfrwt>
<totfact> 0.11150645E+01</totfact>
</mgrwt>
</event>
<event>
 8    1  0.2682466E-027  0.3232849E+04  0.7818608E-02  0.8180195E-01
          2   -1    0    0  501    0  0.00000000000E+00  0.00000000000E+00  0.21393052322E+04  0.21393052322E+04  0.25500000000E-02 0.  1.
         -2   -1    0    0    0  501 -0.00000000000E+00 -0.00000000000E+00 -0.12213445804E+04  0.12213445804E+04  0.25500000000E-02 0. -1.
     200001    2    1    2    0    0 -0.82052437888E+03 -0.53924946012E+03  0.15779078835E+04  0.19860296523E+04  0.70033581537E+03 0.  0.
    5000001    2    3    3    0    0 -0.20183810826E+03 -0.17124999851E+03  0.34920227374E+03  0.47675373957E+03  0.18784758787E+03 0.  0.
        -13    1    4    4    0    0 -0.19613002445E+03 -0.66505380677E+02  0.17466362399E+03  0.27091944349E+03  0.10566000000E+00 0. -1.
     200003    1    4    4    0    0 -0.57080838102E+01 -0.10474461783E+03  0.17453864974E+03  0.20583429607E+03  0.30000000000E+02 0. -1.
     200000    1    3    3    0    0 -0.61868627061E+03 -0.36799946162E+03  0.12287056098E+04  0.15092759127E+04  0.50000000000E+03 0.  1.
    -200001    1    1    2    0    0  0.82052437888E+03  0.53924946012E+03 -0.65994723175E+03  0.13746201604E+04  0.70000000000E+03 0. -1.
<mgrwt>
<rscale>  0 0.32328494E+04</rscale>
<asrwt>0</asrwt>
<pdfrwt beam="1">  1        2 0.30561503E+00 0.32328494E+04</pdfrwt>
<pdfrwt beam="2">  1       -2 0.17447780E+00 0.32328494E+04</pdfrwt>
<totfact> 0.11414262E+00</totfact>
</mgrwt>
</event>
<event>
 8    1  0.2682466E-027  0.2425949E+04  0.7818608E-02  0.8429852E-01
         -2   -1    0    0    0  501 -0.00000000000E+00  0.00000000000E+00  0.17560611923E+04  0.17560611923E+04  0.25500000000E-02 0. -1.
          2   -1    0    0  501    0  0.00000000000E+00 -0.00000000000E+00 -0.83784501523E+03  0.83784501523E+03  0.25500000000E-02 0.  1.
     200001    2    1    2    0    0  0.81049730815E+03 -0.20787223103E+03 -0.10789329811E+03  0.10962355475E+04  0.69998190033E+03 0.  0.
    5000001    2    3    3    0    0  0.13085932040E+03 -0.13816186937E+03  0.51844042583E+01  0.24209627563E+03  0.14956892974E+03 0.  0.
        -13    1    4    4    0    0  0.76928759766E+02 -0.15922198429E+03  0.40589131583E+01  0.17687894250E+03  0.10566000000E+00 0. -1.
     200003    1    4    4    0    0  0.53930560633E+02  0.21060114915E+02  0.11254911000E+01  0.65217333130E+02  0.30000000000E+02 0. -1.
     200000    1    3    3    0    0  0.67963798775E+03 -0.69710361657E+02 -0.11307770237E+03  0.85413927183E+03  0.50000000000E+03 0.  1.
    -200001    1    1    2    0    0 -0.81049730815E+03  0.20787223103E+03  0.10261094752E+04  0.14976706600E+04  0.70000000000E+03 0. -1.
<mgrwt>
<rscale>  0 0.24259490E+04</rscale>
<asrwt>0</asrwt>
<pdfrwt beam="1">  1        2 0.11969214E+00 0.24259490E+04</pdfrwt>
<pdfrwt beam="2">  1       -2 0.25086589E+00 0.24259490E+04</pdfrwt>
<totfact> 0.20477867E+00</totfact>
</mgrwt>
</event>
<event>
 8    1  0.2682466E-027  0.3266186E+04  0.7818608E-02  0.8171553E-01
         -2   -1    0    0    0  501 -0.00000000000E+00  0.00000000000E+00  0.18189316772E+04  0.18189316772E+04  0.25500000000E-02 0. -1.
          2   -1    0    0  501    0  0.00000000000E+00 -0.00000000000E+00 -0.14662413480E+04  0.14662413480E+04  0.25500000000E-02 0.  1.
     200001    2    1    2    0    0 -0.10834278986E+04  0.70500888868E+03  0.89111363460E+03  0.17196848584E+04  0.70169719817E+03 0.  0.
    5000001    2    3    3    0    0 -0.29032806174E+03  0.24040313133E+03  0.29624911892E+03  0.51605299900E+03  0.19095315741E+03 0.  0.
        -13    1    4    4    0    0 -0.22558055666E+03  0.18793657724E+03  0.11690115082E+03  0.31602631984E+03  0.10566000000E+00 0. -1.
     200003    1    4    4    0    0 -0.64747505084E+02  0.52466554097E+02  0.17934796810E+03  0.20002667916E+03  0.30000000000E+02 0. -1.
     200000    1    3    3    0    0 -0.79309983690E+03  0.46460575735E+03  0.59486451568E+03  0.12036318594E+04  0.50000000000E+03 0. -1.
    -200001    1    1    2    0    0  0.10834278986E+04 -0.70500888868E+03 -0.53842330542E+03  0.15654881668E+04  0.70000000000E+03 0.  1.
<mgrwt>
<rscale>  0 0.32661861E+04</rscale>
<asrwt>0</asrwt>
<pdfrwt beam="1">  1        2 0.20946305E+00 0.32661861E+04</pdfrwt>
<pdfrwt beam="2">  1       -2 0.25984738E+00 0.32661861E+04</pdfrwt>
<totfact> 0.71948466E-01</totfact>
</mgrwt>
</event>
<event>
 8    1  0.2682466E-027  0.1600915E+04  0.7818608E-02  0.8819986E-01
          2   -1    0    0  501    0  0.00000000000E+00  0.00000000000E+00  0.18100821409E+04  0.18100821409E+04  0.25500000000E-02 0.  1.
         -2   -1    0    0    0  501 -0.00000000000E+00 -0.00000000000E+00 -0.35397965457E+03  0.35397965458E+03  0.25500000000E-02 0. -1.
     200001    2    1    2    0    0  0.22159737937E+03 -0.19666837256E+03  0.38883254142E+03  0.85377595544E+03  0.69997056331E+03 0.  0.
    5000001    2    3    3    0    0  0.10565203912E+03 -0.49950505879E+02  0.50029585084E+02  0.22151264197E+03  0.18140420271E+03 0.  0.
        -13    1    4    4    0    0  0.10913006959E+03 -0.96717733855E+02 -0.12459463958E+01  0.14582611452E+03  0.10566000000E+00 0. -1.
     200003    1    4    4    0    0 -0.34780304714E+01  0.46767227975E+02  0.51275531480E+02  0.75686527447E+02  0.30000000000E+02 0. -1.
     200000    1    3    3    0    0  0.11594534025E+03 -0.14671786668E+03  0.33880295634E+03  0.63226331347E+03  0.50000000000E+03 0. -1.
    -200001    1    1    2    0    0 -0.22159737937E+03  0.19666837256E+03  0.10672699449E+04  0.13102858400E+04  0.70000000000E+03 0.  1.
<mgrwt>
<rscale>  0 0.16009151E+04</rscale>
<asrwt>0</asrwt>
<pdfrwt beam="1">  1        2 0.25858316E+00 0.16009151E+04</pdfrwt>
<pdfrwt beam="2">  1       -2 0.50568523E-01 0.16009151E+04</pdfrwt>
<totfact> 0.35717127E+01</totfact>
</mgrwt>
</event>
<event>
 8    1  0.2682466E-027  0.2850031E+04  0.7818608E-02  0.8287902E-01
          2   -1    0    0  501    0  0.00000000000E+00  0.00000000000E+00  0.34766275481E+04  0.34766275481E+04  0.25500000000E-02 0.  1.
         -2   -1    0    0    0  501 -0.00000000000E+00 -0.00000000000E+00 -0.58409178325E+03  0.58409178326E+03  0.25500000000E-02 0. -1.
     200001    2    1    2    0    0 -0.11300119510E+04 -0.51313590629E+03  0.14226817726E+04  0.20135978825E+04  0.70022677678E+03 0.  0.
    5000001    2    3    3    0    0 -0.36416857100E+03 -0.18421287085E+03  0.46552088580E+03  0.64946320846E+03  0.19631513984E+03 0.  0.
        -13    1    4    4    0    0 -0.18673148665E+03  0.11036108733E+02  0.18111880828E+03  0.26037372693E+03  0.10566000000E+00 0. -1.
     200003    1    4    4    0    0 -0.17743708436E+03 -0.19524897959E+03  0.28440207752E+03  0.38908948152E+03  0.30000000000E+02 0. -1.
     200000    1    3    3    0    0 -0.76584337996E+03 -0.32892303543E+03  0.95716088679E+03  0.13641346741E+04  0.50000000000E+03 0. -1.
    -200001    1    1    2    0    0  0.11300119510E+04  0.51313590629E+03  0.14698539923E+04  0.20471214488E+04  0.70000000000E+03 0. -1.
<mgrwt>
<rscale>  0 0.28500313E+04</rscale>
<asrwt>0</asrwt>
<pdfrwt beam="1">  1        2 0.49666107E+00 0.28500313E+04</pdfrwt>
<pdfrwt beam="2">  1       -2 0.83441685E-01 0.28500313E+04</pdfrwt>
<totfact> 0.13607146E+00</totfact>
</mgrwt>
</event>
<event>
 8    1  0.2682466E-027  0.1432907E+04  0.7818608E-02  0.8930338E-01
         -2   -1    0    0    0  501 -0.00000000000E+00  0.00000000000E+00  0.47363515525E+03  0.47363515526E+03  0.25500000000E-02 0. -1.
          2   -1    0    0  501    0  0.00000000000E+00 -0.00000000000E+00 -0.10837567188E+04  0.10837567188E+04  0.25500000000E-02 0.  1.
     200001    2    1    2    0    0  0.52651771014E+02  0.13373980975E+03 -0.35863280854E+03  0.79982660321E+03  0.70031889745E+03 0.  0.
    5000001    2    3    3    0    0  0.44930779805E+02  0.80641760607E+02 -0.55760863904E+02  0.21279131348E+03  0.18343663926E+03 0.  0.
        -13    1    4    4    0    0 -0.16824082051E+01 -0.43409125137E+02  0.29382478038E+02  0.52445436620E+02  0.10566000000E+00 0. -1.
     200003    1    4    4    0    0  0.46613188010E+02  0.12405088574E+03 -0.85143341943E+02  0.16034587686E+03  0.30000000000E+02 0. -1.
     200000    1    3    3    0    0  0.77209912094E+01  0.53098049147E+02 -0.30287194464E+03  0.58703528972E+03  0.50000000000E+03 0.  1.
    -200001    1    1    2    0    0 -0.52651771014E+02 -0.13373980975E+03 -0.25148875499E+03  0.75756527084E+03  0.70000000000E+03 0. -1.
<mgrwt>
<rscale>  0 0.14329065E+04</rscale>
<asrwt>0</asrwt>
<pdfrwt beam="1">  1        2 0.15482239E+00 0.14329065E+04</pdfrwt>
<pdfrwt beam="2">  1       -2 0.67662165E-01 0.14329065E+04</pdfrwt>
<totfact> 0.48631106E+01</totfact>
</mgrwt>
</event>
<event>
 8    1  0.2682466E-027  0.1922672E+04  0.7818608E-02  0.8643653E-01
          2   -1    0    0  501    0  0.00000000000E+00  0.00000000000E+00  0.67295793994E+03  0.67295793995E+03  0.25500000000E-02 0.  1.
         -2   -1    0    0    0  501 -0.00000000000E+00 -0.00000000000E+00 -0.13732910110E+04  0.13732910110E+04  0.25500000000E-02 0. -1.
     200001    2    1    2    0    0 -0.62082188684E+03 -0.50813764101E+02 -0.12106560503E+03  0.94463529318E+03  0.69976932099E+03 0.  0.
    5000001    2    3    3    0    0 -0.26331641749E+03 -0.77360952750E+02 -0.31201561306E+02  0.32287130243E+03  0.16718877886E+03 0.  0.
        -13    1    4    4    0    0 -0.51092223029E+02 -0.92057953198E+02 -0.23606055968E+02  0.10789967119E+03  0.10566000000E+00 0. -1.
     200003    1    4    4    0    0 -0.21222419446E+03  0.14697000449E+02 -0.75955053380E+01  0.21497163124E+03  0.30000000000E+02 0. -1.
     200000    1    3    3    0    0 -0.35750546935E+03  0.26547188649E+02 -0.89864043720E+02  0.62176399075E+03  0.50000000000E+03 0.  1.
    -200001    1    1    2    0    0  0.62082188684E+03  0.50813764101E+02 -0.57926746606E+03  0.11016136578E+04  0.70000000000E+03 0.  1.
<mgrwt>
<rscale>  0 0.19226722E+04</rscale>
<asrwt>0</asrwt>
<pdfrwt beam="1">  1        2 0.96136850E-01 0.19226722E+04</pdfrwt>
<pdfrwt beam="2">  1       -2 0.19618443E+00 0.19226722E+04</pdfrwt>
<totfact> 0.62419022E+00</totfact>
</mgrwt>
</event>
<event>
 8    1  0.2682466E-027  0.1965765E+04  0.7818608E-02  0.8622796E-01
          2   -1    0    0  501    0  0.00000000000E+00  0.00000000000E+00  0.23515428439E+04  0.23515428439E+04  0.25500000000E-02 0.  1.
         -2   -1    0    0    0  501 -0.00000000000E+00 -0.00000000000E+00 -0.41081862367E+03  0.41081862368E+03  0.25500000000E-02 0. -1.
     200001    2    1    2    0    0 -0.50765442483E+03 -0.44481251695E+03  0.11710997963E+04  0.15222433506E+04  0.70012777060E+03 0.  0.
    5000001    2    3    3    0    0 -0.25648465847E+03 -0.15449544519E+03  0.20861677355E+03  0.37170268515E+03  0.70630767589E+02 0.  0.
        -13    1    4    4    0    0 -0.38087264963E+02 -0.10449187085E+01  0.16778909444E+02  0.41632614302E+02  0.10566000000E+00 0. -1.
     200003    1    4    4    0    0 -0.21839739350E+03 -0.15345052648E+03  0.19183786411E+03  0.33007007085E+03  0.30000000000E+02 0. -1.
     200000    1    3    3    0    0 -0.25116976637E+03 -0.29031707176E+03  0.96248302275E+03  0.11505406654E+04  0.50000000000E+03 0.  1.
    -200001    1    1    2    0    0  0.50765442483E+03  0.44481251695E+03  0.76962442396E+03  0.12401181171E+04  0.70000000000E+03 0.  1.
<mgrwt>
<rscale>  0 0.19657646E+04</rscale>
<asrwt>0</asrwt>
<pdfrwt beam="1">  1        2 0.33593469E+00 0.19657646E+04</pdfrwt>
<pdfrwt beam="2">  1       -2 0.58688376E-01 0.19657646E+04</pdfrwt>
<totfact> 0.13383187E+01</totfact>
</mgrwt>
</event>
<event>
 8    1  0.2682466E-027  0.2031228E+04  0.7818608E-02  0.8592158E-01
         -2   -1    0    0    0  501 -0.00000000000E+00  0.00000000000E+00  0.12836679648E+04  0.12836679648E+04  0.25500000000E-02 0. -1.
          2   -1    0    0  501    0  0.00000000000E+00 -0.00000000000E+00 -0.80353457268E+03  0.80353457268E+03  0.25500000000E-02 0.  1.
     200001    2    1    2    0    0  0.69634948092E+03 -0.19687827823E+03  0.37719441513E+03  0.10751451829E+04  0.69999848674E+03 0.  0.
    5000001    2    3    3    0    0  0.57248662303E+02  0.32457093520E+02  0.41559787299E+02  0.16756864479E+03  0.14839529150E+03 0.  0.
        -13    1    4    4    0    0 -0.21540509439E+02 -0.22420829792E+02 -0.30712762743E+02  0.43703227739E+02  0.10566000000E+00 0. -1.
     200003    1    4    4    0    0  0.78789171741E+02  0.54877923312E+02  0.72272550042E+02  0.12386541705E+03  0.30000000000E+02 0. -1.
     200000    1    3    3    0    0  0.63910081862E+03 -0.22933537175E+03  0.33563462783E+03  0.90757653809E+03  0.50000000000E+03 0. -1.
    -200001    1    1    2    0    0 -0.69634948092E+03  0.19687827823E+03  0.10293897699E+03  0.10120573546E+04  0.70000000000E+03 0. -1.
<mgrwt>
<rscale>  0 0.20312278E+04</rscale>
<asrwt>0</asrwt>
<pdfrwt beam="1">  1        2 0.11479065E+00 0.20312278E+04</pdfrwt>
<pdfrwt beam="2">  1       -2 0.18338114E+00 0.20312278E+04</pdfrwt>
<totfact> 0.60397277E+00</totfact>
</mgrwt>
</event>
<event>
 8    1  0.2682466E-027  0.1600928E+04  0.7818608E-02  0.8819978E-01
          2   -1    0    0  501    0  0.00000000000E+00  0.00000000000E+00  0.26536658744E+04  0.26536658744E+04  0.25500000000E-02 0.  1.
         -2   -1    0    0    0  501 -0.00000000000E+00 -0.00000000000E+00 -0.24145551883E+03  0.24145551884E+03  0.25500000000E-02 0. -1.
     200001    2    1    2    0    0 -0.21219148608E+03  0.14446593028E+03  0.17325005016E+04  0.18862105363E+04  0.70024036388E+03 0.  0.
    5000001    2    3    3    0    0 -0.84556717956E+02  0.10829574444E+03  0.42647303512E+03  0.48146619666E+03  0.17621759853E+03 0.  0.
        -13    1    4    4    0    0 -0.10466140346E+03  0.10759740665E+03  0.41832225062E+03  0.44443754096E+03  0.10566000000E+00 0. -1.
     200003    1    4    4    0    0  0.20104685503E+02  0.69833778904E+00  0.81507844998E+01  0.37028655698E+02  0.30000000000E+02 0. -1.
     200000    1    3    3    0    0 -0.12763476813E+03  0.36170185845E+02  0.13060274665E+04  0.14047443396E+04  0.50000000000E+03 0.  1.
    -200001    1    1    2    0    0  0.21219148608E+03 -0.14446593028E+03  0.67970985397E+03  0.10089108570E+04  0.70000000000E+03 0. -1.
<mgrwt>
<rscale>  0 0.16009276E+04</rscale>
<asrwt>0</asrwt>
<pdfrwt beam="1">  1        2 0.37909510E+00 0.16009276E+04</pdfrwt>
<pdfrwt beam="2">  1       -2 0.34493648E-01 0.16009276E+04</pdfrwt>
<totfact> 0.27681043E+01</totfact>
</mgrwt>
</event>
<event>
 8    1  0.2682466E-027  0.1542855E+04  0.7818608E-02  0.8856445E-01
         -2   -1    0    0    0  501 -0.00000000000E+00  0.00000000000E+00  0.38845927266E+03  0.38845927267E+03  0.25500000000E-02 0. -1.
          2   -1    0    0  501    0  0.00000000000E+00 -0.00000000000E+00 -0.15319498428E+04  0.15319498428E+04  0.25500000000E-02 0.  1.
     200001    2    1    2    0    0  0.48884202053E+02  0.30880922067E+03 -0.46504459370E+03  0.89667001641E+03  0.69999846015E+03 0.  0.
    5000001    2    3    3    0    0 -0.72643275847E+01  0.19806272077E+03 -0.18180795672E+03  0.30875808666E+03  0.15164369797E+03 0.  0.
        -13    1    4    4    0    0 -0.58836096751E+02  0.12077804736E+03 -0.15962212693E+03  0.20863426750E+03  0.10566000000E+00 0. -1.
     200003    1    4    4    0    0  0.51571769166E+02  0.77284673408E+02 -0.22185829793E+02  0.10012381916E+03  0.30000000000E+02 0. -1.
     200000    1    3    3    0    0  0.56148529637E+02  0.11074649991E+03 -0.28323663698E+03  0.58791192976E+03  0.50000000000E+03 0. -1.
    -200001    1    1    2    0    0 -0.48884202053E+02 -0.30880922067E+03 -0.67844597639E+03  0.10237390990E+04  0.70000000000E+03 0.  1.
<mgrwt>
<rscale>  0 0.15428547E+04</rscale>
<asrwt>0</asrwt>
<pdfrwt beam="1">  1        2 0.21884997E+00 0.15428547E+04</pdfrwt>
<pdfrwt beam="2">  1       -2 0.55494183E-01 0.15428547E+04</pdfrwt>
<totfact> 0.41379427E+01</totfact>
</mgrwt>
</event>
<event>
 8    1  0.2682466E-027  0.2759891E+04  0.7818608E-02  0.8315830E-01
         -2   -1    0    0    0  501 -0.00000000000E+00  0.00000000000E+00  0.70526361818E+03  0.70526361819E+03  0.25500000000E-02 0. -1.
          2   -1    0    0  501    0  0.00000000000E+00 -0.00000000000E+00 -0.27000528905E+04  0.27000528905E+04  0.25500000000E-02 0.  1.
     200001    2    1    2    0    0 -0.11129236125E+04  0.34138882639E+02 -0.15127447247E+04  0.20045555096E+04  0.70005839659E+03 0.  0.
    5000001    2    3    3    0    0 -0.22815305093E+03  0.10603699732E+02 -0.36593275747E+03  0.47205737275E+03  0.19174234556E+03 0.  0.
        -13    1    4    4    0    0 -0.56495882960E+02  0.90304966829E+02 -0.13572772034E+03  0.17253636445E+03  0.10566000000E+00 0. -1.
     200003    1    4    4    0    0 -0.17165716797E+03 -0.79701267096E+02 -0.23020503714E+03  0.29952100830E+03  0.30000000000E+02 0. -1.
     200000    1    3    3    0    0 -0.88477056154E+03  0.23535182907E+02 -0.11468119672E+04  0.15324981369E+04  0.50000000000E+03 0.  1.
    -200001    1    1    2    0    0  0.11129236125E+04 -0.34138882639E+02 -0.48204454758E+03  0.14007609990E+04  0.70000000000E+03 0. -1.
<mgrwt>
<rscale>  0 0.27598906E+04</rscale>
<asrwt>0</asrwt>
<pdfrwt beam="1">  1        2 0.38572184E+00 0.27598906E+04</pdfrwt>
<pdfrwt beam="2">  1       -2 0.10075195E+00 0.27598906E+04</pdfrwt>
<totfact> 0.24575045E+00</totfact>
</mgrwt>
</event>
<event>
 8    1  0.2682466E-027  0.1927959E+04  0.7818608E-02  0.8641063E-01
          2   -1    0    0  501    0  0.00000000000E+00  0.00000000000E+00  0.30305654090E+04  0.30305654090E+04  0.25500000000E-02 0.  1.
         -2   -1    0    0    0  501 -0.00000000000E+00 -0.00000000000E+00 -0.30662810205E+03  0.30662810206E+03  0.25500000000E-02 0. -1.
     200001    2    1    2    0    0  0.56135548733E+03  0.12555917902E+03  0.19317151659E+04  0.21336566353E+04  0.70005861512E+03 0.  0.
    5000001    2    3    3    0    0  0.12724603424E+03  0.10853977169E+03  0.51961445220E+03  0.57392297114E+03  0.17724548682E+03 0.  0.
        -13    1    4    4    0    0  0.29267366456E+02 -0.44438242860E+02  0.17882420146E+03  0.18657288752E+03  0.10566000000E+00 0. -1.
     200003    1    4    4    0    0  0.97978667785E+02  0.15297801455E+03  0.34079025074E+03  0.38735008362E+03  0.30000000000E+02 0. -1.
     200000    1    3    3    0    0  0.43410945309E+03  0.17019407329E+02  0.14121007137E+04  0.15597336641E+04  0.50000000000E+03 0. -1.
    -200001    1    1    2    0    0 -0.56135548733E+03 -0.12555917902E+03  0.79222214111E+03  0.12035368758E+04  0.70000000000E+03 0. -1.
<mgrwt>
<rscale>  0 0.19279590E+04</rscale>
<asrwt>0</asrwt>
<pdfrwt beam="1">  1        2 0.43293792E+00 0.19279590E+04</pdfrwt>
<pdfrwt beam="2">  1       -2 0.43804014E-01 0.19279590E+04</pdfrwt>
<totfact> 0.10520493E+01</totfact>
</mgrwt>
</event>
<event>
 8    1  0.2682466E-027  0.1667025E+04  0.7818608E-02  0.8780398E-01
         -2   -1    0    0    0  501 -0.00000000000E+00  0.00000000000E+00  0.57856405706E+03  0.57856405707E+03  0.25500000000E-02 0. -1.
          2   -1    0    0  501    0  0.00000000000E+00 -0.00000000000E+00 -0.12008058731E+04  0.12008058731E+04  0.25500000000E-02 0.  1.
     200001    2    1    2    0    0 -0.17307033834E+03  0.11275774544E+03  0.10744432343E+03  0.74732850016E+03  0.71013234917E+03 0.  0.
    5000001    2    3    3    0    0 -0.99320057777E+02  0.20145910771E+00 -0.14302844601E+02  0.21541648262E+03  0.19061787733E+03 0.  0.
        -13    1    4    4    0    0 -0.15364376419E+02  0.74410357791E+02 -0.53554682189E+02  0.92957412603E+02  0.10566000000E+00 0. -1.
     200003    1    4    4    0    0 -0.83955681358E+02 -0.74208898683E+02  0.39251837589E+02  0.12245907002E+03  0.30000000000E+02 0. -1.
     200000    1    3    3    0    0 -0.73750280564E+02  0.11255628633E+03  0.12174716803E+03  0.53191201754E+03  0.50000000000E+03 0. -1.
    -200001    1    1    2    0    0  0.17307033834E+03 -0.11275774544E+03 -0.72968613951E+03  0.10320414301E+04  0.70000000000E+03 0.  1.
<mgrwt>
<rscale>  0 0.16670250E+04</rscale>
<asrwt>0</asrwt>
<pdfrwt beam="1">  1        2 0.17154369E+00 0.16670250E+04</pdfrwt>
<pdfrwt beam="2">  1       -2 0.82652009E-01 0.16670250E+04</pdfrwt>
<totfact> 0.26222400E+01</totfact>
</mgrwt>
</event>
<event>
 8    1  0.2682466E-027  0.1669243E+04  0.7818608E-02  0.8779103E-01
         -2   -1    0    0    0  501 -0.00000000000E+00  0.00000000000E+00  0.63458965240E+03  0.63458965240E+03  0.25500000000E-02 0. -1.
          2   -1    0    0  501    0  0.00000000000E+00 -0.00000000000E+00 -0.10977069024E+04  0.10977069024E+04  0.25500000000E-02 0.  1.
     200001    2    1    2    0    0  0.14376040980E+03  0.76106693788E+02  0.20879731247E+03  0.74846300000E+03  0.70010089303E+03 0.  0.
    5000001    2    3    3    0    0 -0.39120391016E+02 -0.22558915511E+02  0.55228484927E+02  0.18564537896E+03  0.17139052342E+03 0.  0.
        -13    1    4    4    0    0 -0.10388042157E+02  0.27162075731E+02  0.10178830060E+03  0.10586103666E+03  0.10566000000E+00 0. -1.
     200003    1    4    4    0    0 -0.28732348859E+02 -0.49720991242E+02 -0.46559815678E+02  0.79784342305E+02  0.30000000000E+02 0. -1.
     200000    1    3    3    0    0  0.18288080081E+03  0.98665609299E+02  0.15356882754E+03  0.56281762104E+03  0.50000000000E+03 0. -1.
    -200001    1    1    2    0    0 -0.14376040980E+03 -0.76106693788E+02 -0.67191456242E+03  0.98383355475E+03  0.70000000000E+03 0.  1.
<mgrwt>
<rscale>  0 0.16692435E+04</rscale>
<asrwt>0</asrwt>
<pdfrwt beam="1">  1        2 0.15681527E+00 0.16692435E+04</pdfrwt>
<pdfrwt beam="2">  1       -2 0.90655665E-01 0.16692435E+04</pdfrwt>
<totfact> 0.24360906E+01</totfact>
</mgrwt>
</event>
<event>
 8    1  0.2682466E-027  0.1478870E+04  0.7818608E-02  0.8898627E-01
          2   -1    0    0  501    0  0.00000000000E+00  0.00000000000E+00  0.21750261052E+04  0.21750261052E+04  0.25500000000E-02 0.  1.
         -2   -1    0    0    0  501 -0.00000000000E+00 -0.00000000000E+00 -0.25138282081E+03  0.25138282083E+03  0.25500000000E-02 0. -1.
     200001    2    1    2    0    0  0.19731235543E+03 -0.60886418577E+02  0.76755453910E+03  0.10592291615E+04  0.70013364759E+03 0.  0.
    5000001    2    3    3    0    0 -0.21751726454E+02 -0.38115912465E+01  0.15231641641E+03  0.23475080793E+03  0.17725683423E+03 0.  0.
        -13    1    4    4    0    0  0.55420263840E+02  0.39549501199E+02  0.16797174825E+02  0.70126492393E+02  0.10566000000E+00 0. -1.
     200003    1    4    4    0    0 -0.77171990294E+02 -0.43361092446E+02  0.13551924159E+03  0.16462431553E+03  0.30000000000E+02 0. -1.
     200000    1    3    3    0    0  0.21906408188E+03 -0.57074827330E+02  0.61523812269E+03  0.82447835356E+03  0.50000000000E+03 0. -1.
    -200001    1    1    2    0    0 -0.19731235543E+03  0.60886418577E+02  0.11560887452E+04  0.13671797645E+04  0.70000000000E+03 0.  1.
<mgrwt>
<rscale>  0 0.14788701E+04</rscale>
<asrwt>0</asrwt>
<pdfrwt beam="1">  1        2 0.31071801E+00 0.14788701E+04</pdfrwt>
<pdfrwt beam="2">  1       -2 0.35911832E-01 0.14788701E+04</pdfrwt>
<totfact> 0.46055455E+01</totfact>
</mgrwt>
</event>
<event>
 8    1  0.2682466E-027  0.1440980E+04  0.7818608E-02  0.8924678E-01
         -2   -1    0    0    0  501 -0.00000000000E+00  0.00000000000E+00  0.27835130550E+03  0.27835130552E+03  0.25500000000E-02 0. -1.
          2   -1    0    0  501    0  0.00000000000E+00 -0.00000000000E+00 -0.18649313267E+04  0.18649313267E+04  0.25500000000E-02 0.  1.
     200001    2    1    2    0    0 -0.16254344302E+02 -0.15561568065E+03 -0.89539938725E+03  0.11471846890E+04  0.69986584726E+03 0.  0.
    5000001    2    3    3    0    0 -0.98195851091E+02 -0.32753491904E+02 -0.15735308997E+03  0.24356869482E+03  0.15443606370E+03 0.  0.
        -13    1    4    4    0    0  0.19330187656E+02  0.31076076465E+02 -0.75554676409E+02  0.83951765762E+02  0.10566000000E+00 0. -1.
     200003    1    4    4    0    0 -0.11752603875E+03 -0.63829568368E+02 -0.81798413559E+02  0.15961692906E+03  0.30000000000E+02 0. -1.
     200000    1    3    3    0    0  0.81941506789E+02 -0.12286218874E+03 -0.73804629728E+03  0.90361599415E+03  0.50000000000E+03 0.  1.
    -200001    1    1    2    0    0  0.16254344302E+02  0.15561568065E+03 -0.69118063392E+03  0.99609794321E+03  0.70000000000E+03 0. -1.
<mgrwt>
<rscale>  0 0.14409803E+04</rscale>
<asrwt>0</asrwt>
<pdfrwt beam="1">  1        2 0.26641875E+00 0.14409803E+04</pdfrwt>
<pdfrwt beam="2">  1       -2 0.39764473E-01 0.14409803E+04</pdfrwt>
<totfact> 0.54744507E+01</totfact>
</mgrwt>
</event>
<event>
 8    1  0.2682466E-027  0.1568074E+04  0.7818608E-02  0.8840405E-01
          2   -1    0    0  501    0  0.00000000000E+00  0.00000000000E+00  0.59860852504E+03  0.59860852505E+03  0.25500000000E-02 0.  1.
         -2   -1    0    0    0  501 -0.00000000000E+00 -0.00000000000E+00 -0.10269053152E+04  0.10269053152E+04  0.25500000000E-02 0. -1.
     200001    2    1    2    0    0  0.22194041247E+03 -0.76112042439E+02 -0.48742694508E+03  0.88487427548E+03  0.70026199877E+03 0.  0.
    5000001    2    3    3    0    0  0.61330004314E+01 -0.80409841146E+02 -0.91958680408E+02  0.21183158848E+03  0.17295336576E+03 0.  0.
        -13    1    4    4    0    0  0.68002327216E+02 -0.64544957406E+02 -0.10424445273E+03  0.14020444045E+03  0.10566000000E+00 0. -1.
     200003    1    4    4    0    0 -0.61869326785E+02 -0.15864883740E+02  0.12285772319E+02  0.71627148026E+02  0.30000000000E+02 0. -1.
     200000    1    3    3    0    0  0.21580741203E+03  0.42977987070E+01 -0.39546826467E+03  0.67304268700E+03  0.50000000000E+03 0.  1.
    -200001    1    1    2    0    0 -0.22194041247E+03  0.76112042439E+02  0.59130154924E+02  0.74063956478E+03  0.70000000000E+03 0.  1.
<mgrwt>
<rscale>  0 0.15680743E+04</rscale>
<asrwt>0</asrwt>
<pdfrwt beam="1">  1        2 0.85515504E-01 0.15680743E+04</pdfrwt>
<pdfrwt beam="2">  1       -2 0.14670076E+00 0.15680743E+04</pdfrwt>
<totfact> 0.16648074E+01</totfact>
</mgrwt>
</event>
<event>
 8    1  0.2682466E-027  0.1883442E+04  0.7818608E-02  0.8663143E-01
          2   -1    0    0  501    0  0.00000000000E+00  0.00000000000E+00  0.33413707187E+04  0.33413707187E+04  0.25500000000E-02 0.  1.
         -2   -1    0    0    0  501 -0.00000000000E+00 -0.00000000000E+00 -0.26541144091E+03  0.26541144092E+03  0.25500000000E-02 0. -1.
     200001    2    1    2    0    0 -0.21407574603E+02  0.38374009473E+02  0.33422299338E+03  0.77675588728E+03  0.69979557749E+03 0.  0.
    5000001    2    3    3    0    0  0.51895947554E+02 -0.11398433761E+03  0.73385228017E+02  0.18800907232E+03  0.11948389428E+03 0.  0.
        -13    1    4    4    0    0  0.85087686690E+02 -0.81264764188E+02  0.49074717648E+02  0.12748417706E+03  0.10566000000E+00 0. -1.
     200003    1    4    4    0    0 -0.33191739137E+02 -0.32719573424E+02  0.24310510369E+02  0.60524895261E+02  0.30000000000E+02 0. -1.
     200000    1    3    3    0    0 -0.73303522157E+02  0.15235834709E+03  0.26083776536E+03  0.58874681496E+03  0.50000000000E+03 0. -1.
    -200001    1    1    2    0    0  0.21407574603E+02 -0.38374009473E+02  0.27417362844E+04  0.28300262723E+04  0.70000000000E+03 0.  1.
<mgrwt>
<rscale>  0 0.18834415E+04</rscale>
<asrwt>0</asrwt>
<pdfrwt beam="1">  1        2 0.47733864E+00 0.18834415E+04</pdfrwt>
<pdfrwt beam="2">  1       -2 0.37915923E-01 0.18834415E+04</pdfrwt>
<totfact> 0.92862289E+00</totfact>
</mgrwt>
</event>
<event>
 8    1  0.2682466E-027  0.2306524E+04  0.7818608E-02  0.8475353E-01
         -2   -1    0    0    0  501 -0.00000000000E+00  0.00000000000E+00  0.69851591259E+03  0.69851591259E+03  0.25500000000E-02 0. -1.
          2   -1    0    0  501    0  0.00000000000E+00 -0.00000000000E+00 -0.19040558298E+04  0.19040558298E+04  0.25500000000E-02 0.  1.
     200001    2    1    2    0    0 -0.36996021534E+03 -0.83335395644E+03 -0.49640375963E+03  0.12519335719E+04  0.69969393183E+03 0.  0.
    5000001    2    3    3    0    0 -0.11630797732E+03 -0.69731650816E+02 -0.61455153924E+02  0.20951389965E+03  0.14740858011E+03 0.  0.
        -13    1    4    4    0    0 -0.34827930380E+02 -0.41500044208E+02  0.44167136465E+02  0.69899824831E+02  0.10566000000E+00 0. -1.
     200003    1    4    4    0    0 -0.81480046941E+02 -0.28231606607E+02 -0.10562229039E+03  0.13961407482E+03  0.30000000000E+02 0. -1.
     200000    1    3    3    0    0 -0.25365223802E+03 -0.76362230562E+03 -0.43494860570E+03  0.10424196723E+04  0.50000000000E+03 0. -1.
    -200001    1    1    2    0    0  0.36996021534E+03  0.83335395644E+03 -0.70913615763E+03  0.13506381705E+04  0.70000000000E+03 0.  1.
<mgrwt>
<rscale>  0 0.23065240E+04</rscale>
<asrwt>0</asrwt>
<pdfrwt beam="1">  1        2 0.27200797E+00 0.23065240E+04</pdfrwt>
<pdfrwt beam="2">  1       -2 0.99787989E-01 0.23065240E+04</pdfrwt>
<totfact> 0.67994911E+00</totfact>
</mgrwt>
</event>
<event>
 8    1  0.2682466E-027  0.1443714E+04  0.7818608E-02  0.8922770E-01
          2   -1    0    0  501    0  0.00000000000E+00  0.00000000000E+00  0.92598223611E+03  0.92598223611E+03  0.25500000000E-02 0.  1.
         -2   -1    0    0    0  501 -0.00000000000E+00 -0.00000000000E+00 -0.56272970517E+03  0.56272970517E+03  0.25500000000E-02 0. -1.
     200001    2    1    2    0    0 -0.51180370332E+02 -0.15566750956E+03  0.11935412936E+03  0.72954250424E+03  0.70081028350E+03 0.  0.
    5000001    2    3    3    0    0 -0.50830389649E+01 -0.15951294364E+03  0.11877538910E+03  0.22740697845E+03  0.11016407908E+03 0.  0.
        -13    1    4    4    0    0 -0.43031636712E+02 -0.11201322517E+03  0.10218942624E+03  0.15761146649E+03  0.10566000000E+00 0. -1.
     200003    1    4    4    0    0  0.37948597747E+02 -0.47499718466E+02  0.16585962859E+02  0.69795511957E+02  0.30000000000E+02 0. -1.
     200000    1    3    3    0    0 -0.46097331367E+02  0.38454340751E+01  0.57874025967E+00  0.50213552579E+03  0.50000000000E+03 0. -1.
    -200001    1    1    2    0    0  0.51180370332E+02  0.15566750956E+03  0.24389840158E+03  0.75916943704E+03  0.70000000000E+03 0.  1.
<mgrwt>
<rscale>  0 0.14437143E+04</rscale>
<asrwt>0</asrwt>
<pdfrwt beam="1">  1        2 0.13228318E+00 0.14437143E+04</pdfrwt>
<pdfrwt beam="2">  1       -2 0.80389958E-01 0.14437143E+04</pdfrwt>
<totfact> 0.41570688E+01</totfact>
</mgrwt>
</event>
<event>
 8    1  0.2682466E-027  0.1570797E+04  0.7818608E-02  0.8838692E-01
          2   -1    0    0  501    0  0.00000000000E+00  0.00000000000E+00  0.76006301880E+03  0.76006301880E+03  0.25500000000E-02 0.  1.
         -2   -1    0    0    0  501 -0.00000000000E+00 -0.00000000000E+00 -0.81157884297E+03  0.81157884298E+03  0.25500000000E-02 0. -1.
     200001    2    1    2    0    0 -0.36326930627E+02 -0.94703331411E+02 -0.36784448711E+03  0.79681788831E+03  0.69951469860E+03 0.  0.
    5000001    2    3    3    0    0  0.34140517123E+02  0.14955390693E+02 -0.76712055640E+02  0.20373375500E+03  0.18502287650E+03 0.  0.
        -13    1    4    4    0    0  0.14049580300E+02  0.54790316529E+02  0.43953397088E+02  0.71632965676E+02  0.10566000000E+00 0. -1.
     200003    1    4    4    0    0  0.20090936823E+02 -0.39834925836E+02 -0.12066545273E+03  0.13210078933E+03  0.30000000000E+02 0. -1.
     200000    1    3    3    0    0 -0.70467447750E+02 -0.10965872210E+03 -0.29113243147E+03  0.59308413331E+03  0.50000000000E+03 0. -1.
    -200001    1    1    2    0    0  0.36326930627E+02  0.94703331411E+02  0.31632866293E+03  0.77482397347E+03  0.70000000000E+03 0.  1.
<mgrwt>
<rscale>  0 0.15707973E+04</rscale>
<asrwt>0</asrwt>
<pdfrwt beam="1">  1        2 0.10858043E+00 0.15707973E+04</pdfrwt>
<pdfrwt beam="2">  1       -2 0.11593983E+00 0.15707973E+04</pdfrwt>
<totfact> 0.22600544E+01</totfact>
</mgrwt>
</event>
<event>
 8    1  0.2682466E-027  0.2107774E+04  0.7818608E-02  0.8557826E-01
          2   -1    0    0  501    0  0.00000000000E+00  0.00000000000E+00  0.11323735893E+04  0.11323735893E+04  0.25500000000E-02 0.  1.
         -2   -1    0    0    0  501 -0.00000000000E+00 -0.00000000000E+00 -0.98084074325E+03  0.98084074325E+03  0.25500000000E-02 0. -1.
     200001    2    1    2    0    0  0.84671063871E+02 -0.52255331950E+00  0.86113231396E+03  0.11128639604E+04  0.69981988409E+03 0.  0.
    5000001    2    3    3    0    0 -0.67042453565E+02  0.47053005030E+02  0.18480799751E+03  0.25688790577E+03  0.15852042243E+03 0.  0.
        -13    1    4    4    0    0 -0.47284925578E+02 -0.32033504339E+02  0.51654250565E+01  0.57347208888E+02  0.10566000000E+00 0. -1.
     200003    1    4    4    0    0 -0.19757527987E+02  0.79086509369E+02  0.17964257245E+03  0.19954069688E+03  0.30000000000E+02 0. -1.
     200000    1    3    3    0    0  0.15171351744E+03 -0.47575558349E+02  0.67632431645E+03  0.85597605466E+03  0.50000000000E+03 0.  1.
    -200001    1    1    2    0    0 -0.84671063871E+02  0.52255331950E+00 -0.70959946792E+03  0.10003503721E+04  0.70000000000E+03 0. -1.
<mgrwt>
<rscale>  0 0.21077743E+04</rscale>
<asrwt>0</asrwt>
<pdfrwt beam="1">  1        2 0.16176765E+00 0.21077743E+04</pdfrwt>
<pdfrwt beam="2">  1       -2 0.14012011E+00 0.21077743E+04</pdfrwt>
<totfact> 0.77513467E+00</totfact>
</mgrwt>
</event>
<event>
 8    1  0.2682466E-027  0.1449280E+04  0.7818608E-02  0.8918900E-01
         -2   -1    0    0    0  501 -0.00000000000E+00  0.00000000000E+00  0.37096619988E+03  0.37096619989E+03  0.25500000000E-02 0. -1.
          2   -1    0    0  501    0  0.00000000000E+00 -0.00000000000E+00 -0.14155015147E+04  0.14155015147E+04  0.25500000000E-02 0.  1.
     200001    2    1    2    0    0 -0.12466027517E+03 -0.96415202139E+02 -0.39803522608E+03  0.82065280471E+03  0.70014492020E+03 0.  0.
    5000001    2    3    3    0    0 -0.87573629133E+02  0.16022514460E+02 -0.14935720712E+03  0.24981270754E+03  0.17936820242E+03 0.  0.
        -13    1    4    4    0    0 -0.52550254926E+02  0.80812372885E+02 -0.13966104030E+03  0.16969792647E+03  0.10566000000E+00 0. -1.
     200003    1    4    4    0    0 -0.35023374208E+02 -0.64789858425E+02 -0.96961668161E+01  0.80114781074E+02  0.30000000000E+02 0. -1.
     200000    1    3    3    0    0 -0.37086646038E+02 -0.11243771660E+03 -0.24867801896E+03  0.57084009717E+03  0.50000000000E+03 0. -1.
    -200001    1    1    2    0    0  0.12466027517E+03  0.96415202139E+02 -0.64650008878E+03  0.96581490991E+03  0.70000000000E+03 0.  1.
<mgrwt>
<rscale>  0 0.14492801E+04</rscale>
<asrwt>0</asrwt>
<pdfrwt beam="1">  1        2 0.20221450E+00 0.14492801E+04</pdfrwt>
<pdfrwt beam="2">  1       -2 0.52995172E-01 0.14492801E+04</pdfrwt>
<totfact> 0.52907876E+01</totfact>
</mgrwt>
</event>
<event>
 8    1  0.2682466E-027  0.1787755E+04  0.7818608E-02  0.8712839E-01
         -2   -1    0    0    0  501 -0.00000000000E+00  0.00000000000E+00  0.49765882591E+03  0.49765882591E+03  0.25500000000E-02 0. -1.
          2   -1    0    0  501    0  0.00000000000E+00 -0.00000000000E+00 -0.16055511002E+04  0.16055511002E+04  0.25500000000E-02 0.  1.
     200001    2    1    2    0    0  0.39393313173E+03  0.35604975102E+03 -0.35899496921E+03  0.94873952328E+03  0.69948163496E+03 0.  0.
    5000001    2    3    3    0    0  0.17464977380E+03  0.13274363268E+03 -0.12629547657E+03  0.31462607332E+03  0.18685717300E+03 0.  0.
        -13    1    4    4    0    0  0.61075509341E+02 -0.19413672633E+02  0.26221771667E+02  0.69243779502E+02  0.10566000000E+00 0. -1.
     200003    1    4    4    0    0  0.11357426446E+03  0.15215730532E+03 -0.15251724824E+03  0.24538229382E+03  0.30000000000E+02 0. -1.
     200000    1    3    3    0    0  0.21928335794E+03  0.22330611834E+03 -0.23269949263E+03  0.63411344996E+03  0.50000000000E+03 0. -1.
    -200001    1    1    2    0    0 -0.39393313173E+03 -0.35604975102E+03 -0.74889730512E+03  0.11544704029E+04  0.70000000000E+03 0.  1.
<mgrwt>
<rscale>  0 0.17877547E+04</rscale>
<asrwt>0</asrwt>
<pdfrwt beam="1">  1        2 0.22936444E+00 0.17877547E+04</pdfrwt>
<pdfrwt beam="2">  1       -2 0.71094119E-01 0.17877547E+04</pdfrwt>
<totfact> 0.21888852E+01</totfact>
</mgrwt>
</event>
<event>
 8    1  0.2682466E-027  0.1408677E+04  0.7818608E-02  0.8947562E-01
         -2   -1    0    0    0  501 -0.00000000000E+00  0.00000000000E+00  0.75622322848E+03  0.75622322849E+03  0.25500000000E-02 0. -1.
          2   -1    0    0  501    0  0.00000000000E+00 -0.00000000000E+00 -0.65601354945E+03  0.65601354945E+03  0.25500000000E-02 0.  1.
     200001    2    1    2    0    0  0.14281713387E+02  0.78035473110E+02  0.85604332983E+02  0.70760437836E+03  0.69791285420E+03 0.  0.
    5000001    2    3    3    0    0  0.35449350226E+02  0.42809417169E+02  0.72718263384E+02  0.20575281200E+03  0.18427417396E+03 0.  0.
        -13    1    4    4    0    0 -0.51353231120E+02 -0.40979336418E+02  0.98259466066E+01  0.66430570902E+02  0.10566000000E+00 0. -1.
     200003    1    4    4    0    0  0.86802581346E+02  0.83788753587E+02  0.62892316777E+02  0.13932224110E+03  0.30000000000E+02 0. -1.
     200000    1    3    3    0    0 -0.21167636840E+02  0.35226055941E+02  0.12886069600E+02  0.50185156636E+03  0.50000000000E+03 0.  1.
    -200001    1    1    2    0    0 -0.14281713387E+02 -0.78035473110E+02  0.14605346048E+02  0.70463239958E+03  0.70000000000E+03 0.  1.
<mgrwt>
<rscale>  0 0.14086769E+04</rscale>
<asrwt>0</asrwt>
<pdfrwt beam="1">  1        2 0.93716222E-01 0.14086769E+04</pdfrwt>
<pdfrwt beam="2">  1       -2 0.10803189E+00 0.14086769E+04</pdfrwt>
<totfact> 0.32597810E+01</totfact>
</mgrwt>
</event>
<event>
 8    1  0.2682466E-027  0.1556620E+04  0.7818608E-02  0.8847651E-01
          2   -1    0    0  501    0  0.00000000000E+00  0.00000000000E+00  0.44286082587E+03  0.44286082587E+03  0.25500000000E-02 0.  1.
         -2   -1    0    0    0  501 -0.00000000000E+00 -0.00000000000E+00 -0.13678477808E+04  0.13678477808E+04  0.25500000000E-02 0. -1.
     200001    2    1    2    0    0  0.17144139847E+03 -0.26551276178E+03 -0.60721966609E+03  0.97952557649E+03  0.70061790752E+03 0.  0.
    5000001    2    3    3    0    0  0.55077558614E+02 -0.10340820508E+03 -0.14685805314E+03  0.27118156034E+03  0.19556420061E+03 0.  0.
        -13    1    4    4    0    0  0.88226179602E+01 -0.98136059457E+02 -0.18102762529E+03  0.20610564532E+03  0.10566000000E+00 0. -1.
     200003    1    4    4    0    0  0.46254940654E+02 -0.52721456254E+01  0.34169572153E+02  0.65075915018E+02  0.30000000000E+02 0. -1.
     200000    1    3    3    0    0  0.11636383986E+03 -0.16210455670E+03 -0.46036161295E+03  0.70834401614E+03  0.50000000000E+03 0. -1.
    -200001    1    1    2    0    0 -0.17144139847E+03  0.26551276178E+03 -0.31776728882E+03  0.83118303016E+03  0.70000000000E+03 0.  1.
<mgrwt>
<rscale>  0 0.15566197E+04</rscale>
<asrwt>0</asrwt>
<pdfrwt beam="1">  1        2 0.63265833E-01 0.15566197E+04</pdfrwt>
<pdfrwt beam="2">  1       -2 0.19540682E+00 0.15566197E+04</pdfrwt>
<totfact> 0.10592912E+01</totfact>
</mgrwt>
</event>
<event>
 8    1  0.2682466E-027  0.1473961E+04  0.7818608E-02  0.8901955E-01
         -2   -1    0    0    0  501 -0.00000000000E+00  0.00000000000E+00  0.27050674875E+03  0.27050674876E+03  0.25500000000E-02 0. -1.
          2   -1    0    0  501    0  0.00000000000E+00 -0.00000000000E+00 -0.20078632604E+04  0.20078632604E+04  0.25500000000E-02 0.  1.
     200001    2    1    2    0    0 -0.78630997281E+02  0.21565001048E+03 -0.86581760567E+03  0.11372005102E+04  0.70064050220E+03 0.  0.
    5000001    2    3    3    0    0 -0.13315362515E+02  0.11310290368E+03 -0.21966842131E+03  0.31119154552E+03  0.18872306955E+03 0.  0.
        -13    1    4    4    0    0 -0.82479956399E+01 -0.40825603887E+02 -0.50867160987E+00  0.41653682618E+02  0.10566000000E+00 0. -1.
     200003    1    4    4    0    0 -0.50673668754E+01  0.15392850756E+03 -0.21915974970E+03  0.26953786290E+03  0.30000000000E+02 0. -1.
     200000    1    3    3    0    0 -0.65315634766E+02  0.10254710681E+03 -0.64614918436E+03  0.82600896467E+03  0.50000000000E+03 0. -1.
    -200001    1    1    2    0    0  0.78630997281E+02 -0.21565001048E+03 -0.87153890596E+03  0.11411694990E+04  0.70000000000E+03 0. -1.
<mgrwt>
<rscale>  0 0.14739614E+04</rscale>
<asrwt>0</asrwt>
<pdfrwt beam="1">  1        2 0.28683760E+00 0.14739614E+04</pdfrwt>
<pdfrwt beam="2">  1       -2 0.38643822E-01 0.14739614E+04</pdfrwt>
<totfact> 0.48745621E+01</totfact>
</mgrwt>
</event>
<event>
 8    1  0.2682466E-027  0.1436928E+04  0.7818608E-02  0.8927513E-01
         -2   -1    0    0    0  501 -0.00000000000E+00  0.00000000000E+00  0.25998756028E+03  0.25998756029E+03  0.25500000000E-02 0. -1.
          2   -1    0    0  501    0  0.00000000000E+00 -0.00000000000E+00 -0.19854440943E+04  0.19854440943E+04  0.25500000000E-02 0.  1.
     200001    2    1    2    0    0  0.43756754590E+02  0.12604726238E+03 -0.10033590611E+04  0.12309232385E+04  0.70045702770E+03 0.  0.
    5000001    2    3    3    0    0  0.30930531208E+02  0.51794384139E+02 -0.43513663950E+03  0.47029539103E+03  0.16791219075E+03 0.  0.
        -13    1    4    4    0    0  0.43413972797E+02  0.31397238836E+02 -0.42791555272E+03  0.43125664176E+03  0.10566000000E+00 0. -1.
     200003    1    4    4    0    0 -0.12483441589E+02  0.20397145303E+02 -0.72210867820E+01  0.39038749272E+02  0.30000000000E+02 0. -1.
     200000    1    3    3    0    0  0.12826223382E+02  0.74252878237E+02 -0.56822242161E+03  0.76062784747E+03  0.50000000000E+03 0. -1.
    -200001    1    1    2    0    0 -0.43756754590E+02 -0.12604726238E+03 -0.72209747292E+03  0.10145084161E+04  0.70000000000E+03 0.  1.
<mgrwt>
<rscale>  0 0.14369283E+04</rscale>
<asrwt>0</asrwt>
<pdfrwt beam="1">  1        2 0.28363486E+00 0.14369283E+04</pdfrwt>
<pdfrwt beam="2">  1       -2 0.37141081E-01 0.14369283E+04</pdfrwt>
<totfact> 0.54205822E+01</totfact>
</mgrwt>
</event>
<event>
 8    1  0.2682466E-027  0.1706502E+04  0.7818608E-02  0.8757665E-01
         -2   -1    0    0    0  501 -0.00000000000E+00  0.00000000000E+00  0.10070376817E+04  0.10070376817E+04  0.25500000000E-02 0. -1.
          2   -1    0    0  501    0  0.00000000000E+00 -0.00000000000E+00 -0.72294915110E+03  0.72294915111E+03  0.25500000000E-02 0.  1.
     200001    2    1    2    0    0  0.38574497822E+03  0.13470352503E+03  0.41269719523E+03  0.90932586966E+03  0.69972161207E+03 0.  0.
    5000001    2    3    3    0    0  0.78116335683E+02  0.43480596103E+02  0.45903524123E+01  0.18855669744E+03  0.16595129609E+03 0.  0.
        -13    1    4    4    0    0 -0.48861425517E+01 -0.13693429984E+02 -0.62268714480E+02  0.63943634404E+02  0.10566000000E+00 0. -1.
     200003    1    4    4    0    0  0.83002478235E+02  0.57174026087E+02  0.66859066893E+02  0.12461306303E+03  0.30000000000E+02 0. -1.
     200000    1    3    3    0    0  0.30762864254E+03  0.91222928922E+02  0.40810684282E+03  0.72076917222E+03  0.50000000000E+03 0. -1.
    -200001    1    1    2    0    0 -0.38574497822E+03 -0.13470352503E+03 -0.12860866461E+03  0.82066096318E+03  0.70000000000E+03 0.  1.
<mgrwt>
<rscale>  0 0.17065017E+04</rscale>
<asrwt>0</asrwt>
<pdfrwt beam="1">  1        2 0.10327845E+00 0.17065017E+04</pdfrwt>
<pdfrwt beam="2">  1       -2 0.14386253E+00 0.17065017E+04</pdfrwt>
<totfact> 0.13788144E+01</totfact>
</mgrwt>
</event>
<event>
 8    1  0.2682466E-027  0.1939329E+04  0.7818608E-02  0.8635524E-01
         -2   -1    0    0    0  501 -0.00000000000E+00  0.00000000000E+00  0.64630980168E+03  0.64630980168E+03  0.25500000000E-02 0. -1.
          2   -1    0    0  501    0  0.00000000000E+00 -0.00000000000E+00 -0.14547970268E+04  0.14547970268E+04  0.25500000000E-02 0.  1.
     200001    2    1    2    0    0  0.41630239514E+03 -0.11930715866E+03 -0.95982028195E+03  0.12641817564E+04  0.69954174800E+03 0.  0.
    5000001    2    3    3    0    0  0.53953116672E+02 -0.43042714154E+02 -0.26723148425E+03  0.33316483505E+03  0.18660795024E+03 0.  0.
        -13    1    4    4    0    0  0.56729696024E+02 -0.82816106880E+02 -0.26482340564E+03  0.28321054590E+03  0.10566000000E+00 0. -1.
     200003    1    4    4    0    0 -0.27765793519E+01  0.39773392726E+02 -0.24080786164E+01  0.49954289149E+02  0.30000000000E+02 0. -1.
     200000    1    3    3    0    0  0.36234927847E+03 -0.76264444509E+02 -0.69258879769E+03  0.93101692132E+03  0.50000000000E+03 0.  1.
    -200001    1    1    2    0    0 -0.41630239514E+03  0.11930715866E+03  0.15133305679E+03  0.83692507215E+03  0.70000000000E+03 0. -1.
<mgrwt>
<rscale>  0 0.19393293E+04</rscale>
<asrwt>0</asrwt>
<pdfrwt beam="1">  1        2 0.20782815E+00 0.19393293E+04</pdfrwt>
<pdfrwt beam="2">  1       -2 0.92329972E-01 0.19393293E+04</pdfrwt>
<totfact> 0.14428257E+01</totfact>
</mgrwt>
</event>
<event>
 8    1  0.2682466E-027  0.1568088E+04  0.7818608E-02  0.8840396E-01
          2   -1    0    0  501    0  0.00000000000E+00  0.00000000000E+00  0.35875412808E+04  0.35875412808E+04  0.25500000000E-02 0.  1.
         -2   -1    0    0    0  501 -0.00000000000E+00 -0.00000000000E+00 -0.17135004915E+03  0.17135004917E+03  0.25500000000E-02 0. -1.
     200001    2    1    2    0    0  0.27394843687E+03 -0.13996270950E+03  0.21240286585E+04  0.22574515471E+04  0.69996602725E+03 0.  0.
    5000001    2    3    3    0    0  0.11156496672E+03 -0.24717672877E+02  0.61543483121E+03  0.65573211301E+03  0.19536342393E+03 0.  0.
        -13    1    4    4    0    0  0.42850078521E+00 -0.87849979209E+02  0.33098027989E+03  0.34244088439E+03  0.10566000000E+00 0. -1.
     200003    1    4    4    0    0  0.11113646593E+03  0.63132306333E+02  0.28445455132E+03  0.31329122862E+03  0.30000000000E+02 0. -1.
     200000    1    3    3    0    0  0.16238347015E+03 -0.11524503662E+03  0.15085938273E+04  0.16017194341E+04  0.50000000000E+03 0.  1.
    -200001    1    1    2    0    0 -0.27394843687E+03  0.13996270950E+03  0.12921625731E+04  0.15014397828E+04  0.70000000000E+03 0.  1.
<mgrwt>
<rscale>  0 0.15680885E+04</rscale>
<asrwt>0</asrwt>
<pdfrwt beam="1">  1        2 0.51250586E+00 0.15680885E+04</pdfrwt>
<pdfrwt beam="2">  1       -2 0.24478580E-01 0.15680885E+04</pdfrwt>
<totfact> 0.15384018E+01</totfact>
</mgrwt>
</event>
<event>
 8    1  0.2682466E-027  0.1920663E+04  0.7818608E-02  0.8644639E-01
          2   -1    0    0  501    0  0.00000000000E+00  0.00000000000E+00  0.92939332428E+03  0.92939332428E+03  0.25500000000E-02 0.  1.
         -2   -1    0    0    0  501 -0.00000000000E+00 -0.00000000000E+00 -0.99229967295E+03  0.99229967295E+03  0.25500000000E-02 0. -1.
     200001    2    1    2    0    0 -0.63279892179E+03  0.57782834804E+02  0.13833804346E+03  0.95511520068E+03  0.69952433902E+03 0.  0.
    5000001    2    3    3    0    0 -0.24281990704E+03  0.82113087137E+02  0.33368630477E+02  0.31192458291E+03  0.17458354330E+03 0.  0.
        -13    1    4    4    0    0 -0.49307687002E+02  0.10192720076E+03  0.15675868286E+02  0.11430724502E+03  0.10566000000E+00 0. -1.
     200003    1    4    4    0    0 -0.19351222004E+03 -0.19814113624E+02  0.17692762192E+02  0.19761733790E+03  0.30000000000E+02 0. -1.
     200000    1    3    3    0    0 -0.38997901475E+03 -0.24330252333E+02  0.10496941298E+03  0.64319061777E+03  0.50000000000E+03 0.  1.
    -200001    1    1    2    0    0  0.63279892179E+03 -0.57782834804E+02 -0.20124439213E+03  0.96657779655E+03  0.70000000000E+03 0. -1.
<mgrwt>
<rscale>  0 0.19206631E+04</rscale>
<asrwt>0</asrwt>
<pdfrwt beam="1">  1        2 0.13277048E+00 0.19206631E+04</pdfrwt>
<pdfrwt beam="2">  1       -2 0.14175710E+00 0.19206631E+04</pdfrwt>
<totfact> 0.10151276E+01</totfact>
</mgrwt>
</event>
<event>
 8    1  0.2682466E-027  0.1693062E+04  0.7818608E-02  0.8765331E-01
         -2   -1    0    0    0  501 -0.00000000000E+00  0.00000000000E+00  0.15154798055E+04  0.15154798055E+04  0.25500000000E-02 0. -1.
          2   -1    0    0  501    0  0.00000000000E+00 -0.00000000000E+00 -0.47286330492E+03  0.47286330493E+03  0.25500000000E-02 0.  1.
     200001    2    1    2    0    0  0.10216764645E+03 -0.13894581797E+03  0.24523255765E+00  0.72095128912E+03  0.70001895176E+03 0.  0.
    5000001    2    3    3    0    0  0.63034731608E+01 -0.72644360753E+02 -0.38479877214E+02  0.20608678551E+03  0.18887595212E+03 0.  0.
        -13    1    4    4    0    0  0.85419852363E+02 -0.44189701933E+02 -0.61170386811E+02  0.11397854325E+03  0.10566000000E+00 0. -1.
     200003    1    4    4    0    0 -0.79116379202E+02 -0.28454658819E+02  0.22690509597E+02  0.92108242260E+02  0.30000000000E+02 0. -1.
     200000    1    3    3    0    0  0.95864173289E+02 -0.66301457217E+02  0.38725109772E+02  0.51486450361E+03  0.50000000000E+03 0.  1.
    -200001    1    1    2    0    0 -0.10216764645E+03  0.13894581797E+03  0.10423712680E+04  0.12673918213E+04  0.70000000000E+03 0. -1.
<mgrwt>
<rscale>  0 0.16930621E+04</rscale>
<asrwt>0</asrwt>
<pdfrwt beam="1">  1        2 0.67551901E-01 0.16930621E+04</pdfrwt>
<pdfrwt beam="2">  1       -2 0.21649711E+00 0.16930621E+04</pdfrwt>
<totfact> 0.71020257E+00</totfact>
</mgrwt>
</event>
<event>
 8    1  0.2682466E-027  0.1639695E+04  0.7818608E-02  0.8796526E-01
         -2   -1    0    0    0  501 -0.00000000000E+00  0.00000000000E+00  0.48070439025E+03  0.48070439026E+03  0.25500000000E-02 0. -1.
          2   -1    0    0  501    0  0.00000000000E+00 -0.00000000000E+00 -0.13982598121E+04  0.13982598121E+04  0.25500000000E-02 0.  1.
     200001    2    1    2    0    0  0.35082526418E+03 -0.12297078740E+03 -0.21900090756E+03  0.82247066712E+03  0.70021169672E+03 0.  0.
    5000001    2    3    3    0    0 -0.55643578069E+00 -0.22213746307E+02 -0.49014798858E+02  0.18019630398E+03  0.17197237370E+03 0.  0.
        -13    1    4    4    0    0  0.26312719175E+02 -0.75692992212E+02  0.21492699551E+02  0.82968280436E+02  0.10566000000E+00 0. -1.
     200003    1    4    4    0    0 -0.26869154955E+02  0.53479245905E+02 -0.70507498408E+02  0.97228023545E+02  0.30000000000E+02 0. -1.
     200000    1    3    3    0    0  0.35138169996E+03 -0.10075704110E+03 -0.16998610870E+03  0.64227436314E+03  0.50000000000E+03 0. -1.
    -200001    1    1    2    0    0 -0.35082526418E+03  0.12297078740E+03 -0.69855451425E+03  0.10564935352E+04  0.70000000000E+03 0.  1.
<mgrwt>
<rscale>  0 0.16396946E+04</rscale>
<asrwt>0</asrwt>
<pdfrwt beam="1">  1        2 0.19975140E+00 0.16396946E+04</pdfrwt>
<pdfrwt beam="2">  1       -2 0.68672056E-01 0.16396946E+04</pdfrwt>
<totfact> 0.30796244E+01</totfact>
</mgrwt>
</event>
<event>
 8    1  0.2682466E-027  0.2219029E+04  0.7818608E-02  0.8510549E-01
         -2   -1    0    0    0  501 -0.00000000000E+00  0.00000000000E+00  0.44896451244E+03  0.44896451245E+03  0.25500000000E-02 0. -1.
          2   -1    0    0  501    0  0.00000000000E+00 -0.00000000000E+00 -0.27419141681E+04  0.27419141682E+04  0.25500000000E-02 0.  1.
     200001    2    1    2    0    0 -0.64054797388E+03 -0.42747970868E+03 -0.17038848154E+04  0.19950367202E+04  0.69563456111E+03 0.  0.
    5000001    2    3    3    0    0 -0.22826500400E+03 -0.42855986228E+02 -0.64075793779E+03  0.69190533272E+03  0.11925060587E+03 0.  0.
        -13    1    4    4    0    0 -0.26924541897E+02 -0.42098586923E+02 -0.20410122604E+03  0.21012982561E+03  0.10566000000E+00 0. -1.
     200003    1    4    4    0    0 -0.20134046210E+03 -0.75739930526E+00 -0.43665671175E+03  0.48177550711E+03  0.30000000000E+02 0. -1.
     200000    1    3    3    0    0 -0.41228296988E+03 -0.38462372245E+03 -0.10631268776E+04  0.13031313875E+04  0.50000000000E+03 0.  1.
    -200001    1    1    2    0    0  0.64054797388E+03  0.42747970868E+03 -0.58906484031E+03  0.11958419604E+04  0.70000000000E+03 0. -1.
<mgrwt>
<rscale>  0 0.22190288E+04</rscale>
<asrwt>0</asrwt>
<pdfrwt beam="1">  1        2 0.39170202E+00 0.22190288E+04</pdfrwt>
<pdfrwt beam="2">  1       -2 0.64137789E-01 0.22190288E+04</pdfrwt>
<totfact> 0.67395949E+00</totfact>
</mgrwt>
</event>
<event>
 8    1  0.2682466E-027  0.1413745E+04  0.7818608E-02  0.8943929E-01
          2   -1    0    0  501    0  0.00000000000E+00  0.00000000000E+00  0.29147074197E+04  0.29147074197E+04  0.25500000000E-02 0. -1.
         -2   -1    0    0    0  501 -0.00000000000E+00 -0.00000000000E+00 -0.17143018916E+03  0.17143018917E+03  0.25500000000E-02 0.  1.
     200001    2    1    2    0    0 -0.53425009623E+02 -0.56230042744E+02  0.14964355734E+04  0.16541354555E+04  0.70059162880E+03 0.  0.
    5000001    2    3    3    0    0  0.14395811391E+02  0.18829717415E+01  0.50067532889E+03  0.53631827420E+03  0.19170477643E+03 0.  0.
        -13    1    4    4    0    0  0.88567553183E+02  0.28829312545E+02  0.15812848053E+03  0.18352102947E+03  0.10566000000E+00 0. -1.
     200003    1    4    4    0    0 -0.74171741792E+02 -0.26946340803E+02  0.34254684837E+03  0.35279724473E+03  0.30000000000E+02 0. -1.
     200000    1    3    3    0    0 -0.67820821014E+02 -0.58113014486E+02  0.99576024452E+03  0.11178171813E+04  0.50000000000E+03 0.  1.
    -200001    1    1    2    0    0  0.53425009623E+02  0.56230042744E+02  0.12468416571E+04  0.14320021534E+04  0.70000000000E+03 0.  1.
<mgrwt>
<rscale>  0 0.14137452E+04</rscale>
<asrwt>0</asrwt>
<pdfrwt beam="1">  1        2 0.41638678E+00 0.14137452E+04</pdfrwt>
<pdfrwt beam="2">  1       -2 0.24490027E-01 0.14137452E+04</pdfrwt>
<totfact> 0.38355826E+01</totfact>
</mgrwt>
</event>
<event>
 8    1  0.2682466E-027  0.1819356E+04  0.7818608E-02  0.8696073E-01
         -2   -1    0    0    0  501 -0.00000000000E+00  0.00000000000E+00  0.18283956386E+04  0.18283956386E+04  0.25500000000E-02 0. -1.
          2   -1    0    0  501    0  0.00000000000E+00 -0.00000000000E+00 -0.45259050448E+03  0.45259050448E+03  0.25500000000E-02 0.  1.
     200001    2    1    2    0    0 -0.91130086588E+02 -0.41869070779E+03  0.19505273514E+03  0.84300741266E+03  0.69929201829E+03 0.  0.
    5000001    2    3    3    0    0 -0.48880963858E+02 -0.13887094168E+03 -0.46358791173E+02  0.21981914664E+03  0.15651464033E+03 0.  0.
        -13    1    4    4    0    0 -0.32977602073E+01 -0.11501855549E+03 -0.89919939233E+02  0.14603338648E+03  0.10566000000E+00 0. -1.
     200003    1    4    4    0    0 -0.45583203651E+02 -0.23852386185E+02  0.43561148060E+02  0.73785760158E+02  0.30000000000E+02 0. -1.
     200000    1    3    3    0    0 -0.42249122730E+02 -0.27981976611E+03  0.24141152632E+03  0.62318826603E+03  0.50000000000E+03 0.  1.
    -200001    1    1    2    0    0  0.91130086588E+02  0.41869070779E+03  0.11807523990E+04  0.14379787305E+04  0.70000000000E+03 0. -1.
<mgrwt>
<rscale>  0 0.18193565E+04</rscale>
<asrwt>0</asrwt>
<pdfrwt beam="1">  1        2 0.64655786E-01 0.18193565E+04</pdfrwt>
<pdfrwt beam="2">  1       -2 0.26119938E+00 0.18193565E+04</pdfrwt>
<totfact> 0.39022165E+00</totfact>
</mgrwt>
</event>
<event>
 8    1  0.2682466E-027  0.2010119E+04  0.7818608E-02  0.8601904E-01
         -2   -1    0    0    0  501 -0.00000000000E+00  0.00000000000E+00  0.77034089598E+03  0.77034089599E+03  0.25500000000E-02 0. -1.
          2   -1    0    0  501    0  0.00000000000E+00 -0.00000000000E+00 -0.13112950627E+04  0.13112950627E+04  0.25500000000E-02 0.  1.
     200001    2    1    2    0    0  0.31887301946E+03  0.13229151927E+03  0.38408359494E+03  0.87131537756E+03  0.70177576951E+03 0.  0.
    5000001    2    3    3    0    0  0.46317110647E+02  0.10038442994E+03  0.14216083378E+03  0.25177408907E+03  0.17594936986E+03 0.  0.
        -13    1    4    4    0    0  0.20585866538E+02 -0.27386790282E+02 -0.21474785114E+02  0.40435031134E+02  0.10566000000E+00 0. -1.
     200003    1    4    4    0    0  0.25731244109E+02  0.12777122022E+03  0.16363561889E+03  0.21133905794E+03  0.30000000000E+02 0. -1.
     200000    1    3    3    0    0  0.27255590881E+03  0.31907089328E+02  0.24192276116E+03  0.61954128849E+03  0.50000000000E+03 0. -1.
    -200001    1    1    2    0    0 -0.31887301946E+03 -0.13229151927E+03 -0.92503776168E+03  0.12103205811E+04  0.70000000000E+03 0.  1.
<mgrwt>
<rscale>  0 0.20101186E+04</rscale>
<asrwt>0</asrwt>
<pdfrwt beam="1">  1        2 0.18732787E+00 0.20101186E+04</pdfrwt>
<pdfrwt beam="2">  1       -2 0.11004870E+00 0.20101186E+04</pdfrwt>
<totfact> 0.11321665E+01</totfact>
</mgrwt>
</event>
<event>
 8    1  0.2682466E-027  0.1733191E+04  0.7818608E-02  0.8742658E-01
         -2   -1    0    0    0  501 -0.00000000000E+00  0.00000000000E+00  0.87868440672E+03  0.87868440672E+03  0.25500000000E-02 0. -1.
          2   -1    0    0  501    0  0.00000000000E+00 -0.00000000000E+00 -0.85467286792E+03  0.85467286792E+03  0.25500000000E-02 0.  1.
     200001    2    1    2    0    0 -0.24496599028E+03 -0.26917503410E+03  0.36965929015E+03  0.87200026190E+03  0.70090864640E+03 0.  0.
    5000001    2    3    3    0    0 -0.57492990345E+02 -0.83368613009E+01  0.10432860849E+03  0.22116768073E+03  0.18616051475E+03 0.  0.
        -13    1    4    4    0    0  0.17926418503E+02  0.55243093379E+01 -0.46048300592E+02  0.49722546450E+02  0.10566000000E+00 0. -1.
     200003    1    4    4    0    0 -0.75419408848E+02 -0.13861170639E+02  0.15037690908E+03  0.17144513428E+03  0.30000000000E+02 0. -1.
     200000    1    3    3    0    0 -0.18747299994E+03 -0.26083817279E+03  0.26533068166E+03  0.65083258118E+03  0.50000000000E+03 0. -1.
    -200001    1    1    2    0    0  0.24496599028E+03  0.26917503410E+03 -0.34564775135E+03  0.86135701274E+03  0.70000000000E+03 0.  1.
<mgrwt>
<rscale>  0 0.17331910E+04</rscale>
<asrwt>0</asrwt>
<pdfrwt beam="1">  1        2 0.12209612E+00 0.17331910E+04</pdfrwt>
<pdfrwt beam="2">  1       -2 0.12552634E+00 0.17331910E+04</pdfrwt>
<totfact> 0.15738486E+01</totfact>
</mgrwt>
</event>
<event>
 8    1  0.2682466E-027  0.1591208E+04  0.7818608E-02  0.8825967E-01
          2   -1    0    0  501    0  0.00000000000E+00  0.00000000000E+00  0.11976259026E+04  0.11976259026E+04  0.25500000000E-02 0.  1.
         -2   -1    0    0    0  501 -0.00000000000E+00 -0.00000000000E+00 -0.52853393260E+03  0.52853393261E+03  0.25500000000E-02 0. -1.
     200001    2    1    2    0    0  0.21850315874E+03  0.30644421367E+03  0.35344439235E+03  0.87100775529E+03  0.70148405884E+03 0.  0.
    5000001    2    3    3    0    0  0.10296175083E+03  0.14119810919E+03  0.12331206759E+03  0.28481923707E+03  0.18809067924E+03 0.  0.
        -13    1    4    4    0    0  0.93544088477E+02  0.36425155167E+02 -0.22165105398E+02  0.10280365499E+03  0.10566000000E+00 0. -1.
     200003    1    4    4    0    0  0.94176623564E+01  0.10477295402E+03  0.14547717299E+03  0.18201558208E+03  0.30000000000E+02 0. -1.
     200000    1    3    3    0    0  0.11554140791E+03  0.16524610448E+03  0.23013232476E+03  0.58618851821E+03  0.50000000000E+03 0. -1.
    -200001    1    1    2    0    0 -0.21850315874E+03 -0.30644421367E+03  0.31564757760E+03  0.85515207988E+03  0.70000000000E+03 0.  1.
<mgrwt>
<rscale>  0 0.15912083E+04</rscale>
<asrwt>0</asrwt>
<pdfrwt beam="1">  1        2 0.17108941E+00 0.15912083E+04</pdfrwt>
<pdfrwt beam="2">  1       -2 0.75504847E-01 0.15912083E+04</pdfrwt>
<totfact> 0.32436431E+01</totfact>
</mgrwt>
</event>
<event>
 8    1  0.2682466E-027  0.1879930E+04  0.7818608E-02  0.8664911E-01
          2   -1    0    0  501    0  0.00000000000E+00  0.00000000000E+00  0.92975648930E+03  0.92975648930E+03  0.25500000000E-02 0.  1.
         -2   -1    0    0    0  501 -0.00000000000E+00 -0.00000000000E+00 -0.95028602941E+03  0.95028602942E+03  0.25500000000E-02 0. -1.
     200001    2    1    2    0    0  0.45704381524E+03  0.20596283933E+03  0.36712322522E+03  0.93580504503E+03  0.69974415294E+03 0.  0.
    5000001    2    3    3    0    0  0.18912011381E+03  0.46977185344E+02 -0.61206500291E+01  0.23840233614E+03  0.13720400187E+03 0.  0.
        -13    1    4    4    0    0  0.10443896185E+03  0.90113465012E+02 -0.12716376542E+02  0.13852671484E+03  0.10566000000E+00 0. -1.
     200003    1    4    4    0    0  0.84681151963E+02 -0.43136279667E+02  0.65957265133E+01  0.99875621297E+02  0.30000000000E+02 0. -1.
     200000    1    3    3    0    0  0.26792370142E+03  0.15898565399E+03  0.37324387525E+03  0.69740270889E+03  0.50000000000E+03 0.  1.
    -200001    1    1    2    0    0 -0.45704381524E+03 -0.20596283933E+03 -0.38765276534E+03  0.94423747368E+03  0.70000000000E+03 0. -1.
<mgrwt>
<rscale>  0 0.18799304E+04</rscale>
<asrwt>0</asrwt>
<pdfrwt beam="1">  1        2 0.13282236E+00 0.18799304E+04</pdfrwt>
<pdfrwt beam="2">  1       -2 0.13575515E+00 0.18799304E+04</pdfrwt>
<totfact> 0.11385367E+01</totfact>
</mgrwt>
</event>
<event>
 8    1  0.2682466E-027  0.1837904E+04  0.7818608E-02  0.8686398E-01
          2   -1    0    0  501    0  0.00000000000E+00  0.00000000000E+00  0.13758385411E+04  0.13758385411E+04  0.25500000000E-02 0.  1.
         -2   -1    0    0    0  501 -0.00000000000E+00 -0.00000000000E+00 -0.61378751532E+03  0.61378751533E+03  0.25500000000E-02 0. -1.
     200001    2    1    2    0    0  0.38833963992E+03  0.41389466353E+03  0.57575274010E+03  0.10693959115E+04  0.69999994956E+03 0.  0.
    5000001    2    3    3    0    0  0.66229245266E+02  0.61091237430E+02  0.53637267169E+02  0.20289147938E+03  0.17369382188E+03 0.  0.
        -13    1    4    4    0    0 -0.46002918364E+02  0.49216526238E+02  0.53637768974E+02  0.86113624807E+02  0.10566000000E+00 0. -1.
     200003    1    4    4    0    0  0.11223216363E+03  0.11874711193E+02 -0.50180549060E-03  0.11677785458E+03  0.30000000000E+02 0. -1.
     200000    1    3    3    0    0  0.32211039465E+03  0.35280342610E+03  0.52211547293E+03  0.86650443212E+03  0.50000000000E+03 0.  1.
    -200001    1    1    2    0    0 -0.38833963992E+03 -0.41389466353E+03  0.18629828571E+03  0.92023014496E+03  0.70000000000E+03 0. -1.
<mgrwt>
<rscale>  0 0.18379037E+04</rscale>
<asrwt>0</asrwt>
<pdfrwt beam="1">  1        2 0.19654836E+00 0.18379037E+04</pdfrwt>
<pdfrwt beam="2">  1       -2 0.87683931E-01 0.18379037E+04</pdfrwt>
<totfact> 0.18073880E+01</totfact>
</mgrwt>
</event>
<event>
 8    1  0.2682466E-027  0.1486701E+04  0.7818608E-02  0.8893345E-01
          2   -1    0    0  501    0  0.00000000000E+00  0.00000000000E+00  0.93939342514E+03  0.93939342514E+03  0.25500000000E-02 0.  1.
         -2   -1    0    0    0  501 -0.00000000000E+00 -0.00000000000E+00 -0.58822032949E+03  0.58822032949E+03  0.25500000000E-02 0. -1.
     200001    2    1    2    0    0 -0.23969510319E+01  0.39879902801E+02  0.42895277094E+03  0.82217358714E+03  0.70026621771E+03 0.  0.
    5000001    2    3    3    0    0  0.99892608531E+02  0.10368230209E+03  0.18715462793E+03  0.25384248460E+03  0.93169733431E+02 0.  0.
        -13    1    4    4    0    0  0.17267595463E+02  0.67733787326E+02  0.45873761658E+02  0.83608904856E+02  0.10566000000E+00 0. -1.
     200003    1    4    4    0    0  0.82625013068E+02  0.35948514761E+02  0.14128086627E+03  0.17023357975E+03  0.30000000000E+02 0. -1.
     200000    1    3    3    0    0 -0.10228955956E+03 -0.63802399286E+02  0.24179814301E+03  0.56833110254E+03  0.50000000000E+03 0.  1.
    -200001    1    1    2    0    0  0.23969510319E+01 -0.39879902801E+02 -0.77779675294E+02  0.70544016749E+03  0.70000000000E+03 0. -1.
<mgrwt>
<rscale>  0 0.14867015E+04</rscale>
<asrwt>0</asrwt>
<pdfrwt beam="1">  1        2 0.13419906E+00 0.14867015E+04</pdfrwt>
<pdfrwt beam="2">  1       -2 0.84031477E-01 0.14867015E+04</pdfrwt>
<totfact> 0.36754358E+01</totfact>
</mgrwt>
</event>
<event>
 8    1  0.2682466E-027  0.1775518E+04  0.7818608E-02  0.8719428E-01
          2   -1    0    0  501    0  0.00000000000E+00  0.00000000000E+00  0.95557623959E+03  0.95557623959E+03  0.25500000000E-02 0.  1.
         -2   -1    0    0    0  501 -0.00000000000E+00 -0.00000000000E+00 -0.82475441629E+03  0.82475441629E+03  0.25500000000E-02 0. -1.
     200001    2    1    2    0    0 -0.36061340713E+03  0.39185489026E+03 -0.50279586329E+02  0.88233844823E+03  0.70171277315E+03 0.  0.
    5000001    2    3    3    0    0 -0.19213031207E+02  0.13608679626E+02 -0.94381564740E+02  0.16709765169E+03  0.13586540659E+03 0.  0.
        -13    1    4    4    0    0  0.32826280363E+02  0.22188421221E+02 -0.98611016833E+02  0.10627339518E+03  0.10566000000E+00 0. -1.
     200003    1    4    4    0    0 -0.52039311570E+02 -0.85797415949E+01  0.42294520930E+01  0.60824256506E+02  0.30000000000E+02 0. -1.
     200000    1    3    3    0    0 -0.34140037593E+03  0.37824621063E+03  0.44101978411E+02  0.71524079654E+03  0.50000000000E+03 0.  1.
    -200001    1    1    2    0    0  0.36061340713E+03 -0.39185489026E+03  0.18110140963E+03  0.89799220765E+03  0.70000000000E+03 0. -1.
<mgrwt>
<rscale>  0 0.17755176E+04</rscale>
<asrwt>0</asrwt>
<pdfrwt beam="1">  1        2 0.13651089E+00 0.17755176E+04</pdfrwt>
<pdfrwt beam="2">  1       -2 0.11782206E+00 0.17755176E+04</pdfrwt>
<totfact> 0.15787275E+01</totfact>
</mgrwt>
</event>
<event>
 8    1  0.2682466E-027  0.1852845E+04  0.7818608E-02  0.8678691E-01
          2   -1    0    0  501    0  0.00000000000E+00  0.00000000000E+00  0.42072086926E+03  0.42072086927E+03  0.25500000000E-02 0.  1.
         -2   -1    0    0    0  501 -0.00000000000E+00 -0.00000000000E+00 -0.20399723100E+04  0.20399723100E+04  0.25500000000E-02 0. -1.
     200001    2    1    2    0    0  0.57107187967E+03 -0.13267337443E+03 -0.10052700895E+04  0.13603757634E+04  0.70450617365E+03 0.  0.
    5000001    2    3    3    0    0  0.13487096898E+03 -0.62898075648E+02 -0.22524656672E+03  0.33393700588E+03  0.19654913351E+03 0.  0.
        -13    1    4    4    0    0  0.10638259046E+03 -0.13156099252E+02 -0.82605165488E+01  0.10751086363E+03  0.10566000000E+00 0. -1.
     200003    1    4    4    0    0  0.28488378522E+02 -0.49741976396E+02 -0.21698605017E+03  0.22642614225E+03  0.30000000000E+02 0. -1.
     200000    1    3    3    0    0  0.43620091068E+03 -0.69775298787E+02 -0.78002352275E+03  0.10264387575E+04  0.50000000000E+03 0. -1.
    -200001    1    1    2    0    0 -0.57107187967E+03  0.13267337443E+03 -0.61398135124E+03  0.11003174159E+04  0.70000000000E+03 0.  1.
<mgrwt>
<rscale>  0 0.18528453E+04</rscale>
<asrwt>0</asrwt>
<pdfrwt beam="1">  1        2 0.60102982E-01 0.18528453E+04</pdfrwt>
<pdfrwt beam="2">  1       -2 0.29142461E+00 0.18528453E+04</pdfrwt>
<totfact> 0.27659683E+00</totfact>
</mgrwt>
</event>
<event>
 8    1  0.2682466E-027  0.1689479E+04  0.7818608E-02  0.8767388E-01
          2   -1    0    0  501    0  0.00000000000E+00  0.00000000000E+00  0.22475525029E+04  0.22475525029E+04  0.25500000000E-02 0.  1.
         -2   -1    0    0    0  501 -0.00000000000E+00 -0.00000000000E+00 -0.31749425221E+03  0.31749425222E+03  0.25500000000E-02 0. -1.
     200001    2    1    2    0    0  0.25664071548E+03 -0.23801534296E+02  0.36209836935E+03  0.82869161881E+03  0.69941661413E+03 0.  0.
    5000001    2    3    3    0    0  0.56676472951E+02  0.35040374763E+01  0.59969695915E+02  0.21061959400E+03  0.19375176924E+03 0.  0.
        -13    1    4    4    0    0  0.21725611780E+02 -0.26219750981E+02  0.12268527475E+03  0.12732307471E+03  0.10566000000E+00 0. -1.
     200003    1    4    4    0    0  0.34950861171E+02  0.29723788457E+02 -0.62715578836E+02  0.83296519288E+02  0.30000000000E+02 0. -1.
     200000    1    3    3    0    0  0.19996424253E+03 -0.27305571773E+02  0.30212867344E+03  0.61807202481E+03  0.50000000000E+03 0. -1.
    -200001    1    1    2    0    0 -0.25664071548E+03  0.23801534296E+02  0.15679598813E+04  0.17363551363E+04  0.70000000000E+03 0.  1.
<mgrwt>
<rscale>  0 0.16894792E+04</rscale>
<asrwt>0</asrwt>
<pdfrwt beam="1">  1        2 0.32107894E+00 0.16894792E+04</pdfrwt>
<pdfrwt beam="2">  1       -2 0.45356320E-01 0.16894792E+04</pdfrwt>
<totfact> 0.26297522E+01</totfact>
</mgrwt>
</event>
<event>
 8    1  0.2682466E-027  0.2788895E+04  0.7818608E-02  0.8306724E-01
         -2   -1    0    0    0  501 -0.00000000000E+00  0.00000000000E+00  0.97139394647E+03  0.97139394647E+03  0.25500000000E-02 0. -1.
          2   -1    0    0  501    0  0.00000000000E+00 -0.00000000000E+00 -0.20017452153E+04  0.20017452153E+04  0.25500000000E-02 0.  1.
     200001    2    1    2    0    0  0.48579960349E+03 -0.11019227231E+04 -0.58633120968E+03  0.15111580554E+04  0.69969953449E+03 0.  0.
    5000001    2    3    3    0    0  0.10644570452E+03 -0.24446892678E+03 -0.21427140513E+03  0.38529621147E+03  0.17732792038E+03 0.  0.
        -13    1    4    4    0    0  0.13122509603E+03 -0.22236554520E+03 -0.22122345787E+03  0.34000925134E+03  0.10566000000E+00 0. -1.
     200003    1    4    4    0    0 -0.24779391510E+02 -0.22103381574E+02  0.69520527398E+01  0.45286960131E+02  0.30000000000E+02 0. -1.
     200000    1    3    3    0    0  0.37935389897E+03 -0.85745379633E+03 -0.37205980456E+03  0.11258618440E+04  0.50000000000E+03 0.  1.
    -200001    1    1    2    0    0 -0.48579960349E+03  0.11019227231E+04 -0.44402005917E+03  0.14619811064E+04  0.70000000000E+03 0. -1.
<mgrwt>
<rscale>  0 0.27888945E+04</rscale>
<asrwt>0</asrwt>
<pdfrwt beam="1">  1        2 0.28596360E+00 0.27888945E+04</pdfrwt>
<pdfrwt beam="2">  1       -2 0.13877056E+00 0.27888945E+04</pdfrwt>
<totfact> 0.25812553E+00</totfact>
</mgrwt>
</event>
<event>
 8    1  0.2682466E-027  0.1874093E+04  0.7818608E-02  0.8667860E-01
          2   -1    0    0  501    0  0.00000000000E+00  0.00000000000E+00  0.96986498635E+03  0.96986498636E+03  0.25500000000E-02 0.  1.
         -2   -1    0    0    0  501 -0.00000000000E+00 -0.00000000000E+00 -0.90533865080E+03  0.90533865080E+03  0.25500000000E-02 0. -1.
     200001    2    1    2    0    0 -0.25829698641E+03  0.14759767360E+03 -0.51608706291E+03  0.91832625477E+03  0.69890975616E+03 0.  0.
    5000001    2    3    3    0    0 -0.63258062549E+02  0.89736637868E+02 -0.17139827071E+03  0.27785889046E+03  0.18914002525E+03 0.  0.
        -13    1    4    4    0    0  0.55592578526E+02 -0.81709268912E+01 -0.75052501893E+02  0.93756002676E+02  0.10566000000E+00 0. -1.
     200003    1    4    4    0    0 -0.11885064107E+03  0.97907564759E+02 -0.96345768816E+02  0.18410288778E+03  0.30000000000E+02 0. -1.
     200000    1    3    3    0    0 -0.19503892386E+03  0.57861035730E+02 -0.34468879220E+03  0.64046736431E+03  0.50000000000E+03 0. -1.
    -200001    1    1    2    0    0  0.25829698641E+03 -0.14759767360E+03  0.58061339847E+03  0.95687738239E+03  0.70000000000E+03 0.  1.
<mgrwt>
<rscale>  0 0.18740931E+04</rscale>
<asrwt>0</asrwt>
<pdfrwt beam="1">  1        2 0.13855214E+00 0.18740931E+04</pdfrwt>
<pdfrwt beam="2">  1       -2 0.12933409E+00 0.18740931E+04</pdfrwt>
<totfact> 0.12151944E+01</totfact>
</mgrwt>
</event>
<event>
 8    1  0.2682466E-027  0.1900307E+04  0.7818608E-02  0.8654704E-01
         -2   -1    0    0    0  501 -0.00000000000E+00  0.00000000000E+00  0.45454496236E+03  0.45454496237E+03  0.25500000000E-02 0. -1.
          2   -1    0    0  501    0  0.00000000000E+00 -0.00000000000E+00 -0.19861428182E+04  0.19861428182E+04  0.25500000000E-02 0.  1.
     200001    2    1    2    0    0 -0.80052865886E+02 -0.13083793567E+02  0.51327888672E+02  0.70799231985E+03  0.70145486371E+03 0.  0.
    5000001    2    3    3    0    0 -0.29904320137E+02  0.77171726291E+01  0.12249096378E+03  0.20004375937E+03  0.15511172212E+03 0.  0.
        -13    1    4    4    0    0 -0.56193934461E+02  0.58566206677E+02  0.10570480340E+03  0.13327143527E+03  0.10566000000E+00 0. -1.
     200003    1    4    4    0    0  0.26289614324E+02 -0.50849034048E+02  0.16786160387E+02  0.66772324098E+02  0.30000000000E+02 0. -1.
     200000    1    3    3    0    0 -0.50148545749E+02 -0.20800966196E+02 -0.71163075111E+02  0.50794856048E+03  0.50000000000E+03 0. -1.
    -200001    1    1    2    0    0  0.80052865886E+02  0.13083793567E+02 -0.15829257446E+04  0.17326954608E+04  0.70000000000E+03 0.  1.
<mgrwt>
<rscale>  0 0.19003065E+04</rscale>
<asrwt>0</asrwt>
<pdfrwt beam="1">  1        2 0.28373468E+00 0.19003065E+04</pdfrwt>
<pdfrwt beam="2">  1       -2 0.64934996E-01 0.19003065E+04</pdfrwt>
<totfact> 0.16766049E+01</totfact>
</mgrwt>
</event>
<event>
 8    1  0.2682466E-027  0.1636689E+04  0.7818608E-02  0.8798320E-01
         -2   -1    0    0    0  501 -0.00000000000E+00  0.00000000000E+00  0.27392470357E+03  0.27392470358E+03  0.25500000000E-02 0. -1.
          2   -1    0    0  501    0  0.00000000000E+00 -0.00000000000E+00 -0.24447878827E+04  0.24447878827E+04  0.25500000000E-02 0.  1.
     200001    2    1    2    0    0  0.10527048335E+03  0.36952238438E+03 -0.79286159631E+03  0.11260679211E+04  0.70126370565E+03 0.  0.
    5000001    2    3    3    0    0  0.86029205060E+01  0.17404346124E+03 -0.20012546681E+03  0.32052912857E+03  0.17978760567E+03 0.  0.
        -13    1    4    4    0    0 -0.12999722127E+02  0.14889212834E+03 -0.40627179623E+02  0.15488201169E+03  0.10566000000E+00 0. -1.
     200003    1    4    4    0    0  0.21602642633E+02  0.25151332903E+02 -0.15949828719E+03  0.16564711688E+03  0.30000000000E+02 0. -1.
     200000    1    3    3    0    0  0.96667562840E+02  0.19547892313E+03 -0.59273612950E+03  0.80553879255E+03  0.50000000000E+03 0. -1.
    -200001    1    1    2    0    0 -0.10527048335E+03 -0.36952238438E+03 -0.13780015829E+04  0.15926446652E+04  0.70000000000E+03 0.  1.
<mgrwt>
<rscale>  0 0.16366891E+04</rscale>
<asrwt>0</asrwt>
<pdfrwt beam="1">  1        2 0.34925540E+00 0.16366891E+04</pdfrwt>
<pdfrwt beam="2">  1       -2 0.39132102E-01 0.16366891E+04</pdfrwt>
<totfact> 0.27905696E+01</totfact>
</mgrwt>
</event>
<event>
 8    1  0.2682466E-027  0.1630231E+04  0.7818608E-02  0.8802188E-01
          2   -1    0    0  501    0  0.00000000000E+00  0.00000000000E+00  0.49587861495E+03  0.49587861496E+03  0.25500000000E-02 0.  1.
         -2   -1    0    0    0  501 -0.00000000000E+00 -0.00000000000E+00 -0.13398704581E+04  0.13398704581E+04  0.25500000000E-02 0. -1.
     200001    2    1    2    0    0 -0.41551898111E+03  0.23524392895E+02 -0.47507473742E+03  0.94170810554E+03  0.69850463791E+03 0.  0.
    5000001    2    3    3    0    0 -0.21939935866E+03 -0.65335049303E+01 -0.18839549142E+03  0.33215796517E+03  0.16327059555E+03 0.  0.
        -13    1    4    4    0    0 -0.13234996617E+03  0.38309180107E+02 -0.18370989567E+03  0.22963763576E+03  0.10566000000E+00 0. -1.
     200003    1    4    4    0    0 -0.87049392499E+02 -0.44842685037E+02 -0.46855957460E+01  0.10252032941E+03  0.30000000000E+02 0. -1.
     200000    1    3    3    0    0 -0.19611962245E+03  0.30057897825E+02 -0.28667924600E+03  0.60955014036E+03  0.50000000000E+03 0.  1.
    -200001    1    1    2    0    0  0.41551898111E+03 -0.23524392895E+02 -0.36891710574E+03  0.89404096754E+03  0.70000000000E+03 0.  1.
<mgrwt>
<rscale>  0 0.16302308E+04</rscale>
<asrwt>0</asrwt>
<pdfrwt beam="1">  1        2 0.70839803E-01 0.16302308E+04</pdfrwt>
<pdfrwt beam="2">  1       -2 0.19141006E+00 0.16302308E+04</pdfrwt>
<totfact> 0.98491802E+00</totfact>
</mgrwt>
</event>
<event>
 8    1  0.2682466E-027  0.1656054E+04  0.7818608E-02  0.8786833E-01
          2   -1    0    0  501    0  0.00000000000E+00  0.00000000000E+00  0.16249884112E+04  0.16249884112E+04  0.25500000000E-02 0.  1.
         -2   -1    0    0    0  501 -0.00000000000E+00 -0.00000000000E+00 -0.42192817656E+03  0.42192817656E+03  0.25500000000E-02 0. -1.
     200001    2    1    2    0    0  0.41264093644E+03 -0.15473205613E+03  0.56104970749E+03  0.99982916610E+03  0.70047629188E+03 0.  0.
    5000001    2    3    3    0    0  0.28273963913E+02 -0.40460690687E+02  0.29248610825E+02  0.16699765796E+03  0.15683192278E+03 0.  0.
        -13    1    4    4    0    0  0.11203752824E+02  0.46945104509E+02 -0.29123719043E+02  0.56369930722E+02  0.10566000000E+00 0. -1.
     200003    1    4    4    0    0  0.17070211090E+02 -0.87405795196E+02  0.58372329868E+02  0.11062772724E+03  0.30000000000E+02 0. -1.
     200000    1    3    3    0    0  0.38436697253E+03 -0.11427136544E+03  0.53180109666E+03  0.83283150813E+03  0.50000000000E+03 0.  1.
    -200001    1    1    2    0    0 -0.41264093644E+03  0.15473205613E+03  0.64201052714E+03  0.10470874216E+04  0.70000000000E+03 0.  1.
<mgrwt>
<rscale>  0 0.16560536E+04</rscale>
<asrwt>0</asrwt>
<pdfrwt beam="1">  1        2 0.23214120E+00 0.16560536E+04</pdfrwt>
<pdfrwt beam="2">  1       -2 0.60275454E-01 0.16560536E+04</pdfrwt>
<totfact> 0.30814011E+01</totfact>
</mgrwt>
</event>
<event>
 8    1  0.2682466E-027  0.1458004E+04  0.7818608E-02  0.8912870E-01
         -2   -1    0    0    0  501 -0.00000000000E+00  0.00000000000E+00  0.22384935279E+03  0.22384935281E+03  0.25500000000E-02 0. -1.
          2   -1    0    0  501    0  0.00000000000E+00 -0.00000000000E+00 -0.23741143600E+04  0.23741143600E+04  0.25500000000E-02 0.  1.
     200001    2    1    2    0    0  0.47150858262E+02 -0.83711483914E+02 -0.13931499482E+04  0.15623701494E+04  0.70064462434E+03 0.  0.
    5000001    2    3    3    0    0  0.24501195993E+02 -0.58425678261E+02 -0.22578095492E+03  0.29197542900E+03  0.17395040399E+03 0.  0.
        -13    1    4    4    0    0 -0.35160823123E+02 -0.11488155994E+02  0.13327966693E+02  0.39318024760E+02  0.10566000000E+00 0. -1.
     200003    1    4    4    0    0  0.59662019116E+02 -0.46937522268E+02 -0.23910892162E+03  0.25265740424E+03  0.30000000000E+02 0. -1.
     200000    1    3    3    0    0  0.22649662269E+02 -0.25285805652E+02 -0.11673689933E+04  0.12703947204E+04  0.50000000000E+03 0.  1.
    -200001    1    1    2    0    0 -0.47150858262E+02  0.83711483914E+02 -0.75711505896E+03  0.10355935634E+04  0.70000000000E+03 0. -1.
<mgrwt>
<rscale>  0 0.14580041E+04</rscale>
<asrwt>0</asrwt>
<pdfrwt beam="1">  1        2 0.33915918E+00 0.14580041E+04</pdfrwt>
<pdfrwt beam="2">  1       -2 0.31978480E-01 0.14580041E+04</pdfrwt>
<totfact> 0.45365783E+01</totfact>
</mgrwt>
</event>
<event>
 8    1  0.2682466E-027  0.1625748E+04  0.7818608E-02  0.8804884E-01
          2   -1    0    0  501    0  0.00000000000E+00  0.00000000000E+00  0.48063650647E+03  0.48063650648E+03  0.25500000000E-02 0.  1.
         -2   -1    0    0    0  501 -0.00000000000E+00 -0.00000000000E+00 -0.13747694576E+04  0.13747694576E+04  0.25500000000E-02 0. -1.
     200001    2    1    2    0    0 -0.39801603198E+02 -0.35155226273E+02  0.24524720270E+02  0.69922605821E+03  0.69677511510E+03 0.  0.
    5000001    2    3    3    0    0 -0.43701272828E+02 -0.29364040632E+02 -0.12389348821E+02  0.19781665088E+03  0.19027843618E+03 0.  0.
        -13    1    4    4    0    0  0.57875385821E+01  0.67086465741E+02 -0.44658418799E+02  0.80798979091E+02  0.10566000000E+00 0. -1.
     200003    1    4    4    0    0 -0.49488811410E+02 -0.96450506373E+02  0.32269069979E+02  0.11701767179E+03  0.30000000000E+02 0. -1.
     200000    1    3    3    0    0  0.38996696306E+01 -0.57911856409E+01  0.36914069090E+02  0.50140940732E+03  0.50000000000E+03 0.  1.
    -200001    1    1    2    0    0  0.39801603198E+02  0.35155226273E+02 -0.91865767144E+03  0.11561799059E+04  0.70000000000E+03 0. -1.
<mgrwt>
<rscale>  0 0.16257483E+04</rscale>
<asrwt>0</asrwt>
<pdfrwt beam="1">  1        2 0.68662359E-01 0.16257483E+04</pdfrwt>
<pdfrwt beam="2">  1       -2 0.19639563E+00 0.16257483E+04</pdfrwt>
<totfact> 0.94589044E+00</totfact>
</mgrwt>
</event>
<event>
 8    1  0.2682466E-027  0.1721020E+04  0.7818608E-02  0.8749466E-01
          2   -1    0    0  501    0  0.00000000000E+00  0.00000000000E+00  0.59873537155E+03  0.59873537156E+03  0.25500000000E-02 0.  1.
         -2   -1    0    0    0  501 -0.00000000000E+00 -0.00000000000E+00 -0.12367364893E+04  0.12367364893E+04  0.25500000000E-02 0. -1.
     200001    2    1    2    0    0 -0.50617801635E+02  0.47629393400E+03 -0.16505994258E+03  0.86434291546E+03  0.70030408927E+03 0.  0.
    5000001    2    3    3    0    0  0.44159604319E+02  0.84072397317E+02 -0.12191975979E+03  0.22038517935E+03  0.15712084778E+03 0.  0.
        -13    1    4    4    0    0 -0.47176386663E+02 -0.44828537836E+01 -0.10281286166E+02  0.48491478075E+02  0.10566000000E+00 0. -1.
     200003    1    4    4    0    0  0.91335990981E+02  0.88555251101E+02 -0.11163847362E+03  0.17189370128E+03  0.30000000000E+02 0. -1.
     200000    1    3    3    0    0 -0.94777405953E+02  0.39222153669E+03 -0.43140182794E+02  0.64395773611E+03  0.50000000000E+03 0.  1.
    -200001    1    1    2    0    0  0.50617801635E+02 -0.47629393400E+03 -0.47294117515E+03  0.97112894539E+03  0.70000000000E+03 0. -1.
<mgrwt>
<rscale>  0 0.17210205E+04</rscale>
<asrwt>0</asrwt>
<pdfrwt beam="1">  1        2 0.85533625E-01 0.17210205E+04</pdfrwt>
<pdfrwt beam="2">  1       -2 0.17667664E+00 0.17210205E+04</pdfrwt>
<totfact> 0.99011547E+00</totfact>
</mgrwt>
</event>
<event>
 8    1  0.2682466E-027  0.1502307E+04  0.7818608E-02  0.8882921E-01
          2   -1    0    0  501    0  0.00000000000E+00  0.00000000000E+00  0.63487317543E+03  0.63487317543E+03  0.25500000000E-02 0.  1.
         -2   -1    0    0    0  501 -0.00000000000E+00 -0.00000000000E+00 -0.88873065899E+03  0.88873065899E+03  0.25500000000E-02 0. -1.
     200001    2    1    2    0    0 -0.14221578188E+03 -0.21890463098E+03 -0.48224421648E+02  0.74872995938E+03  0.70009027357E+03 0.  0.
    5000001    2    3    3    0    0 -0.56457541910E+02 -0.56280759142E+02 -0.93844209347E+02  0.21405046244E+03  0.17508822620E+03 0.  0.
        -13    1    4    4    0    0  0.93639249977E+01 -0.48118601525E+02 -0.12545200866E+03  0.13468964528E+03  0.10566000000E+00 0. -1.
     200003    1    4    4    0    0 -0.65821466907E+02 -0.81621576166E+01  0.31607799315E+02  0.79360817160E+02  0.30000000000E+02 0. -1.
     200000    1    3    3    0    0 -0.85758239970E+02 -0.16262387184E+03  0.45619787698E+02  0.53467949694E+03  0.50000000000E+03 0.  1.
    -200001    1    1    2    0    0  0.14221578188E+03  0.21890463098E+03 -0.20563306191E+03  0.77487387505E+03  0.70000000000E+03 0. -1.
<mgrwt>
<rscale>  0 0.15023066E+04</rscale>
<asrwt>0</asrwt>
<pdfrwt beam="1">  1        2 0.90696169E-01 0.15023066E+04</pdfrwt>
<pdfrwt beam="2">  1       -2 0.12696152E+00 0.15023066E+04</pdfrwt>
<totfact> 0.22626814E+01</totfact>
</mgrwt>
</event>
<event>
 8    1  0.2682466E-027  0.1423821E+04  0.7818608E-02  0.8936754E-01
          2   -1    0    0  501    0  0.00000000000E+00  0.00000000000E+00  0.78090996971E+03  0.78090996971E+03  0.25500000000E-02 0. -1.
         -2   -1    0    0    0  501 -0.00000000000E+00 -0.00000000000E+00 -0.64900776189E+03  0.64900776189E+03  0.25500000000E-02 0.  1.
     200001    2    1    2    0    0 -0.11278937073E+03  0.56631817075E+02  0.41081245857E+02  0.71285633117E+03  0.70039123015E+03 0.  0.
    5000001    2    3    3    0    0 -0.10694913783E+03 -0.24040963145E+02  0.29687154041E+02  0.20622823176E+03  0.17214142577E+03 0.  0.
        -13    1    4    4    0    0 -0.32802158466E+00 -0.67698555360E+02  0.51665387326E+02  0.85161760242E+02  0.10566000000E+00 0. -1.
     200003    1    4    4    0    0 -0.10662111624E+03  0.43657592215E+02 -0.21978233285E+02  0.12106647152E+03  0.30000000000E+02 0. -1.
     200000    1    3    3    0    0 -0.58402329021E+01  0.80672780219E+02  0.11394091816E+02  0.50662809942E+03  0.50000000000E+03 0. -1.
    -200001    1    1    2    0    0  0.11278937073E+03 -0.56631817075E+02  0.90820961966E+02  0.71706140043E+03  0.70000000000E+03 0.  1.
<mgrwt>
<rscale>  0 0.14238211E+04</rscale>
<asrwt>0</asrwt>
<pdfrwt beam="1">  1        2 0.11155857E+00 0.14238211E+04</pdfrwt>
<pdfrwt beam="2">  1       -2 0.92715394E-01 0.14238211E+04</pdfrwt>
<totfact> 0.37658150E+01</totfact>
</mgrwt>
</event>
<event>
 8    1  0.2682466E-027  0.1738507E+04  0.7818608E-02  0.8739702E-01
          2   -1    0    0  501    0  0.00000000000E+00  0.00000000000E+00  0.63709050198E+03  0.63709050198E+03  0.25500000000E-02 0.  1.
         -2   -1    0    0    0  501 -0.00000000000E+00 -0.00000000000E+00 -0.11860195827E+04  0.11860195827E+04  0.25500000000E-02 0. -1.
     200001    2    1    2    0    0 -0.47388683415E+02 -0.51248731268E+03 -0.25409909549E+03  0.90560605028E+03  0.70047629153E+03 0.  0.
    5000001    2    3    3    0    0  0.17495286895E+02 -0.94884887377E+02 -0.16265887537E+03  0.24457425900E+03  0.15507879131E+03 0.  0.
        -13    1    4    4    0    0 -0.12200806140E+02 -0.28828281786E+02  0.25733018672E+02  0.40523189845E+02  0.10566000000E+00 0. -1.
     200003    1    4    4    0    0  0.29696093035E+02 -0.66056605591E+02 -0.18839189404E+03  0.20405106915E+03  0.30000000000E+02 0. -1.
     200000    1    3    3    0    0 -0.64883970310E+02 -0.41760242530E+03 -0.91440220127E+02  0.66103179128E+03  0.50000000000E+03 0.  1.
    -200001    1    1    2    0    0  0.47388683415E+02  0.51248731268E+03 -0.29482998523E+03  0.91750403441E+03  0.70000000000E+03 0. -1.
<mgrwt>
<rscale>  0 0.17385072E+04</rscale>
<asrwt>0</asrwt>
<pdfrwt beam="1">  1        2 0.91012929E-01 0.17385072E+04</pdfrwt>
<pdfrwt beam="2">  1       -2 0.16943137E+00 0.17385072E+04</pdfrwt>
<totfact> 0.10327629E+01</totfact>
</mgrwt>
</event>
<event>
 8    1  0.2682466E-027  0.1556674E+04  0.7818608E-02  0.8847616E-01
         -2   -1    0    0    0  501 -0.00000000000E+00  0.00000000000E+00  0.44630750698E+03  0.44630750698E+03  0.25500000000E-02 0. -1.
          2   -1    0    0  501    0  0.00000000000E+00 -0.00000000000E+00 -0.13573799512E+04  0.13573799512E+04  0.25500000000E-02 0.  1.
     200001    2    1    2    0    0 -0.17875204239E+03  0.28606553763E+03 -0.51812516576E+03  0.93294447192E+03  0.69867439900E+03 0.  0.
    5000001    2    3    3    0    0  0.63115063304E+01  0.85702051533E+02 -0.11493774890E+03  0.23512348002E+03  0.18624630999E+03 0.  0.
        -13    1    4    4    0    0  0.61138477466E+02 -0.17850640119E+02 -0.92190416438E+02  0.11205196485E+03  0.10566000000E+00 0. -1.
     200003    1    4    4    0    0 -0.54826971136E+02  0.10355269165E+03 -0.22747332464E+02  0.12307151517E+03  0.30000000000E+02 0. -1.
     200000    1    3    3    0    0 -0.18506354872E+03  0.20036348610E+03 -0.40318741686E+03  0.69782099190E+03  0.50000000000E+03 0.  1.
    -200001    1    1    2    0    0  0.17875204239E+03 -0.28606553763E+03 -0.39294727847E+03  0.87074298627E+03  0.70000000000E+03 0.  1.
<mgrwt>
<rscale>  0 0.15566745E+04</rscale>
<asrwt>0</asrwt>
<pdfrwt beam="1">  1        2 0.19391142E+00 0.15566745E+04</pdfrwt>
<pdfrwt beam="2">  1       -2 0.63758216E-01 0.15566745E+04</pdfrwt>
<totfact> 0.38283947E+01</totfact>
</mgrwt>
</event>
<event>
 8    1  0.2682466E-027  0.1496679E+04  0.7818608E-02  0.8886664E-01
          2   -1    0    0  501    0  0.00000000000E+00  0.00000000000E+00  0.13568222617E+04  0.13568222617E+04  0.25500000000E-02 0.  1.
         -2   -1    0    0    0  501 -0.00000000000E+00 -0.00000000000E+00 -0.41273795323E+03  0.41273795324E+03  0.25500000000E-02 0. -1.
     200001    2    1    2    0    0  0.13096550276E+03  0.21064264136E+03  0.58065048056E+03  0.94275526059E+03  0.70007872094E+03 0.  0.
    5000001    2    3    3    0    0 -0.41471529143E+02 -0.30274077387E+02  0.21170104115E+03  0.25435197458E+03  0.13130570688E+03 0.  0.
        -13    1    4    4    0    0 -0.25079957724E+02  0.44097582774E+02  0.12606425376E+03  0.13588895587E+03  0.10566000000E+00 0. -1.
     200003    1    4    4    0    0 -0.16391571419E+02 -0.74371660161E+02  0.85636787386E+02  0.11846301871E+03  0.30000000000E+02 0. -1.
     200000    1    3    3    0    0  0.17243703191E+03  0.24091671875E+03  0.36894943941E+03  0.68840328601E+03  0.50000000000E+03 0. -1.
    -200001    1    1    2    0    0 -0.13096550276E+03 -0.21064264136E+03  0.36343382792E+03  0.82680495436E+03  0.70000000000E+03 0. -1.
<mgrwt>
<rscale>  0 0.14966790E+04</rscale>
<asrwt>0</asrwt>
<pdfrwt beam="1">  1        2 0.19383176E+00 0.14966790E+04</pdfrwt>
<pdfrwt beam="2">  1       -2 0.58962563E-01 0.14966790E+04</pdfrwt>
<totfact> 0.45429587E+01</totfact>
</mgrwt>
</event>
<event>
 8    1  0.2682466E-027  0.1547496E+04  0.7818608E-02  0.8853469E-01
         -2   -1    0    0    0  501 -0.00000000000E+00  0.00000000000E+00  0.47270407853E+03  0.47270407854E+03  0.25500000000E-02 0. -1.
          2   -1    0    0  501    0  0.00000000000E+00 -0.00000000000E+00 -0.12665126717E+04  0.12665126717E+04  0.25500000000E-02 0.  1.
     200001    2    1    2    0    0 -0.64912944173E+02  0.14845045750E+03 -0.71954046484E+03  0.10168823516E+04  0.70004286136E+03 0.  0.
    5000001    2    3    3    0    0  0.15708495853E+02  0.38654681285E+02 -0.85015307082E+02  0.19762835866E+03  0.17346015243E+03 0.  0.
        -13    1    4    4    0    0 -0.45243106651E+02 -0.18450466286E+02  0.26121578988E+02  0.55404931716E+02  0.10566000000E+00 0. -1.
     200003    1    4    4    0    0  0.60951602504E+02  0.57105147572E+02 -0.11113688607E+03  0.14222342695E+03  0.30000000000E+02 0. -1.
     200000    1    3    3    0    0 -0.80621440026E+02  0.10979577621E+03 -0.63452515775E+03  0.81925399290E+03  0.50000000000E+03 0.  1.
    -200001    1    1    2    0    0  0.64912944173E+02 -0.14845045750E+03 -0.74268128350E+02  0.72233439870E+03  0.70000000000E+03 0. -1.
<mgrwt>
<rscale>  0 0.15474957E+04</rscale>
<asrwt>0</asrwt>
<pdfrwt beam="1">  1        2 0.18093038E+00 0.15474957E+04</pdfrwt>
<pdfrwt beam="2">  1       -2 0.67529154E-01 0.15474957E+04</pdfrwt>
<totfact> 0.38003954E+01</totfact>
</mgrwt>
</event>
<event>
 8    1  0.2682466E-027  0.2009966E+04  0.7818608E-02  0.8601975E-01
         -2   -1    0    0    0  501 -0.00000000000E+00  0.00000000000E+00  0.88068019891E+03  0.88068019891E+03  0.25500000000E-02 0. -1.
          2   -1    0    0  501    0  0.00000000000E+00 -0.00000000000E+00 -0.11468305004E+04  0.11468305004E+04  0.25500000000E-02 0.  1.
     200001    2    1    2    0    0  0.34921859857E+03 -0.58502940131E+03  0.10294877200E+03  0.98326592149E+03  0.70142739661E+03 0.  0.
    5000001    2    3    3    0    0  0.40903936128E+02 -0.13623312135E+03  0.26139708287E+02  0.24004612611E+03  0.19158878612E+03 0.  0.
        -13    1    4    4    0    0  0.10833670883E+03 -0.43675248591E+02 -0.72863761368E+01  0.11703620064E+03  0.10566000000E+00 0. -1.
     200003    1    4    4    0    0 -0.67432772698E+02 -0.92557872760E+02  0.33426084424E+02  0.12300992547E+03  0.30000000000E+02 0. -1.
     200000    1    3    3    0    0  0.30831466244E+03 -0.44879627996E+03  0.76809063710E+02  0.74321979538E+03  0.50000000000E+03 0. -1.
    -200001    1    1    2    0    0 -0.34921859857E+03  0.58502940131E+03 -0.36909907349E+03  0.10442447778E+04  0.70000000000E+03 0.  1.
<mgrwt>
<rscale>  0 0.20099661E+04</rscale>
<asrwt>0</asrwt>
<pdfrwt beam="1">  1        2 0.16383293E+00 0.20099661E+04</pdfrwt>
<pdfrwt beam="2">  1       -2 0.12581146E+00 0.20099661E+04</pdfrwt>
<totfact> 0.10084542E+01</totfact>
</mgrwt>
</event>
<event>
 8    1  0.2682466E-027  0.2642867E+04  0.7818608E-02  0.8353784E-01
         -2   -1    0    0    0  501 -0.00000000000E+00  0.00000000000E+00  0.14696369045E+04  0.14696369045E+04  0.25500000000E-02 0. -1.
          2   -1    0    0  501    0  0.00000000000E+00 -0.00000000000E+00 -0.11881754335E+04  0.11881754335E+04  0.25500000000E-02 0.  1.
     200001    2    1    2    0    0  0.50687677122E+03 -0.25573096917E+03  0.11124245936E+04  0.14319158901E+04  0.70040863091E+03 0.  0.
    5000001    2    3    3    0    0  0.16872668193E+03 -0.49116061193E+02  0.29039688442E+03  0.39135606116E+03  0.19480281173E+03 0.  0.
        -13    1    4    4    0    0  0.12213254096E+03 -0.84080493012E+02  0.29013729178E+03  0.32583054816E+03  0.10566000000E+00 0. -1.
     200003    1    4    4    0    0  0.46594140971E+02  0.34964431819E+02  0.25959264110E+00  0.65525512997E+02  0.30000000000E+02 0. -1.
     200000    1    3    3    0    0  0.33815008929E+03 -0.20661490797E+03  0.82202770914E+03  0.10405598290E+04  0.50000000000E+03 0. -1.
    -200001    1    1    2    0    0 -0.50687677122E+03  0.25573096917E+03 -0.83096312259E+03  0.12258964479E+04  0.70000000000E+03 0.  1.
<mgrwt>
<rscale>  0 0.26428670E+04</rscale>
<asrwt>0</asrwt>
<pdfrwt beam="1">  1        2 0.16973935E+00 0.26428670E+04</pdfrwt>
<pdfrwt beam="2">  1       -2 0.20994813E+00 0.26428670E+04</pdfrwt>
<totfact> 0.22058044E+00</totfact>
</mgrwt>
</event>
<event>
 8    1  0.2682466E-027  0.1490725E+04  0.7818608E-02  0.8890644E-01
          2   -1    0    0  501    0  0.00000000000E+00  0.00000000000E+00  0.45058418672E+03  0.45058418673E+03  0.25500000000E-02 0. -1.
         -2   -1    0    0    0  501 -0.00000000000E+00 -0.00000000000E+00 -0.12329893525E+04  0.12329893525E+04  0.25500000000E-02 0.  1.
     200001    2    1    2    0    0  0.20071306345E+02 -0.78920282985E+02 -0.11726705606E+03  0.71453279015E+03  0.70012447276E+03 0.  0.
    5000001    2    3    3    0    0  0.82849349707E+02 -0.16885485979E+02 -0.64287732183E+02  0.20404654398E+03  0.17422096664E+03 0.  0.
        -13    1    4    4    0    0  0.83460243304E+02  0.61491524779E+02 -0.60515396201E+02  0.12003726160E+03  0.10566000000E+00 0. -1.
     200003    1    4    4    0    0 -0.61089359712E+00 -0.78377010758E+02 -0.37723359818E+01  0.84009282375E+02  0.30000000000E+02 0. -1.
     200000    1    3    3    0    0 -0.62778043362E+02 -0.62034797006E+02 -0.52979323878E+02  0.51048624617E+03  0.50000000000E+03 0. -1.
    -200001    1    1    2    0    0 -0.20071306345E+02  0.78920282985E+02 -0.66513810973E+03  0.96904074911E+03  0.70000000000E+03 0.  1.
<mgrwt>
<rscale>  0 0.14907253E+04</rscale>
<asrwt>0</asrwt>
<pdfrwt beam="1">  1        2 0.64369170E-01 0.14907253E+04</pdfrwt>
<pdfrwt beam="2">  1       -2 0.17614133E+00 0.14907253E+04</pdfrwt>
<totfact> 0.14114147E+01</totfact>
</mgrwt>
</event>
<event>
 8    1  0.2682466E-027  0.2042868E+04  0.7818608E-02  0.8586837E-01
          2   -1    0    0  501    0  0.00000000000E+00  0.00000000000E+00  0.13640859412E+04  0.13640859412E+04  0.25500000000E-02 0.  1.
         -2   -1    0    0    0  501 -0.00000000000E+00 -0.00000000000E+00 -0.76485432555E+03  0.76485432556E+03  0.25500000000E-02 0. -1.
     200001    2    1    2    0    0  0.55664728264E+03 -0.31232890481E+03  0.69713883056E+03  0.11765793242E+04  0.70066455249E+03 0.  0.
    5000001    2    3    3    0    0  0.19230336509E+03 -0.48101172717E+02  0.13600815421E+03  0.30054826280E+03  0.18037941463E+03 0.  0.
        -13    1    4    4    0    0  0.97679568409E+02  0.43486038831E+02  0.12580089207E+03  0.16510060348E+03  0.10566000000E+00 0. -1.
     200003    1    4    4    0    0  0.94623796678E+02 -0.91587211548E+02  0.10207262137E+02  0.13544765933E+03  0.30000000000E+02 0.  1.
     200000    1    3    3    0    0  0.36434391756E+03 -0.26422773209E+03  0.56113067635E+03  0.87603106144E+03  0.50000000000E+03 0.  1.
    -200001    1    1    2    0    0 -0.55664728264E+03  0.31232890481E+03 -0.97907214933E+02  0.95236094249E+03  0.70000000000E+03 0. -1.
<mgrwt>
<rscale>  0 0.20428676E+04</rscale>
<asrwt>0</asrwt>
<pdfrwt beam="1">  1        2 0.19486942E+00 0.20428676E+04</pdfrwt>
<pdfrwt beam="2">  1       -2 0.10926491E+00 0.20428676E+04</pdfrwt>
<totfact> 0.10747326E+01</totfact>
</mgrwt>
</event>
<event>
 8    1  0.2682466E-027  0.1794307E+04  0.7818608E-02  0.8709333E-01
         -2   -1    0    0    0  501 -0.00000000000E+00  0.00000000000E+00  0.39009706815E+03  0.39009706816E+03  0.25500000000E-02 0. -1.
          2   -1    0    0  501    0  0.00000000000E+00 -0.00000000000E+00 -0.20632918909E+04  0.20632918909E+04  0.25500000000E-02 0.  1.
     200001    2    1    2    0    0  0.48421572759E+03  0.11654654011E+03 -0.11912160495E+04  0.14683247455E+04  0.69923809611E+03 0.  0.
    5000001    2    3    3    0    0  0.16671749981E+03 -0.72294539290E+02 -0.34686693996E+03  0.41980603011E+03  0.15132482852E+03 0.  0.
        -13    1    4    4    0    0 -0.81441038147E+01 -0.51199381493E+01 -0.13529896079E+03  0.13564055496E+03  0.10566000000E+00 0. -1.
     200003    1    4    4    0    0  0.17486160362E+03 -0.67174601141E+02 -0.21156797917E+03  0.28416547516E+03  0.30000000000E+02 0. -1.
     200000    1    3    3    0    0  0.31749822778E+03  0.18884107940E+03 -0.84434910949E+03  0.10485187154E+04  0.50000000000E+03 0. -1.
    -200001    1    1    2    0    0 -0.48421572759E+03 -0.11654654011E+03 -0.48197877330E+03  0.98506421353E+03  0.70000000000E+03 0. -1.
<mgrwt>
<rscale>  0 0.17943067E+04</rscale>
<asrwt>0</asrwt>
<pdfrwt beam="1">  1        2 0.29475598E+00 0.17943067E+04</pdfrwt>
<pdfrwt beam="2">  1       -2 0.55728154E-01 0.17943067E+04</pdfrwt>
<totfact> 0.21320091E+01</totfact>
</mgrwt>
</event>
<event>
 8    1  0.2682466E-027  0.1633336E+04  0.7818608E-02  0.8800326E-01
          2   -1    0    0  501    0  0.00000000000E+00  0.00000000000E+00  0.87138626375E+03  0.87138626376E+03  0.25500000000E-02 0.  1.
         -2   -1    0    0    0  501 -0.00000000000E+00 -0.00000000000E+00 -0.76538583501E+03  0.76538583501E+03  0.25500000000E-02 0. -1.
     200001    2    1    2    0    0 -0.40734474175E+03  0.54567844356E+02 -0.39849769090E+02  0.81204204082E+03  0.69922591749E+03 0.  0.
    5000001    2    3    3    0    0 -0.12259938783E+03 -0.33718195315E+02 -0.32287845005E+02  0.22986378283E+03  0.18875202550E+03 0.  0.
        -13    1    4    4    0    0 -0.48594798234E+02 -0.49796389518E+02 -0.10144232617E+03  0.12301094068E+03  0.10566000000E+00 0. -1.
     200003    1    4    4    0    0 -0.74004589594E+02  0.16078194203E+02  0.69154481166E+02  0.10685284215E+03  0.30000000000E+02 0. -1.
     200000    1    3    3    0    0 -0.28474535392E+03  0.88286039671E+02 -0.75619240843E+01  0.58217825799E+03  0.50000000000E+03 0. -1.
    -200001    1    1    2    0    0  0.40734474175E+03 -0.54567844356E+02  0.14585019784E+03  0.82473005795E+03  0.70000000000E+03 0.  1.
<mgrwt>
<rscale>  0 0.16333361E+04</rscale>
<asrwt>0</asrwt>
<pdfrwt beam="1">  1        2 0.12448375E+00 0.16333361E+04</pdfrwt>
<pdfrwt beam="2">  1       -2 0.10934083E+00 0.16333361E+04</pdfrwt>
<totfact> 0.21714378E+01</totfact>
</mgrwt>
</event>
<event>
 8    1  0.2682466E-027  0.1661802E+04  0.7818608E-02  0.8783455E-01
          2   -1    0    0  501    0  0.00000000000E+00  0.00000000000E+00  0.15459428379E+04  0.15459428379E+04  0.25500000000E-02 0.  1.
         -2   -1    0    0    0  501 -0.00000000000E+00 -0.00000000000E+00 -0.44658586623E+03  0.44658586623E+03  0.25500000000E-02 0. -1.
     200001    2    1    2    0    0 -0.26484542832E+01  0.32775858148E+03  0.91563886803E+03  0.11980571542E+04  0.69965256098E+03 0.  0.
    5000001    2    3    3    0    0  0.35378246075E+02  0.10462516143E+03  0.21890708593E+03  0.31111311468E+03  0.19150199256E+03 0.  0.
        -13    1    4    4    0    0 -0.69394376922E+02  0.99512748531E+00  0.85133104370E+02  0.10983727259E+03  0.10566000000E+00 0. -1.
     200003    1    4    4    0    0  0.10477262300E+03  0.10363003395E+03  0.13377398156E+03  0.20127584209E+03  0.30000000000E+02 0. -1.
     200000    1    3    3    0    0 -0.38026700359E+02  0.22313342004E+03  0.69673178210E+03  0.88694403954E+03  0.50000000000E+03 0. -1.
    -200001    1    1    2    0    0  0.26484542832E+01 -0.32775858148E+03  0.18371810366E+03  0.79447154993E+03  0.70000000000E+03 0. -1.
<mgrwt>
<rscale>  0 0.16618017E+04</rscale>
<asrwt>0</asrwt>
<pdfrwt beam="1">  1        2 0.22084898E+00 0.16618017E+04</pdfrwt>
<pdfrwt beam="2">  1       -2 0.63797979E-01 0.16618017E+04</pdfrwt>
<totfact> 0.30039509E+01</totfact>
</mgrwt>
</event>
<event>
 8    1  0.2682466E-027  0.1726061E+04  0.7818608E-02  0.8746639E-01
         -2   -1    0    0    0  501 -0.00000000000E+00  0.00000000000E+00  0.42589325175E+03  0.42589325176E+03  0.25500000000E-02 0. -1.
          2   -1    0    0  501    0  0.00000000000E+00 -0.00000000000E+00 -0.17488458278E+04  0.17488458278E+04  0.25500000000E-02 0.  1.
     200001    2    1    2    0    0 -0.12259825051E+03  0.91100376176E+01 -0.12784274809E+04  0.14626324809E+04  0.69985971914E+03 0.  0.
    5000001    2    3    3    0    0 -0.30778137218E+02  0.34216893669E+02 -0.44684719340E+03  0.48765193650E+03  0.18977330522E+03 0.  0.
        -13    1    4    4    0    0 -0.90704440084E+02 -0.42360184982E+01 -0.36060204125E+03  0.37185895528E+03  0.10566000000E+00 0. -1.
     200003    1    4    4    0    0  0.59926302865E+02  0.38452912167E+02 -0.86245152152E+02  0.11579298122E+03  0.30000000000E+02 0. -1.
     200000    1    3    3    0    0 -0.91820113294E+02 -0.25106856051E+02 -0.83158028749E+03  0.97498054441E+03  0.50000000000E+03 0.  1.
    -200001    1    1    2    0    0  0.12259825051E+03 -0.91100376176E+01 -0.44525095194E+02  0.71210659870E+03  0.70000000000E+03 0. -1.
<mgrwt>
<rscale>  0 0.17260610E+04</rscale>
<asrwt>0</asrwt>
<pdfrwt beam="1">  1        2 0.24983511E+00 0.17260610E+04</pdfrwt>
<pdfrwt beam="2">  1       -2 0.60841894E-01 0.17260610E+04</pdfrwt>
<totfact> 0.25896602E+01</totfact>
</mgrwt>
</event>
<event>
 8    1  0.2682466E-027  0.1676114E+04  0.7818608E-02  0.8775106E-01
         -2   -1    0    0    0  501 -0.00000000000E+00  0.00000000000E+00  0.59655373832E+03  0.59655373832E+03  0.25500000000E-02 0. -1.
          2   -1    0    0  501    0  0.00000000000E+00 -0.00000000000E+00 -0.11773275572E+04  0.11773275572E+04  0.25500000000E-02 0.  1.
     200001    2    1    2    0    0  0.80909739532E+02 -0.34747762434E+03  0.19372747571E+02  0.78521401752E+03  0.69921288933E+03 0.  0.
    5000001    2    3    3    0    0 -0.11672172657E+02 -0.10854722593E+03 -0.43488552493E+02  0.21987280304E+03  0.18583340778E+03 0.  0.
        -13    1    4    4    0    0 -0.62891289336E+02  0.15164933352E+02 -0.51107990834E+02  0.82445905715E+02  0.10566000000E+00 0. -1.
     200003    1    4    4    0    0  0.51219116680E+02 -0.12371215928E+03  0.76194383415E+01  0.13742689732E+03  0.30000000000E+02 0. -1.
     200000    1    3    3    0    0  0.92581912189E+02 -0.23893039841E+03  0.62861300064E+02  0.56534121449E+03  0.50000000000E+03 0. -1.
    -200001    1    1    2    0    0 -0.80909739532E+02  0.34747762434E+03 -0.60014656646E+03  0.98866727801E+03  0.70000000000E+03 0.  1.
<mgrwt>
<rscale>  0 0.16761135E+04</rscale>
<asrwt>0</asrwt>
<pdfrwt beam="1">  1        2 0.16818965E+00 0.16761135E+04</pdfrwt>
<pdfrwt beam="2">  1       -2 0.85221963E-01 0.16761135E+04</pdfrwt>
<totfact> 0.25213000E+01</totfact>
</mgrwt>
</event>
<event>
 8    1  0.2682466E-027  0.1712794E+04  0.7818608E-02  0.8754101E-01
         -2   -1    0    0    0  501 -0.00000000000E+00  0.00000000000E+00  0.50399598873E+03  0.50399598874E+03  0.25500000000E-02 0.  1.
          2   -1    0    0  501    0  0.00000000000E+00 -0.00000000000E+00 -0.14552021068E+04  0.14552021068E+04  0.25500000000E-02 0. -1.
     200001    2    1    2    0    0  0.23130869343E+03  0.96900848677E+02  0.57957804004E+01  0.74727973205E+03  0.70391755251E+03 0.  0.
    5000001    2    3    3    0    0  0.85700571844E+02  0.28335315955E+02 -0.20147586237E+02  0.22137478282E+03  0.20113028388E+03 0.  0.
        -13    1    4    4    0    0  0.11719112633E+03  0.63163215966E+02 -0.66575360255E+02  0.14884771311E+03  0.10566000000E+00 0. -1.
     200003    1    4    4    0    0 -0.31490554483E+02 -0.34827900011E+02  0.46427774018E+02  0.72527069712E+02  0.30000000000E+02 0. -1.
     200000    1    3    3    0    0  0.14560812158E+03  0.68565532721E+02  0.25943366638E+02  0.52590494923E+03  0.50000000000E+03 0.  1.
    -200001    1    1    2    0    0 -0.23130869343E+03 -0.96900848677E+02 -0.95700189851E+03  0.12119183635E+04  0.70000000000E+03 0. -1.
<mgrwt>
<rscale>  0 0.17127942E+04</rscale>
<asrwt>0</asrwt>
<pdfrwt beam="1">  1        2 0.20788601E+00 0.17127942E+04</pdfrwt>
<pdfrwt beam="2">  1       -2 0.71999428E-01 0.17127942E+04</pdfrwt>
<totfact> 0.25731024E+01</totfact>
</mgrwt>
</event>
<event>
 8    1  0.2682466E-027  0.1635839E+04  0.7818608E-02  0.8798828E-01
          2   -1    0    0  501    0  0.00000000000E+00  0.00000000000E+00  0.25834228287E+04  0.25834228287E+04  0.25500000000E-02 0.  1.
         -2   -1    0    0    0  501 -0.00000000000E+00 -0.00000000000E+00 -0.25895575847E+03  0.25895575848E+03  0.25500000000E-02 0. -1.
     200001    2    1    2    0    0  0.34417369887E+02  0.28656857304E+03  0.16985862257E+04  0.18600176892E+04  0.70083131742E+03 0.  0.
    5000001    2    3    3    0    0 -0.11336374501E+03  0.77691960151E+02  0.46679693941E+03  0.50621802040E+03  0.13953466301E+03 0.  0.
        -13    1    4    4    0    0 -0.74520867603E+02  0.96790757387E+02  0.41400036271E+03  0.43164582925E+03  0.10566000000E+00 0. -1.
     200003    1    4    4    0    0 -0.38842877411E+02 -0.19098797236E+02  0.52796576704E+02  0.74572191151E+02  0.30000000000E+02 0. -1.
     200000    1    3    3    0    0  0.14778111490E+03  0.20887661289E+03  0.12317892863E+04  0.13537996688E+04  0.50000000000E+03 0.  1.
    -200001    1    1    2    0    0 -0.34417369887E+02 -0.28656857304E+03  0.62588084453E+03  0.98236089802E+03  0.70000000000E+03 0. -1.
<mgrwt>
<rscale>  0 0.16358389E+04</rscale>
<asrwt>0</asrwt>
<pdfrwt beam="1">  1        2 0.36906041E+00 0.16358389E+04</pdfrwt>
<pdfrwt beam="2">  1       -2 0.36993679E-01 0.16358389E+04</pdfrwt>
<totfact> 0.26302981E+01</totfact>
</mgrwt>
</event>
<event>
 8    1  0.2682466E-027  0.1688642E+04  0.7818608E-02  0.8767869E-01
         -2   -1    0    0    0  501 -0.00000000000E+00  0.00000000000E+00  0.28782563173E+03  0.28782563174E+03  0.25500000000E-02 0. -1.
          2   -1    0    0  501    0  0.00000000000E+00 -0.00000000000E+00 -0.24767691254E+04  0.24767691254E+04  0.25500000000E-02 0.  1.
     200001    2    1    2    0    0 -0.10981460346E+03 -0.20731964940E+03 -0.42290644613E+03  0.85045590704E+03  0.69956036444E+03 0.  0.
    5000001    2    3    3    0    0 -0.27030316738E+02 -0.76706817646E+02 -0.85827235125E+02  0.22793253846E+03  0.19486496325E+03 0.  0.
        -13    1    4    4    0    0 -0.15572484477E+02 -0.45188563733E+01  0.59959220540E+02  0.62113135708E+02  0.10566000000E+00 0. -1.
     200003    1    4    4    0    0 -0.11457832261E+02 -0.72187961273E+02 -0.14578645566E+03  0.16581940275E+03  0.30000000000E+02 0. -1.
     200000    1    3    3    0    0 -0.82784286725E+02 -0.13061283175E+03 -0.33707921100E+03  0.62252336859E+03  0.50000000000E+03 0. -1.
    -200001    1    1    2    0    0  0.10981460346E+03  0.20731964940E+03 -0.17660370475E+04  0.19141388501E+04  0.70000000000E+03 0.  1.
<mgrwt>
<rscale>  0 0.16886416E+04</rscale>
<asrwt>0</asrwt>
<pdfrwt beam="1">  1        2 0.35382415E+00 0.16886416E+04</pdfrwt>
<pdfrwt beam="2">  1       -2 0.41117949E-01 0.16886416E+04</pdfrwt>
<totfact> 0.24266356E+01</totfact>
</mgrwt>
</event>
<event>
 8    1  0.2682466E-027  0.1549318E+04  0.7818608E-02  0.8852303E-01
         -2   -1    0    0    0  501 -0.00000000000E+00  0.00000000000E+00  0.61406570726E+03  0.61406570727E+03  0.25500000000E-02 0. -1.
          2   -1    0    0  501    0  0.00000000000E+00 -0.00000000000E+00 -0.97725198483E+03  0.97725198484E+03  0.25500000000E-02 0.  1.
     200001    2    1    2    0    0  0.11435629324E+03  0.99567381855E+02 -0.48720891340E+03  0.86442523820E+03  0.69775887082E+03 0.  0.
    5000001    2    3    3    0    0  0.95219290708E+02 -0.29874531522E+02 -0.15676502422E+03  0.25098037703E+03  0.16869106638E+03 0.  0.
        -13    1    4    4    0    0 -0.24207617680E+02 -0.45558949750E+02 -0.73547396051E+00  0.51596305507E+02  0.10566000000E+00 0. -1.
     200003    1    4    4    0    0  0.11942690839E+03  0.15684418228E+02 -0.15602955026E+03  0.19938407152E+03  0.30000000000E+02 0. -1.
     200000    1    3    3    0    0  0.19137002536E+02  0.12944191338E+03 -0.33044388919E+03  0.61344486118E+03  0.50000000000E+03 0. -1.
    -200001    1    1    2    0    0 -0.11435629324E+03 -0.99567381855E+02  0.12402263583E+03  0.72689245390E+03  0.70000000000E+03 0. -1.
<mgrwt>
<rscale>  0 0.15493185E+04</rscale>
<asrwt>0</asrwt>
<pdfrwt beam="1">  1        2 0.13960743E+00 0.15493185E+04</pdfrwt>
<pdfrwt beam="2">  1       -2 0.87723673E-01 0.15493185E+04</pdfrwt>
<totfact> 0.31385752E+01</totfact>
</mgrwt>
</event>
<event>
 8    1  0.2682466E-027  0.2090583E+04  0.7818608E-02  0.8565403E-01
          2   -1    0    0  501    0  0.00000000000E+00  0.00000000000E+00  0.75472539893E+03  0.75472539893E+03  0.25500000000E-02 0.  1.
         -2   -1    0    0    0  501 -0.00000000000E+00 -0.00000000000E+00 -0.14477241831E+04  0.14477241831E+04  0.25500000000E-02 0. -1.
     200001    2    1    2    0    0  0.67869192704E+03 -0.22509551105E+03 -0.66488251864E+03  0.12014095002E+04  0.70001807315E+03 0.  0.
    5000001    2    3    3    0    0  0.10272742078E+03 -0.30993219929E+02 -0.48148937024E+02  0.20152394549E+03  0.16364619705E+03 0.  0.
        -13    1    4    4    0    0  0.51189560368E+02 -0.37816903735E+02  0.53721483479E+02  0.83285642520E+02  0.10566000000E+00 0. -1.
     200003    1    4    4    0    0  0.51537860415E+02  0.68236838062E+01 -0.10187042050E+03  0.11823830297E+03  0.30000000000E+02 0. -1.
     200000    1    3    3    0    0  0.57596450626E+03 -0.19410229112E+03 -0.61673358161E+03  0.99988555474E+03  0.50000000000E+03 0.  1.
    -200001    1    1    2    0    0 -0.67869192704E+03  0.22509551105E+03 -0.28116265503E+02  0.10010400818E+04  0.70000000000E+03 0. -1.
<mgrwt>
<rscale>  0 0.20905829E+04</rscale>
<asrwt>0</asrwt>
<pdfrwt beam="1">  1        2 0.10781792E+00 0.20905829E+04</pdfrwt>
<pdfrwt beam="2">  1       -2 0.20681774E+00 0.20905829E+04</pdfrwt>
<totfact> 0.45501587E+00</totfact>
</mgrwt>
</event>
<event>
 8    1  0.2682466E-027  0.1472727E+04  0.7818608E-02  0.8902794E-01
         -2   -1    0    0    0  501 -0.00000000000E+00  0.00000000000E+00  0.38229467541E+03  0.38229467542E+03  0.25500000000E-02 0. -1.
          2   -1    0    0  501    0  0.00000000000E+00 -0.00000000000E+00 -0.14183592374E+04  0.14183592374E+04  0.25500000000E-02 0.  1.
     200001    2    1    2    0    0  0.20400796807E+03 -0.13550427327E+02 -0.39443074909E+03  0.82931627070E+03  0.70027637109E+03 0.  0.
    5000001    2    3    3    0    0  0.43435913550E+02  0.69234843444E+01  0.13048516799E+02  0.16430355061E+03  0.15776812014E+03 0.  0.
        -13    1    4    4    0    0 -0.57505807357E+02  0.99258612980E+01  0.71147707079E+01  0.58788363888E+02  0.10566000000E+00 0. -1.
     200003    1    4    4    0    0  0.10094172091E+03 -0.30023769536E+01  0.59337460908E+01  0.10551518673E+03  0.30000000000E+02 0. -1.
     200000    1    3    3    0    0  0.16057205451E+03 -0.20473911671E+02 -0.40747926589E+03  0.66501272009E+03  0.50000000000E+03 0.  1.
    -200001    1    1    2    0    0 -0.20400796807E+03  0.13550427327E+02 -0.64163381285E+03  0.97133764207E+03  0.70000000000E+03 0. -1.
<mgrwt>
<rscale>  0 0.14727270E+04</rscale>
<asrwt>0</asrwt>
<pdfrwt beam="1">  1        2 0.20262274E+00 0.14727270E+04</pdfrwt>
<pdfrwt beam="2">  1       -2 0.54613526E-01 0.14727270E+04</pdfrwt>
<totfact> 0.49455498E+01</totfact>
</mgrwt>
</event>
<event>
 8    1  0.2682466E-027  0.1410648E+04  0.7818608E-02  0.8946147E-01
         -2   -1    0    0    0  501 -0.00000000000E+00  0.00000000000E+00  0.22187630763E+03  0.22187630765E+03  0.25500000000E-02 0. -1.
          2   -1    0    0  501    0  0.00000000000E+00 -0.00000000000E+00 -0.22421581676E+04  0.22421581676E+04  0.25500000000E-02 0.  1.
     200001    2    1    2    0    0  0.61245472488E+02 -0.78173170084E+01 -0.90798751356E+03  0.11483556271E+04  0.70033363709E+03 0.  0.
    5000001    2    3    3    0    0 -0.52475684886E+02 -0.33499545017E+02 -0.22483961967E+03  0.29378958322E+03  0.17855964722E+03 0.  0.
        -13    1    4    4    0    0  0.17429836873E+02 -0.15081697444E+01  0.25090332586E+02  0.30587738438E+02  0.10566000000E+00 0. -1.
     200003    1    4    4    0    0 -0.69905521759E+02 -0.31991375273E+02 -0.24992995225E+03  0.26320184478E+03  0.30000000000E+02 0. -1.
     200000    1    3    3    0    0  0.11372115737E+03  0.25682228009E+02 -0.68314789389E+03  0.85456604391E+03  0.50000000000E+03 0. -1.
    -200001    1    1    2    0    0 -0.61245472488E+02  0.78173170084E+01 -0.11122943464E+04  0.13156788482E+04  0.70000000000E+03 0.  1.
<mgrwt>
<rscale>  0 0.14106478E+04</rscale>
<asrwt>0</asrwt>
<pdfrwt beam="1">  1        2 0.32030830E+00 0.14106478E+04</pdfrwt>
<pdfrwt beam="2">  1       -2 0.31696617E-01 0.14106478E+04</pdfrwt>
<totfact> 0.54195772E+01</totfact>
</mgrwt>
</event>
<event>
 8    1  0.2682466E-027  0.1518792E+04  0.7818608E-02  0.8872052E-01
         -2   -1    0    0    0  501 -0.00000000000E+00  0.00000000000E+00  0.30828701712E+03  0.30828701713E+03  0.25500000000E-02 0. -1.
          2   -1    0    0  501    0  0.00000000000E+00 -0.00000000000E+00 -0.18706008425E+04  0.18706008425E+04  0.25500000000E-02 0.  1.
     200001    2    1    2    0    0  0.10384230355E+03 -0.77083320347E+01 -0.11769265288E+04  0.13730553641E+04  0.69948719532E+03 0.  0.
    5000001    2    3    3    0    0  0.73333280313E+02  0.28612662732E+02 -0.52833234535E+03  0.55273565210E+03  0.14207455608E+03 0.  0.
        -13    1    4    4    0    0  0.27441925316E+02 -0.55022215138E+02 -0.23063665995E+03  0.23869181700E+03  0.10566000000E+00 0. -1.
     200003    1    4    4    0    0  0.45891354997E+02  0.83634877870E+02 -0.29769568540E+03  0.31404383510E+03  0.30000000000E+02 0. -1.
     200000    1    3    3    0    0  0.30509023234E+02 -0.36320994767E+02 -0.64859418345E+03  0.82031971204E+03  0.50000000000E+03 0.  1.
    -200001    1    1    2    0    0 -0.10384230355E+03  0.77083320347E+01 -0.38538729654E+03  0.80583249545E+03  0.70000000000E+03 0. -1.
<mgrwt>
<rscale>  0 0.15187916E+04</rscale>
<asrwt>0</asrwt>
<pdfrwt beam="1">  1        2 0.26722869E+00 0.15187916E+04</pdfrwt>
<pdfrwt beam="2">  1       -2 0.44041004E-01 0.15187916E+04</pdfrwt>
<totfact> 0.44196920E+01</totfact>
</mgrwt>
</event>
<event>
 8    1  0.2682466E-027  0.1462943E+04  0.7818608E-02  0.8909476E-01
         -2   -1    0    0    0  501 -0.00000000000E+00  0.00000000000E+00  0.12281039606E+03  0.12281039609E+03  0.25500000000E-02 0. -1.
          2   -1    0    0  501    0  0.00000000000E+00 -0.00000000000E+00 -0.43567221210E+04  0.43567221210E+04  0.25500000000E-02 0.  1.
     200001    2    1    2    0    0  0.19458548670E+03 -0.72793586823E+02 -0.21421505318E+04  0.22639903019E+04  0.70262420149E+03 0.  0.
    5000001    2    3    3    0    0  0.55220805224E+02  0.12145520135E+02 -0.29888409141E+03  0.34715219282E+03  0.16729044771E+03 0.  0.
        -13    1    4    4    0    0  0.23758447928E+02 -0.74676047481E+00 -0.30082871043E+03  0.30176637600E+03  0.10566000000E+00 0. -1.
     200003    1    4    4    0    0  0.31462357296E+02  0.12892280610E+02  0.19446190213E+01  0.45385816827E+02  0.30000000000E+02 0. -1.
     200000    1    3    3    0    0  0.13936468147E+03 -0.84939106958E+02 -0.18432664404E+04  0.19168381091E+04  0.50000000000E+03 0.  1.
    -200001    1    1    2    0    0 -0.19458548670E+03  0.72793586823E+02 -0.20917611932E+04  0.22155422152E+04  0.70000000000E+03 0. -1.
<mgrwt>
<rscale>  0 0.14629433E+04</rscale>
<asrwt>0</asrwt>
<pdfrwt beam="1">  1        2 0.62238878E+00 0.14629433E+04</pdfrwt>
<pdfrwt beam="2">  1       -2 0.17544345E-01 0.14629433E+04</pdfrwt>
<totfact> 0.84049518E+00</totfact>
</mgrwt>
</event>
<event>
 8    1  0.2682466E-027  0.1812318E+04  0.7818608E-02  0.8699776E-01
          2   -1    0    0  501    0  0.00000000000E+00  0.00000000000E+00  0.12434696569E+04  0.12434696569E+04  0.25500000000E-02 0.  1.
         -2   -1    0    0    0  501 -0.00000000000E+00 -0.00000000000E+00 -0.66034900602E+03  0.66034900602E+03  0.25500000000E-02 0. -1.
     200001    2    1    2    0    0  0.23952580428E+02  0.33967870569E+03  0.77881059946E+03  0.11011668671E+04  0.70004797711E+03 0.  0.
    5000001    2    3    3    0    0  0.84592988830E+00  0.46846697432E+02  0.95450773194E+02  0.20491625793E+03  0.17516990039E+03 0.  0.
        -13    1    4    4    0    0 -0.61210894260E+02  0.11476894478E+02  0.10969865700E+03  0.12614396218E+03  0.10566000000E+00 0. -1.
     200003    1    4    4    0    0  0.62056824148E+02  0.35369802954E+02 -0.14247883807E+02  0.78772295747E+02  0.30000000000E+02 0. -1.
     200000    1    3    3    0    0  0.23106650540E+02  0.29283200826E+03  0.68335982627E+03  0.89625060922E+03  0.50000000000E+03 0.  1.
    -200001    1    1    2    0    0 -0.23952580428E+02 -0.33967870569E+03 -0.19568994863E+03  0.80265179574E+03  0.70000000000E+03 0. -1.
<mgrwt>
<rscale>  0 0.18123178E+04</rscale>
<asrwt>0</asrwt>
<pdfrwt beam="1">  1        2 0.17763852E+00 0.18123178E+04</pdfrwt>
<pdfrwt beam="2">  1       -2 0.94335574E-01 0.18123178E+04</pdfrwt>
<totfact> 0.18102301E+01</totfact>
</mgrwt>
</event>
<event>
 8    1  0.2682466E-027  0.2367037E+04  0.7818608E-02  0.8451948E-01
         -2   -1    0    0    0  501 -0.00000000000E+00  0.00000000000E+00  0.84618583828E+03  0.84618583828E+03  0.25500000000E-02 0. -1.
          2   -1    0    0  501    0  0.00000000000E+00 -0.00000000000E+00 -0.16553292968E+04  0.16553292968E+04  0.25500000000E-02 0.  1.
     200001    2    1    2    0    0  0.72026534753E+02 -0.32785874875E+03  0.53941511113E+03  0.94546584390E+03  0.70018413222E+03 0.  0.
    5000001    2    3    3    0    0 -0.37070372791E+02 -0.10138434146E+03  0.21429894094E+03  0.29824616209E+03  0.17712633876E+03 0.  0.
        -13    1    4    4    0    0 -0.91296058564E+02 -0.10996859832E+03  0.12951991818E+03  0.19288204503E+03  0.10566000000E+00 0. -1.
     200003    1    4    4    0    0  0.54225685773E+02  0.85842568619E+01  0.84779022767E+02  0.10536411706E+03  0.30000000000E+02 0. -1.
     200000    1    3    3    0    0  0.10909690754E+03 -0.22647440729E+03  0.32511617019E+03  0.64721968180E+03  0.50000000000E+03 0. -1.
    -200001    1    1    2    0    0 -0.72026534753E+02  0.32785874875E+03 -0.13485585697E+04  0.15560492912E+04  0.70000000000E+03 0.  1.
<mgrwt>
<rscale>  0 0.23670371E+04</rscale>
<asrwt>0</asrwt>
<pdfrwt beam="1">  1        2 0.23647561E+00 0.23670371E+04</pdfrwt>
<pdfrwt beam="2">  1       -2 0.12088369E+00 0.23670371E+04</pdfrwt>
<totfact> 0.57226194E+00</totfact>
</mgrwt>
</event>
<event>
 8    1  0.2682466E-027  0.1418144E+04  0.7818608E-02  0.8940789E-01
         -2   -1    0    0    0  501 -0.00000000000E+00  0.00000000000E+00  0.13621198821E+04  0.13621198821E+04  0.25500000000E-02 0. -1.
          2   -1    0    0  501    0  0.00000000000E+00 -0.00000000000E+00 -0.36911804010E+03  0.36911804011E+03  0.25500000000E-02 0.  1.
     200001    2    1    2    0    0 -0.11100329969E+03  0.19907251345E+02  0.54060067033E+03  0.89017618171E+03  0.69817370226E+03 0.  0.
    5000001    2    3    3    0    0 -0.15978342588E+01 -0.28243081566E+02  0.78638935930E+02  0.19902015412E+03  0.18062312912E+03 0.  0.
        -13    1    4    4    0    0  0.92026855730E+01  0.68197719367E+02 -0.27338664332E+01  0.68870193395E+02  0.10566000000E+00 0. -1.
     200003    1    4    4    0    0 -0.10800519832E+02 -0.96440800933E+02  0.81372802363E+02  0.13014996073E+03  0.30000000000E+02 0. -1.
     200000    1    3    3    0    0 -0.10940546543E+03  0.48150332911E+02  0.46196173440E+03  0.69115602759E+03  0.50000000000E+03 0. -1.
    -200001    1    1    2    0    0  0.11100329969E+03 -0.19907251345E+02  0.45240117166E+03  0.84106174049E+03  0.70000000000E+03 0.  1.
<mgrwt>
<rscale>  0 0.14181439E+04</rscale>
<asrwt>0</asrwt>
<pdfrwt beam="1">  1        2 0.52731149E-01 0.14181439E+04</pdfrwt>
<pdfrwt beam="2">  1       -2 0.19458855E+00 0.14181439E+04</pdfrwt>
<totfact> 0.13294651E+01</totfact>
</mgrwt>
</event>
<event>
 8    1  0.2682466E-027  0.1683151E+04  0.7818608E-02  0.8771033E-01
         -2   -1    0    0    0  501 -0.00000000000E+00  0.00000000000E+00  0.44721295790E+03  0.44721295790E+03  0.25500000000E-02 0. -1.
          2   -1    0    0  501    0  0.00000000000E+00 -0.00000000000E+00 -0.15836950787E+04  0.15836950787E+04  0.25500000000E-02 0.  1.
     200001    2    1    2    0    0  0.17156300598E+03  0.41762239685E+03 -0.42072945757E+03  0.93266206859E+03  0.69928744186E+03 0.  0.
    5000001    2    3    3    0    0 -0.61695881744E+02  0.58479989990E+02 -0.14372184216E+03  0.21843087626E+03  0.14081828267E+03 0.  0.
        -13    1    4    4    0    0 -0.96792937881E+02  0.11830461495E+02 -0.72031936654E+02  0.12123301409E+03  0.10566000000E+00 0. -1.
     200003    1    4    4    0    0  0.35097056137E+02  0.46649528495E+02 -0.71689905507E+02  0.97197862167E+02  0.30000000000E+02 0. -1.
     200000    1    3    3    0    0  0.23325888772E+03  0.35914240686E+03 -0.27700761541E+03  0.71423119233E+03  0.50000000000E+03 0. -1.
    -200001    1    1    2    0    0 -0.17156300598E+03 -0.41762239685E+03 -0.71575266327E+03  0.10982459681E+04  0.70000000000E+03 0. -1.
<mgrwt>
<rscale>  0 0.16831506E+04</rscale>
<asrwt>0</asrwt>
<pdfrwt beam="1">  1        2 0.22624215E+00 0.16831506E+04</pdfrwt>
<pdfrwt beam="2">  1       -2 0.63887566E-01 0.16831506E+04</pdfrwt>
<totfact> 0.28559534E+01</totfact>
</mgrwt>
</event>
<event>
 8    1  0.2682466E-027  0.2240311E+04  0.7818608E-02  0.8501835E-01
         -2   -1    0    0    0  501 -0.00000000000E+00  0.00000000000E+00  0.11751696083E+04  0.11751696083E+04  0.25500000000E-02 0. -1.
          2   -1    0    0  501    0  0.00000000000E+00 -0.00000000000E+00 -0.10677171819E+04  0.10677171819E+04  0.25500000000E-02 0.  1.
     200001    2    1    2    0    0  0.48635604030E+03  0.10825431839E+03 -0.66352006058E+03  0.10884779497E+04  0.70446020530E+03 0.  0.
    5000001    2    3    3    0    0  0.17066099309E+03  0.14397429484E+03 -0.23787241106E+03  0.35901568127E+03  0.14985060333E+03 0.  0.
        -13    1    4    4    0    0  0.20184018024E+02  0.12341463685E+02  0.20254152809E+02  0.31143991066E+02  0.10566000000E+00 0. -1.
     200003    1    4    4    0    0  0.15047697507E+03  0.13163283116E+03 -0.25812656387E+03  0.32787169021E+03  0.30000000000E+02 0. -1.
     200000    1    3    3    0    0  0.31569504721E+03 -0.35719976460E+02 -0.42564764952E+03  0.72946226845E+03  0.50000000000E+03 0.  1.
    -200001    1    1    2    0    0 -0.48635604030E+03 -0.10825431839E+03  0.77097248700E+03  0.11544088405E+04  0.70000000000E+03 0. -1.
<mgrwt>
<rscale>  0 0.22403114E+04</rscale>
<asrwt>0</asrwt>
<pdfrwt beam="1">  1        2 0.15253103E+00 0.22403114E+04</pdfrwt>
<pdfrwt beam="2">  1       -2 0.16788137E+00 0.22403114E+04</pdfrwt>
<totfact> 0.51587038E+00</totfact>
</mgrwt>
</event>
<event>
 8    1  0.2682466E-027  0.2243492E+04  0.7818608E-02  0.8500541E-01
          2   -1    0    0  501    0  0.00000000000E+00  0.00000000000E+00  0.19484991546E+04  0.19484991546E+04  0.25500000000E-02 0.  1.
         -2   -1    0    0    0  501 -0.00000000000E+00 -0.00000000000E+00 -0.64578604403E+03  0.64578604403E+03  0.25500000000E-02 0. -1.
     200001    2    1    2    0    0 -0.84154249284E+03  0.19682440812E+03  0.82271578673E+03  0.13829507915E+04  0.69911230226E+03 0.  0.
    5000001    2    3    3    0    0 -0.31368736934E+03  0.56823654417E+01  0.19761582984E+03  0.40524108615E+03  0.16351228315E+03 0.  0.
        -13    1    4    4    0    0 -0.14402163529E+03  0.80536651403E+02  0.10706199704E+03  0.19669943067E+03  0.10566000000E+00 0. -1.
     200003    1    4    4    0    0 -0.16966573405E+03 -0.74854285961E+02  0.90553832795E+02  0.20854165549E+03  0.30000000000E+02 0. -1.
     200000    1    3    3    0    0 -0.52785512350E+03  0.19114204268E+03  0.62509995689E+03  0.97770970537E+03  0.50000000000E+03 0. -1.
    -200001    1    1    2    0    0  0.84154249284E+03 -0.19682440812E+03  0.47999732381E+03  0.12113344071E+04  0.70000000000E+03 0. -1.
<mgrwt>
<rscale>  0 0.22434915E+04</rscale>
<asrwt>0</asrwt>
<pdfrwt beam="1">  1        2 0.27835702E+00 0.22434915E+04</pdfrwt>
<pdfrwt beam="2">  1       -2 0.92255149E-01 0.22434915E+04</pdfrwt>
<totfact> 0.77902512E+00</totfact>
</mgrwt>
</event>
<event>
 8    1  0.2682466E-027  0.1696358E+04  0.7818608E-02  0.8763444E-01
          2   -1    0    0  501    0  0.00000000000E+00  0.00000000000E+00  0.25812907230E+04  0.25812907230E+04  0.25500000000E-02 0.  1.
         -2   -1    0    0    0  501 -0.00000000000E+00 -0.00000000000E+00 -0.27870086263E+03  0.27870086264E+03  0.25500000000E-02 0. -1.
     200001    2    1    2    0    0  0.24447378057E+03  0.38567814719E+03  0.13955699890E+04  0.16266221723E+04  0.69983500534E+03 0.  0.
    5000001    2    3    3    0    0  0.17425495550E+02  0.47029965493E+02  0.47587744111E+02  0.13220267057E+03  0.11268312725E+03 0.  0.
        -13    1    4    4    0    0  0.12584207056E+02  0.40876895614E+02 -0.27580039114E+02  0.50891576747E+02  0.10566000000E+00 0. -1.
     200003    1    4    4    0    0  0.48412884947E+01  0.61530698784E+01  0.75167783225E+02  0.81311093820E+02  0.30000000000E+02 0. -1.
     200000    1    3    3    0    0  0.22704828502E+03  0.33864818170E+03  0.13479822449E+04  0.14944195018E+04  0.50000000000E+03 0.  1.
    -200001    1    1    2    0    0 -0.24447378057E+03 -0.38567814719E+03  0.90701987131E+03  0.12333694133E+04  0.70000000000E+03 0.  1.
<mgrwt>
<rscale>  0 0.16963584E+04</rscale>
<asrwt>0</asrwt>
<pdfrwt beam="1">  1        2 0.36875584E+00 0.16963584E+04</pdfrwt>
<pdfrwt beam="2">  1       -2 0.39814406E-01 0.16963584E+04</pdfrwt>
<totfact> 0.22750830E+01</totfact>
</mgrwt>
</event>
<event>
 8    1  0.2682466E-027  0.1436367E+04  0.7818608E-02  0.8927907E-01
          2   -1    0    0  501    0  0.00000000000E+00  0.00000000000E+00  0.21394478744E+04  0.21394478744E+04  0.25500000000E-02 0.  1.
         -2   -1    0    0    0  501 -0.00000000000E+00 -0.00000000000E+00 -0.24108428385E+03  0.24108428386E+03  0.25500000000E-02 0. -1.
     200001    2    1    2    0    0  0.93552878709E+02 -0.13252590918E+03  0.90736085481E+03  0.11564399722E+04  0.69837986136E+03 0.  0.
    5000001    2    3    3    0    0  0.38844246242E+02 -0.88608264901E+02  0.77906032761E+02  0.18540078877E+03  0.13763648666E+03 0.  0.
        -13    1    4    4    0    0 -0.16679491377E+02 -0.49298077576E+02 -0.25567300578E+02  0.57984514382E+02  0.10566000000E+00 0. -1.
     200003    1    4    4    0    0  0.55523737619E+02 -0.39310187325E+02  0.10347333334E+03  0.12741627439E+03  0.30000000000E+02 0. -1.
     200000    1    3    3    0    0  0.54708632468E+02 -0.43917644281E+02  0.82945482204E+03  0.97103918343E+03  0.50000000000E+03 0.  1.
    -200001    1    1    2    0    0 -0.93552878709E+02  0.13252590918E+03  0.99100273577E+03  0.12240921861E+04  0.70000000000E+03 0.  1.
<mgrwt>
<rscale>  0 0.14363666E+04</rscale>
<asrwt>0</asrwt>
<pdfrwt beam="1">  1        2 0.30563541E+00 0.14363666E+04</pdfrwt>
<pdfrwt beam="2">  1       -2 0.34440612E-01 0.14363666E+04</pdfrwt>
<totfact> 0.52213386E+01</totfact>
</mgrwt>
</event>
<event>
 8    1  0.2682466E-027  0.1653711E+04  0.7818608E-02  0.8788214E-01
          2   -1    0    0  501    0  0.00000000000E+00  0.00000000000E+00  0.16291587904E+04  0.16291587904E+04  0.25500000000E-02 0.  1.
         -2   -1    0    0    0  501 -0.00000000000E+00 -0.00000000000E+00 -0.41965820223E+03  0.41965820224E+03  0.25500000000E-02 0. -1.
     200001    2    1    2    0    0 -0.21516577992E+02  0.11019308037E+03  0.11322633427E+04  0.13356753025E+04  0.69957326877E+03 0.  0.
    5000001    2    3    3    0    0 -0.27274291923E+01  0.11012149175E+03  0.44680200692E+03  0.48702326539E+03  0.15945358518E+03 0.  0.
        -13    1    4    4    0    0 -0.67331274042E+02  0.62449805388E+01  0.14492045996E+03  0.15992013984E+03  0.10566000000E+00 0. -1.
     200003    1    4    4    0    0  0.64603844850E+02  0.10387651122E+03  0.30188154695E+03  0.32710312555E+03  0.30000000000E+02 0. -1.
     200000    1    3    3    0    0 -0.18789148800E+02  0.71588615185E-01  0.68546133581E+03  0.84865203713E+03  0.50000000000E+03 0.  1.
    -200001    1    1    2    0    0  0.21516577992E+02 -0.11019308037E+03  0.77237245425E+02  0.71314169011E+03  0.70000000000E+03 0. -1.
<mgrwt>
<rscale>  0 0.16537108E+04</rscale>
<asrwt>0</asrwt>
<pdfrwt beam="1">  1        2 0.23273697E+00 0.16537108E+04</pdfrwt>
<pdfrwt beam="2">  1       -2 0.59951172E-01 0.16537108E+04</pdfrwt>
<totfact> 0.31016562E+01</totfact>
</mgrwt>
</event>
<event>
 8    1  0.2682466E-027  0.2126759E+04  0.7818608E-02  0.8549546E-01
          2   -1    0    0  501    0  0.00000000000E+00  0.00000000000E+00  0.14614985357E+04  0.14614985357E+04  0.25500000000E-02 0.  1.
         -2   -1    0    0    0  501 -0.00000000000E+00 -0.00000000000E+00 -0.77371019543E+03  0.77371019544E+03  0.25500000000E-02 0. -1.
     200001    2    1    2    0    0 -0.21516019447E+03 -0.54033185414E+03  0.92208176196E+03  0.12954503424E+04  0.69978881952E+03 0.  0.
    5000001    2    3    3    0    0 -0.85589495678E+02 -0.67664574119E+02  0.31303708321E+03  0.36747494168E+03  0.15856090606E+03 0.  0.
        -13    1    4    4    0    0 -0.11266277662E+03 -0.80741159278E+02  0.28401731215E+03  0.31603461962E+03  0.10566000000E+00 0. -1.
     200003    1    4    4    0    0  0.27073280939E+02  0.13076585159E+02  0.29019771067E+02  0.51440322054E+02  0.30000000000E+02 0. -1.
     200000    1    3    3    0    0 -0.12957069879E+03 -0.47266728002E+03  0.60904467874E+03  0.92797540069E+03  0.50000000000E+03 0.  1.
    -200001    1    1    2    0    0  0.21516019447E+03  0.54033185414E+03 -0.23429342166E+03  0.93975838880E+03  0.70000000000E+03 0. -1.
<mgrwt>
<rscale>  0 0.21267593E+04</rscale>
<asrwt>0</asrwt>
<pdfrwt beam="1">  1        2 0.20878551E+00 0.21267593E+04</pdfrwt>
<pdfrwt beam="2">  1       -2 0.11053003E+00 0.21267593E+04</pdfrwt>
<totfact> 0.91966478E+00</totfact>
</mgrwt>
</event>
<event>
 8    1  0.2682466E-027  0.1483934E+04  0.7818608E-02  0.8895208E-01
         -2   -1    0    0    0  501 -0.00000000000E+00  0.00000000000E+00  0.53298138328E+03  0.53298138329E+03  0.25500000000E-02 0. -1.
          2   -1    0    0  501    0  0.00000000000E+00 -0.00000000000E+00 -0.10328971809E+04  0.10328971810E+04  0.25500000000E-02 0.  1.
     200001    2    1    2    0    0 -0.46864275791E+02 -0.24057000767E+03 -0.23404738912E+03  0.77799773595E+03  0.70030858045E+03 0.  0.
    5000001    2    3    3    0    0 -0.11493313452E+03 -0.57120499382E+02 -0.90886580739E+02  0.22231607467E+03  0.15713589545E+03 0.  0.
        -13    1    4    4    0    0 -0.11794346973E+03 -0.38223620627E+02  0.78025544218E+00  0.12398518939E+03  0.10566000000E+00 0. -1.
     200003    1    4    4    0    0  0.30103352061E+01 -0.18896878755E+02 -0.91666836181E+02  0.98330885281E+02  0.30000000000E+02 0. -1.
     200000    1    3    3    0    0  0.68068858734E+02 -0.18344950829E+03 -0.14316080839E+03  0.55568166127E+03  0.50000000000E+03 0. -1.
    -200001    1    1    2    0    0  0.46864275791E+02  0.24057000767E+03 -0.26586840854E+03  0.78788082829E+03  0.70000000000E+03 0. -1.
<mgrwt>
<rscale>  0 0.14839339E+04</rscale>
<asrwt>0</asrwt>
<pdfrwt beam="1">  1        2 0.14755674E+00 0.14839339E+04</pdfrwt>
<pdfrwt beam="2">  1       -2 0.76140198E-01 0.14839339E+04</pdfrwt>
<totfact> 0.40121919E+01</totfact>
</mgrwt>
</event>
<event>
 8    1  0.2682466E-027  0.1533708E+04  0.7818608E-02  0.8862342E-01
         -2   -1    0    0    0  501 -0.00000000000E+00  0.00000000000E+00  0.11407423969E+04  0.11407423969E+04  0.25500000000E-02 0. -1.
          2   -1    0    0  501    0  0.00000000000E+00 -0.00000000000E+00 -0.51551071587E+03  0.51551071588E+03  0.25500000000E-02 0.  1.
     200001    2    1    2    0    0 -0.10903439337E+03 -0.27257204423E+03  0.19135598264E+03  0.78193501283E+03  0.69901447336E+03 0.  0.
    5000001    2    3    3    0    0 -0.36084548053E+01 -0.72393763497E+02  0.52747365551E+02  0.21589762773E+03  0.19640677979E+03 0.  0.
        -13    1    4    4    0    0  0.92396346591E+02 -0.53673586873E+02  0.31542674579E+02  0.11141315126E+03  0.10566000000E+00 0. -1.
     200003    1    4    4    0    0 -0.96004801396E+02 -0.18720176624E+02  0.21204690971E+02  0.10448447647E+03  0.30000000000E+02 0. -1.
     200000    1    3    3    0    0 -0.10542593856E+03 -0.20017828073E+03  0.13860861708E+03  0.56603738510E+03  0.50000000000E+03 0. -1.
    -200001    1    1    2    0    0  0.10903439337E+03  0.27257204423E+03  0.43387569838E+03  0.87431809994E+03  0.70000000000E+03 0. -1.
<mgrwt>
<rscale>  0 0.15337078E+04</rscale>
<asrwt>0</asrwt>
<pdfrwt beam="1">  1        2 0.73644388E-01 0.15337078E+04</pdfrwt>
<pdfrwt beam="2">  1       -2 0.16296320E+00 0.15337078E+04</pdfrwt>
<totfact> 0.14983635E+01</totfact>
</mgrwt>
</event>
<event>
 8    1  0.2682466E-027  0.1577545E+04  0.7818608E-02  0.8834463E-01
         -2   -1    0    0    0  501 -0.00000000000E+00  0.00000000000E+00  0.68281400102E+03  0.68281400103E+03  0.25500000000E-02 0. -1.
          2   -1    0    0  501    0  0.00000000000E+00 -0.00000000000E+00 -0.91117333110E+03  0.91117333110E+03  0.25500000000E-02 0.  1.
     200001    2    1    2    0    0  0.34120115296E+03  0.48565966813E+02 -0.64719499164E+01  0.78280862840E+03  0.70283040817E+03 0.  0.
    5000001    2    3    3    0    0  0.73344275646E+02  0.11589162120E+02  0.86979692522E+00  0.21432952407E+03  0.20105396513E+03 0.  0.
        -13    1    4    4    0    0 -0.53858601834E+02 -0.14990468237E+02  0.47176364465E+02  0.73151101548E+02  0.10566000000E+00 0. -1.
     200003    1    4    4    0    0  0.12720287748E+03  0.26579630357E+02 -0.46306567540E+02  0.14117842252E+03  0.30000000000E+02 0. -1.
     200000    1    3    3    0    0  0.26785687731E+03  0.36976804693E+02 -0.73417468416E+01  0.56847910433E+03  0.50000000000E+03 0.  1.
    -200001    1    1    2    0    0 -0.34120115296E+03 -0.48565966813E+02 -0.22188738016E+03  0.81117870373E+03  0.70000000000E+03 0.  1.
<mgrwt>
<rscale>  0 0.15775448E+04</rscale>
<asrwt>0</asrwt>
<pdfrwt beam="1">  1        2 0.13016762E+00 0.15775448E+04</pdfrwt>
<pdfrwt beam="2">  1       -2 0.97544858E-01 0.15775448E+04</pdfrwt>
<totfact> 0.26971262E+01</totfact>
</mgrwt>
</event>
<event>
 8    1  0.2682466E-027  0.1556522E+04  0.7818608E-02  0.8847712E-01
          2   -1    0    0  501    0  0.00000000000E+00  0.00000000000E+00  0.87400260349E+03  0.87400260349E+03  0.25500000000E-02 0.  1.
         -2   -1    0    0    0  501 -0.00000000000E+00 -0.00000000000E+00 -0.69300752411E+03  0.69300752412E+03  0.25500000000E-02 0. -1.
     200001    2    1    2    0    0  0.28738490025E+03 -0.57919490768E+01 -0.94778915796E+02  0.76160654928E+03  0.69888329888E+03 0.  0.
    5000001    2    3    3    0    0  0.18053135394E+03  0.84743881923E+02  0.95658506196E+01  0.23198192057E+03  0.11811439665E+03 0.  0.
        -13    1    4    4    0    0  0.35487185041E+02 -0.27112641676E+02 -0.86315100256E+01  0.45485709516E+02  0.10566000000E+00 0. -1.
     200003    1    4    4    0    0  0.14504416890E+03  0.11185652360E+03  0.18197360645E+02  0.18649621106E+03  0.30000000000E+02 0. -1.
     200000    1    3    3    0    0  0.10685354631E+03 -0.90535831000E+02 -0.10434476642E+03  0.52962462871E+03  0.50000000000E+03 0. -1.
    -200001    1    1    2    0    0 -0.28738490025E+03  0.57919490768E+01  0.27577399517E+03  0.80540357833E+03  0.70000000000E+03 0. -1.
<mgrwt>
<rscale>  0 0.15565223E+04</rscale>
<asrwt>0</asrwt>
<pdfrwt beam="1">  1        2 0.12485751E+00 0.15565223E+04</pdfrwt>
<pdfrwt beam="2">  1       -2 0.99001075E-01 0.15565223E+04</pdfrwt>
<totfact> 0.27596492E+01</totfact>
</mgrwt>
</event>
<event>
 8    1  0.2682466E-027  0.1477766E+04  0.7818608E-02  0.8899374E-01
         -2   -1    0    0    0  501 -0.00000000000E+00  0.00000000000E+00  0.34852094245E+03  0.34852094246E+03  0.25500000000E-02 0. -1.
          2   -1    0    0  501    0  0.00000000000E+00 -0.00000000000E+00 -0.15664713687E+04  0.15664713687E+04  0.25500000000E-02 0.  1.
     200001    2    1    2    0    0  0.83766850627E+02  0.15297218693E+03 -0.81627695701E+03  0.10893053540E+04  0.69990049904E+03 0.  0.
    5000001    2    3    3    0    0  0.96348004718E+02  0.42059224153E+02 -0.19430280988E+03  0.28350648928E+03  0.17768070010E+03 0.  0.
        -13    1    4    4    0    0  0.81621710273E+02  0.10060779722E+03 -0.16554904857E+03  0.21021543972E+03  0.10566000000E+00 0. -1.
     200003    1    4    4    0    0  0.14726294445E+02 -0.58548573068E+02 -0.28753761311E+02  0.73291049562E+02  0.30000000000E+02 0. -1.
     200000    1    3    3    0    0 -0.12581154091E+02  0.11091296277E+03 -0.62197414713E+03  0.80579886476E+03  0.50000000000E+03 0.  1.
    -200001    1    1    2    0    0 -0.83766850627E+02 -0.15297218693E+03 -0.40167346922E+03  0.82568695709E+03  0.70000000000E+03 0. -1.
<mgrwt>
<rscale>  0 0.14777660E+04</rscale>
<asrwt>0</asrwt>
<pdfrwt beam="1">  1        2 0.22378162E+00 0.14777660E+04</pdfrwt>
<pdfrwt beam="2">  1       -2 0.49788707E-01 0.14777660E+04</pdfrwt>
<totfact> 0.49847228E+01</totfact>
</mgrwt>
</event>
<event>
 8    1  0.2682466E-027  0.1694137E+04  0.7818608E-02  0.8764715E-01
         -2   -1    0    0    0  501 -0.00000000000E+00  0.00000000000E+00  0.44277741554E+03  0.44277741555E+03  0.25500000000E-02 0. -1.
          2   -1    0    0  501    0  0.00000000000E+00 -0.00000000000E+00 -0.16205105280E+04  0.16205105280E+04  0.25500000000E-02 0.  1.
     200001    2    1    2    0    0 -0.11062983231E+03 -0.13211995441E+03 -0.47383030557E+02  0.72262170999E+03  0.70017308004E+03 0.  0.
    5000001    2    3    3    0    0 -0.10772576438E+03 -0.10874381055E+03 -0.41900004481E+02  0.22203711046E+03  0.15528944394E+03 0.  0.
        -13    1    4    4    0    0  0.35970551282E+02 -0.11313321920E+02  0.87617422343E+01  0.38712415365E+02  0.10566000000E+00 0. -1.
     200003    1    4    4    0    0 -0.14369631566E+03 -0.97430488634E+02 -0.50661746715E+02  0.18332469509E+03  0.30000000000E+02 0. -1.
     200000    1    3    3    0    0 -0.29040679335E+01 -0.23376143854E+02 -0.54830260759E+01  0.50058459953E+03  0.50000000000E+03 0. -1.
    -200001    1    1    2    0    0  0.11062983231E+03  0.13211995441E+03 -0.11303500819E+04  0.13406662335E+04  0.70000000000E+03 0.  1.
<mgrwt>
<rscale>  0 0.16941375E+04</rscale>
<asrwt>0</asrwt>
<pdfrwt beam="1">  1        2 0.23150150E+00 0.16941375E+04</pdfrwt>
<pdfrwt beam="2">  1       -2 0.63253917E-01 0.16941375E+04</pdfrwt>
<totfact> 0.27880251E+01</totfact>
</mgrwt>
</event>
<event>
 8    1  0.2682466E-027  0.1501874E+04  0.7818608E-02  0.8883208E-01
          2   -1    0    0  501    0  0.00000000000E+00  0.00000000000E+00  0.17146290074E+04  0.17146290074E+04  0.25500000000E-02 0.  1.
         -2   -1    0    0    0  501 -0.00000000000E+00 -0.00000000000E+00 -0.32887934712E+03  0.32887934713E+03  0.25500000000E-02 0. -1.
     200001    2    1    2    0    0  0.17453177752E+03 -0.10465427220E+03  0.93722354435E+03  0.11875939110E+04  0.70041235515E+03 0.  0.
    5000001    2    3    3    0    0  0.60830473864E+02 -0.83744977272E+01  0.13030300767E+03  0.22669925809E+03  0.17505199527E+03 0.  0.
        -13    1    4    4    0    0  0.51350627818E+02  0.67229624723E+02  0.16011784215E+02  0.86099348519E+02  0.10566000000E+00 0. -1.
     200003    1    4    4    0    0  0.94798460460E+01 -0.75604122450E+02  0.11429122345E+03  0.14059990957E+03  0.30000000000E+02 0. -1.
     200000    1    3    3    0    0  0.11370130366E+03 -0.96279774473E+02  0.80692053668E+03  0.96089465289E+03  0.50000000000E+03 0.  1.
    -200001    1    1    2    0    0 -0.17453177752E+03  0.10465427220E+03  0.44852611597E+03  0.85591444360E+03  0.70000000000E+03 0. -1.
<mgrwt>
<rscale>  0 0.15018736E+04</rscale>
<asrwt>0</asrwt>
<pdfrwt beam="1">  1        2 0.24494700E+00 0.15018736E+04</pdfrwt>
<pdfrwt beam="2">  1       -2 0.46982764E-01 0.15018736E+04</pdfrwt>
<totfact> 0.46814568E+01</totfact>
</mgrwt>
</event>
<event>
 8    1  0.2682466E-027  0.1738820E+04  0.7818608E-02  0.8739529E-01
         -2   -1    0    0    0  501 -0.00000000000E+00  0.00000000000E+00  0.54070050207E+03  0.54070050207E+03  0.25500000000E-02 0. -1.
          2   -1    0    0  501    0  0.00000000000E+00 -0.00000000000E+00 -0.13979522576E+04  0.13979522576E+04  0.25500000000E-02 0.  1.
     200001    2    1    2    0    0 -0.23844113455E+03  0.25756221909E+03 -0.70112481572E+01  0.78275423828E+03  0.69961601511E+03 0.  0.
    5000001    2    3    3    0    0 -0.90979316510E+02  0.87173091517E+02 -0.12628287481E+03  0.22150281201E+03  0.13130021835E+03 0.  0.
        -13    1    4    4    0    0  0.29334631628E+02  0.15896294737E+02 -0.47999026573E+02  0.58456227342E+02  0.10566000000E+00 0. -1.
     200003    1    4    4    0    0 -0.12031394814E+03  0.71276796779E+02 -0.78283848236E+02  0.16304658466E+03  0.30000000000E+02 0. -1.
     200000    1    3    3    0    0 -0.14746181804E+03  0.17038912758E+03  0.11927162665E+03  0.56125142628E+03  0.50000000000E+03 0. -1.
    -200001    1    1    2    0    0  0.23844113455E+03 -0.25756221909E+03 -0.85024050734E+03  0.11558985214E+04  0.70000000000E+03 0.  1.
<mgrwt>
<rscale>  0 0.17388197E+04</rscale>
<asrwt>0</asrwt>
<pdfrwt beam="1">  1        2 0.19970746E+00 0.17388197E+04</pdfrwt>
<pdfrwt beam="2">  1       -2 0.77242929E-01 0.17388197E+04</pdfrwt>
<totfact> 0.23598861E+01</totfact>
</mgrwt>
</event>
<event>
 8    1  0.2682466E-027  0.2444614E+04  0.7818608E-02  0.8422987E-01
         -2   -1    0    0    0  501 -0.00000000000E+00  0.00000000000E+00  0.69845923857E+03  0.69845923858E+03  0.25500000000E-02 0. -1.
          2   -1    0    0  501    0  0.00000000000E+00 -0.00000000000E+00 -0.21390432489E+04  0.21390432489E+04  0.25500000000E-02 0.  1.
     200001    2    1    2    0    0  0.35768736010E+02  0.66319698129E+03  0.15166603878E+03  0.97568352277E+03  0.69845981331E+03 0.  0.
    5000001    2    3    3    0    0 -0.33002361619E+02  0.18562450060E+03  0.86815923528E+02  0.27782216430E+03  0.18466872855E+03 0.  0.
        -13    1    4    4    0    0 -0.33926466094E+02 -0.43684398514E+01 -0.35958573073E+02  0.49629814727E+02  0.10566000000E+00 0. -1.
     200003    1    4    4    0    0  0.92410447439E+00  0.18999294045E+03  0.12277449660E+03  0.22819234958E+03  0.30000000000E+02 0. -1.
     200000    1    3    3    0    0  0.68771097629E+02  0.47757248070E+03  0.64850115251E+02  0.69786135846E+03  0.50000000000E+03 0. -1.
    -200001    1    1    2    0    0 -0.35768736010E+02 -0.66319698129E+03 -0.15922500491E+04  0.18618189647E+04  0.70000000000E+03 0.  1.
<mgrwt>
<rscale>  0 0.24446141E+04</rscale>
<asrwt>0</asrwt>
<pdfrwt beam="1">  1        2 0.30557760E+00 0.24446141E+04</pdfrwt>
<pdfrwt beam="2">  1       -2 0.99779892E-01 0.24446141E+04</pdfrwt>
<totfact> 0.50880482E+00</totfact>
</mgrwt>
</event>
<event>
 8    1  0.2682466E-027  0.1529121E+04  0.7818608E-02  0.8865316E-01
         -2   -1    0    0    0  501 -0.00000000000E+00  0.00000000000E+00  0.17290164850E+04  0.17290164850E+04  0.25500000000E-02 0. -1.
          2   -1    0    0  501    0  0.00000000000E+00 -0.00000000000E+00 -0.33808376900E+03  0.33808376901E+03  0.25500000000E-02 0.  1.
     200001    2    1    2    0    0  0.11717928165E+03 -0.87779095716E+02  0.32865069670E+03  0.78652255538E+03  0.69940710319E+03 0.  0.
    5000001    2    3    3    0    0 -0.11338363111E+02 -0.39217611162E+02  0.71369918461E+02  0.20767162323E+03  0.19070201450E+03 0.  0.
        -13    1    4    4    0    0 -0.79069950792E+02  0.36385196017E+02  0.17024080130E+02  0.88689176768E+02  0.10566000000E+00 0. -1.
     200003    1    4    4    0    0  0.67731587682E+02 -0.75602807179E+02  0.54345838331E+02  0.11898244647E+03  0.30000000000E+02 0. -1.
     200000    1    3    3    0    0  0.12851764476E+03 -0.48561484554E+02  0.25728077824E+03  0.57885093215E+03  0.50000000000E+03 0.  1.
    -200001    1    1    2    0    0 -0.11717928165E+03  0.87779095716E+02  0.10622820193E+04  0.12805776986E+04  0.70000000000E+03 0. -1.
<mgrwt>
<rscale>  0 0.15291205E+04</rscale>
<asrwt>0</asrwt>
<pdfrwt beam="1">  1        2 0.48297682E-01 0.15291205E+04</pdfrwt>
<pdfrwt beam="2">  1       -2 0.24700235E+00 0.15291205E+04</pdfrwt>
<totfact> 0.67646138E+00</totfact>
</mgrwt>
</event>
<event>
 8    1  0.2682466E-027  0.1616603E+04  0.7818608E-02  0.8810413E-01
          2   -1    0    0  501    0  0.00000000000E+00  0.00000000000E+00  0.45507899908E+03  0.45507899909E+03  0.25500000000E-02 0. -1.
         -2   -1    0    0    0  501 -0.00000000000E+00 -0.00000000000E+00 -0.14356878260E+04  0.14356878260E+04  0.25500000000E-02 0.  1.
     200001    2    1    2    0    0  0.14884315696E+03  0.46187063079E+02 -0.54344081856E+02  0.71933440786E+03  0.70014368592E+03 0.  0.
    5000001    2    3    3    0    0  0.67173348357E+02  0.93941371378E+01 -0.73101652731E+01  0.20920122295E+03  0.19776552942E+03 0.  0.
        -13    1    4    4    0    0  0.48697802324E+02  0.99999202311E+02  0.42137411235E+01  0.11130625855E+03  0.10566000000E+00 0. -1.
     200003    1    4    4    0    0  0.18475546033E+02 -0.90605065174E+02 -0.11523906397E+02  0.97894964400E+02  0.30000000000E+02 0. -1.
     200000    1    3    3    0    0  0.81669808601E+02  0.36792925941E+02 -0.47033916583E+02  0.51013318491E+03  0.50000000000E+03 0. -1.
    -200001    1    1    2    0    0 -0.14884315696E+03 -0.46187063079E+02 -0.92626474504E+03  0.11714324172E+04  0.70000000000E+03 0.  1.
<mgrwt>
<rscale>  0 0.16166031E+04</rscale>
<asrwt>0</asrwt>
<pdfrwt beam="1">  1        2 0.65011286E-01 0.16166031E+04</pdfrwt>
<pdfrwt beam="2">  1       -2 0.20509826E+00 0.16166031E+04</pdfrwt>
<totfact> 0.88325678E+00</totfact>
</mgrwt>
</event>
<event>
 8    1  0.2682466E-027  0.1733629E+04  0.7818608E-02  0.8742413E-01
          2   -1    0    0  501    0  0.00000000000E+00  0.00000000000E+00  0.31566898536E+04  0.31566898536E+04  0.25500000000E-02 0.  1.
         -2   -1    0    0    0  501 -0.00000000000E+00 -0.00000000000E+00 -0.23802392880E+03  0.23802392881E+03  0.25500000000E-02 0. -1.
     200001    2    1    2    0    0  0.22230647015E+03 -0.46119746698E+03  0.14456032596E+04  0.16853171386E+04  0.69885749859E+03 0.  0.
    5000001    2    3    3    0    0  0.15974052754E+03 -0.14039178036E+03  0.39534997074E+03  0.47706933435E+03  0.16145173363E+03 0.  0.
        -13    1    4    4    0    0  0.51422619363E+02  0.25791608745E+02  0.43811837422E+02  0.72311694255E+02  0.10566000000E+00 0. -1.
     200003    1    4    4    0    0  0.10831790817E+03 -0.16618338910E+03  0.35153813331E+03  0.40475764010E+03  0.30000000000E+02 0. -1.
     200000    1    3    3    0    0  0.62565942619E+02 -0.32080568663E+03  0.10502532888E+04  0.12082478042E+04  0.50000000000E+03 0.  1.
    -200001    1    1    2    0    0 -0.22230647015E+03  0.46119746698E+03  0.14730626653E+04  0.17093966439E+04  0.70000000000E+03 0. -1.
<mgrwt>
<rscale>  0 0.17336294E+04</rscale>
<asrwt>0</asrwt>
<pdfrwt beam="1">  1        2 0.45095566E+00 0.17336294E+04</pdfrwt>
<pdfrwt beam="2">  1       -2 0.34003421E-01 0.17336294E+04</pdfrwt>
<totfact> 0.14853179E+01</totfact>
</mgrwt>
</event>
<event>
 8    1  0.2682466E-027  0.1469408E+04  0.7818608E-02  0.8905055E-01
         -2   -1    0    0    0  501 -0.00000000000E+00  0.00000000000E+00  0.67946227420E+03  0.67946227421E+03  0.25500000000E-02 0. -1.
          2   -1    0    0  501    0  0.00000000000E+00 -0.00000000000E+00 -0.79443705439E+03  0.79443705440E+03  0.25500000000E-02 0.  1.
     200001    2    1    2    0    0  0.11858880217E+02  0.19120676960E+03 -0.19864108635E+03  0.74335110120E+03  0.69022598957E+03 0.  0.
    5000001    2    3    3    0    0  0.42379402978E+02 -0.32087556179E+02 -0.74031660743E+02  0.18092833567E+03  0.15629699548E+03 0.  0.
        -13    1    4    4    0    0  0.86064146852E+02  0.80151504940E+01 -0.75037100322E+02  0.11446334610E+03  0.10566000000E+00 0. -1.
     200003    1    4    4    0    0 -0.43684743874E+02 -0.40102706673E+02  0.10054395797E+01  0.66464989571E+02  0.30000000000E+02 0. -1.
     200000    1    3    3    0    0 -0.30520522761E+02  0.22329432578E+03 -0.12460942560E+03  0.56242276553E+03  0.50000000000E+03 0.  1.
    -200001    1    1    2    0    0 -0.11858880217E+02 -0.19120676960E+03  0.83666306153E+02  0.73054822741E+03  0.70000000000E+03 0.  1.
<mgrwt>
<rscale>  0 0.14694081E+04</rscale>
<asrwt>0</asrwt>
<pdfrwt beam="1">  1        2 0.11349101E+00 0.14694081E+04</pdfrwt>
<pdfrwt beam="2">  1       -2 0.97066040E-01 0.14694081E+04</pdfrwt>
<totfact> 0.32983190E+01</totfact>
</mgrwt>
</event>
<event>
 8    1  0.2682466E-027  0.1860914E+04  0.7818608E-02  0.8674561E-01
         -2   -1    0    0    0  501 -0.00000000000E+00  0.00000000000E+00  0.38107951354E+03  0.38107951354E+03  0.25500000000E-02 0. -1.
          2   -1    0    0  501    0  0.00000000000E+00 -0.00000000000E+00 -0.22718350759E+04  0.22718350759E+04  0.25500000000E-02 0.  1.
     200001    2    1    2    0    0  0.50026546655E+03 -0.31301087436E+03 -0.11797406173E+04  0.14936977863E+04  0.70078799104E+03 0.  0.
    5000001    2    3    3    0    0  0.38637134432E+02 -0.87957600617E+02 -0.30206818918E+03  0.36053469831E+03  0.17178681588E+03 0.  0.
        -13    1    4    4    0    0  0.56640542275E+02 -0.52129509807E+02 -0.27974241605E+02  0.81903639597E+02  0.10566000000E+00 0. -1.
     200003    1    4    4    0    0 -0.18003407843E+02 -0.35828090810E+02 -0.27409394757E+03  0.27863105871E+03  0.30000000000E+02 0. -1.
     200000    1    3    3    0    0  0.46162833211E+03 -0.22505327374E+03 -0.87767242810E+03  0.11331630880E+04  0.50000000000E+03 0. -1.
    -200001    1    1    2    0    0 -0.50026546655E+03  0.31301087436E+03 -0.71101494512E+03  0.11592168031E+04  0.70000000000E+03 0. -1.
<mgrwt>
<rscale>  0 0.18609135E+04</rscale>
<asrwt>0</asrwt>
<pdfrwt beam="1">  1        2 0.32454786E+00 0.18609135E+04</pdfrwt>
<pdfrwt beam="2">  1       -2 0.54439932E-01 0.18609135E+04</pdfrwt>
<totfact> 0.17371879E+01</totfact>
</mgrwt>
</event>
<event>
 8    1  0.2682466E-027  0.1684024E+04  0.7818608E-02  0.8770529E-01
         -2   -1    0    0    0  501 -0.00000000000E+00  0.00000000000E+00  0.21825427647E+03  0.21825427648E+03  0.25500000000E-02 0. -1.
          2   -1    0    0  501    0  0.00000000000E+00 -0.00000000000E+00 -0.32484312321E+04  0.32484312321E+04  0.25500000000E-02 0.  1.
     200001    2    1    2    0    0 -0.66549471443E+02 -0.22868087079E+03 -0.68683486261E+03  0.10094561872E+04  0.70038267585E+03 0.  0.
    5000001    2    3    3    0    0 -0.77870538330E+00 -0.12800419893E+03 -0.28007290385E+03  0.35377571854E+03  0.17415724571E+03 0.  0.
        -13    1    4    4    0    0 -0.82992745346E+02 -0.82524013118E+02 -0.14028805875E+03  0.18269854710E+03  0.10566000000E+00 0. -1.
     200003    1    4    4    0    0  0.82214039963E+02 -0.45480185814E+02 -0.13978484510E+03  0.17107717144E+03  0.30000000000E+02 0. -1.
     200000    1    3    3    0    0 -0.65770766060E+02 -0.10067667186E+03 -0.40676195876E+03  0.65568046869E+03  0.50000000000E+03 0. -1.
    -200001    1    1    2    0    0  0.66549471443E+02  0.22868087079E+03 -0.23433420931E+04  0.24572293214E+04  0.70000000000E+03 0.  1.
<mgrwt>
<rscale>  0 0.16840238E+04</rscale>
<asrwt>0</asrwt>
<pdfrwt beam="1">  1        2 0.46406158E+00 0.16840238E+04</pdfrwt>
<pdfrwt beam="2">  1       -2 0.31179184E-01 0.16840238E+04</pdfrwt>
<totfact> 0.15560709E+01</totfact>
</mgrwt>
</event>
<event>
 8    1  0.2682466E-027  0.1597284E+04  0.7818608E-02  0.8822219E-01
         -2   -1    0    0    0  501 -0.00000000000E+00  0.00000000000E+00  0.30808525722E+03  0.30808525723E+03  0.25500000000E-02 0. -1.
          2   -1    0    0  501    0  0.00000000000E+00 -0.00000000000E+00 -0.20702991704E+04  0.20702991704E+04  0.25500000000E-02 0.  1.
     200001    2    1    2    0    0 -0.23847643663E+03  0.22140312105E+03 -0.57876379229E+03  0.96542846884E+03  0.70085251540E+03 0.  0.
    5000001    2    3    3    0    0  0.20923315084E+01  0.72996194761E+02 -0.14157195422E+03  0.24360116868E+03  0.18429891172E+03 0.  0.
        -13    1    4    4    0    0 -0.71264098513E+02 -0.85686320443E+01 -0.98746823836E+02  0.12207759653E+03  0.10566000000E+00 0. -1.
     200003    1    4    4    0    0  0.73356430022E+02  0.81564826805E+02 -0.42825130380E+02  0.12152357215E+03  0.30000000000E+02 0. -1.
     200000    1    3    3    0    0 -0.24056876814E+03  0.14840692629E+03 -0.43719183807E+03  0.72182730016E+03  0.50000000000E+03 0. -1.
    -200001    1    1    2    0    0  0.23847643663E+03 -0.22140312105E+03 -0.11834501209E+04  0.14129559588E+04  0.70000000000E+03 0.  1.
<mgrwt>
<rscale>  0 0.15972835E+04</rscale>
<asrwt>0</asrwt>
<pdfrwt beam="1">  1        2 0.29575702E+00 0.15972835E+04</pdfrwt>
<pdfrwt beam="2">  1       -2 0.44012181E-01 0.15972835E+04</pdfrwt>
<totfact> 0.34720747E+01</totfact>
</mgrwt>
</event>
<event>
 8    1  0.2682466E-027  0.1455242E+04  0.7818608E-02  0.8914774E-01
          2   -1    0    0  501    0  0.00000000000E+00  0.00000000000E+00  0.78049807057E+03  0.78049807058E+03  0.25500000000E-02 0.  1.
         -2   -1    0    0    0  501 -0.00000000000E+00 -0.00000000000E+00 -0.67832609883E+03  0.67832609884E+03  0.25500000000E-02 0. -1.
     200001    2    1    2    0    0  0.17222577964E+03  0.97729874456E+02  0.67234807445E+02  0.73051554460E+03  0.69994256481E+03 0.  0.
    5000001    2    3    3    0    0  0.31012175397E+02 -0.88346816065E+00 -0.49249428247E+02  0.18900427922E+03  0.17981817439E+03 0.  0.
        -13    1    4    4    0    0 -0.22370309184E+02 -0.78324262582E+02 -0.74563608812E+01  0.81796878447E+02  0.10566000000E+00 0. -1.
     200003    1    4    4    0    0  0.53382484581E+02  0.77440794422E+02 -0.41793067365E+02  0.10720740077E+03  0.30000000000E+02 0. -1.
     200000    1    3    3    0    0  0.14121360424E+03  0.98613342616E+02  0.11648423569E+03  0.54151126538E+03  0.50000000000E+03 0.  1.
    -200001    1    1    2    0    0 -0.17222577964E+03 -0.97729874456E+02  0.34937164298E+02  0.72830862482E+03  0.70000000000E+03 0. -1.
<mgrwt>
<rscale>  0 0.14552419E+04</rscale>
<asrwt>0</asrwt>
<pdfrwt beam="1">  1        2 0.11149972E+00 0.14552419E+04</pdfrwt>
<pdfrwt beam="2">  1       -2 0.96903729E-01 0.14552419E+04</pdfrwt>
<totfact> 0.33910266E+01</totfact>
</mgrwt>
</event>
<event>
 8    1  0.2682466E-027  0.3334361E+04  0.7818608E-02  0.8154207E-01
         -2   -1    0    0    0  501 -0.00000000000E+00  0.00000000000E+00  0.21218747001E+04  0.21218747001E+04  0.25500000000E-02 0. -1.
          2   -1    0    0  501    0  0.00000000000E+00 -0.00000000000E+00 -0.13099226093E+04  0.13099226093E+04  0.25500000000E-02 0.  1.
     200001    2    1    2    0    0 -0.17963167616E+03 -0.11824714978E+03 -0.11358532152E+04  0.13508851446E+04  0.69891216897E+03 0.  0.
    5000001    2    3    3    0    0 -0.11619967541E+03  0.22561537875E+02 -0.30655091930E+03  0.37027665840E+03  0.17064568579E+03 0.  0.
        -13    1    4    4    0    0 -0.50189073661E+02 -0.63792453081E+02 -0.66023156312E+02  0.10463024667E+03  0.10566000000E+00 0. -1.
     200003    1    4    4    0    0 -0.66010601748E+02  0.86353990956E+02 -0.24052776299E+03  0.26564641173E+03  0.30000000000E+02 0. -1.
     200000    1    3    3    0    0 -0.63432000755E+02 -0.14080868766E+03 -0.82930229592E+03  0.98060848622E+03  0.50000000000E+03 0.  1.
    -200001    1    1    2    0    0  0.17963167616E+03  0.11824714978E+03  0.19478053060E+04  0.20809121648E+04  0.70000000000E+03 0. -1.
<mgrwt>
<rscale>  0 0.33343615E+04</rscale>
<asrwt>0</asrwt>
<pdfrwt beam="1">  1        2 0.18713180E+00 0.33343615E+04</pdfrwt>
<pdfrwt beam="2">  1       -2 0.30312496E+00 0.33343615E+04</pdfrwt>
<totfact> 0.47324543E-01</totfact>
</mgrwt>
</event>
<event>
 8    1  0.2682466E-027  0.1481580E+04  0.7818608E-02  0.8896795E-01
          2   -1    0    0  501    0  0.00000000000E+00  0.00000000000E+00  0.12472398392E+04  0.12472398392E+04  0.25500000000E-02 0.  1.
         -2   -1    0    0    0  501 -0.00000000000E+00 -0.00000000000E+00 -0.43998761056E+03  0.43998761057E+03  0.25500000000E-02 0. -1.
     200001    2    1    2    0    0 -0.11874683264E+03 -0.58816937718E+02  0.17361170897E+03  0.73378078079E+03  0.70052335174E+03 0.  0.
    5000001    2    3    3    0    0 -0.69262615969E+01 -0.95909037467E+02  0.50919030254E+02  0.20563955216E+03  0.17449458788E+03 0.  0.
        -13    1    4    4    0    0  0.31851417857E+02 -0.56533921757E+02 -0.53264134842E+02  0.83950439863E+02  0.10566000000E+00 0. -1.
     200003    1    4    4    0    0 -0.38777679454E+02 -0.39375115710E+02  0.10418316510E+03  0.12168911229E+03  0.30000000000E+02 0. -1.
     200000    1    3    3    0    0 -0.11182057104E+03  0.37092099749E+02  0.12269267871E+03  0.52814122863E+03  0.50000000000E+03 0. -1.
    -200001    1    1    2    0    0  0.11874683264E+03  0.58816937718E+02  0.63364051966E+03  0.95344666898E+03  0.70000000000E+03 0.  1.
<mgrwt>
<rscale>  0 0.14815803E+04</rscale>
<asrwt>0</asrwt>
<pdfrwt beam="1">  1        2 0.17817712E+00 0.14815803E+04</pdfrwt>
<pdfrwt beam="2">  1       -2 0.62855373E-01 0.14815803E+04</pdfrwt>
<totfact> 0.45679380E+01</totfact>
</mgrwt>
</event>
<event>
 8    1  0.2682466E-027  0.1928199E+04  0.7818608E-02  0.8640946E-01
          2   -1    0    0  501    0  0.00000000000E+00  0.00000000000E+00  0.89020853725E+03  0.89020853725E+03  0.25500000000E-02 0.  1.
         -2   -1    0    0    0  501 -0.00000000000E+00 -0.00000000000E+00 -0.10441236701E+04  0.10441236701E+04  0.25500000000E-02 0. -1.
     200001    2    1    2    0    0 -0.56270711319E+03  0.28636241723E+03  0.12642259377E+03  0.95085268535E+03  0.69963949844E+03 0.  0.
    5000001    2    3    3    0    0 -0.15386632304E+03  0.65796359232E+02 -0.10607557675E+02  0.25473671797E+03  0.19176618302E+03 0.  0.
        -13    1    4    4    0    0 -0.10694506777E+03 -0.24420387312E+02 -0.72954027050E+02  0.13174180833E+03  0.10566000000E+00 0. -1.
     200003    1    4    4    0    0 -0.46921255275E+02  0.90216746544E+02  0.62346469375E+02  0.12299490964E+03  0.30000000000E+02 0. -1.
     200000    1    3    3    0    0 -0.40884079015E+03  0.22056605799E+03  0.13703015145E+03  0.69611596737E+03  0.50000000000E+03 0. -1.
    -200001    1    1    2    0    0  0.56270711319E+03 -0.28636241723E+03 -0.28033772662E+03  0.98347952200E+03  0.70000000000E+03 0.  1.
<mgrwt>
<rscale>  0 0.19281990E+04</rscale>
<asrwt>0</asrwt>
<pdfrwt beam="1">  1        2 0.12717265E+00 0.19281990E+04</pdfrwt>
<pdfrwt beam="2">  1       -2 0.14916052E+00 0.19281990E+04</pdfrwt>
<totfact> 0.94101398E+00</totfact>
</mgrwt>
</event>
<event>
 8    1  0.2682466E-027  0.1589827E+04  0.7818608E-02  0.8826822E-01
          2   -1    0    0  501    0  0.00000000000E+00  0.00000000000E+00  0.16740827963E+04  0.16740827963E+04  0.25500000000E-02 0.  1.
         -2   -1    0    0    0  501 -0.00000000000E+00 -0.00000000000E+00 -0.37745271794E+03  0.37745271795E+03  0.25500000000E-02 0. -1.
     200001    2    1    2    0    0 -0.11743092698E+03  0.22577662560E+03  0.28947232631E+03  0.79888558518E+03  0.69975627416E+03 0.  0.
    5000001    2    3    3    0    0 -0.81707763058E+01  0.73671890206E+02  0.21893950150E+03  0.26032406554E+03  0.11974892397E+03 0.  0.
        -13    1    4    4    0    0  0.46194580155E+02  0.22551805453E+02  0.13314993641E+03  0.14272855319E+03  0.10566000000E+00 0. -1.
     200003    1    4    4    0    0 -0.54365356461E+02  0.51120084753E+02  0.85789565086E+02  0.11759551235E+03  0.30000000000E+02 0. -1.
     200000    1    3    3    0    0 -0.10926015068E+03  0.15210473539E+03  0.70532824809E+02  0.53856151963E+03  0.50000000000E+03 0. -1.
    -200001    1    1    2    0    0  0.11743092698E+03 -0.22577662560E+03  0.10071577521E+04  0.12526499291E+04  0.70000000000E+03 0.  1.
<mgrwt>
<rscale>  0 0.15898265E+04</rscale>
<asrwt>0</asrwt>
<pdfrwt beam="1">  1        2 0.23915469E+00 0.15898265E+04</pdfrwt>
<pdfrwt beam="2">  1       -2 0.53921817E-01 0.15898265E+04</pdfrwt>
<totfact> 0.36853429E+01</totfact>
</mgrwt>
</event>
<event>
 8    1  0.2682466E-027  0.1708042E+04  0.7818608E-02  0.8756791E-01
         -2   -1    0    0    0  501 -0.00000000000E+00  0.00000000000E+00  0.16781234988E+04  0.16781234988E+04  0.25500000000E-02 0. -1.
          2   -1    0    0  501    0  0.00000000000E+00 -0.00000000000E+00 -0.43462342393E+03  0.43462342394E+03  0.25500000000E-02 0.  1.
     200001    2    1    2    0    0  0.28626585965E+03 -0.39951514814E+02  0.11078594503E+04  0.13433688330E+04  0.70266848075E+03 0.  0.
    5000001    2    3    3    0    0  0.13532325072E+03  0.89666175525E+01  0.34102829912E+03  0.41427967187E+03  0.19218367076E+03 0.  0.
        -13    1    4    4    0    0  0.14060238884E+03 -0.65133324477E+02  0.23162641694E+03  0.27867936755E+03  0.10566000000E+00 0. -1.
     200003    1    4    4    0    0 -0.52791381216E+01  0.74099942029E+02  0.10940188217E+03  0.13560030432E+03  0.30000000000E+02 0. -1.
     200000    1    3    3    0    0  0.15094260893E+03 -0.48918132366E+02  0.76683115120E+03  0.92908916112E+03  0.50000000000E+03 0. -1.
    -200001    1    1    2    0    0 -0.28626585965E+03  0.39951514814E+02  0.13564062452E+03  0.76937808973E+03  0.70000000000E+03 0.  1.
<mgrwt>
<rscale>  0 0.17080419E+04</rscale>
<asrwt>0</asrwt>
<pdfrwt beam="1">  1        2 0.62089059E-01 0.17080419E+04</pdfrwt>
<pdfrwt beam="2">  1       -2 0.23973194E+00 0.17080419E+04</pdfrwt>
<totfact> 0.55824060E+00</totfact>
</mgrwt>
</event>
<event>
 8    1  0.2682466E-027  0.1550088E+04  0.7818608E-02  0.8851811E-01
          2   -1    0    0  501    0  0.00000000000E+00  0.00000000000E+00  0.16511627066E+04  0.16511627066E+04  0.25500000000E-02 0.  1.
         -2   -1    0    0    0  501 -0.00000000000E+00 -0.00000000000E+00 -0.36380025312E+03  0.36380025313E+03  0.25500000000E-02 0. -1.
     200001    2    1    2    0    0 -0.20319731871E+03  0.26330837163E+03  0.62011707495E+03  0.99230131281E+03  0.69964009309E+03 0.  0.
    5000001    2    3    3    0    0  0.26780814713E+02  0.13670042253E+02  0.17088824483E+03  0.23929681139E+03  0.16479104839E+03 0.  0.
        -13    1    4    4    0    0  0.69005713888E+01  0.20587543827E+02 -0.28915150041E+02  0.36160225556E+02  0.10566000000E+00 0. -1.
     200003    1    4    4    0    0  0.19880243324E+02 -0.69175015741E+01  0.19980339487E+03  0.20313658583E+03  0.30000000000E+02 0. -1.
     200000    1    3    3    0    0 -0.22997813342E+03  0.24963832938E+03  0.44922883012E+03  0.75300450142E+03  0.50000000000E+03 0.  1.
    -200001    1    1    2    0    0  0.20319731871E+03 -0.26330837163E+03  0.66724537850E+03  0.10226616469E+04  0.70000000000E+03 0.  1.
<mgrwt>
<rscale>  0 0.15500883E+04</rscale>
<asrwt>0</asrwt>
<pdfrwt beam="1">  1        2 0.23588038E+00 0.15500883E+04</pdfrwt>
<pdfrwt beam="2">  1       -2 0.51971466E-01 0.15500883E+04</pdfrwt>
<totfact> 0.40994833E+01</totfact>
</mgrwt>
</event>
<event>
 8    1  0.2682466E-027  0.1925875E+04  0.7818608E-02  0.8642083E-01
          2   -1    0    0  501    0  0.00000000000E+00  0.00000000000E+00  0.18738191759E+04  0.18738191759E+04  0.25500000000E-02 0.  1.
         -2   -1    0    0    0  501 -0.00000000000E+00 -0.00000000000E+00 -0.49484398584E+03  0.49484398585E+03  0.25500000000E-02 0. -1.
     200001    2    1    2    0    0  0.12482043605E+03  0.51245384272E+03  0.11812809479E+04  0.14701799423E+04  0.69843775865E+03 0.  0.
    5000001    2    3    3    0    0  0.47054175808E+02  0.15645538305E+03  0.37637658292E+03  0.45496886509E+03  0.19658319788E+03 0.  0.
        -13    1    4    4    0    0  0.11888348911E+03  0.81027692286E+02  0.25031557731E+03  0.28871555259E+03  0.10566000000E+00 0. -1.
     200003    1    4    4    0    0 -0.71829313300E+02  0.75427690768E+02  0.12606100560E+03  0.16625331250E+03  0.30000000000E+02 0. -1.
     200000    1    3    3    0    0  0.77766260237E+02  0.35599845966E+03  0.80490436500E+03  0.10152110772E+04  0.50000000000E+03 0.  1.
    -200001    1    1    2    0    0 -0.12482043605E+03 -0.51245384272E+03  0.19769424209E+03  0.89848321939E+03  0.70000000000E+03 0. -1.
<mgrwt>
<rscale>  0 0.19258745E+04</rscale>
<asrwt>0</asrwt>
<pdfrwt beam="1">  1        2 0.26768846E+00 0.19258745E+04</pdfrwt>
<pdfrwt beam="2">  1       -2 0.70691996E-01 0.19258745E+04</pdfrwt>
<totfact> 0.15902918E+01</totfact>
</mgrwt>
</event>
<event>
 8    1  0.2682466E-027  0.1644481E+04  0.7818608E-02  0.8793678E-01
          2   -1    0    0  501    0  0.00000000000E+00  0.00000000000E+00  0.36450231735E+04  0.36450231735E+04  0.25500000000E-02 0.  1.
         -2   -1    0    0    0  501 -0.00000000000E+00 -0.00000000000E+00 -0.18548013844E+03  0.18548013846E+03  0.25500000000E-02 0. -1.
     200001    2    1    2    0    0 -0.17935471897E+03 -0.66607636500E+02  0.26287018517E+04  0.27273706071E+04  0.70133609001E+03 0.  0.
    5000001    2    3    3    0    0 -0.44963730215E+02 -0.41125294552E+02  0.10340519819E+04  0.10505824586E+04  0.17534815174E+03 0.  0.
        -13    1    4    4    0    0  0.16273867587E+02 -0.42989937606E+02  0.67729837069E+02  0.81855454888E+02  0.10566000000E+00 0. -1.
     200003    1    4    4    0    0 -0.61237597801E+02  0.18646430536E+01  0.96632214479E+03  0.96872700375E+03  0.30000000000E+02 0. -1.
     200000    1    3    3    0    0 -0.13439098876E+03 -0.25482341949E+02  0.15946498698E+04  0.16767881485E+04  0.50000000000E+03 0.  1.
    -200001    1    1    2    0    0  0.17935471897E+03  0.66607636500E+02  0.83084118334E+03  0.11031327048E+04  0.70000000000E+03 0. -1.
<mgrwt>
<rscale>  0 0.16444810E+04</rscale>
<asrwt>0</asrwt>
<pdfrwt beam="1">  1        2 0.52071761E+00 0.16444810E+04</pdfrwt>
<pdfrwt beam="2">  1       -2 0.26497162E-01 0.16444810E+04</pdfrwt>
<totfact> 0.12176507E+01</totfact>
</mgrwt>
</event>
<event>
 8    1  0.2682466E-027  0.1548662E+04  0.7818608E-02  0.8852723E-01
         -2   -1    0    0    0  501 -0.00000000000E+00  0.00000000000E+00  0.17941793400E+03  0.17941793402E+03  0.25500000000E-02 0. -1.
          2   -1    0    0  501    0  0.00000000000E+00 -0.00000000000E+00 -0.33418546765E+04  0.33418546765E+04  0.25500000000E-02 0.  1.
     200001    2    1    2    0    0 -0.16447913959E+03  0.15588691391E+03 -0.98735352277E+03  0.12251147043E+04  0.68897383303E+03 0.  0.
    5000001    2    3    3    0    0 -0.14813494056E+02 -0.37315544799E+02 -0.17778073211E+03  0.24270180802E+03  0.16026942758E+03 0.  0.
        -13    1    4    4    0    0 -0.27990664555E+02 -0.29032644176E+02 -0.19883471852E+03  0.20288328709E+03  0.10566000000E+00 0. -1.
     200003    1    4    4    0    0  0.13177170499E+02 -0.82829006227E+01  0.21053986407E+02  0.39818520926E+02  0.30000000000E+02 0. -1.
     200000    1    3    3    0    0 -0.14966564554E+03  0.19320245871E+03 -0.80957279066E+03  0.98241289633E+03  0.50000000000E+03 0.  1.
    -200001    1    1    2    0    0  0.16447913959E+03 -0.15588691391E+03 -0.21750832197E+04  0.22961579061E+04  0.70000000000E+03 0.  1.
<mgrwt>
<rscale>  0 0.15486622E+04</rscale>
<asrwt>0</asrwt>
<pdfrwt beam="1">  1        2 0.47740778E+00 0.15486622E+04</pdfrwt>
<pdfrwt beam="2">  1       -2 0.25631135E-01 0.15486622E+04</pdfrwt>
<totfact> 0.19949310E+01</totfact>
</mgrwt>
</event>
<event>
 8    1  0.2682466E-027  0.1833938E+04  0.7818608E-02  0.8688457E-01
         -2   -1    0    0    0  501 -0.00000000000E+00  0.00000000000E+00  0.69709846522E+03  0.69709846522E+03  0.25500000000E-02 0. -1.
          2   -1    0    0  501    0  0.00000000000E+00 -0.00000000000E+00 -0.12061880941E+04  0.12061880941E+04  0.25500000000E-02 0.  1.
     200001    2    1    2    0    0 -0.16617554495E+03  0.34891136305E+03  0.21126720503E+03  0.82705822890E+03  0.70002716452E+03 0.  0.
    5000001    2    3    3    0    0  0.70162752613E+01  0.16120148704E+03  0.71577975401E+02  0.24848802139E+03  0.17489351809E+03 0.  0.
        -13    1    4    4    0    0  0.11590723359E+02  0.27761711648E+01  0.85737596905E+02  0.86562108809E+02  0.10566000000E+00 0. -1.
     200003    1    4    4    0    0 -0.45744480976E+01  0.15842531588E+03 -0.14159621503E+02  0.16192591259E+03  0.30000000000E+02 0. -1.
     200000    1    3    3    0    0 -0.17319182021E+03  0.18770987601E+03  0.13968922963E+03  0.57857020751E+03  0.50000000000E+03 0. -1.
    -200001    1    1    2    0    0  0.16617554495E+03 -0.34891136305E+03 -0.72035683388E+03  0.10762283304E+04  0.70000000000E+03 0.  1.
<mgrwt>
<rscale>  0 0.18339377E+04</rscale>
<asrwt>0</asrwt>
<pdfrwt beam="1">  1        2 0.17231258E+00 0.18339377E+04</pdfrwt>
<pdfrwt beam="2">  1       -2 0.99585495E-01 0.18339377E+04</pdfrwt>
<totfact> 0.16706378E+01</totfact>
</mgrwt>
</event>
<event>
 8    1  0.2682466E-027  0.3361057E+04  0.7818608E-02  0.8147531E-01
          2   -1    0    0  501    0  0.00000000000E+00  0.00000000000E+00  0.13278958888E+04  0.13278958888E+04  0.25500000000E-02 0.  1.
         -2   -1    0    0    0  501 -0.00000000000E+00 -0.00000000000E+00 -0.21268046940E+04  0.21268046940E+04  0.25500000000E-02 0. -1.
     200001    2    1    2    0    0 -0.25935041315E+03 -0.15044716000E+04 -0.46117130278E+03  0.17415852765E+04  0.69981631380E+03 0.  0.
    5000001    2    3    3    0    0  0.71786498133E+02 -0.26448150705E+03 -0.16303611101E+02  0.29412738505E+03  0.10555255571E+03 0.  0.
        -13    1    4    4    0    0  0.81599419162E+02 -0.18765519906E+03 -0.38354879178E+02  0.20819233142E+03  0.10566000000E+00 0. -1.
     200003    1    4    4    0    0 -0.98129210285E+01 -0.76826307988E+02  0.22051268077E+02  0.85935053628E+02  0.30000000000E+02 0. -1.
     200000    1    3    3    0    0 -0.33113691128E+03 -0.12399900929E+04 -0.44486769168E+03  0.14474578915E+04  0.50000000000E+03 0.  1.
    -200001    1    1    2    0    0  0.25935041315E+03  0.15044716000E+04 -0.33773750238E+03  0.17131153062E+04  0.70000000000E+03 0.  1.
<mgrwt>
<rscale>  0 0.33610565E+04</rscale>
<asrwt>0</asrwt>
<pdfrwt beam="1">  1        2 0.18969941E+00 0.33610565E+04</pdfrwt>
<pdfrwt beam="2">  1       -2 0.30382924E+00 0.33610565E+04</pdfrwt>
<totfact> 0.45702214E-01</totfact>
</mgrwt>
</event>
<event>
 8    1  0.2682466E-027  0.2106586E+04  0.7818608E-02  0.8558348E-01
         -2   -1    0    0    0  501 -0.00000000000E+00  0.00000000000E+00  0.93956176483E+03  0.93956176484E+03  0.25500000000E-02 0. -1.
          2   -1    0    0  501    0  0.00000000000E+00 -0.00000000000E+00 -0.11807914652E+04  0.11807914652E+04  0.25500000000E-02 0.  1.
     200001    2    1    2    0    0  0.43972358946E+03  0.54400170971E+03  0.24272522919E+03  0.10187602611E+04  0.69975869950E+03 0.  0.
    5000001    2    3    3    0    0  0.28073726231E+03  0.17785837670E+03  0.46738259156E+02  0.34962015254E+03  0.97993742568E+02 0.  0.
        -13    1    4    4    0    0  0.20328540553E+03  0.84926867502E+02  0.45565101419E+02  0.22497492873E+03  0.10566000000E+00 0. -1.
     200003    1    4    4    0    0  0.77451856782E+02  0.92931509196E+02  0.11731577370E+01  0.12464522381E+03  0.30000000000E+02 0. -1.
     200000    1    3    3    0    0  0.15898632715E+03  0.36614333301E+03  0.19598697004E+03  0.66914010861E+03  0.50000000000E+03 0. -1.
    -200001    1    1    2    0    0 -0.43972358946E+03 -0.54400170971E+03 -0.48395492957E+03  0.11015929689E+04  0.70000000000E+03 0. -1.
<mgrwt>
<rscale>  0 0.21065864E+04</rscale>
<asrwt>0</asrwt>
<pdfrwt beam="1">  1        2 0.16868449E+00 0.21065864E+04</pdfrwt>
<pdfrwt beam="2">  1       -2 0.13422311E+00 0.21065864E+04</pdfrwt>
<totfact> 0.81195134E+00</totfact>
</mgrwt>
</event>
<event>
 8    1  0.2682466E-027  0.1827997E+04  0.7818608E-02  0.8691551E-01
          2   -1    0    0  501    0  0.00000000000E+00  0.00000000000E+00  0.14209541059E+04  0.14209541059E+04  0.25500000000E-02 0.  1.
         -2   -1    0    0    0  501 -0.00000000000E+00 -0.00000000000E+00 -0.58790983625E+03  0.58790983626E+03  0.25500000000E-02 0. -1.
     200001    2    1    2    0    0  0.14251595820E+03  0.52835478870E+03  0.17798413702E+03  0.90497383964E+03  0.69844807704E+03 0.  0.
    5000001    2    3    3    0    0  0.18374320734E+02  0.18113189919E+03  0.17115590519E+02  0.26321565277E+03  0.18932288784E+03 0.  0.
        -13    1    4    4    0    0 -0.15956272994E+02  0.15579116242E+03  0.84541924203E+02  0.17796864063E+03  0.10566000000E+00 0. -1.
     200003    1    4    4    0    0  0.34330593728E+02  0.25340736773E+02 -0.67426333684E+02  0.85247012147E+02  0.30000000000E+02 0.  1.
     200000    1    3    3    0    0  0.12414163747E+03  0.34722288951E+03  0.16086854650E+03  0.64175818686E+03  0.50000000000E+03 0. -1.
    -200001    1    1    2    0    0 -0.14251595820E+03 -0.52835478870E+03  0.65506013262E+03  0.11038901025E+04  0.70000000000E+03 0.  1.
<mgrwt>
<rscale>  0 0.18279966E+04</rscale>
<asrwt>0</asrwt>
<pdfrwt beam="1">  1        2 0.20299345E+00 0.18279966E+04</pdfrwt>
<pdfrwt beam="2">  1       -2 0.83987118E-01 0.18279966E+04</pdfrwt>
<totfact> 0.18862598E+01</totfact>
</mgrwt>
</event>
<event>
 8    1  0.2682466E-027  0.1708756E+04  0.7818608E-02  0.8756386E-01
         -2   -1    0    0    0  501 -0.00000000000E+00  0.00000000000E+00  0.52436099907E+03  0.52436099907E+03  0.25500000000E-02 0. -1.
          2   -1    0    0  501    0  0.00000000000E+00 -0.00000000000E+00 -0.13920974214E+04  0.13920974214E+04  0.25500000000E-02 0.  1.
     200001    2    1    2    0    0 -0.34607453392E+03 -0.26320483969E+03 -0.68555382634E+03  0.10725183344E+04  0.70090452851E+03 0.  0.
    5000001    2    3    3    0    0 -0.15256323293E+03 -0.89218391154E+02 -0.14058149898E+03  0.28848214549E+03  0.17950857653E+03 0.  0.
        -13    1    4    4    0    0 -0.18735827911E+02 -0.94933073823E+02 -0.11246682581E+03  0.14836481330E+03  0.10566000000E+00 0. -1.
     200003    1    4    4    0    0 -0.13382740502E+03  0.57146826691E+01 -0.28114673172E+02  0.14011733219E+03  0.30000000000E+02 0. -1.
     200000    1    3    3    0    0 -0.19351130098E+03 -0.17398644853E+03 -0.54497232736E+03  0.78403618888E+03  0.50000000000E+03 0. -1.
    -200001    1    1    2    0    0  0.34607453392E+03  0.26320483969E+03 -0.18218259599E+03  0.84394008611E+03  0.70000000000E+03 0.  1.
<mgrwt>
<rscale>  0 0.17087558E+04</rscale>
<asrwt>0</asrwt>
<pdfrwt beam="1">  1        2 0.19887106E+00 0.17087558E+04</pdfrwt>
<pdfrwt beam="2">  1       -2 0.74908714E-01 0.17087558E+04</pdfrwt>
<totfact> 0.25509281E+01</totfact>
</mgrwt>
</event>
<event>
 8    1  0.2682466E-027  0.2146466E+04  0.7818608E-02  0.8541046E-01
          2   -1    0    0  501    0  0.00000000000E+00  0.00000000000E+00  0.23041131071E+04  0.23041131071E+04  0.25500000000E-02 0.  1.
         -2   -1    0    0    0  501 -0.00000000000E+00 -0.00000000000E+00 -0.49990149944E+03  0.49990149944E+03  0.25500000000E-02 0. -1.
     200001    2    1    2    0    0  0.39541376651E+03  0.57456102949E+03  0.14488230417E+04  0.17538843974E+04  0.70039263987E+03 0.  0.
    5000001    2    3    3    0    0  0.11603100733E+03  0.18203590389E+03  0.25624036651E+03  0.37389014470E+03  0.16593507740E+03 0.  0.
        -13    1    4    4    0    0  0.15359536675E+03  0.14303959847E+03  0.20703946703E+03  0.29481725779E+03  0.10566000000E+00 0. -1.
     200003    1    4    4    0    0 -0.37564359422E+02  0.38996305426E+02  0.49200899474E+02  0.79072886913E+02  0.30000000000E+02 0. -1.
     200000    1    3    3    0    0  0.27938275918E+03  0.39252512560E+03  0.11925826752E+04  0.13799942527E+04  0.50000000000E+03 0.  1.
    -200001    1    1    2    0    0 -0.39541376651E+03 -0.57456102949E+03  0.35538856601E+03  0.10501302092E+04  0.70000000000E+03 0. -1.
<mgrwt>
<rscale>  0 0.21464665E+04</rscale>
<asrwt>0</asrwt>
<pdfrwt beam="1">  1        2 0.32915901E+00 0.21464665E+04</pdfrwt>
<pdfrwt beam="2">  1       -2 0.71414500E-01 0.21464665E+04</pdfrwt>
<totfact> 0.91592790E+00</totfact>
</mgrwt>
</event>
<event>
 8    1  0.2682466E-027  0.1878290E+04  0.7818608E-02  0.8665739E-01
         -2   -1    0    0    0  501 -0.00000000000E+00  0.00000000000E+00  0.32692652123E+03  0.32692652124E+03  0.25500000000E-02 0. -1.
          2   -1    0    0  501    0  0.00000000000E+00 -0.00000000000E+00 -0.26978340638E+04  0.26978340638E+04  0.25500000000E-02 0.  1.
     200001    2    1    2    0    0 -0.27388299798E+03  0.47593132403E+03 -0.69494550294E+03  0.11272961506E+04  0.69736994289E+03 0.  0.
    5000001    2    3    3    0    0 -0.11680031128E+03  0.84861751022E+02 -0.10823910302E+03  0.24875487032E+03  0.17122923986E+03 0.  0.
        -13    1    4    4    0    0 -0.15326506026E+03  0.79378219576E+02 -0.10283160688E+03  0.20091150036E+03  0.10566000000E+00 0. -1.
     200003    1    4    4    0    0  0.36464748975E+02  0.54835314461E+01 -0.54074961482E+01  0.47843369964E+02  0.30000000000E+02 0. -1.
     200000    1    3    3    0    0 -0.15708268669E+03  0.39106957301E+03 -0.58670639992E+03  0.87854128025E+03  0.50000000000E+03 0. -1.
    -200001    1    1    2    0    0  0.27388299798E+03 -0.47593132403E+03 -0.16759620396E+04  0.18974644344E+04  0.70000000000E+03 0.  1.
<mgrwt>
<rscale>  0 0.18782902E+04</rscale>
<asrwt>0</asrwt>
<pdfrwt beam="1">  1        2 0.38540485E+00 0.18782902E+04</pdfrwt>
<pdfrwt beam="2">  1       -2 0.46703790E-01 0.18782902E+04</pdfrwt>
<totfact> 0.14149679E+01</totfact>
</mgrwt>
</event>
<event>
 8    1  0.2682466E-027  0.1580590E+04  0.7818608E-02  0.8832562E-01
         -2   -1    0    0    0  501 -0.00000000000E+00  0.00000000000E+00  0.88218658392E+03  0.88218658393E+03  0.25500000000E-02 0. -1.
          2   -1    0    0  501    0  0.00000000000E+00 -0.00000000000E+00 -0.70797476330E+03  0.70797476330E+03  0.25500000000E-02 0.  1.
     200001    2    1    2    0    0 -0.16039188343E+03 -0.90847751212E+02  0.40565598021E+03  0.83019735520E+03  0.70049411428E+03 0.  0.
    5000001    2    3    3    0    0 -0.50082234911E+01 -0.61266170804E+02  0.18095253329E+03  0.25966182543E+03  0.17578913020E+03 0.  0.
        -13    1    4    4    0    0  0.65977295810E+02  0.23790522913E+02  0.83893923055E+02  0.10934895533E+03  0.10566000000E+00 0. -1.
     200003    1    4    4    0    0 -0.70985519301E+02 -0.85056693717E+02  0.97058610233E+02  0.15031287010E+03  0.30000000000E+02 0. -1.
     200000    1    3    3    0    0 -0.15538365994E+03 -0.29581580408E+02  0.22470344692E+03  0.57053552977E+03  0.50000000000E+03 0.  1.
    -200001    1    1    2    0    0  0.16039188343E+03  0.90847751212E+02 -0.23144415959E+03  0.75996399203E+03  0.70000000000E+03 0.  1.
<mgrwt>
<rscale>  0 0.15805896E+04</rscale>
<asrwt>0</asrwt>
<pdfrwt beam="1">  1        2 0.10113925E+00 0.15805896E+04</pdfrwt>
<pdfrwt beam="2">  1       -2 0.12602666E+00 0.15805896E+04</pdfrwt>
<totfact> 0.20062314E+01</totfact>
</mgrwt>
</event>
<event>
 8    1  0.2682466E-027  0.1684790E+04  0.7818608E-02  0.8770087E-01
         -2   -1    0    0    0  501 -0.00000000000E+00  0.00000000000E+00  0.60473433448E+03  0.60473433449E+03  0.25500000000E-02 0. -1.
          2   -1    0    0  501    0  0.00000000000E+00 -0.00000000000E+00 -0.11734568513E+04  0.11734568513E+04  0.25500000000E-02 0.  1.
     200001    2    1    2    0    0  0.31221652801E+03 -0.28601654534E+03 -0.49662267953E+03  0.95692203924E+03  0.69984361024E+03 0.  0.
    5000001    2    3    3    0    0  0.13832584481E+03 -0.22330970273E+02 -0.93676388660E+02  0.24128682104E+03  0.17265964392E+03 0.  0.
        -13    1    4    4    0    0  0.13672391345E+03  0.27310467786E+02 -0.10431069712E+02  0.13981455052E+03  0.10566000000E+00 0. -1.
     200003    1    4    4    0    0  0.16019313623E+01 -0.49641438058E+02 -0.83245318948E+02  0.10147227051E+03  0.30000000000E+02 0. -1.
     200000    1    3    3    0    0  0.17389068320E+03 -0.26368557507E+03 -0.40294629087E+03  0.71563521820E+03  0.50000000000E+03 0.  1.
    -200001    1    1    2    0    0 -0.31221652801E+03  0.28601654534E+03 -0.72099837313E+02  0.82126914657E+03  0.70000000000E+03 0. -1.
<mgrwt>
<rscale>  0 0.16847904E+04</rscale>
<asrwt>0</asrwt>
<pdfrwt beam="1">  1        2 0.16763669E+00 0.16847904E+04</pdfrwt>
<pdfrwt beam="2">  1       -2 0.86390620E-01 0.16847904E+04</pdfrwt>
<totfact> 0.24550924E+01</totfact>
</mgrwt>
</event>
<event>
 8    1  0.2682466E-027  0.1636426E+04  0.7818608E-02  0.8798478E-01
         -2   -1    0    0    0  501 -0.00000000000E+00  0.00000000000E+00  0.38069590537E+03  0.38069590538E+03  0.25500000000E-02 0. -1.
          2   -1    0    0  501    0  0.00000000000E+00 -0.00000000000E+00 -0.17585489791E+04  0.17585489791E+04  0.25500000000E-02 0.  1.
     200001    2    1    2    0    0  0.36239842950E+03  0.82798093488E+02 -0.42244872399E+03  0.89788046680E+03  0.69967010961E+03 0.  0.
    5000001    2    3    3    0    0  0.20706446981E+03  0.46288895264E+02 -0.16720573862E+03  0.31426197655E+03  0.16057544766E+03 0.  0.
        -13    1    4    4    0    0  0.59539920141E+02 -0.17895025764E+02 -0.13336511549E+03  0.14714448420E+03  0.10566000000E+00 0. -1.
     200003    1    4    4    0    0  0.14752454967E+03  0.64183921028E+02 -0.33840623132E+02  0.16711749235E+03  0.30000000000E+02 0. -1.
     200000    1    3    3    0    0  0.15533395969E+03  0.36509198224E+02 -0.25524298537E+03  0.58361849025E+03  0.50000000000E+03 0. -1.
    -200001    1    1    2    0    0 -0.36239842950E+03 -0.82798093488E+02 -0.95540434974E+03  0.12413644177E+04  0.70000000000E+03 0.  1.
<mgrwt>
<rscale>  0 0.16364259E+04</rscale>
<asrwt>0</asrwt>
<pdfrwt beam="1">  1        2 0.25122128E+00 0.16364259E+04</pdfrwt>
<pdfrwt beam="2">  1       -2 0.54385130E-01 0.16364259E+04</pdfrwt>
<totfact> 0.32608663E+01</totfact>
</mgrwt>
</event>
<event>
 8    1  0.2682466E-027  0.2031676E+04  0.7818608E-02  0.8591953E-01
          2   -1    0    0  501    0  0.00000000000E+00  0.00000000000E+00  0.41663142031E+04  0.41663142031E+04  0.25500000000E-02 0.  1.
         -2   -1    0    0    0  501 -0.00000000000E+00 -0.00000000000E+00 -0.24768335173E+03  0.24768335174E+03  0.25500000000E-02 0. -1.
     200001    2    1    2    0    0 -0.18258016396E+03 -0.48012529446E+03  0.31048851264E+04  0.32240236393E+04  0.70011496497E+03 0.  0.
    5000001    2    3    3    0    0 -0.12844322943E+03 -0.98849609351E+02  0.72411012157E+03  0.76101905562E+03  0.16895450988E+03 0.  0.
        -13    1    4    4    0    0 -0.15218365713E+03 -0.30581341768E+02  0.50735018208E+03  0.53056507837E+03  0.10566000000E+00 0. -1.
     200003    1    4    4    0    0  0.23740427699E+02 -0.68268267583E+02  0.21675993948E+03  0.23045397725E+03  0.30000000000E+02 0. -1.
     200000    1    3    3    0    0 -0.54136934530E+02 -0.38127568511E+03  0.23807750049E+04  0.24630045837E+04  0.50000000000E+03 0.  1.
    -200001    1    1    2    0    0  0.18258016396E+03  0.48012529446E+03  0.81374572493E+03  0.11899739155E+04  0.70000000000E+03 0. -1.
<mgrwt>
<rscale>  0 0.20316758E+04</rscale>
<asrwt>0</asrwt>
<pdfrwt beam="1">  1        2 0.59518772E+00 0.20316758E+04</pdfrwt>
<pdfrwt beam="2">  1       -2 0.35383337E-01 0.20316758E+04</pdfrwt>
<totfact> 0.30573511E+00</totfact>
</mgrwt>
</event>
<event>
 8    1  0.2682466E-027  0.1636296E+04  0.7818608E-02  0.8798555E-01
         -2   -1    0    0    0  501 -0.00000000000E+00  0.00000000000E+00  0.35591238319E+03  0.35591238320E+03  0.25500000000E-02 0. -1.
          2   -1    0    0  501    0  0.00000000000E+00 -0.00000000000E+00 -0.18807045029E+04  0.18807045029E+04  0.25500000000E-02 0.  1.
     200001    2    1    2    0    0  0.42102620904E+03 -0.25308489824E+02 -0.81174716096E+03  0.11520263175E+04  0.70023395699E+03 0.  0.
    5000001    2    3    3    0    0  0.14142647350E+03  0.27343055392E+02 -0.32448268719E+03  0.39811991433E+03  0.18017036887E+03 0.  0.
        -13    1    4    4    0    0  0.13283705960E+03  0.89545996496E+02 -0.24171842060E+03  0.28998616504E+03  0.10566000000E+00 0. -1.
     200003    1    4    4    0    0  0.85894139007E+01 -0.62202941104E+02 -0.82764266585E+02  0.10813374929E+03  0.30000000000E+02 0. -1.
     200000    1    3    3    0    0  0.27959973554E+03 -0.52651545215E+02 -0.48726447377E+03  0.75390640316E+03  0.50000000000E+03 0.  1.
    -200001    1    1    2    0    0 -0.42102620904E+03  0.25308489824E+02 -0.71304495878E+03  0.10845905686E+04  0.70000000000E+03 0. -1.
<mgrwt>
<rscale>  0 0.16362958E+04</rscale>
<asrwt>0</asrwt>
<pdfrwt beam="1">  1        2 0.26867207E+00 0.16362958E+04</pdfrwt>
<pdfrwt beam="2">  1       -2 0.50844627E-01 0.16362958E+04</pdfrwt>
<totfact> 0.32390454E+01</totfact>
</mgrwt>
</event>
<event>
 8    1  0.2682466E-027  0.1460589E+04  0.7818608E-02  0.8911092E-01
         -2   -1    0    0    0  501 -0.00000000000E+00  0.00000000000E+00  0.22123771608E+03  0.22123771610E+03  0.25500000000E-02 0. -1.
          2   -1    0    0  501    0  0.00000000000E+00 -0.00000000000E+00 -0.24106642055E+04  0.24106642055E+04  0.25500000000E-02 0.  1.
     200001    2    1    2    0    0  0.17304595399E+03 -0.51158415561E+01 -0.13015178742E+04  0.14880694238E+04  0.70030761755E+03 0.  0.
    5000001    2    3    3    0    0  0.40854784922E+02 -0.34518847432E+02 -0.18868182204E+03  0.26057477172E+03  0.17157423294E+03 0.  0.
        -13    1    4    4    0    0  0.87241285717E+01 -0.97103452468E+02 -0.13746827209E+03  0.16853108881E+03  0.10566000000E+00 0. -1.
     200003    1    4    4    0    0  0.32130656351E+02  0.62584605036E+02 -0.51213549949E+02  0.92043682909E+02  0.30000000000E+02 0. -1.
     200000    1    3    3    0    0  0.13219116907E+03  0.29403005876E+02 -0.11128360521E+04  0.12274946521E+04  0.50000000000E+03 0.  1.
    -200001    1    1    2    0    0 -0.17304595399E+03  0.51158415561E+01 -0.88790861527E+03  0.11438324978E+04  0.70000000000E+03 0.  1.
<mgrwt>
<rscale>  0 0.14605887E+04</rscale>
<asrwt>0</asrwt>
<pdfrwt beam="1">  1        2 0.34438059E+00 0.14605887E+04</pdfrwt>
<pdfrwt beam="2">  1       -2 0.31605389E-01 0.14605887E+04</pdfrwt>
<totfact> 0.44379832E+01</totfact>
</mgrwt>
</event>
<event>
 8    1  0.2682466E-027  0.1535139E+04  0.7818608E-02  0.8861416E-01
          2   -1    0    0  501    0  0.00000000000E+00  0.00000000000E+00  0.17929819460E+04  0.17929819460E+04  0.25500000000E-02 0.  1.
         -2   -1    0    0    0  501 -0.00000000000E+00 -0.00000000000E+00 -0.32859402611E+03  0.32859402612E+03  0.25500000000E-02 0. -1.
     200001    2    1    2    0    0 -0.14715832336E+03 -0.19481443961E+03  0.10054384568E+04  0.12496569119E+04  0.70080501491E+03 0.  0.
    5000001    2    3    3    0    0 -0.14434678747E+03 -0.12286077846E+03  0.28499295249E+03  0.36975523623E+03  0.13988275739E+03 0.  0.
        -13    1    4    4    0    0 -0.85438236560E+02  0.66298271688E+01  0.14185036108E+03  0.16572622900E+03  0.10566000000E+00 0. -1.
     200003    1    4    4    0    0 -0.58908550908E+02 -0.12949060563E+03  0.14314259141E+03  0.20402900723E+03  0.30000000000E+02 0. -1.
     200000    1    3    3    0    0 -0.28115358961E+01 -0.71953661150E+02  0.72044550432E+03  0.87990167563E+03  0.50000000000E+03 0.  1.
    -200001    1    1    2    0    0  0.14715832336E+03  0.19481443961E+03  0.45894946312E+03  0.87191906030E+03  0.70000000000E+03 0. -1.
<mgrwt>
<rscale>  0 0.15351393E+04</rscale>
<asrwt>0</asrwt>
<pdfrwt beam="1">  1        2 0.25614028E+00 0.15351393E+04</pdfrwt>
<pdfrwt beam="2">  1       -2 0.46942004E-01 0.15351393E+04</pdfrwt>
<totfact> 0.42603491E+01</totfact>
</mgrwt>
</event>
<event>
 8    1  0.2682466E-027  0.1577655E+04  0.7818608E-02  0.8834394E-01
          2   -1    0    0  501    0  0.00000000000E+00  0.00000000000E+00  0.24797226072E+04  0.24797226072E+04  0.25500000000E-02 0.  1.
         -2   -1    0    0    0  501 -0.00000000000E+00 -0.00000000000E+00 -0.25093488770E+03  0.25093488771E+03  0.25500000000E-02 0. -1.
     200001    2    1    2    0    0  0.14153142023E+03  0.35943088099E+02  0.53661160795E+03  0.89359923754E+03  0.69946017117E+03 0.  0.
    5000001    2    3    3    0    0  0.43418992845E+01  0.10327310518E+03  0.24704444490E+03  0.29593424963E+03  0.12594417813E+03 0.  0.
        -13    1    4    4    0    0 -0.36169642960E+02  0.79476827141E+02  0.21400518356E+03  0.23113424428E+03  0.10566000000E+00 0. -1.
     200003    1    4    4    0    0  0.40511542244E+02  0.23796278035E+02  0.33039261339E+02  0.64800005348E+02  0.30000000000E+02 0. -1.
     200000    1    3    3    0    0  0.13718952095E+03 -0.67330017077E+02  0.28956716305E+03  0.59766498791E+03  0.50000000000E+03 0. -1.
    -200001    1    1    2    0    0 -0.14153142023E+03 -0.35943088099E+02  0.16921761115E+04  0.18370582574E+04  0.70000000000E+03 0.  1.
<mgrwt>
<rscale>  0 0.15776551E+04</rscale>
<asrwt>0</asrwt>
<pdfrwt beam="1">  1        2 0.35424609E+00 0.15776551E+04</pdfrwt>
<pdfrwt beam="2">  1       -2 0.35847841E-01 0.15776551E+04</pdfrwt>
<totfact> 0.31846321E+01</totfact>
</mgrwt>
</event>
<event>
 8    1  0.2682466E-027  0.1641882E+04  0.7818608E-02  0.8795224E-01
          2   -1    0    0  501    0  0.00000000000E+00  0.00000000000E+00  0.15601344223E+04  0.15601344223E+04  0.25500000000E-02 0. -1.
         -2   -1    0    0    0  501 -0.00000000000E+00 -0.00000000000E+00 -0.43197819776E+03  0.43197819777E+03  0.25500000000E-02 0.  1.
     200001    2    1    2    0    0 -0.97754896244E+02 -0.41222560263E+03  0.64051809630E+03  0.10396017743E+04  0.70072994099E+03 0.  0.
    5000001    2    3    3    0    0 -0.67818390794E+01 -0.10820450994E+02  0.19561743644E+03  0.25389267415E+03  0.16134507444E+03 0.  0.
        -13    1    4    4    0    0 -0.17089971008E+02  0.54446365902E+02  0.16596336028E+03  0.17550020510E+03  0.10566000000E+00 0. -1.
     200003    1    4    4    0    0  0.10308131928E+02 -0.65266816896E+02  0.29654076158E+02  0.78392469054E+02  0.30000000000E+02 0. -1.
     200000    1    3    3    0    0 -0.90973057164E+02 -0.40140515164E+03  0.44490065986E+03  0.78570910013E+03  0.50000000000E+03 0.  1.
    -200001    1    1    2    0    0  0.97754896244E+02  0.41222560263E+03  0.48763812821E+03  0.95251084576E+03  0.70000000000E+03 0. -1.
<mgrwt>
<rscale>  0 0.16418819E+04</rscale>
<asrwt>0</asrwt>
<pdfrwt beam="1">  1        2 0.22287634E+00 0.16418819E+04</pdfrwt>
<pdfrwt beam="2">  1       -2 0.61711172E-01 0.16418819E+04</pdfrwt>
<totfact> 0.31743648E+01</totfact>
</mgrwt>
</event>
<event>
 8    1  0.2682466E-027  0.1591342E+04  0.7818608E-02  0.8825885E-01
          2   -1    0    0  501    0  0.00000000000E+00  0.00000000000E+00  0.24991364513E+04  0.24991364513E+04  0.25500000000E-02 0.  1.
         -2   -1    0    0    0  501 -0.00000000000E+00 -0.00000000000E+00 -0.25332441514E+03  0.25332441516E+03  0.25500000000E-02 0. -1.
     200001    2    1    2    0    0 -0.43517177043E+02  0.29511109343E+03  0.72000618022E+03  0.10474483116E+04  0.69982480935E+03 0.  0.
    5000001    2    3    3    0    0 -0.30930830535E+02  0.17259444647E+03  0.19409453787E+03  0.31141040467E+03  0.16899168996E+03 0.  0.
        -13    1    4    4    0    0  0.35384277956E+02  0.16338357763E+03  0.11153690640E+03  0.20096450736E+03  0.10566000000E+00 0. -1.
     200003    1    4    4    0    0 -0.66315108491E+02  0.92108688435E+01  0.82557631464E+02  0.11044589731E+03  0.30000000000E+02 0. -1.
     200000    1    3    3    0    0 -0.12586346507E+02  0.12251664696E+03  0.52591164236E+03  0.73603790695E+03  0.50000000000E+03 0.  1.
    -200001    1    1    2    0    0  0.43517177043E+02 -0.29511109343E+03  0.15258058559E+04  0.17050125548E+04  0.70000000000E+03 0.  1.
<mgrwt>
<rscale>  0 0.15913419E+04</rscale>
<asrwt>0</asrwt>
<pdfrwt beam="1">  1        2 0.35701950E+00 0.15913419E+04</pdfrwt>
<pdfrwt beam="2">  1       -2 0.36189202E-01 0.15913419E+04</pdfrwt>
<totfact> 0.30512050E+01</totfact>
</mgrwt>
</event>
<event>
 8    1  0.2682466E-027  0.1996713E+04  0.7818608E-02  0.8608159E-01
          2   -1    0    0  501    0  0.00000000000E+00  0.00000000000E+00  0.50583533731E+03  0.50583533732E+03  0.25500000000E-02 0.  1.
         -2   -1    0    0    0  501 -0.00000000000E+00 -0.00000000000E+00 -0.19704342082E+04  0.19704342082E+04  0.25500000000E-02 0. -1.
     200001    2    1    2    0    0 -0.33742176364E+02 -0.56636594845E+03 -0.19899551216E+03  0.92267346429E+03  0.69987012068E+03 0.  0.
    5000001    2    3    3    0    0 -0.71891208126E+02 -0.21097310880E+03 -0.16084660408E+03  0.30686930850E+03  0.13645198428E+03 0.  0.
        -13    1    4    4    0    0  0.35640631513E+02 -0.48455085822E+02 -0.61729614629E+02  0.86189943978E+02  0.10566000000E+00 0. -1.
     200003    1    4    4    0    0 -0.10753183964E+03 -0.16251802298E+03 -0.99116989452E+02  0.22067936452E+03  0.30000000000E+02 0. -1.
     200000    1    3    3    0    0  0.38149031762E+02 -0.35539283965E+03 -0.38148908084E+02  0.61580415579E+03  0.50000000000E+03 0.  1.
    -200001    1    1    2    0    0  0.33742176364E+02  0.56636594845E+03 -0.12656033588E+04  0.15535960813E+04  0.70000000000E+03 0. -1.
<mgrwt>
<rscale>  0 0.19967126E+04</rscale>
<asrwt>0</asrwt>
<pdfrwt beam="1">  1        2 0.72262192E-01 0.19967126E+04</pdfrwt>
<pdfrwt beam="2">  1       -2 0.28149060E+00 0.19967126E+04</pdfrwt>
<totfact> 0.25488661E+00</totfact>
</mgrwt>
</event>
<event>
 8    1  0.2682466E-027  0.1436000E+04  0.7818608E-02  0.8928164E-01
         -2   -1    0    0    0  501 -0.00000000000E+00  0.00000000000E+00  0.90601584060E+02  0.90601584096E+02  0.25500000000E-02 0.  1.
          2   -1    0    0  501    0  0.00000000000E+00 -0.00000000000E+00 -0.56900098685E+04  0.56900098685E+04  0.25500000000E-02 0. -1.
     200001    2    1    2    0    0 -0.37550876700E+02 -0.35390705500E+02 -0.34121911401E+04  0.34835303903E+04  0.69948054514E+03 0.  0.
    5000001    2    3    3    0    0  0.22032717996E+00 -0.39170938043E+02 -0.71714890739E+03  0.74223624515E+03  0.18729035565E+03 0.  0.
        -13    1    4    4    0    0 -0.42669764106E+02  0.53464561439E+02 -0.14560117003E+03  0.16086913929E+03  0.10566000000E+00 0. -1.
     200003    1    4    4    0    0  0.42890091286E+02 -0.92635499482E+02 -0.57154773736E+03  0.58136710586E+03  0.30000000000E+02 0. -1.
     200000    1    3    3    0    0 -0.37771203880E+02  0.37802325434E+01 -0.26950422327E+04  0.27412941451E+04  0.50000000000E+03 0. -1.
    -200001    1    1    2    0    0  0.37550876700E+02  0.35390705500E+02 -0.21872171444E+04  0.22970810624E+04  0.70000000000E+03 0.  1.
<mgrwt>
<rscale>  0 0.14359999E+04</rscale>
<asrwt>0</asrwt>
<pdfrwt beam="1">  1        2 0.81285833E+00 0.14359999E+04</pdfrwt>
<pdfrwt beam="2">  1       -2 0.12943087E-01 0.14359999E+04</pdfrwt>
<totfact> 0.64958683E-01</totfact>
</mgrwt>
</event>
<event>
 8    1  0.2682466E-027  0.1991275E+04  0.7818608E-02  0.8610711E-01
         -2   -1    0    0    0  501 -0.00000000000E+00  0.00000000000E+00  0.51066412312E+03  0.51066412312E+03  0.25500000000E-02 0. -1.
          2   -1    0    0  501    0  0.00000000000E+00 -0.00000000000E+00 -0.19411867830E+04  0.19411867830E+04  0.25500000000E-02 0.  1.
     200001    2    1    2    0    0 -0.63085956252E+02  0.55121559327E+03 -0.12567956087E+04  0.15419060965E+04  0.70008623776E+03 0.  0.
    5000001    2    3    3    0    0 -0.76821812960E+02  0.19265427835E+03 -0.15339309610E+03  0.27847743010E+03  0.10489506772E+03 0.  0.
        -13    1    4    4    0    0 -0.75139248225E+02  0.10792834542E+03 -0.48099293798E+02  0.14002852423E+03  0.10566000000E+00 0. -1.
     200003    1    4    4    0    0 -0.16825647354E+01  0.84725932930E+02 -0.10529380230E+03  0.13844890587E+03  0.30000000000E+02 0.  1.
     200000    1    3    3    0    0  0.13735856708E+02  0.35856131492E+03 -0.11034025126E+04  0.12634286664E+04  0.50000000000E+03 0.  1.
    -200001    1    1    2    0    0  0.63085956252E+02 -0.55121559327E+03 -0.17372705114E+03  0.90994480956E+03  0.70000000000E+03 0. -1.
<mgrwt>
<rscale>  0 0.19912754E+04</rscale>
<asrwt>0</asrwt>
<pdfrwt beam="1">  1        2 0.27731240E+00 0.19912754E+04</pdfrwt>
<pdfrwt beam="2">  1       -2 0.72952018E-01 0.19912754E+04</pdfrwt>
<totfact> 0.13629684E+01</totfact>
</mgrwt>
</event>
<event>
 8    1  0.2682466E-027  0.2127085E+04  0.7818608E-02  0.8549405E-01
         -2   -1    0    0    0  501 -0.00000000000E+00  0.00000000000E+00  0.74969128374E+03  0.74969128374E+03  0.25500000000E-02 0. -1.
          2   -1    0    0  501    0  0.00000000000E+00 -0.00000000000E+00 -0.15087848744E+04  0.15087848744E+04  0.25500000000E-02 0.  1.
     200001    2    1    2    0    0  0.75832960717E+02  0.58605235926E+03 -0.94925312163E+03  0.13228647790E+04  0.70688169360E+03 0.  0.
    5000001    2    3    3    0    0  0.10142405822E+03  0.20088483663E+03 -0.38435393530E+03  0.47544515711E+03  0.16636884525E+03 0.  0.
        -13    1    4    4    0    0  0.11949997758E+03  0.11580480250E+03 -0.15137450825E+03  0.22495610646E+03  0.10566000000E+00 0. -1.
     200003    1    4    4    0    0 -0.18075919361E+02  0.85080034131E+02 -0.23297942705E+03  0.25048905065E+03  0.30000000000E+02 0. -1.
     200000    1    3    3    0    0 -0.25591097500E+02  0.38516752263E+03 -0.56489918634E+03  0.84741962184E+03  0.50000000000E+03 0.  1.
    -200001    1    1    2    0    0 -0.75832960717E+02 -0.58605235926E+03  0.19015953094E+03  0.93561137922E+03  0.70000000000E+03 0. -1.
<mgrwt>
<rscale>  0 0.21270852E+04</rscale>
<asrwt>0</asrwt>
<pdfrwt beam="1">  1        2 0.21554070E+00 0.21270852E+04</pdfrwt>
<pdfrwt beam="2">  1       -2 0.10709875E+00 0.21270852E+04</pdfrwt>
<totfact> 0.93641572E+00</totfact>
</mgrwt>
</event>
<event>
 8    1  0.2682466E-027  0.1643969E+04  0.7818608E-02  0.8793983E-01
          2   -1    0    0  501    0  0.00000000000E+00  0.00000000000E+00  0.12973018418E+04  0.12973018418E+04  0.25500000000E-02 0.  1.
         -2   -1    0    0    0  501 -0.00000000000E+00 -0.00000000000E+00 -0.52081799302E+03  0.52081799303E+03  0.25500000000E-02 0. -1.
     200001    2    1    2    0    0  0.33536245216E+03  0.26961709116E+03  0.40728519788E+03  0.91730409675E+03  0.70028867144E+03 0.  0.
    5000001    2    3    3    0    0  0.12076365364E+03  0.27139840431E+02 -0.36342012256E+02  0.17457065667E+03  0.11761692623E+03 0.  0.
        -13    1    4    4    0    0  0.68884995229E+02 -0.40572513954E+02 -0.11270583134E+02  0.80736043156E+02  0.10566000000E+00 0. -1.
     200003    1    4    4    0    0  0.51878658414E+02  0.67712354384E+02 -0.25071429123E+02  0.93834613514E+02  0.30000000000E+02 0. -1.
     200000    1    3    3    0    0  0.21459879852E+03  0.24247725073E+03  0.44362721014E+03  0.74273344008E+03  0.50000000000E+03 0.  1.
    -200001    1    1    2    0    0 -0.33536245216E+03 -0.26961709116E+03  0.36919865091E+03  0.90081573809E+03  0.70000000000E+03 0.  1.
<mgrwt>
<rscale>  0 0.16439685E+04</rscale>
<asrwt>0</asrwt>
<pdfrwt beam="1">  1        2 0.18532883E+00 0.16439685E+04</pdfrwt>
<pdfrwt beam="2">  1       -2 0.74402571E-01 0.16439685E+04</pdfrwt>
<totfact> 0.29334332E+01</totfact>
</mgrwt>
</event>
<event>
 8    1  0.2682466E-027  0.1839470E+04  0.7818608E-02  0.8685587E-01
          2   -1    0    0  501    0  0.00000000000E+00  0.00000000000E+00  0.14691630080E+04  0.14691630080E+04  0.25500000000E-02 0.  1.
         -2   -1    0    0    0  501 -0.00000000000E+00 -0.00000000000E+00 -0.57577833580E+03  0.57577833580E+03  0.25500000000E-02 0. -1.
     200001    2    1    2    0    0  0.40842096619E+03 -0.37847046863E+03  0.20503408521E+03  0.91628102651E+03  0.69820080364E+03 0.  0.
    5000001    2    3    3    0    0  0.12254546929E+03 -0.23474686861E+03  0.76699552933E+02  0.30894995938E+03  0.13944092518E+03 0.  0.
        -13    1    4    4    0    0  0.63344893487E+02 -0.15752967933E+03  0.10943154182E+03  0.20199863591E+03  0.10566000000E+00 0. -1.
     200003    1    4    4    0    0  0.59200575802E+02 -0.77217189279E+02 -0.32731988885E+02  0.10695132347E+03  0.30000000000E+02 0. -1.
     200000    1    3    3    0    0  0.28587549690E+03 -0.14372360003E+03  0.12833453228E+03  0.60733106714E+03  0.50000000000E+03 0. -1.
    -200001    1    1    2    0    0 -0.40842096619E+03  0.37847046863E+03  0.68835058703E+03  0.11286603173E+04  0.70000000000E+03 0.  1.
<mgrwt>
<rscale>  0 0.18394697E+04</rscale>
<asrwt>0</asrwt>
<pdfrwt beam="1">  1        2 0.20988043E+00 0.18394697E+04</pdfrwt>
<pdfrwt beam="2">  1       -2 0.82254048E-01 0.18394697E+04</pdfrwt>
<totfact> 0.18612876E+01</totfact>
</mgrwt>
</event>
<event>
 8    1  0.2682466E-027  0.1847631E+04  0.7818608E-02  0.8681372E-01
         -2   -1    0    0    0  501 -0.00000000000E+00  0.00000000000E+00  0.18080310221E+03  0.18080310223E+03  0.25500000000E-02 0. -1.
          2   -1    0    0  501    0  0.00000000000E+00 -0.00000000000E+00 -0.47202478478E+04  0.47202478478E+04  0.25500000000E-02 0.  1.
     200001    2    1    2    0    0  0.29513928683E+03  0.51026952527E+03 -0.26028281028E+04  0.27590971204E+04  0.70030036424E+03 0.  0.
    5000001    2    3    3    0    0  0.60413560146E+02  0.25339462341E+03 -0.86260435452E+03  0.91533477781E+03  0.16091255267E+03 0.  0.
        -13    1    4    4    0    0  0.37961660291E+02  0.25797279949E+03 -0.66770261099E+03  0.71681088218E+03  0.10566000000E+00 0. -1.
     200003    1    4    4    0    0  0.22451899856E+02 -0.45781760781E+01 -0.19490174353E+03  0.19852389563E+03  0.30000000000E+02 0.  1.
     200000    1    3    3    0    0  0.23472572669E+03  0.25687490186E+03 -0.17402237483E+04  0.18437623426E+04  0.50000000000E+03 0. -1.
    -200001    1    1    2    0    0 -0.29513928683E+03 -0.51026952527E+03 -0.19366166428E+04  0.21419538296E+04  0.70000000000E+03 0.  1.
<mgrwt>
<rscale>  0 0.18476314E+04</rscale>
<asrwt>0</asrwt>
<pdfrwt beam="1">  1        2 0.67432104E+00 0.18476314E+04</pdfrwt>
<pdfrwt beam="2">  1       -2 0.25829018E-01 0.18476314E+04</pdfrwt>
<totfact> 0.20668992E+00</totfact>
</mgrwt>
</event>
<event>
 8    1  0.2682466E-027  0.1443205E+04  0.7818608E-02  0.8923125E-01
          2   -1    0    0  501    0  0.00000000000E+00  0.00000000000E+00  0.22321926287E+04  0.22321926287E+04  0.25500000000E-02 0.  1.
         -2   -1    0    0    0  501 -0.00000000000E+00 -0.00000000000E+00 -0.23327308167E+03  0.23327308169E+03  0.25500000000E-02 0. -1.
     200001    2    1    2    0    0  0.66058671079E+02 -0.11755485559E+03  0.80354963648E+03  0.10736711440E+04  0.69921013651E+03 0.  0.
    5000001    2    3    3    0    0  0.21311773283E+02 -0.71744249570E+02  0.45054812081E+02  0.16294874107E+03  0.13755336091E+03 0.  0.
        -13    1    4    4    0    0 -0.45750213249E+02 -0.17998432502E+02  0.52119075808E+02  0.71647992379E+02  0.10566000000E+00 0. -1.
     200003    1    4    4    0    0  0.67061986532E+02 -0.53745817068E+02 -0.70642637274E+01  0.91300748693E+02  0.30000000000E+02 0. -1.
     200000    1    3    3    0    0  0.44746897795E+02 -0.45810606022E+02  0.75849482440E+03  0.91072240289E+03  0.50000000000E+03 0.  1.
    -200001    1    1    2    0    0 -0.66058671079E+02  0.11755485559E+03  0.11953699106E+04  0.13917945664E+04  0.70000000000E+03 0.  1.
<mgrwt>
<rscale>  0 0.14432054E+04</rscale>
<asrwt>0</asrwt>
<pdfrwt beam="1">  1        2 0.31888467E+00 0.14432054E+04</pdfrwt>
<pdfrwt beam="2">  1       -2 0.33324725E-01 0.14432054E+04</pdfrwt>
<totfact> 0.49766835E+01</totfact>
</mgrwt>
</event>
<event>
 8    1  0.2682466E-027  0.1513373E+04  0.7818608E-02  0.8875609E-01
         -2   -1    0    0    0  501 -0.00000000000E+00  0.00000000000E+00  0.12426753384E+04  0.12426753384E+04  0.25500000000E-02 0. -1.
          2   -1    0    0  501    0  0.00000000000E+00 -0.00000000000E+00 -0.46075931794E+03  0.46075931795E+03  0.25500000000E-02 0.  1.
     200001    2    1    2    0    0  0.84464229093E+01  0.10568893131E+03  0.68845235637E+03  0.98930795275E+03  0.70251127116E+03 0.  0.
    5000001    2    3    3    0    0 -0.35192115961E+02  0.10783672306E+03  0.29933994277E+03  0.35423519667E+03  0.15169353763E+03 0.  0.
        -13    1    4    4    0    0 -0.17373028817E+02  0.14007495013E+03  0.20957809744E+03  0.25267727217E+03  0.10566000000E+00 0. -1.
     200003    1    4    4    0    0 -0.17819087144E+02 -0.32238227070E+02  0.89761845333E+02  0.10155792450E+03  0.30000000000E+02 0. -1.
     200000    1    3    3    0    0  0.43638538870E+02 -0.21477917490E+01  0.38911241360E+03  0.63507275607E+03  0.50000000000E+03 0. -1.
    -200001    1    1    2    0    0 -0.84464229093E+01 -0.10568893131E+03  0.93463664051E+02  0.71412670358E+03  0.70000000000E+03 0.  1.
<mgrwt>
<rscale>  0 0.15133727E+04</rscale>
<asrwt>0</asrwt>
<pdfrwt beam="1">  1        2 0.65822761E-01 0.15133727E+04</pdfrwt>
<pdfrwt beam="2">  1       -2 0.17752505E+00 0.15133727E+04</pdfrwt>
<totfact> 0.13436195E+01</totfact>
</mgrwt>
</event>
<event>
 8    1  0.2682466E-027  0.1458780E+04  0.7818608E-02  0.8912336E-01
         -2   -1    0    0    0  501 -0.00000000000E+00  0.00000000000E+00  0.37673335900E+03  0.37673335901E+03  0.25500000000E-02 0. -1.
          2   -1    0    0  501    0  0.00000000000E+00 -0.00000000000E+00 -0.14121660099E+04  0.14121660099E+04  0.25500000000E-02 0.  1.
     200001    2    1    2    0    0 -0.13254600552E+03  0.95369058956E+02 -0.66965960701E+03  0.98239231956E+03  0.69999069943E+03 0.  0.
    5000001    2    3    3    0    0 -0.69251606576E+02 -0.19068865376E+02 -0.21246248769E+03  0.29236954792E+03  0.18756395506E+03 0.  0.
        -13    1    4    4    0    0  0.14151947028E+02  0.72226630834E+02 -0.78662852115E+02  0.10772566673E+03  0.10566000000E+00 0. -1.
     200003    1    4    4    0    0 -0.83403553604E+02 -0.91295496210E+02 -0.13379963557E+03  0.18464388119E+03  0.30000000000E+02 0. -1.
     200000    1    3    3    0    0 -0.63294398943E+02  0.11443792433E+03 -0.45719711933E+03  0.69002277164E+03  0.50000000000E+03 0.  1.
    -200001    1    1    2    0    0  0.13254600552E+03 -0.95369058956E+02 -0.36577304387E+03  0.80650704932E+03  0.70000000000E+03 0. -1.
<mgrwt>
<rscale>  0 0.14587804E+04</rscale>
<asrwt>0</asrwt>
<pdfrwt beam="1">  1        2 0.20173800E+00 0.14587804E+04</pdfrwt>
<pdfrwt beam="2">  1       -2 0.53819052E-01 0.14587804E+04</pdfrwt>
<totfact> 0.51426433E+01</totfact>
</mgrwt>
</event>
<event>
 8    1  0.2682466E-027  0.1650764E+04  0.7818608E-02  0.8789955E-01
         -2   -1    0    0    0  501 -0.00000000000E+00  0.00000000000E+00  0.21886255053E+03  0.21886255055E+03  0.25500000000E-02 0. -1.
          2   -1    0    0  501    0  0.00000000000E+00 -0.00000000000E+00 -0.31127088109E+04  0.31127088109E+04  0.25500000000E-02 0.  1.
     200001    2    1    2    0    0  0.38931267144E+03 -0.20318749224E+03 -0.14901716364E+04  0.17027214717E+04  0.69699310710E+03 0.  0.
    5000001    2    3    3    0    0  0.76997523167E+02 -0.26339539452E+02 -0.32751930776E+03  0.38720773655E+03  0.18983820579E+03 0.  0.
        -13    1    4    4    0    0 -0.47090050663E+02 -0.74629821776E+01 -0.20065631535E+03  0.20624290782E+03  0.10566000000E+00 0. -1.
     200003    1    4    4    0    0  0.12408757383E+03 -0.18876557275E+02 -0.12686299241E+03  0.18096482873E+03  0.30000000000E+02 0. -1.
     200000    1    3    3    0    0  0.31231514827E+03 -0.17684795279E+03 -0.11626523286E+04  0.13155137352E+04  0.50000000000E+03 0.  1.
    -200001    1    1    2    0    0 -0.38931267144E+03  0.20318749224E+03 -0.14036746240E+04  0.16288498897E+04  0.70000000000E+03 0. -1.
<mgrwt>
<rscale>  0 0.16507639E+04</rscale>
<asrwt>0</asrwt>
<pdfrwt beam="1">  1        2 0.44467266E+00 0.16507639E+04</pdfrwt>
<pdfrwt beam="2">  1       -2 0.31266080E-01 0.16507639E+04</pdfrwt>
<totfact> 0.18574872E+01</totfact>
</mgrwt>
</event>
<event>
 8    1  0.2682466E-027  0.1643646E+04  0.7818608E-02  0.8794174E-01
          2   -1    0    0  501    0  0.00000000000E+00  0.00000000000E+00  0.92799105870E+03  0.92799105871E+03  0.25500000000E-02 0.  1.
         -2   -1    0    0    0  501 -0.00000000000E+00 -0.00000000000E+00 -0.72780129777E+03  0.72780129777E+03  0.25500000000E-02 0. -1.
     200001    2    1    2    0    0  0.10923137242E+03 -0.58328266679E+02 -0.31783216591E+03  0.77620131736E+03  0.69723562730E+03 0.  0.
    5000001    2    3    3    0    0  0.52381930533E+01 -0.95191658065E+02 -0.11514018225E+03  0.22551308322E+03  0.16884904117E+03 0.  0.
        -13    1    4    4    0    0  0.27226070223E+02  0.37126385985E+02  0.26754996456E+00  0.46040310415E+02  0.10566000000E+00 0. -1.
     200003    1    4    4    0    0 -0.21987877169E+02 -0.13231804405E+03 -0.11540773222E+03  0.17947277281E+03  0.30000000000E+02 0. -1.
     200000    1    3    3    0    0  0.10399317936E+03  0.36863391385E+02 -0.20269198366E+03  0.55068823414E+03  0.50000000000E+03 0.  1.
    -200001    1    1    2    0    0 -0.10923137242E+03  0.58328266679E+02  0.51802192684E+03  0.87959103912E+03  0.70000000000E+03 0.  1.
<mgrwt>
<rscale>  0 0.16436461E+04</rscale>
<asrwt>0</asrwt>
<pdfrwt beam="1">  1        2 0.13257015E+00 0.16436461E+04</pdfrwt>
<pdfrwt beam="2">  1       -2 0.10397161E+00 0.16436461E+04</pdfrwt>
<totfact> 0.22492114E+01</totfact>
</mgrwt>
</event>
<event>
 8    1  0.2682466E-027  0.2003228E+04  0.7818608E-02  0.8605113E-01
         -2   -1    0    0    0  501 -0.00000000000E+00  0.00000000000E+00  0.46145180449E+03  0.46145180449E+03  0.25500000000E-02 0. -1.
          2   -1    0    0  501    0  0.00000000000E+00 -0.00000000000E+00 -0.21740749583E+04  0.21740749583E+04  0.25500000000E-02 0.  1.
     200001    2    1    2    0    0 -0.58281438849E+03 -0.93139633157E+02 -0.32265155390E+03  0.97108431824E+03  0.70039497800E+03 0.  0.
    5000001    2    3    3    0    0 -0.15974513050E+03 -0.13607988134E+02 -0.13587983351E+03  0.28537552061E+03  0.19306002835E+03 0.  0.
        -13    1    4    4    0    0 -0.27444867869E+02  0.64803862333E+02 -0.10384313035E+03  0.12544388479E+03  0.10566000000E+00 0. -1.
     200003    1    4    4    0    0 -0.13230026263E+03 -0.78411850466E+02 -0.32036703160E+02  0.15993163582E+03  0.30000000000E+02 0. -1.
     200000    1    3    3    0    0 -0.42306925798E+03 -0.79531645023E+02 -0.18677172039E+03  0.68570879763E+03  0.50000000000E+03 0. -1.
    -200001    1    1    2    0    0  0.58281438849E+03  0.93139633157E+02 -0.13899715999E+04  0.16644424446E+04  0.70000000000E+03 0.  1.
<mgrwt>
<rscale>  0 0.20032282E+04</rscale>
<asrwt>0</asrwt>
<pdfrwt beam="1">  1        2 0.31058213E+00 0.20032282E+04</pdfrwt>
<pdfrwt beam="2">  1       -2 0.65921688E-01 0.20032282E+04</pdfrwt>
<totfact> 0.12878347E+01</totfact>
</mgrwt>
</event>
<event>
 8    1  0.2682466E-027  0.1625807E+04  0.7818608E-02  0.8804849E-01
         -2   -1    0    0    0  501 -0.00000000000E+00  0.00000000000E+00  0.36987081174E+03  0.36987081175E+03  0.25500000000E-02 0. -1.
          2   -1    0    0  501    0  0.00000000000E+00 -0.00000000000E+00 -0.17866013567E+04  0.17866013567E+04  0.25500000000E-02 0.  1.
     200001    2    1    2    0    0 -0.33536104599E+03  0.11200812929E+03 -0.99371066903E+03  0.12654285850E+04  0.69916790383E+03 0.  0.
    5000001    2    3    3    0    0 -0.28802035359E+02 -0.23975872386E+02 -0.12599368584E+03  0.20930224849E+03  0.16287609601E+03 0.  0.
        -13    1    4    4    0    0 -0.63607611621E+02  0.74269248588E+01 -0.13820633071E+03  0.15232231774E+03  0.10566000000E+00 0. -1.
     200003    1    4    4    0    0  0.34805576262E+02 -0.31402797245E+02  0.12212644867E+02  0.56979930751E+02  0.30000000000E+02 0. -1.
     200000    1    3    3    0    0 -0.30655901063E+03  0.13598400168E+03 -0.86771698319E+03  0.10561263365E+04  0.50000000000E+03 0.  1.
    -200001    1    1    2    0    0  0.33536104599E+03 -0.11200812929E+03 -0.42301987592E+03  0.89104358346E+03  0.70000000000E+03 0. -1.
<mgrwt>
<rscale>  0 0.16258065E+04</rscale>
<asrwt>0</asrwt>
<pdfrwt beam="1">  1        2 0.25522876E+00 0.16258065E+04</pdfrwt>
<pdfrwt beam="2">  1       -2 0.52838688E-01 0.16258065E+04</pdfrwt>
<totfact> 0.33500702E+01</totfact>
</mgrwt>
</event>
<event>
 8    1  0.2682466E-027  0.2109848E+04  0.7818608E-02  0.8556918E-01
          2   -1    0    0  501    0  0.00000000000E+00  0.00000000000E+00  0.44178277662E+04  0.44178277662E+04  0.25500000000E-02 0.  1.
         -2   -1    0    0    0  501 -0.00000000000E+00 -0.00000000000E+00 -0.25190313093E+03  0.25190313095E+03  0.25500000000E-02 0. -1.
     200001    2    1    2    0    0  0.58476870491E+03 -0.37895286804E+03  0.12641158721E+04  0.16044325736E+04  0.70046786553E+03 0.  0.
    5000001    2    3    3    0    0  0.21801890204E+03 -0.63673244865E+02  0.40825477967E+03  0.50152511227E+03  0.18239777782E+03 0.  0.
        -13    1    4    4    0    0  0.18999559854E+01 -0.46586770349E+02  0.10897923355E+02  0.47882281710E+02  0.10566000000E+00 0. -1.
     200003    1    4    4    0    0  0.21611894605E+03 -0.17086474515E+02  0.39735685631E+03  0.45364283056E+03  0.30000000000E+02 0. -1.
     200000    1    3    3    0    0  0.36674980287E+03 -0.31527962317E+03  0.85586109243E+03  0.11029074613E+04  0.50000000000E+03 0. -1.
    -200001    1    1    2    0    0 -0.58476870491E+03  0.37895286804E+03  0.29018087631E+04  0.30652983235E+04  0.70000000000E+03 0.  1.
<mgrwt>
<rscale>  0 0.21098480E+04</rscale>
<asrwt>0</asrwt>
<pdfrwt beam="1">  1        2 0.63111819E+00 0.21098480E+04</pdfrwt>
<pdfrwt beam="2">  1       -2 0.35986165E-01 0.21098480E+04</pdfrwt>
<totfact> 0.19078608E+00</totfact>
</mgrwt>
</event>
<event>
 8    1  0.2682466E-027  0.2519497E+04  0.7818608E-02  0.8396072E-01
          2   -1    0    0  501    0  0.00000000000E+00  0.00000000000E+00  0.42166997034E+04  0.42166997034E+04  0.25500000000E-02 0.  1.
         -2   -1    0    0    0  501 -0.00000000000E+00 -0.00000000000E+00 -0.37635271004E+03  0.37635271004E+03  0.25500000000E-02 0. -1.
     200001    2    1    2    0    0 -0.94706153466E+03  0.30540707211E+03  0.13242467899E+04  0.17982430704E+04  0.69989252715E+03 0.  0.
    5000001    2    3    3    0    0 -0.22936506079E+03  0.77523871211E+02  0.31909600176E+03  0.44644904439E+03  0.19717050788E+03 0.  0.
        -13    1    4    4    0    0 -0.15928058834E+03 -0.68394135257E+01  0.72981932321E+02  0.17533812195E+03  0.10566000000E+00 0. -1.
     200003    1    4    4    0    0 -0.70084472447E+02  0.84363284737E+02  0.24611406944E+03  0.27111092244E+03  0.30000000000E+02 0. -1.
     200000    1    3    3    0    0 -0.71769647388E+03  0.22788320090E+03  0.10051507882E+04  0.13517940260E+04  0.50000000000E+03 0. -1.
    -200001    1    1    2    0    0  0.94706153466E+03 -0.30540707211E+03  0.25161002034E+04  0.27948093430E+04  0.70000000000E+03 0.  1.
<mgrwt>
<rscale>  0 0.25194971E+04</rscale>
<asrwt>0</asrwt>
<pdfrwt beam="1">  1        2 0.60238561E+00 0.25194971E+04</pdfrwt>
<pdfrwt beam="2">  1       -2 0.53764679E-01 0.25194971E+04</pdfrwt>
<totfact> 0.11682380E+00</totfact>
</mgrwt>
</event>
<event>
 8    1  0.2682466E-027  0.1547857E+04  0.7818608E-02  0.8853238E-01
         -2   -1    0    0    0  501 -0.00000000000E+00  0.00000000000E+00  0.21038503964E+04  0.21038503964E+04  0.25500000000E-02 0. -1.
          2   -1    0    0  501    0  0.00000000000E+00 -0.00000000000E+00 -0.28469959357E+03  0.28469959358E+03  0.25500000000E-02 0.  1.
     200001    2    1    2    0    0  0.65377464517E+02  0.32348427581E+03  0.91570867915E+03  0.11989601613E+04  0.70004770827E+03 0.  0.
    5000001    2    3    3    0    0  0.33397402166E+02  0.11695515677E+03  0.33205173163E+03  0.40251026726E+03  0.19225573490E+03 0.  0.
        -13    1    4    4    0    0  0.32905200154E+02  0.12689849616E+03  0.91449286018E+02  0.15984043169E+03  0.10566000000E+00 0. -1.
     200003    1    4    4    0    0  0.49220201193E+00 -0.99433393866E+01  0.24060244562E+03  0.24266983557E+03  0.30000000000E+02 0. -1.
     200000    1    3    3    0    0  0.31980062351E+02  0.20652911904E+03  0.58365694752E+03  0.79644989408E+03  0.50000000000E+03 0.  1.
    -200001    1    1    2    0    0 -0.65377464517E+02 -0.32348427581E+03  0.90344212369E+03  0.11895898286E+04  0.70000000000E+03 0. -1.
<mgrwt>
<rscale>  0 0.15478570E+04</rscale>
<asrwt>0</asrwt>
<pdfrwt beam="1">  1        2 0.40671371E-01 0.15478570E+04</pdfrwt>
<pdfrwt beam="2">  1       -2 0.30055005E+00 0.15478570E+04</pdfrwt>
<totfact> 0.38600449E+00</totfact>
</mgrwt>
</event>
<event>
 8    1  0.2682466E-027  0.1664843E+04  0.7818608E-02  0.8781673E-01
          2   -1    0    0  501    0  0.00000000000E+00  0.00000000000E+00  0.54353220085E+03  0.54353220086E+03  0.25500000000E-02 0.  1.
         -2   -1    0    0    0  501 -0.00000000000E+00 -0.00000000000E+00 -0.12748569994E+04  0.12748569994E+04  0.25500000000E-02 0. -1.
     200001    2    1    2    0    0  0.60622460252E+02 -0.42804165156E+03 -0.22698915590E+03  0.85337667259E+03  0.69988065430E+03 0.  0.
    5000001    2    3    3    0    0 -0.26338256248E+01  0.28371593496E+02 -0.27788485983E+02  0.14486039552E+03  0.13928549775E+03 0.  0.
        -13    1    4    4    0    0 -0.57387063336E+02 -0.22494896622E+02 -0.11959055137E+02  0.62787941328E+02  0.10566000000E+00 0. -1.
     200003    1    4    4    0    0  0.54753237711E+02  0.50866490118E+02 -0.15829430846E+02  0.82072454195E+02  0.30000000000E+02 0. -1.
     200000    1    3    3    0    0  0.63256285877E+02 -0.45641324506E+03 -0.19920066992E+03  0.70851627706E+03  0.50000000000E+03 0.  1.
    -200001    1    1    2    0    0 -0.60622460252E+02  0.42804165156E+03 -0.50433564270E+03  0.96501252772E+03  0.70000000000E+03 0. -1.
<mgrwt>
<rscale>  0 0.16648433E+04</rscale>
<asrwt>0</asrwt>
<pdfrwt beam="1">  1        2 0.77647458E-01 0.16648433E+04</pdfrwt>
<pdfrwt beam="2">  1       -2 0.18212243E+00 0.16648433E+04</pdfrwt>
<totfact> 0.10213500E+01</totfact>
</mgrwt>
</event>
<event>
 8    1  0.2682466E-027  0.1906560E+04  0.7818608E-02  0.8651598E-01
         -2   -1    0    0    0  501 -0.00000000000E+00  0.00000000000E+00  0.10808136359E+04  0.10808136359E+04  0.25500000000E-02 0. -1.
          2   -1    0    0  501    0  0.00000000000E+00 -0.00000000000E+00 -0.84079486514E+03  0.84079486514E+03  0.25500000000E-02 0.  1.
     200001    2    1    2    0    0 -0.55202019507E+03  0.32601173329E+03  0.21410279282E+03  0.97203934406E+03  0.69857750787E+03 0.  0.
    5000001    2    3    3    0    0 -0.15992283924E+03  0.54421113136E+02  0.42188111770E+02  0.25996037445E+03  0.19303519742E+03 0.  0.
        -13    1    4    4    0    0 -0.88813620629E+02  0.12227912531E+03  0.43218193703E+02  0.15718736313E+03  0.10566000000E+00 0. -1.
     200003    1    4    4    0    0 -0.71109218612E+02 -0.67858012172E+02 -0.10300819321E+01  0.10277301132E+03  0.30000000000E+02 0. -1.
     200000    1    3    3    0    0 -0.39209735583E+03  0.27159062015E+03  0.17191468105E+03  0.71207896961E+03  0.50000000000E+03 0.  1.
    -200001    1    1    2    0    0  0.55202019507E+03 -0.32601173329E+03  0.25915977956E+02  0.94956915699E+03  0.70000000000E+03 0. -1.
<mgrwt>
<rscale>  0 0.19065598E+04</rscale>
<asrwt>0</asrwt>
<pdfrwt beam="1">  1        2 0.12011355E+00 0.19065598E+04</pdfrwt>
<pdfrwt beam="2">  1       -2 0.15440195E+00 0.19065598E+04</pdfrwt>
<totfact> 0.92774848E+00</totfact>
</mgrwt>
</event>
<event>
 8    1  0.2682466E-027  0.1559519E+04  0.7818608E-02  0.8845810E-01
         -2   -1    0    0    0  501 -0.00000000000E+00  0.00000000000E+00  0.29880584768E+04  0.29880584768E+04  0.25500000000E-02 0. -1.
          2   -1    0    0  501    0  0.00000000000E+00 -0.00000000000E+00 -0.20348499088E+03  0.20348499090E+03  0.25500000000E-02 0.  1.
     200001    2    1    2    0    0  0.73089523748E+02 -0.20090114393E+03  0.84384999937E+03  0.11173903877E+04  0.70055343045E+03 0.  0.
    5000001    2    3    3    0    0  0.95285787023E+01 -0.64121869883E+02  0.31442300061E+03  0.37372278010E+03  0.19132298618E+03 0.  0.
        -13    1    4    4    0    0 -0.88686203234E+02 -0.33777233914E+02  0.15052080580E+03  0.17794006945E+03  0.10566000000E+00 0. -1.
     200003    1    4    4    0    0  0.98214781936E+02 -0.30344635969E+02  0.16390219481E+03  0.19578271065E+03  0.30000000000E+02 0. -1.
     200000    1    3    3    0    0  0.63560945046E+02 -0.13677927404E+03  0.52942699876E+03  0.74366760758E+03  0.50000000000E+03 0.  1.
    -200001    1    1    2    0    0 -0.73089523748E+02  0.20090114393E+03  0.19407234865E+04  0.20741530800E+04  0.70000000000E+03 0. -1.
<mgrwt>
<rscale>  0 0.15595192E+04</rscale>
<asrwt>0</asrwt>
<pdfrwt beam="1">  1        2 0.29069285E-01 0.15595192E+04</pdfrwt>
<pdfrwt beam="2">  1       -2 0.42686549E+00 0.15595192E+04</pdfrwt>
<totfact> 0.88604286E-01</totfact>
</mgrwt>
</event>
<event>
 8    1  0.2682466E-027  0.1550154E+04  0.7818608E-02  0.8851769E-01
         -2   -1    0    0    0  501 -0.00000000000E+00  0.00000000000E+00  0.73162320713E+03  0.73162320713E+03  0.25500000000E-02 0. -1.
          2   -1    0    0  501    0  0.00000000000E+00 -0.00000000000E+00 -0.82111198779E+03  0.82111198780E+03  0.25500000000E-02 0.  1.
     200001    2    1    2    0    0  0.39088394250E+02  0.15016763363E+03 -0.33893070507E+03  0.79359127287E+03  0.70059607819E+03 0.  0.
    5000001    2    3    3    0    0  0.56105656251E+02  0.45352562164E+02 -0.68365215018E+02  0.21524754218E+03  0.19092669335E+03 0.  0.
        -13    1    4    4    0    0  0.11410681782E+03  0.29526594590E+02  0.20982141209E+01  0.11788383828E+03  0.10566000000E+00 0. -1.
     200003    1    4    4    0    0 -0.58001161566E+02  0.15825967574E+02 -0.70463429139E+02  0.97363703908E+02  0.30000000000E+02 0. -1.
     200000    1    3    3    0    0 -0.17017262000E+02  0.10481507146E+03 -0.27056549005E+03  0.57834373068E+03  0.50000000000E+03 0.  1.
    -200001    1    1    2    0    0 -0.39088394250E+02 -0.15016763363E+03  0.24944192441E+03  0.75914392206E+03  0.70000000000E+03 0. -1.
<mgrwt>
<rscale>  0 0.15501543E+04</rscale>
<asrwt>0</asrwt>
<pdfrwt beam="1">  1        2 0.11730171E+00 0.15501543E+04</pdfrwt>
<pdfrwt beam="2">  1       -2 0.10451760E+00 0.15501543E+04</pdfrwt>
<totfact> 0.26349369E+01</totfact>
</mgrwt>
</event>
<event>
 8    1  0.2682466E-027  0.1769671E+04  0.7818608E-02  0.8722596E-01
         -2   -1    0    0    0  501 -0.00000000000E+00  0.00000000000E+00  0.89528913940E+03  0.89528913940E+03  0.25500000000E-02 0. -1.
          2   -1    0    0  501    0  0.00000000000E+00 -0.00000000000E+00 -0.87450382746E+03  0.87450382746E+03  0.25500000000E-02 0.  1.
     200001    2    1    2    0    0  0.61179447048E+02 -0.53057542948E+03 -0.80092693121E+02  0.88354831497E+03  0.69927789489E+03 0.  0.
    5000001    2    3    3    0    0  0.36020504811E+02 -0.14534265860E+03 -0.18158461128E+03  0.24375313713E+03  0.63408640033E+02 0.  0.
        -13    1    4    4    0    0 -0.67760425009E+01  0.46651158746E+00 -0.32102331804E+01  0.75132646794E+01  0.10566000000E+00 0. -1.
     200003    1    4    4    0    0  0.42796547312E+02 -0.14580917019E+03 -0.17837437810E+03  0.23623987245E+03  0.30000000000E+02 0. -1.
     200000    1    3    3    0    0  0.25158942237E+02 -0.38523277088E+03  0.10149191816E+03  0.63979517784E+03  0.50000000000E+03 0.  1.
    -200001    1    1    2    0    0 -0.61179447048E+02  0.53057542948E+03  0.10087800506E+03  0.88624465190E+03  0.70000000000E+03 0. -1.
<mgrwt>
<rscale>  0 0.17696709E+04</rscale>
<asrwt>0</asrwt>
<pdfrwt beam="1">  1        2 0.12492912E+00 0.17696709E+04</pdfrwt>
<pdfrwt beam="2">  1       -2 0.12789845E+00 0.17696709E+04</pdfrwt>
<totfact> 0.14520605E+01</totfact>
</mgrwt>
</event>
<event>
 8    1  0.2682466E-027  0.1961219E+04  0.7818608E-02  0.8624970E-01
          2   -1    0    0  501    0  0.00000000000E+00  0.00000000000E+00  0.29349252454E+04  0.29349252454E+04  0.25500000000E-02 0.  1.
         -2   -1    0    0    0  501 -0.00000000000E+00 -0.00000000000E+00 -0.32763871108E+03  0.32763871109E+03  0.25500000000E-02 0. -1.
     200001    2    1    2    0    0  0.23773229733E+02 -0.48856003487E+03  0.50088790042E+03  0.98964264703E+03  0.69946251215E+03 0.  0.
    5000001    2    3    3    0    0  0.41037137885E+02 -0.19547414982E+03  0.75788149592E+02  0.27068007728E+03  0.16622175154E+03 0.  0.
        -13    1    4    4    0    0  0.28045981524E+02 -0.21818649530E+03  0.61988144304E+02  0.22854860536E+03  0.10566000000E+00 0. -1.
     200003    1    4    4    0    0  0.12991156361E+02  0.22712345483E+02  0.13800005288E+02  0.42131471928E+02  0.30000000000E+02 0. -1.
     200000    1    3    3    0    0 -0.17263908152E+02 -0.29308588505E+03  0.42509975083E+03  0.71896256975E+03  0.50000000000E+03 0. -1.
    -200001    1    1    2    0    0 -0.23773229733E+02  0.48856003487E+03  0.21063986339E+04  0.22729213095E+04  0.70000000000E+03 0.  1.
<mgrwt>
<rscale>  0 0.19612191E+04</rscale>
<asrwt>0</asrwt>
<pdfrwt beam="1">  1        2 0.41927503E+00 0.19612191E+04</pdfrwt>
<pdfrwt beam="2">  1       -2 0.46805530E-01 0.19612191E+04</pdfrwt>
<totfact> 0.10388189E+01</totfact>
</mgrwt>
</event>
<event>
 8    1  0.2682466E-027  0.2191785E+04  0.7818608E-02  0.8521855E-01
          2   -1    0    0  501    0  0.00000000000E+00  0.00000000000E+00  0.29931898323E+04  0.29931898323E+04  0.25500000000E-02 0.  1.
         -2   -1    0    0    0  501 -0.00000000000E+00 -0.00000000000E+00 -0.40123780200E+03  0.40123780201E+03  0.25500000000E-02 0. -1.
     200001    2    1    2    0    0 -0.50760904190E+03  0.63497219629E+03  0.95662625275E+03  0.14386293246E+04  0.70261220936E+03 0.  0.
    5000001    2    3    3    0    0 -0.87351869651E+02  0.22014835230E+03  0.22850210227E+03  0.37615123503E+03  0.18215623711E+03 0.  0.
        -13    1    4    4    0    0 -0.11087821896E+03  0.22523405001E+03  0.16032553530E+03  0.29787353886E+03  0.10566000000E+00 0. -1.
     200003    1    4    4    0    0  0.23526349306E+02 -0.50856977026E+01  0.68176566976E+02  0.78277696168E+02  0.30000000000E+02 0. -1.
     200000    1    3    3    0    0 -0.42025717225E+03  0.41482384399E+03  0.72812415047E+03  0.10624780896E+04  0.50000000000E+03 0. -1.
    -200001    1    1    2    0    0  0.50760904190E+03 -0.63497219629E+03  0.16353257776E+04  0.19557983097E+04  0.70000000000E+03 0.  1.
<mgrwt>
<rscale>  0 0.21917855E+04</rscale>
<asrwt>0</asrwt>
<pdfrwt beam="1">  1        2 0.42759854E+00 0.21917855E+04</pdfrwt>
<pdfrwt beam="2">  1       -2 0.57319687E-01 0.21917855E+04</pdfrwt>
<totfact> 0.62354123E+00</totfact>
</mgrwt>
</event>
<event>
 8    1  0.2682466E-027  0.1602015E+04  0.7818608E-02  0.8819311E-01
         -2   -1    0    0    0  501 -0.00000000000E+00  0.00000000000E+00  0.57103517924E+03  0.57103517925E+03  0.25500000000E-02 0. -1.
          2   -1    0    0  501    0  0.00000000000E+00 -0.00000000000E+00 -0.11235966583E+04  0.11235966583E+04  0.25500000000E-02 0.  1.
     200001    2    1    2    0    0 -0.23080577803E+03  0.28847465381E+03 -0.40505985912E+03  0.88949479270E+03  0.70045596843E+03 0.  0.
    5000001    2    3    3    0    0 -0.10230368920E+03  0.51249274282E+02 -0.81478412737E+02  0.23566483012E+03  0.18922644497E+03 0.  0.
        -13    1    4    4    0    0 -0.78697894235E+02 -0.38992427624E+02 -0.10298338488E+03  0.13534901808E+03  0.10566000000E+00 0. -1.
     200003    1    4    4    0    0 -0.23605794966E+02  0.90241701906E+02  0.21504972144E+02  0.10031581204E+03  0.30000000000E+02 0. -1.
     200000    1    3    3    0    0 -0.12850208883E+03  0.23722537952E+03 -0.32358144639E+03  0.65382996258E+03  0.50000000000E+03 0. -1.
    -200001    1    1    2    0    0  0.23080577803E+03 -0.28847465381E+03 -0.14750161989E+03  0.80513704481E+03  0.70000000000E+03 0.  1.
<mgrwt>
<rscale>  0 0.16020153E+04</rscale>
<asrwt>0</asrwt>
<pdfrwt beam="1">  1        2 0.16051381E+00 0.16020153E+04</pdfrwt>
<pdfrwt beam="2">  1       -2 0.81576454E-01 0.16020153E+04</pdfrwt>
<totfact> 0.30081630E+01</totfact>
</mgrwt>
</event>
<event>
 8    1  0.2682466E-027  0.1742796E+04  0.7818608E-02  0.8737326E-01
         -2   -1    0    0    0  501 -0.00000000000E+00  0.00000000000E+00  0.19340064560E+03  0.19340064562E+03  0.25500000000E-02 0. -1.
          2   -1    0    0  501    0  0.00000000000E+00 -0.00000000000E+00 -0.39262264535E+04  0.39262264535E+04  0.25500000000E-02 0.  1.
     200001    2    1    2    0    0  0.25006153144E+03 -0.45335625437E+03 -0.19465016823E+04  0.21324138381E+04  0.70018377231E+03 0.  0.
    5000001    2    3    3    0    0 -0.22856853921E+02 -0.68087775794E+02 -0.30348918358E+03  0.35128882383E+03  0.16167798927E+03 0.  0.
        -13    1    4    4    0    0  0.33478410112E+02 -0.65387723573E+02 -0.26867372293E+03  0.27853534587E+03  0.10566000000E+00 0. -1.
     200003    1    4    4    0    0 -0.56335264033E+02 -0.27000522214E+01 -0.34815460647E+02  0.72753477963E+02  0.30000000000E+02 0. -1.
     200000    1    3    3    0    0  0.27291838536E+03 -0.38526847858E+03 -0.16430124987E+04  0.17811250143E+04  0.50000000000E+03 0.  1.
    -200001    1    1    2    0    0 -0.25006153144E+03  0.45335625437E+03 -0.17863241256E+04  0.19872132610E+04  0.70000000000E+03 0.  1.
<mgrwt>
<rscale>  0 0.17427963E+04</rscale>
<asrwt>0</asrwt>
<pdfrwt beam="1">  1        2 0.56088944E+00 0.17427963E+04</pdfrwt>
<pdfrwt beam="2">  1       -2 0.27628666E-01 0.17427963E+04</pdfrwt>
<totfact> 0.73414458E+00</totfact>
</mgrwt>
</event>
<event>
 8    1  0.2682466E-027  0.1513401E+04  0.7818608E-02  0.8875590E-01
          2   -1    0    0  501    0  0.00000000000E+00  0.00000000000E+00  0.87257296209E+03  0.87257296209E+03  0.25500000000E-02 0.  1.
         -2   -1    0    0    0  501 -0.00000000000E+00 -0.00000000000E+00 -0.65621491142E+03  0.65621491142E+03  0.25500000000E-02 0. -1.
     200001    2    1    2    0    0 -0.12424670049E+03 -0.17309034932E+03 -0.85570014009E+02  0.73723366321E+03  0.70056672435E+03 0.  0.
    5000001    2    3    3    0    0 -0.81786667514E+02 -0.60338310790E+02 -0.22886094502E+02  0.21911673591E+03  0.19276566059E+03 0.  0.
        -13    1    4    4    0    0 -0.52819187910E+02  0.50077321341E+02  0.42401265167E+02  0.84234691048E+02  0.10566000000E+00 0. -1.
     200003    1    4    4    0    0 -0.28967479605E+02 -0.11041563213E+03 -0.65287359669E+02  0.13488204486E+03  0.30000000000E+02 0. -1.
     200000    1    3    3    0    0 -0.42460032981E+02 -0.11275203853E+03 -0.62683919507E+02  0.51811692730E+03  0.50000000000E+03 0. -1.
    -200001    1    1    2    0    0  0.12424670049E+03  0.17309034932E+03  0.30192806468E+03  0.79155421031E+03  0.70000000000E+03 0.  1.
<mgrwt>
<rscale>  0 0.15134007E+04</rscale>
<asrwt>0</asrwt>
<pdfrwt beam="1">  1        2 0.12465328E+00 0.15134007E+04</pdfrwt>
<pdfrwt beam="2">  1       -2 0.93744987E-01 0.15134007E+04</pdfrwt>
<totfact> 0.31532649E+01</totfact>
</mgrwt>
</event>
<event>
 8    1  0.2682466E-027  0.1731627E+04  0.7818608E-02  0.8743529E-01
         -2   -1    0    0    0  501 -0.00000000000E+00  0.00000000000E+00  0.62316612405E+03  0.62316612406E+03  0.25500000000E-02 0. -1.
          2   -1    0    0  501    0  0.00000000000E+00 -0.00000000000E+00 -0.12029424209E+04  0.12029424209E+04  0.25500000000E-02 0.  1.
     200001    2    1    2    0    0  0.15339899634E+03 -0.86388409848E+01  0.22325082564E+03  0.74979147219E+03  0.69909973464E+03 0.  0.
    5000001    2    3    3    0    0  0.16839634908E+02 -0.14528482466E+02 -0.32578168944E+02  0.17175027856E+03  0.16715911876E+03 0.  0.
        -13    1    4    4    0    0 -0.34521028034E+02  0.46461714900E+01  0.54431669304E+02  0.64622798402E+02  0.10566000000E+00 0. -1.
     200003    1    4    4    0    0  0.51360662942E+02 -0.19174653955E+02 -0.87009838248E+02  0.10712748015E+03  0.30000000000E+02 0. -1.
     200000    1    3    3    0    0  0.13655936144E+03  0.58896414807E+01  0.25582899458E+03  0.57804119364E+03  0.50000000000E+03 0. -1.
    -200001    1    1    2    0    0 -0.15339899634E+03  0.86388409848E+01 -0.80302712244E+03  0.10763170727E+04  0.70000000000E+03 0.  1.
<mgrwt>
<rscale>  0 0.17316269E+04</rscale>
<asrwt>0</asrwt>
<pdfrwt beam="1">  1        2 0.17184892E+00 0.17316269E+04</pdfrwt>
<pdfrwt beam="2">  1       -2 0.89023732E-01 0.17316269E+04</pdfrwt>
<totfact> 0.21964333E+01</totfact>
</mgrwt>
</event>
<event>
 8    1  0.2682466E-027  0.2279752E+04  0.7818608E-02  0.8485948E-01
         -2   -1    0    0    0  501 -0.00000000000E+00  0.00000000000E+00  0.24442592465E+03  0.24442592467E+03  0.25500000000E-02 0. -1.
          2   -1    0    0  501    0  0.00000000000E+00 -0.00000000000E+00 -0.53157912665E+04  0.53157912665E+04  0.25500000000E-02 0.  1.
     200001    2    1    2    0    0 -0.23827090782E+03 -0.16941762980E+03 -0.46273139493E+03  0.88956603576E+03  0.70123607247E+03 0.  0.
    5000001    2    3    3    0    0 -0.71435586478E+02  0.30964384948E+02 -0.85486158555E+02  0.21111121439E+03  0.17663019387E+03 0.  0.
        -13    1    4    4    0    0 -0.10087558513E+03  0.18482887664E+02 -0.11813853477E+03  0.15644240273E+03  0.10566000000E+00 0. -1.
     200003    1    4    4    0    0  0.29439998653E+02  0.12481497284E+02  0.32652376214E+02  0.54668811653E+02  0.30000000000E+02 0. -1.
     200000    1    3    3    0    0 -0.16683532134E+03 -0.20038201475E+03 -0.37724523637E+03  0.67845482138E+03  0.50000000000E+03 0. -1.
    -200001    1    1    2    0    0  0.23827090782E+03  0.16941762980E+03 -0.46086339469E+04  0.46706511554E+04  0.70000000000E+03 0.  1.
<mgrwt>
<rscale>  0 0.22797519E+04</rscale>
<asrwt>0</asrwt>
<pdfrwt beam="1">  1        2 0.75939868E+00 0.22797519E+04</pdfrwt>
<pdfrwt beam="2">  1       -2 0.34917992E-01 0.22797519E+04</pdfrwt>
<totfact> 0.29318358E-01</totfact>
</mgrwt>
</event>
<event>
 8    1  0.2682466E-027  0.1477689E+04  0.7818608E-02  0.8899427E-01
         -2   -1    0    0    0  501 -0.00000000000E+00  0.00000000000E+00  0.92221136668E+03  0.92221136668E+03  0.25500000000E-02 0. -1.
          2   -1    0    0  501    0  0.00000000000E+00 -0.00000000000E+00 -0.59193716648E+03  0.59193716649E+03  0.25500000000E-02 0.  1.
     200001    2    1    2    0    0  0.29913129979E+02 -0.20292726586E+03  0.43766913378E+02  0.73046447950E+03  0.69970604008E+03 0.  0.
    5000001    2    3    3    0    0 -0.59166143531E+02 -0.24924429166E+02  0.42184639397E+02  0.19229849169E+03  0.17628756734E+03 0.  0.
        -13    1    4    4    0    0 -0.76328550492E+02  0.47153530698E+02  0.63081816257E+02  0.10967602192E+03  0.10566000000E+00 0. -1.
     200003    1    4    4    0    0  0.17162406962E+02 -0.72077959864E+02 -0.20897176860E+02  0.82622469775E+02  0.30000000000E+02 0. -1.
     200000    1    3    3    0    0  0.89079273509E+02 -0.17800283669E+03  0.15822739816E+01  0.53816598781E+03  0.50000000000E+03 0. -1.
    -200001    1    1    2    0    0 -0.29913129979E+02  0.20292726586E+03  0.28650728682E+03  0.78368405367E+03  0.70000000000E+03 0.  1.
<mgrwt>
<rscale>  0 0.14776890E+04</rscale>
<asrwt>0</asrwt>
<pdfrwt beam="1">  1        2 0.84562453E-01 0.14776890E+04</pdfrwt>
<pdfrwt beam="2">  1       -2 0.13174448E+00 0.14776890E+04</pdfrwt>
<totfact> 0.22440438E+01</totfact>
</mgrwt>
</event>
<event>
 8    1  0.2682466E-027  0.1583394E+04  0.7818608E-02  0.8830815E-01
          2   -1    0    0  501    0  0.00000000000E+00  0.00000000000E+00  0.86168017321E+03  0.86168017322E+03  0.25500000000E-02 0.  1.
         -2   -1    0    0    0  501 -0.00000000000E+00 -0.00000000000E+00 -0.72739733371E+03  0.72739733372E+03  0.25500000000E-02 0. -1.
     200001    2    1    2    0    0  0.13167268561E+03  0.13150220249E+03 -0.25810239324E+03  0.76530769912E+03  0.69602334985E+03 0.  0.
    5000001    2    3    3    0    0 -0.39555077406E+02  0.27494944832E+02 -0.57311191950E+02  0.19045679411E+03  0.17512464579E+03 0.  0.
        -13    1    4    4    0    0 -0.39438452778E+02 -0.24120422803E+02  0.49726044680E+02  0.67896075272E+02  0.10566000000E+00 0. -1.
     200003    1    4    4    0    0 -0.11662462782E+00  0.51615367635E+02 -0.10703723663E+03  0.12256071884E+03  0.30000000000E+02 0. -1.
     200000    1    3    3    0    0  0.17122776301E+03  0.10400725765E+03 -0.20079120129E+03  0.57485090501E+03  0.50000000000E+03 0.  1.
    -200001    1    1    2    0    0 -0.13167268561E+03 -0.13150220249E+03  0.39238523274E+03  0.82376980781E+03  0.70000000000E+03 0.  1.
<mgrwt>
<rscale>  0 0.15833936E+04</rscale>
<asrwt>0</asrwt>
<pdfrwt beam="1">  1        2 0.12309717E+00 0.15833936E+04</pdfrwt>
<pdfrwt beam="2">  1       -2 0.10391390E+00 0.15833936E+04</pdfrwt>
<totfact> 0.25010247E+01</totfact>
</mgrwt>
</event>
<event>
 8    1  0.2682466E-027  0.2590505E+04  0.7818608E-02  0.8371434E-01
          2   -1    0    0  501    0  0.00000000000E+00  0.00000000000E+00  0.19933218975E+04  0.19933218975E+04  0.25500000000E-02 0.  1.
         -2   -1    0    0    0  501 -0.00000000000E+00 -0.00000000000E+00 -0.84164967628E+03  0.84164967629E+03  0.25500000000E-02 0. -1.
     200001    2    1    2    0    0 -0.12920277400E+03 -0.58864446650E+03  0.15694009173E+04  0.18212196671E+04  0.70044712288E+03 0.  0.
    5000001    2    3    3    0    0  0.36586435328E+02 -0.17137845852E+03  0.48084947852E+03  0.54194595981E+03  0.17826962465E+03 0.  0.
        -13    1    4    4    0    0 -0.55068228708E+01 -0.47797464318E+02  0.59080646078E+01  0.48475138832E+02  0.10566000000E+00 0. -1.
     200003    1    4    4    0    0  0.42093258199E+02 -0.12358099420E+03  0.47494141391E+03  0.49347082098E+03  0.30000000000E+02 0. -1.
     200000    1    3    3    0    0 -0.16578920932E+03 -0.41726600798E+03  0.10885514388E+04  0.12792737073E+04  0.50000000000E+03 0.  1.
    -200001    1    1    2    0    0  0.12920277400E+03  0.58864446650E+03 -0.41772869608E+03  0.10137519067E+04  0.70000000000E+03 0. -1.
<mgrwt>
<rscale>  0 0.25905048E+04</rscale>
<asrwt>0</asrwt>
<pdfrwt beam="1">  1        2 0.28476027E+00 0.25905048E+04</pdfrwt>
<pdfrwt beam="2">  1       -2 0.12023567E+00 0.25905048E+04</pdfrwt>
<totfact> 0.38073950E+00</totfact>
</mgrwt>
</event>
<event>
 8    1  0.2682466E-027  0.1543506E+04  0.7818608E-02  0.8856026E-01
          2   -1    0    0  501    0  0.00000000000E+00  0.00000000000E+00  0.13669279655E+04  0.13669279655E+04  0.25500000000E-02 0.  1.
         -2   -1    0    0    0  501 -0.00000000000E+00 -0.00000000000E+00 -0.43572357038E+03  0.43572357039E+03  0.25500000000E-02 0. -1.
     200001    2    1    2    0    0 -0.75334447128E+02  0.16428136985E+03  0.14796255733E+03  0.73675687698E+03  0.69875183721E+03 0.  0.
    5000001    2    3    3    0    0  0.65539392607E+02  0.45191894081E+02  0.14835829310E+02  0.18743869261E+03  0.16904272355E+03 0.  0.
        -13    1    4    4    0    0 -0.42942515969E+02  0.22067607129E+01 -0.36570444849E+02  0.56447657800E+02  0.10566000000E+00 0. -1.
     200003    1    4    4    0    0  0.10848190858E+03  0.42985133368E+02  0.51406274159E+02  0.13099103481E+03  0.30000000000E+02 0. -1.
     200000    1    3    3    0    0 -0.14087383973E+03  0.11908947577E+03  0.13312672802E+03  0.54931818436E+03  0.50000000000E+03 0. -1.
    -200001    1    1    2    0    0  0.75334447128E+02 -0.16428136985E+03  0.78324183774E+03  0.10658946589E+04  0.70000000000E+03 0.  1.
<mgrwt>
<rscale>  0 0.15435061E+04</rscale>
<asrwt>0</asrwt>
<pdfrwt beam="1">  1        2 0.19527543E+00 0.15435061E+04</pdfrwt>
<pdfrwt beam="2">  1       -2 0.62246224E-01 0.15435061E+04</pdfrwt>
<totfact> 0.39854264E+01</totfact>
</mgrwt>
</event>
<event>
 8    1  0.2682466E-027  0.1599539E+04  0.7818608E-02  0.8820831E-01
         -2   -1    0    0    0  501 -0.00000000000E+00  0.00000000000E+00  0.12117587520E+04  0.12117587520E+04  0.25500000000E-02 0. -1.
          2   -1    0    0  501    0  0.00000000000E+00 -0.00000000000E+00 -0.52785385376E+03  0.52785385377E+03  0.25500000000E-02 0.  1.
     200001    2    1    2    0    0  0.10040703016E+03 -0.29878119727E+03  0.58720117922E+03  0.96585335067E+03  0.69908203709E+03 0.  0.
    5000001    2    3    3    0    0  0.29303320503E+02 -0.81927419003E+02  0.58772248972E+02  0.20341093776E+03  0.17421551531E+03 0.  0.
        -13    1    4    4    0    0 -0.47664488435E+02  0.99964950501E+01 -0.24370365242E+02  0.54458784756E+02  0.10566000000E+00 0. -1.
     200003    1    4    4    0    0  0.76967808938E+02 -0.91923914053E+02  0.83142614214E+02  0.14895215301E+03  0.30000000000E+02 0. -1.
     200000    1    3    3    0    0  0.71103709654E+02 -0.21685377826E+03  0.52842893025E+03  0.76244241291E+03  0.50000000000E+03 0. -1.
    -200001    1    1    2    0    0 -0.10040703016E+03  0.29878119727E+03  0.96703718995E+02  0.77375925507E+03  0.70000000000E+03 0.  1.
<mgrwt>
<rscale>  0 0.15995393E+04</rscale>
<asrwt>0</asrwt>
<pdfrwt beam="1">  1        2 0.75407694E-01 0.15995393E+04</pdfrwt>
<pdfrwt beam="2">  1       -2 0.17310839E+00 0.15995393E+04</pdfrwt>
<totfact> 0.12270117E+01</totfact>
</mgrwt>
</event>
<event>
 8    1  0.2682466E-027  0.2118879E+04  0.7818608E-02  0.8552972E-01
          2   -1    0    0  501    0  0.00000000000E+00  0.00000000000E+00  0.10064962727E+04  0.10064962727E+04  0.25500000000E-02 0. -1.
         -2   -1    0    0    0  501 -0.00000000000E+00 -0.00000000000E+00 -0.11151681446E+04  0.11151681446E+04  0.25500000000E-02 0.  1.
     200001    2    1    2    0    0  0.70034820042E+03 -0.33013305407E+03  0.12957525161E+03  0.10510397739E+04  0.69887010613E+03 0.  0.
    5000001    2    3    3    0    0  0.16754298342E+03 -0.85318687483E+02 -0.58873977631E+02  0.25773744479E+03  0.16617014015E+03 0.  0.
        -13    1    4    4    0    0  0.96330358024E+01  0.20962022848E+02 -0.60803983725E+02  0.65033355915E+02  0.10566000000E+00 0. -1.
     200003    1    4    4    0    0  0.15790994762E+03 -0.10628071033E+03  0.19300060944E+01  0.19270408887E+03  0.30000000000E+02 0. -1.
     200000    1    3    3    0    0  0.53280521700E+03 -0.24481436658E+03  0.18844922924E+03  0.79330232910E+03  0.50000000000E+03 0. -1.
    -200001    1    1    2    0    0 -0.70034820042E+03  0.33013305407E+03 -0.23824712345E+03  0.10706246434E+04  0.70000000000E+03 0.  1.
<mgrwt>
<rscale>  0 0.21188795E+04</rscale>
<asrwt>0</asrwt>
<pdfrwt beam="1">  1        2 0.14378518E+00 0.21188795E+04</pdfrwt>
<pdfrwt beam="2">  1       -2 0.15930973E+00 0.21188795E+04</pdfrwt>
<totfact> 0.65529367E+00</totfact>
</mgrwt>
</event>
<event>
 8    1  0.2682466E-027  0.1508425E+04  0.7818608E-02  0.8878870E-01
          2   -1    0    0  501    0  0.00000000000E+00  0.00000000000E+00  0.14075587676E+04  0.14075587676E+04  0.25500000000E-02 0.  1.
         -2   -1    0    0    0  501 -0.00000000000E+00 -0.00000000000E+00 -0.40412957941E+03  0.40412957942E+03  0.25500000000E-02 0. -1.
     200001    2    1    2    0    0 -0.13385908307E+03  0.79494481500E+02  0.78304895588E+03  0.10614849922E+04  0.69953348362E+03 0.  0.
    5000001    2    3    3    0    0 -0.95402140992E+02 -0.71340742248E+02  0.22137482235E+03  0.29356049503E+03  0.15159116814E+03 0.  0.
        -13    1    4    4    0    0 -0.64241647582E+02 -0.26829573689E+01  0.19937136675E+03  0.20948303174E+03  0.10566000000E+00 0. -1.
     200003    1    4    4    0    0 -0.31160493410E+02 -0.68657784879E+02  0.22003455601E+02  0.84077463285E+02  0.30000000000E+02 0. -1.
     200000    1    3    3    0    0 -0.38456942074E+02  0.15083522375E+03  0.56167413353E+03  0.76792449720E+03  0.50000000000E+03 0.  1.
    -200001    1    1    2    0    0  0.13385908307E+03 -0.79494481500E+02  0.22038023227E+03  0.75020335475E+03  0.70000000000E+03 0. -1.
<mgrwt>
<rscale>  0 0.15084245E+04</rscale>
<asrwt>0</asrwt>
<pdfrwt beam="1">  1        2 0.20107983E+00 0.15084245E+04</pdfrwt>
<pdfrwt beam="2">  1       -2 0.57732797E-01 0.15084245E+04</pdfrwt>
<totfact> 0.44523978E+01</totfact>
</mgrwt>
</event>
<event>
 8    1  0.2682466E-027  0.1630043E+04  0.7818608E-02  0.8802301E-01
         -2   -1    0    0    0  501 -0.00000000000E+00  0.00000000000E+00  0.15177243557E+04  0.15177243557E+04  0.25500000000E-02 0. -1.
          2   -1    0    0  501    0  0.00000000000E+00 -0.00000000000E+00 -0.43766821193E+03  0.43766821194E+03  0.25500000000E-02 0.  1.
     200001    2    1    2    0    0  0.35557541395E+02  0.36618496790E+03  0.30430527991E+03  0.84762672042E+03  0.70036674987E+03 0.  0.
    5000001    2    3    3    0    0 -0.64911488850E+02  0.10598262827E+03  0.12148324764E+03  0.24660826890E+03  0.17496182427E+03 0.  0.
        -13    1    4    4    0    0  0.22931096190E+02  0.43363567487E+02 -0.30552400246E+02  0.57790089829E+02  0.10566000000E+00 0. -1.
     200003    1    4    4    0    0 -0.87842585040E+02  0.62619060787E+02  0.15203564788E+03  0.18881817907E+03  0.30000000000E+02 0. -1.
     200000    1    3    3    0    0  0.10046903024E+03  0.26020233962E+03  0.18282203227E+03  0.60101845152E+03  0.50000000000E+03 0.  1.
    -200001    1    1    2    0    0 -0.35557541395E+02 -0.36618496790E+03  0.77575086381E+03  0.11077658472E+04  0.70000000000E+03 0. -1.
<mgrwt>
<rscale>  0 0.16300426E+04</rscale>
<asrwt>0</asrwt>
<pdfrwt beam="1">  1        2 0.62524031E-01 0.16300426E+04</pdfrwt>
<pdfrwt beam="2">  1       -2 0.21681776E+00 0.16300426E+04</pdfrwt>
<totfact> 0.77540027E+00</totfact>
</mgrwt>
</event>
<event>
 8    1  0.2682466E-027  0.2199742E+04  0.7818608E-02  0.8518535E-01
          2   -1    0    0  501    0  0.00000000000E+00  0.00000000000E+00  0.14519479057E+04  0.14519479057E+04  0.25500000000E-02 0.  1.
         -2   -1    0    0    0  501 -0.00000000000E+00 -0.00000000000E+00 -0.83316786653E+03  0.83316786653E+03  0.25500000000E-02 0. -1.
     200001    2    1    2    0    0 -0.52531985221E+03  0.63874224140E+03  0.50477961387E+03  0.11956440217E+04  0.70057802569E+03 0.  0.
    5000001    2    3    3    0    0 -0.98074509586E+02  0.23057949773E+03  0.21342889021E+03  0.36858861109E+03  0.16589200959E+03 0.  0.
        -13    1    4    4    0    0  0.98865833066E+01 -0.21295401701E+02  0.80524987866E+01  0.24821211974E+02  0.10566000000E+00 0. -1.
     200003    1    4    4    0    0 -0.10796109289E+03  0.25187489943E+03  0.20537639142E+03  0.34376739912E+03  0.30000000000E+02 0. -1.
     200000    1    3    3    0    0 -0.42724534262E+03  0.40816274367E+03  0.29135072366E+03  0.82705541065E+03  0.50000000000E+03 0.  1.
    -200001    1    1    2    0    0  0.52531985221E+03 -0.63874224140E+03  0.11400042527E+03  0.10894717505E+04  0.70000000000E+03 0. -1.
<mgrwt>
<rscale>  0 0.21997421E+04</rscale>
<asrwt>0</asrwt>
<pdfrwt beam="1">  1        2 0.20742113E+00 0.21997421E+04</pdfrwt>
<pdfrwt beam="2">  1       -2 0.11902398E+00 0.21997421E+04</pdfrwt>
<totfact> 0.77213969E+00</totfact>
</mgrwt>
</event>
<event>
 8    1  0.2682466E-027  0.2122268E+04  0.7818608E-02  0.8551497E-01
          2   -1    0    0  501    0  0.00000000000E+00  0.00000000000E+00  0.11097794784E+04  0.11097794784E+04  0.25500000000E-02 0.  1.
         -2   -1    0    0    0  501 -0.00000000000E+00 -0.00000000000E+00 -0.10146209523E+04  0.10146209523E+04  0.25500000000E-02 0. -1.
     200001    2    1    2    0    0 -0.43343615229E+03  0.40338479582E+03 -0.48687991170E+03  0.10384193375E+04  0.70048303370E+03 0.  0.
    5000001    2    3    3    0    0 -0.17393839421E+03  0.14480360972E+02 -0.97329599011E+02  0.25080573174E+03  0.15154609330E+03 0.  0.
        -13    1    4    4    0    0 -0.80983911540E+02  0.40102971144E+02 -0.11709224263E+03  0.14790958952E+03  0.10566000000E+00 0. -1.
     200003    1    4    4    0    0 -0.92954482674E+02 -0.25622610172E+02  0.19762643618E+02  0.10289614222E+03  0.30000000000E+02 0. -1.
     200000    1    3    3    0    0 -0.25949775808E+03  0.38890443485E+03 -0.38955031269E+03  0.78761360578E+03  0.50000000000E+03 0. -1.
    -200001    1    1    2    0    0  0.43343615229E+03 -0.40338479582E+03  0.58203843776E+03  0.10859810931E+04  0.70000000000E+03 0.  1.
<mgrwt>
<rscale>  0 0.21222681E+04</rscale>
<asrwt>0</asrwt>
<pdfrwt beam="1">  1        2 0.15853992E+00 0.21222681E+04</pdfrwt>
<pdfrwt beam="2">  1       -2 0.14494585E+00 0.21222681E+04</pdfrwt>
<totfact> 0.73061183E+00</totfact>
</mgrwt>
</event>
<event>
 8    1  0.2682466E-027  0.1453219E+04  0.7818608E-02  0.8916172E-01
         -2   -1    0    0    0  501 -0.00000000000E+00  0.00000000000E+00  0.60824143838E+03  0.60824143838E+03  0.25500000000E-02 0. -1.
          2   -1    0    0  501    0  0.00000000000E+00 -0.00000000000E+00 -0.86801340622E+03  0.86801340623E+03  0.25500000000E-02 0.  1.
     200001    2    1    2    0    0  0.95199110157E+02 -0.16504677324E+03 -0.18150309018E+03  0.74657729586E+03  0.69866370954E+03 0.  0.
    5000001    2    3    3    0    0  0.14127848621E+03 -0.51600210689E+02 -0.46311390343E+02  0.21434592967E+03  0.14552401961E+03 0.  0.
        -13    1    4    4    0    0  0.73849522899E+02 -0.78629632720E+02 -0.74223926221E+02  0.13094110723E+03  0.10566000000E+00 0. -1.
     200003    1    4    4    0    0  0.67428963308E+02  0.27029422031E+02  0.27912535878E+02  0.83404822446E+02  0.30000000000E+02 0. -1.
     200000    1    3    3    0    0 -0.46079376050E+02 -0.11344656255E+03 -0.13519169984E+03  0.53223136619E+03  0.50000000000E+03 0.  1.
    -200001    1    1    2    0    0 -0.95199110157E+02  0.16504677324E+03 -0.78268877663E+02  0.72967754874E+03  0.70000000000E+03 0. -1.
<mgrwt>
<rscale>  0 0.14532195E+04</rscale>
<asrwt>0</asrwt>
<pdfrwt beam="1">  1        2 0.12400191E+00 0.14532195E+04</pdfrwt>
<pdfrwt beam="2">  1       -2 0.86891635E-01 0.14532195E+04</pdfrwt>
<totfact> 0.38006216E+01</totfact>
</mgrwt>
</event>
<event>
 8    1  0.2682466E-027  0.1735310E+04  0.7818608E-02  0.8741478E-01
          2   -1    0    0  501    0  0.00000000000E+00  0.00000000000E+00  0.28155821160E+04  0.28155821160E+04  0.25500000000E-02 0.  1.
         -2   -1    0    0    0  501 -0.00000000000E+00 -0.00000000000E+00 -0.26737832546E+03  0.26737832547E+03  0.25500000000E-02 0. -1.
     200001    2    1    2    0    0 -0.51748688633E+02 -0.35757528534E+03  0.62673171640E+03  0.10062820978E+04  0.69948052475E+03 0.  0.
    5000001    2    3    3    0    0  0.13036962844E+02 -0.14747841837E+03  0.20092312388E+03  0.31371381117E+03  0.19006948025E+03 0.  0.
        -13    1    4    4    0    0 -0.80164228615E+02 -0.80176601482E+02  0.56425961218E+02  0.12664316499E+03  0.10566000000E+00 0. -1.
     200003    1    4    4    0    0  0.93201191459E+02 -0.67301816891E+02  0.14449716266E+03  0.18707064618E+03  0.30000000000E+02 0. -1.
     200000    1    3    3    0    0 -0.64785651477E+02 -0.21009686697E+03  0.42580859252E+03  0.69256828661E+03  0.50000000000E+03 0. -1.
    -200001    1    1    2    0    0  0.51748688633E+02  0.35757528534E+03  0.19214720741E+04  0.20766783437E+04  0.70000000000E+03 0.  1.
<mgrwt>
<rscale>  0 0.17353105E+04</rscale>
<asrwt>0</asrwt>
<pdfrwt beam="1">  1        2 0.40222602E+00 0.17353105E+04</pdfrwt>
<pdfrwt beam="2">  1       -2 0.38196903E-01 0.17353105E+04</pdfrwt>
<totfact> 0.18401359E+01</totfact>
</mgrwt>
</event>
<event>
 8    1  0.2682466E-027  0.1611535E+04  0.7818608E-02  0.8813493E-01
          2   -1    0    0  501    0  0.00000000000E+00  0.00000000000E+00  0.80640981809E+03  0.80640981810E+03  0.25500000000E-02 0.  1.
         -2   -1    0    0    0  501 -0.00000000000E+00 -0.00000000000E+00 -0.80512578296E+03  0.80512578296E+03  0.25500000000E-02 0. -1.
     200001    2    1    2    0    0  0.49789835487E+02 -0.32014714494E+03  0.23316856460E+03  0.80608935385E+03  0.70031367597E+03 0.  0.
    5000001    2    3    3    0    0  0.20188336307E+02 -0.97524702976E+02  0.64133553327E+02  0.23249556426E+03  0.20005608745E+03 0.  0.
        -13    1    4    4    0    0  0.92576493702E+02  0.18215273127E+01  0.47295416002E+01  0.92715181473E+02  0.10566000000E+00 0. -1.
     200003    1    4    4    0    0 -0.72388157394E+02 -0.99346230289E+02  0.59404011727E+02  0.13978038279E+03  0.30000000000E+02 0. -1.
     200000    1    3    3    0    0  0.29601499180E+02 -0.22262244197E+03  0.16903501127E+03  0.57359378959E+03  0.50000000000E+03 0.  1.
    -200001    1    1    2    0    0 -0.49789835487E+02  0.32014714494E+03 -0.23188452946E+03  0.80544624721E+03  0.70000000000E+03 0. -1.
<mgrwt>
<rscale>  0 0.16115351E+04</rscale>
<asrwt>0</asrwt>
<pdfrwt beam="1">  1        2 0.11520140E+00 0.16115351E+04</pdfrwt>
<pdfrwt beam="2">  1       -2 0.11501797E+00 0.16115351E+04</pdfrwt>
<totfact> 0.21296228E+01</totfact>
</mgrwt>
</event>
<event>
 8    1  0.2682466E-027  0.2264927E+04  0.7818608E-02  0.8491880E-01
          2   -1    0    0  501    0  0.00000000000E+00  0.00000000000E+00  0.32687006268E+04  0.32687006268E+04  0.25500000000E-02 0.  1.
         -2   -1    0    0    0  501 -0.00000000000E+00 -0.00000000000E+00 -0.39234952289E+03  0.39234952290E+03  0.25500000000E-02 0. -1.
     200001    2    1    2    0    0  0.59690060944E+02 -0.13735620356E+03  0.19471654618E+02  0.71585239440E+03  0.69973986252E+03 0.  0.
    5000001    2    3    3    0    0  0.49564115404E+01 -0.45179823777E+02  0.20592930261E+02  0.20448802858E+03  0.19830658729E+03 0.  0.
        -13    1    4    4    0    0 -0.43345709209E+02  0.69128553994E+01  0.90385405629E+02  0.10047970338E+03  0.10566000000E+00 0. -1.
     200003    1    4    4    0    0  0.48302120749E+02 -0.52092679177E+02 -0.69792475368E+02  0.10400832520E+03  0.30000000000E+02 0. -1.
     200000    1    3    3    0    0  0.54733649404E+02 -0.92176379787E+02 -0.11212756436E+01  0.51136436582E+03  0.50000000000E+03 0. -1.
    -200001    1    1    2    0    0 -0.59690060944E+02  0.13735620356E+03  0.28568794493E+04  0.29451977553E+04  0.70000000000E+03 0.  1.
<mgrwt>
<rscale>  0 0.22649266E+04</rscale>
<asrwt>0</asrwt>
<pdfrwt beam="1">  1        2 0.46695722E+00 0.22649266E+04</pdfrwt>
<pdfrwt beam="2">  1       -2 0.56049933E-01 0.22649266E+04</pdfrwt>
<totfact> 0.45185487E+00</totfact>
</mgrwt>
</event>
<event>
 8    1  0.2682466E-027  0.1459096E+04  0.7818608E-02  0.8912119E-01
         -2   -1    0    0    0  501 -0.00000000000E+00  0.00000000000E+00  0.66335012047E+03  0.66335012048E+03  0.25500000000E-02 0. -1.
          2   -1    0    0  501    0  0.00000000000E+00 -0.00000000000E+00 -0.80235163659E+03  0.80235163660E+03  0.25500000000E-02 0.  1.
     200001    2    1    2    0    0  0.30752712871E+01 -0.20364624409E+03 -0.97538334161E+02  0.73549600150E+03  0.69997099337E+03 0.  0.
    5000001    2    3    3    0    0 -0.31507849401E+02 -0.60051860847E+02  0.36396319761E+02  0.19720813180E+03  0.18156922810E+03 0.  0.
        -13    1    4    4    0    0  0.20112694093E+02 -0.11183416733E+03  0.10828994676E+02  0.11414324218E+03  0.10566000000E+00 0. -1.
     200003    1    4    4    0    0 -0.51620543494E+02  0.51782306486E+02  0.25567325085E+02  0.83064889620E+02  0.30000000000E+02 0. -1.
     200000    1    3    3    0    0  0.34583120688E+02 -0.14359438324E+03 -0.13393465392E+03  0.53828786969E+03  0.50000000000E+03 0.  1.
    -200001    1    1    2    0    0 -0.30752712871E+01  0.20364624409E+03 -0.41463181961E+02  0.73020575558E+03  0.70000000000E+03 0. -1.
<mgrwt>
<rscale>  0 0.14590957E+04</rscale>
<asrwt>0</asrwt>
<pdfrwt beam="1">  1        2 0.11462166E+00 0.14590957E+04</pdfrwt>
<pdfrwt beam="2">  1       -2 0.94764303E-01 0.14590957E+04</pdfrwt>
<totfact> 0.34472876E+01</totfact>
</mgrwt>
</event>
<event>
 8    1  0.2682466E-027  0.1577450E+04  0.7818608E-02  0.8834522E-01
         -2   -1    0    0    0  501 -0.00000000000E+00  0.00000000000E+00  0.24005865093E+03  0.24005865095E+03  0.25500000000E-02 0. -1.
          2   -1    0    0  501    0  0.00000000000E+00 -0.00000000000E+00 -0.25913977363E+04  0.25913977363E+04  0.25500000000E-02 0.  1.
     200001    2    1    2    0    0  0.12338012892E+03  0.17902056613E+03 -0.16972580489E+04  0.18490649064E+04  0.70077466019E+03 0.  0.
    5000001    2    3    3    0    0  0.19562340163E+02  0.69796249870E+01 -0.45067700788E+03  0.49099991885E+03  0.19375178595E+03 0.  0.
        -13    1    4    4    0    0  0.37637384934E+02 -0.85405903949E+02 -0.17817667622E+03  0.20114094632E+03  0.10566000000E+00 0. -1.
     200003    1    4    4    0    0 -0.18075044770E+02  0.92385528936E+02 -0.27250033166E+03  0.28985897253E+03  0.30000000000E+02 0. -1.
     200000    1    3    3    0    0  0.10381778876E+03  0.17204094114E+03 -0.12465810410E+04  0.13580649876E+04  0.50000000000E+03 0.  1.
    -200001    1    1    2    0    0 -0.12338012892E+03 -0.17902056613E+03 -0.65408103649E+03  0.98239148083E+03  0.70000000000E+03 0. -1.
<mgrwt>
<rscale>  0 0.15774504E+04</rscale>
<asrwt>0</asrwt>
<pdfrwt beam="1">  1        2 0.37019966E+00 0.15774504E+04</pdfrwt>
<pdfrwt beam="2">  1       -2 0.34294094E-01 0.15774504E+04</pdfrwt>
<totfact> 0.30265456E+01</totfact>
</mgrwt>
</event>
<event>
 8    1  0.2682466E-027  0.1594197E+04  0.7818608E-02  0.8824121E-01
         -2   -1    0    0    0  501 -0.00000000000E+00  0.00000000000E+00  0.16431478959E+04  0.16431478959E+04  0.25500000000E-02 0. -1.
          2   -1    0    0  501    0  0.00000000000E+00 -0.00000000000E+00 -0.38667606856E+03  0.38667606857E+03  0.25500000000E-02 0.  1.
     200001    2    1    2    0    0 -0.29267473448E+01  0.35025937056E+03  0.82003575190E+03  0.11336283159E+04  0.69997452221E+03 0.  0.
    5000001    2    3    3    0    0  0.85285728615E+02  0.76341943267E+02  0.27542804021E+03  0.34027482754E+03  0.16378218803E+03 0.  0.
        -13    1    4    4    0    0 -0.26661096381E+02  0.34027837693E+02  0.17769093930E+03  0.18287369650E+03  0.10566000000E+00 0. -1.
     200003    1    4    4    0    0  0.11194682500E+03  0.42314105574E+02  0.97737100908E+02  0.15740113104E+03  0.30000000000E+02 0. -1.
     200000    1    3    3    0    0 -0.88212475960E+02  0.27391742729E+03  0.54460771168E+03  0.79335348837E+03  0.50000000000E+03 0. -1.
    -200001    1    1    2    0    0  0.29267473448E+01 -0.35025937056E+03  0.43643607540E+03  0.89619564852E+03  0.70000000000E+03 0. -1.
<mgrwt>
<rscale>  0 0.15941969E+04</rscale>
<asrwt>0</asrwt>
<pdfrwt beam="1">  1        2 0.55239439E-01 0.15941969E+04</pdfrwt>
<pdfrwt beam="2">  1       -2 0.23473541E+00 0.15941969E+04</pdfrwt>
<totfact> 0.68969936E+00</totfact>
</mgrwt>
</event>
<event>
 8    1  0.2682466E-027  0.1436124E+04  0.7818608E-02  0.8928078E-01
          2   -1    0    0  501    0  0.00000000000E+00  0.00000000000E+00  0.44700019655E+03  0.44700019656E+03  0.25500000000E-02 0.  1.
         -2   -1    0    0    0  501 -0.00000000000E+00 -0.00000000000E+00 -0.11534956125E+04  0.11534956125E+04  0.25500000000E-02 0. -1.
     200001    2    1    2    0    0 -0.12499261954E+03  0.42176975607E+01 -0.23846704435E+03  0.74920766717E+03  0.69914565964E+03 0.  0.
    5000001    2    3    3    0    0 -0.77789341336E+02  0.39252173766E+01 -0.12071798594E+03  0.23336556364E+03  0.18390232518E+03 0.  0.
        -13    1    4    4    0    0 -0.16415137314E+02  0.22184216317E+02 -0.15311732391E+03  0.15558445370E+03  0.10566000000E+00 0. -1.
     200003    1    4    4    0    0 -0.61374204023E+02 -0.18258998941E+02  0.32399337976E+02  0.77781109937E+02  0.30000000000E+02 0. -1.
     200000    1    3    3    0    0 -0.47203278206E+02  0.29248018412E+00 -0.11774905841E+03  0.51584210353E+03  0.50000000000E+03 0.  1.
    -200001    1    1    2    0    0  0.12499261954E+03 -0.42176975607E+01 -0.46802837161E+03  0.85128814190E+03  0.70000000000E+03 0. -1.
<mgrwt>
<rscale>  0 0.14361236E+04</rscale>
<asrwt>0</asrwt>
<pdfrwt beam="1">  1        2 0.63857171E-01 0.14361236E+04</pdfrwt>
<pdfrwt beam="2">  1       -2 0.16478509E+00 0.14361236E+04</pdfrwt>
<totfact> 0.17223232E+01</totfact>
</mgrwt>
</event>
<event>
 8    1  0.2682466E-027  0.1530533E+04  0.7818608E-02  0.8864399E-01
          2   -1    0    0  501    0  0.00000000000E+00  0.00000000000E+00  0.11301766371E+04  0.11301766371E+04  0.25500000000E-02 0.  1.
         -2   -1    0    0    0  501 -0.00000000000E+00 -0.00000000000E+00 -0.51817779845E+03  0.51817779845E+03  0.25500000000E-02 0. -1.
     200001    2    1    2    0    0  0.28954194403E+03  0.10847184941E+03  0.30741835731E+03  0.82472226700E+03  0.70004292141E+03 0.  0.
    5000001    2    3    3    0    0  0.30588781455E+02  0.39885421767E+02  0.94270059948E+02  0.21875771760E+03  0.19089676369E+03 0.  0.
        -13    1    4    4    0    0 -0.58883504918E+02  0.52169735765E+02  0.95315364085E+02  0.12358793742E+03  0.10566000000E+00 0. -1.
     200003    1    4    4    0    0  0.89472286373E+02 -0.12284313998E+02 -0.10453041375E+01  0.95169780182E+02  0.30000000000E+02 0. -1.
     200000    1    3    3    0    0  0.25895316258E+03  0.68586427647E+02  0.21314829736E+03  0.60596454940E+03  0.50000000000E+03 0. -1.
    -200001    1    1    2    0    0 -0.28954194403E+03 -0.10847184941E+03  0.30458048136E+03  0.82363216856E+03  0.70000000000E+03 0. -1.
<mgrwt>
<rscale>  0 0.15305325E+04</rscale>
<asrwt>0</asrwt>
<pdfrwt beam="1">  1        2 0.16145380E+00 0.15305325E+04</pdfrwt>
<pdfrwt beam="2">  1       -2 0.74025401E-01 0.15305325E+04</pdfrwt>
<totfact> 0.37238665E+01</totfact>
</mgrwt>
</event>
<event>
 8    1  0.2682466E-027  0.2226164E+04  0.7818608E-02  0.8507616E-01
          2   -1    0    0  501    0  0.00000000000E+00  0.00000000000E+00  0.95334354267E+03  0.95334354268E+03  0.25500000000E-02 0.  1.
         -2   -1    0    0    0  501 -0.00000000000E+00 -0.00000000000E+00 -0.12995853835E+04  0.12995853835E+04  0.25500000000E-02 0. -1.
     200001    2    1    2    0    0  0.18010149467E+03 -0.30606283511E+03 -0.97180800506E+03  0.12492138107E+04  0.70000952754E+03 0.  0.
    5000001    2    3    3    0    0  0.14342108030E+03 -0.15417959769E+03 -0.33181943005E+03  0.42217128048E+03  0.15421900427E+03 0.  0.
        -13    1    4    4    0    0  0.14563282458E+03 -0.12423075599E+03 -0.32771533506E+03  0.37952543041E+03  0.10566000000E+00 0. -1.
     200003    1    4    4    0    0 -0.22117442754E+01 -0.29948841707E+02 -0.41040949898E+01  0.42645850068E+02  0.30000000000E+02 0.  1.
     200000    1    3    3    0    0  0.36680414366E+02 -0.15188323742E+03 -0.63998857501E+03  0.82704253019E+03  0.50000000000E+03 0. -1.
    -200001    1    1    2    0    0 -0.18010149467E+03  0.30606283511E+03  0.62556616419E+03  0.10037151156E+04  0.70000000000E+03 0.  1.
<mgrwt>
<rscale>  0 0.22261638E+04</rscale>
<asrwt>0</asrwt>
<pdfrwt beam="1">  1        2 0.13619194E+00 0.22261638E+04</pdfrwt>
<pdfrwt beam="2">  1       -2 0.18565505E+00 0.22261638E+04</pdfrwt>
<totfact> 0.45636391E+00</totfact>
</mgrwt>
</event>
<event>
 8    1  0.2682466E-027  0.2083521E+04  0.7818608E-02  0.8568538E-01
          2   -1    0    0  501    0  0.00000000000E+00  0.00000000000E+00  0.15421830647E+04  0.15421830647E+04  0.25500000000E-02 0.  1.
         -2   -1    0    0    0  501 -0.00000000000E+00 -0.00000000000E+00 -0.70371973433E+03  0.70371973433E+03  0.25500000000E-02 0. -1.
     200001    2    1    2    0    0  0.23974634642E+03 -0.54525358405E+03 -0.10972708507E+03  0.92535562248E+03  0.69961647587E+03 0.  0.
    5000001    2    3    3    0    0 -0.23621493274E+02 -0.10555192873E+03 -0.86988165917E+02  0.20896381409E+03  0.15620419325E+03 0.  0.
        -13    1    4    4    0    0 -0.51377213469E+02 -0.13030592244E+03 -0.50693188401E+02  0.14895993421E+03  0.10566000000E+00 0. -1.
     200003    1    4    4    0    0  0.27755720194E+02  0.24753993707E+02 -0.36294977516E+02  0.60003879882E+02  0.30000000000E+02 0. -1.
     200000    1    3    3    0    0  0.26336783969E+03 -0.43970165532E+03 -0.22738919151E+02  0.71639180839E+03  0.50000000000E+03 0. -1.
    -200001    1    1    2    0    0 -0.23974634642E+03  0.54525358405E+03  0.94819041541E+03  0.13205471765E+04  0.70000000000E+03 0.  1.
<mgrwt>
<rscale>  0 0.20835207E+04</rscale>
<asrwt>0</asrwt>
<pdfrwt beam="1">  1        2 0.22031186E+00 0.20835207E+04</pdfrwt>
<pdfrwt beam="2">  1       -2 0.10053139E+00 0.20835207E+04</pdfrwt>
<totfact> 0.10496459E+01</totfact>
</mgrwt>
</event>
<event>
 8    1  0.2682466E-027  0.1685288E+04  0.7818608E-02  0.8769800E-01
         -2   -1    0    0    0  501 -0.00000000000E+00  0.00000000000E+00  0.28297556287E+03  0.28297556288E+03  0.25500000000E-02 0. -1.
          2   -1    0    0  501    0  0.00000000000E+00 -0.00000000000E+00 -0.25092245654E+04  0.25092245654E+04  0.25500000000E-02 0.  1.
     200001    2    1    2    0    0  0.41951296491E+03 -0.76855815110E+02 -0.79005474957E+03  0.11385520774E+04  0.70015454118E+03 0.  0.
    5000001    2    3    3    0    0  0.15781455060E+03 -0.25747895207E+02 -0.13620236297E+03  0.27332319264E+03  0.17488881458E+03 0.  0.
        -13    1    4    4    0    0  0.15425995750E+03 -0.28386826693E+02 -0.25957285957E+02  0.15898345284E+03  0.10566000000E+00 0. -1.
     200003    1    4    4    0    0  0.35545930981E+01  0.26389314857E+01 -0.11024507701E+03  0.11433973980E+03  0.30000000000E+02 0. -1.
     200000    1    3    3    0    0  0.26169841431E+03 -0.51107919903E+02 -0.65385238660E+03  0.86522888474E+03  0.50000000000E+03 0.  1.
    -200001    1    1    2    0    0 -0.41951296491E+03  0.76855815110E+02 -0.14361942530E+04  0.16536480509E+04  0.70000000000E+03 0. -1.
<mgrwt>
<rscale>  0 0.16852884E+04</rscale>
<asrwt>0</asrwt>
<pdfrwt beam="1">  1        2 0.35846064E+00 0.16852884E+04</pdfrwt>
<pdfrwt beam="2">  1       -2 0.40425082E-01 0.16852884E+04</pdfrwt>
<totfact> 0.24128935E+01</totfact>
</mgrwt>
</event>
<event>
 8    1  0.2682466E-027  0.1861350E+04  0.7818608E-02  0.8674338E-01
          2   -1    0    0  501    0  0.00000000000E+00  0.00000000000E+00  0.26111856909E+04  0.26111856909E+04  0.25500000000E-02 0.  1.
         -2   -1    0    0    0  501 -0.00000000000E+00 -0.00000000000E+00 -0.33170971909E+03  0.33170971910E+03  0.25500000000E-02 0. -1.
     200001    2    1    2    0    0  0.25314111304E+03 -0.52012920198E+03  0.14622658620E+04  0.17212378584E+04  0.69987392007E+03 0.  0.
    5000001    2    3    3    0    0  0.48364122571E+02 -0.16608109309E+03  0.45452694119E+03  0.52423267384E+03  0.19571187552E+03 0.  0.
        -13    1    4    4    0    0  0.11608868745E+03 -0.86354822220E+02  0.32007993492E+03  0.35126188888E+03  0.10566000000E+00 0. -1.
     200003    1    4    4    0    0 -0.67724564881E+02 -0.79726270874E+02  0.13444700627E+03  0.17297078496E+03  0.30000000000E+02 0. -1.
     200000    1    3    3    0    0  0.20477699047E+03 -0.35404810889E+03  0.10077389209E+04  0.11970051846E+04  0.50000000000E+03 0. -1.
    -200001    1    1    2    0    0 -0.25314111304E+03  0.52012920198E+03  0.81721010974E+03  0.12216575516E+04  0.70000000000E+03 0.  1.
<mgrwt>
<rscale>  0 0.18613497E+04</rscale>
<asrwt>0</asrwt>
<pdfrwt beam="1">  1        2 0.37302653E+00 0.18613497E+04</pdfrwt>
<pdfrwt beam="2">  1       -2 0.47387102E-01 0.18613497E+04</pdfrwt>
<totfact> 0.15310318E+01</totfact>
</mgrwt>
</event>
<event>
 8    1  0.2682466E-027  0.1651564E+04  0.7818608E-02  0.8789482E-01
          2   -1    0    0  501    0  0.00000000000E+00  0.00000000000E+00  0.17731121567E+04  0.17731121567E+04  0.25500000000E-02 0.  1.
         -2   -1    0    0    0  501 -0.00000000000E+00 -0.00000000000E+00 -0.38458684887E+03  0.38458684888E+03  0.25500000000E-02 0. -1.
     200001    2    1    2    0    0 -0.74998255082E+02  0.42954826938E+03  0.74087914471E+03  0.11090894469E+04  0.70074320554E+03 0.  0.
    5000001    2    3    3    0    0  0.19251737301E+02  0.17311780706E+03  0.22488110652E+03  0.34039339610E+03  0.18696456222E+03 0.  0.
        -13    1    4    4    0    0  0.56746441072E+02  0.45559093774E+02  0.18435500774E+03  0.19819830888E+03  0.10566000000E+00 0. -1.
     200003    1    4    4    0    0 -0.37494703771E+02  0.12755871329E+03  0.40526098780E+02  0.14219508722E+03  0.30000000000E+02 0. -1.
     200000    1    3    3    0    0 -0.94249992383E+02  0.25643046233E+03  0.51599803819E+03  0.76869605078E+03  0.50000000000E+03 0. -1.
    -200001    1    1    2    0    0  0.74998255082E+02 -0.42954826938E+03  0.64764616309E+03  0.10486095587E+04  0.70000000000E+03 0. -1.
<mgrwt>
<rscale>  0 0.16515636E+04</rscale>
<asrwt>0</asrwt>
<pdfrwt beam="1">  1        2 0.25330174E+00 0.16515636E+04</pdfrwt>
<pdfrwt beam="2">  1       -2 0.54940977E-01 0.16515636E+04</pdfrwt>
<totfact> 0.31341483E+01</totfact>
</mgrwt>
</event>
<event>
 8    1  0.2682466E-027  0.1914638E+04  0.7818608E-02  0.8647604E-01
         -2   -1    0    0    0  501 -0.00000000000E+00  0.00000000000E+00  0.51019261122E+03  0.51019261123E+03  0.25500000000E-02 0. -1.
          2   -1    0    0  501    0  0.00000000000E+00 -0.00000000000E+00 -0.17963015921E+04  0.17963015921E+04  0.25500000000E-02 0.  1.
     200001    2    1    2    0    0 -0.28634829923E+03 -0.12372787384E+03  0.47040035904E+02  0.76877178488E+03  0.70106587210E+03 0.  0.
    5000001    2    3    3    0    0 -0.11832179443E+03 -0.34693443061E+02  0.89495680393E+01  0.23247809676E+03  0.19688140765E+03 0.  0.
        -13    1    4    4    0    0 -0.10620937493E+03 -0.41177701157E+02 -0.78944895299E+02  0.13859416313E+03  0.10566000000E+00 0. -1.
     200003    1    4    4    0    0 -0.12112419506E+02  0.64842580953E+01  0.87894463338E+02  0.93883933635E+02  0.30000000000E+02 0. -1.
     200000    1    3    3    0    0 -0.16802650479E+03 -0.89034430775E+02  0.38090467865E+02  0.53629368812E+03  0.50000000000E+03 0. -1.
    -200001    1    1    2    0    0  0.28634829923E+03  0.12372787384E+03 -0.13331490168E+04  0.15377224184E+04  0.70000000000E+03 0.  1.
<mgrwt>
<rscale>  0 0.19146381E+04</rscale>
<asrwt>0</asrwt>
<pdfrwt beam="1">  1        2 0.25661451E+00 0.19146381E+04</pdfrwt>
<pdfrwt beam="2">  1       -2 0.72884660E-01 0.19146381E+04</pdfrwt>
<totfact> 0.16323145E+01</totfact>
</mgrwt>
</event>
<event>
 8    1  0.2682466E-027  0.1461408E+04  0.7818608E-02  0.8910530E-01
         -2   -1    0    0    0  501 -0.00000000000E+00  0.00000000000E+00  0.76515139017E+03  0.76515139018E+03  0.25500000000E-02 0.  1.
          2   -1    0    0  501    0  0.00000000000E+00 -0.00000000000E+00 -0.69780732419E+03  0.69780732420E+03  0.25500000000E-02 0. -1.
     200001    2    1    2    0    0  0.31860290328E+01 -0.77709937374E+02  0.22916790039E+03  0.74029977786E+03  0.69962622119E+03 0.  0.
    5000001    2    3    3    0    0  0.52863912045E+02 -0.57769607278E+02  0.71701563726E+02  0.21336414990E+03  0.18507086616E+03 0.  0.
        -13    1    4    4    0    0 -0.57338823832E+02 -0.59751141815E+02  0.96637506459E+01  0.83374689848E+02  0.10566000000E+00 0. -1.
     200003    1    4    4    0    0  0.11020273588E+03  0.19815345374E+01  0.62037813080E+02  0.12998946006E+03  0.30000000000E+02 0. -1.
     200000    1    3    3    0    0 -0.49677883012E+02 -0.19940330096E+02  0.15746633667E+03  0.52693562795E+03  0.50000000000E+03 0.  1.
    -200001    1    1    2    0    0 -0.31860290328E+01  0.77709937374E+02 -0.16182383441E+03  0.72265893652E+03  0.70000000000E+03 0. -1.
<mgrwt>
<rscale>  0 0.14614079E+04</rscale>
<asrwt>0</asrwt>
<pdfrwt beam="1">  1        2 0.99686760E-01 0.14614079E+04</pdfrwt>
<pdfrwt beam="2">  1       -2 0.10930734E+00 0.14614079E+04</pdfrwt>
<totfact> 0.29265947E+01</totfact>
</mgrwt>
</event>
<event>
 8    1  0.2682466E-027  0.1669066E+04  0.7818608E-02  0.8779207E-01
         -2   -1    0    0    0  501 -0.00000000000E+00  0.00000000000E+00  0.96072525286E+03  0.96072525286E+03  0.25500000000E-02 0. -1.
          2   -1    0    0  501    0  0.00000000000E+00 -0.00000000000E+00 -0.72491596192E+03  0.72491596193E+03  0.25500000000E-02 0.  1.
     200001    2    1    2    0    0  0.19161525952E+02 -0.42358176401E+03  0.28221558500E+03  0.86592039706E+03  0.70027410544E+03 0.  0.
    5000001    2    3    3    0    0  0.46471672900E+02 -0.16365456147E+03  0.35956303973E+02  0.25032992585E+03  0.18008271464E+03 0.  0.
        -13    1    4    4    0    0  0.39704141444E+02  0.28274169779E+02  0.27057820383E+02  0.55749298941E+02  0.10566000000E+00 0. -1.
     200003    1    4    4    0    0  0.67675314557E+01 -0.19192873125E+03  0.88984835902E+01  0.19458062691E+03  0.30000000000E+02 0. -1.
     200000    1    3    3    0    0 -0.27310146948E+02 -0.25992720255E+03  0.24625928103E+03  0.61559047121E+03  0.50000000000E+03 0. -1.
    -200001    1    1    2    0    0 -0.19161525952E+02  0.42358176401E+03 -0.46406294069E+02  0.81972081773E+03  0.70000000000E+03 0.  1.
<mgrwt>
<rscale>  0 0.16690657E+04</rscale>
<asrwt>0</asrwt>
<pdfrwt beam="1">  1        2 0.10355942E+00 0.16690657E+04</pdfrwt>
<pdfrwt beam="2">  1       -2 0.13724647E+00 0.16690657E+04</pdfrwt>
<totfact> 0.15578061E+01</totfact>
</mgrwt>
</event>
<event>
 8    1  0.2682466E-027  0.2067314E+04  0.7818608E-02  0.8575780E-01
         -2   -1    0    0    0  501 -0.00000000000E+00  0.00000000000E+00  0.79177419817E+03  0.79177419818E+03  0.25500000000E-02 0. -1.
          2   -1    0    0  501    0  0.00000000000E+00 -0.00000000000E+00 -0.13494331758E+04  0.13494331758E+04  0.25500000000E-02 0.  1.
     200001    2    1    2    0    0  0.68103160782E+03 -0.11838864950E+03  0.49557741995E+02  0.98512257269E+03  0.70013612266E+03 0.  0.
    5000001    2    3    3    0    0  0.17718022614E+03  0.35306543381E+02 -0.35878107235E+02  0.25383076262E+03  0.17465232015E+03 0.  0.
        -13    1    4    4    0    0  0.10644964352E+03 -0.36682490066E+02  0.44809558057E+02  0.12118184410E+03  0.10566000000E+00 0. -1.
     200003    1    4    4    0    0  0.70730582620E+02  0.71989033448E+02 -0.80687665292E+02  0.13264891852E+03  0.30000000000E+02 0. -1.
     200000    1    3    3    0    0  0.50385138168E+03 -0.15369519288E+03  0.85435849231E+02  0.73129181007E+03  0.50000000000E+03 0.  1.
    -200001    1    1    2    0    0 -0.68103160782E+03  0.11838864950E+03 -0.60721671963E+03  0.11560848013E+04  0.70000000000E+03 0.  1.
<mgrwt>
<rscale>  0 0.20673136E+04</rscale>
<asrwt>0</asrwt>
<pdfrwt beam="1">  1        2 0.19277617E+00 0.20673136E+04</pdfrwt>
<pdfrwt beam="2">  1       -2 0.11311060E+00 0.20673136E+04</pdfrwt>
<totfact> 0.10046709E+01</totfact>
</mgrwt>
</event>
<event>
 8    1  0.2682466E-027  0.1577818E+04  0.7818608E-02  0.8834292E-01
          2   -1    0    0  501    0  0.00000000000E+00  0.00000000000E+00  0.24530840079E+04  0.24530840079E+04  0.25500000000E-02 0.  1.
         -2   -1    0    0    0  501 -0.00000000000E+00 -0.00000000000E+00 -0.25371215112E+03  0.25371215113E+03  0.25500000000E-02 0. -1.
     200001    2    1    2    0    0  0.35127155145E+03 -0.69854138189E+02  0.98175376763E+03  0.12573600223E+04  0.69917269819E+03 0.  0.
    5000001    2    3    3    0    0  0.12419619277E+03  0.79981879218E+02  0.35745037055E+03  0.41251164403E+03  0.14343393515E+03 0.  0.
        -13    1    4    4    0    0  0.12689340128E+03  0.14389423715E+02  0.17785647338E+03  0.21895645022E+03  0.10566000000E+00 0. -1.
     200003    1    4    4    0    0 -0.26972085086E+01  0.65592455503E+02  0.17959389716E+03  0.19355519381E+03  0.30000000000E+02 0. -1.
     200000    1    3    3    0    0  0.22707535868E+03 -0.14983601741E+03  0.62430339708E+03  0.84484837825E+03  0.50000000000E+03 0.  1.
    -200001    1    1    2    0    0 -0.35127155145E+03  0.69854138189E+02  0.12176180891E+04  0.14494361367E+04  0.70000000000E+03 0. -1.
<mgrwt>
<rscale>  0 0.15778178E+04</rscale>
<asrwt>0</asrwt>
<pdfrwt beam="1">  1        2 0.35044058E+00 0.15778178E+04</pdfrwt>
<pdfrwt beam="2">  1       -2 0.36244593E-01 0.15778178E+04</pdfrwt>
<totfact> 0.32198969E+01</totfact>
</mgrwt>
</event>
<event>
 8    1  0.2682466E-027  0.1448311E+04  0.7818608E-02  0.8919572E-01
         -2   -1    0    0    0  501 -0.00000000000E+00  0.00000000000E+00  0.41425446511E+03  0.41425446512E+03  0.25500000000E-02 0. -1.
          2   -1    0    0  501    0  0.00000000000E+00 -0.00000000000E+00 -0.12658918292E+04  0.12658918292E+04  0.25500000000E-02 0.  1.
     200001    2    1    2    0    0  0.17239211056E+03  0.23259734200E+02 -0.46886738771E+03  0.86358465560E+03  0.70404671373E+03 0.  0.
    5000001    2    3    3    0    0  0.10568523878E+03  0.12444180257E+03 -0.22869223623E+03  0.29580677554E+03  0.92446620373E+02 0.  0.
        -13    1    4    4    0    0  0.16356675524E+02  0.42862596436E+02 -0.12672034580E+03  0.13476943351E+03  0.10566000000E+00 0. -1.
     200003    1    4    4    0    0  0.89328563255E+02  0.81579206131E+02 -0.10197189044E+03  0.16103734202E+03  0.30000000000E+02 0. -1.
     200000    1    3    3    0    0  0.66706871781E+02 -0.10118206837E+03 -0.24017515148E+03  0.56777788006E+03  0.50000000000E+03 0.  1.
    -200001    1    1    2    0    0 -0.17239211056E+03 -0.23259734200E+02 -0.38276997637E+03  0.81656163872E+03  0.70000000000E+03 0.  1.
<mgrwt>
<rscale>  0 0.14483112E+04</rscale>
<asrwt>0</asrwt>
<pdfrwt beam="1">  1        2 0.18084169E+00 0.14483112E+04</pdfrwt>
<pdfrwt beam="2">  1       -2 0.59179210E-01 0.14483112E+04</pdfrwt>
<totfact> 0.50793146E+01</totfact>
</mgrwt>
</event>
<event>
 8    1  0.2682466E-027  0.1669047E+04  0.7818608E-02  0.8779218E-01
         -2   -1    0    0    0  501 -0.00000000000E+00  0.00000000000E+00  0.81596435386E+03  0.81596435386E+03  0.25500000000E-02 0. -1.
          2   -1    0    0  501    0  0.00000000000E+00 -0.00000000000E+00 -0.85350453711E+03  0.85350453712E+03  0.25500000000E-02 0.  1.
     200001    2    1    2    0    0  0.75368965418E+02 -0.24799707141E+03 -0.39210307989E+03  0.84309253843E+03  0.69991226216E+03 0.  0.
    5000001    2    3    3    0    0 -0.30707355042E+02 -0.41513577234E+02 -0.53451504473E+02  0.19612073946E+03  0.18149369787E+03 0.  0.
        -13    1    4    4    0    0 -0.81557455683E+02 -0.15169794253E+01 -0.85294776479E+02  0.11802173470E+03  0.10566000000E+00 0. -1.
     200003    1    4    4    0    0  0.50850100641E+02 -0.39996597809E+02  0.31843272006E+02  0.78099004753E+02  0.30000000000E+02 0. -1.
     200000    1    3    3    0    0  0.10607632046E+03 -0.20648349418E+03 -0.33865157542E+03  0.64697179897E+03  0.50000000000E+03 0.  1.
    -200001    1    1    2    0    0 -0.75368965418E+02  0.24799707141E+03  0.35456289664E+03  0.82637635255E+03  0.70000000000E+03 0. -1.
<mgrwt>
<rscale>  0 0.16690468E+04</rscale>
<asrwt>0</asrwt>
<pdfrwt beam="1">  1        2 0.12192922E+00 0.16690468E+04</pdfrwt>
<pdfrwt beam="2">  1       -2 0.11656634E+00 0.16690468E+04</pdfrwt>
<totfact> 0.19049977E+01</totfact>
</mgrwt>
</event>
<event>
 8    1  0.2682466E-027  0.1698281E+04  0.7818608E-02  0.8762346E-01
         -2   -1    0    0    0  501 -0.00000000000E+00  0.00000000000E+00  0.72077982634E+03  0.72077982634E+03  0.25500000000E-02 0. -1.
          2   -1    0    0  501    0  0.00000000000E+00 -0.00000000000E+00 -0.10003598625E+04  0.10003598625E+04  0.25500000000E-02 0.  1.
     200001    2    1    2    0    0  0.39094394624E+03  0.27416731926E+03 -0.83505313639E+02  0.85139824168E+03  0.69992923962E+03 0.  0.
    5000001    2    3    3    0    0  0.18683641470E+03  0.83591821502E+02 -0.11773431834E+03  0.27768182258E+03  0.14611771418E+03 0.  0.
        -13    1    4    4    0    0  0.10650898092E+03  0.44127289149E+02  0.13446801584E+02  0.11606984235E+03  0.10566000000E+00 0. -1.
     200003    1    4    4    0    0  0.80327433774E+02  0.39464532353E+02 -0.13118111993E+03  0.16161198024E+03  0.30000000000E+02 0. -1.
     200000    1    3    3    0    0  0.20410753155E+03  0.19057549776E+03  0.34229004704E+02  0.57371641910E+03  0.50000000000E+03 0. -1.
    -200001    1    1    2    0    0 -0.39094394624E+03 -0.27416731926E+03 -0.19607472249E+03  0.86974144713E+03  0.70000000000E+03 0.  1.
<mgrwt>
<rscale>  0 0.16982806E+04</rscale>
<asrwt>0</asrwt>
<pdfrwt beam="1">  1        2 0.14290855E+00 0.16982806E+04</pdfrwt>
<pdfrwt beam="2">  1       -2 0.10296855E+00 0.16982806E+04</pdfrwt>
<totfact> 0.20638656E+01</totfact>
</mgrwt>
</event>
<event>
 8    1  0.2682466E-027  0.1893701E+04  0.7818608E-02  0.8657998E-01
         -2   -1    0    0    0  501 -0.00000000000E+00  0.00000000000E+00  0.81339634710E+03  0.81339634710E+03  0.25500000000E-02 0. -1.
          2   -1    0    0  501    0  0.00000000000E+00 -0.00000000000E+00 -0.11022004064E+04  0.11022004064E+04  0.25500000000E-02 0.  1.
     200001    2    1    2    0    0  0.34724127377E+03  0.43061384969E+03 -0.46524216875E+03  0.10061270200E+04  0.69988321525E+03 0.  0.
    5000001    2    3    3    0    0  0.22302754366E+03  0.88733440728E+02 -0.15998065652E+03  0.31656494472E+03  0.13040185977E+03 0.  0.
        -13    1    4    4    0    0  0.15787426623E+03  0.29352143085E+02 -0.15520194907E+03  0.22332373005E+03  0.10566000000E+00 0. -1.
     200003    1    4    4    0    0  0.65153277427E+02  0.59381297643E+02 -0.47787074459E+01  0.93241214675E+02  0.30000000000E+02 0. -1.
     200000    1    3    3    0    0  0.12421373011E+03  0.34188040896E+03 -0.30526151223E+03  0.68956207525E+03  0.50000000000E+03 0.  1.
    -200001    1    1    2    0    0 -0.34724127377E+03 -0.43061384969E+03  0.17643810944E+03  0.90946973353E+03  0.70000000000E+03 0. -1.
<mgrwt>
<rscale>  0 0.18937009E+04</rscale>
<asrwt>0</asrwt>
<pdfrwt beam="1">  1        2 0.15745720E+00 0.18937009E+04</pdfrwt>
<pdfrwt beam="2">  1       -2 0.11619948E+00 0.18937009E+04</pdfrwt>
<totfact> 0.13169430E+01</totfact>
</mgrwt>
</event>
<event>
 8    1  0.2682466E-027  0.2273843E+04  0.7818608E-02  0.8488307E-01
          2   -1    0    0  501    0  0.00000000000E+00  0.00000000000E+00  0.13686395661E+04  0.13686395661E+04  0.25500000000E-02 0.  1.
         -2   -1    0    0    0  501 -0.00000000000E+00 -0.00000000000E+00 -0.94443422460E+03  0.94443422460E+03  0.25500000000E-02 0. -1.
     200001    2    1    2    0    0  0.35280680406E+02  0.73205233915E+02 -0.69620741676E+03  0.98946943834E+03  0.69838475755E+03 0.  0.
    5000001    2    3    3    0    0 -0.14092006163E+02  0.38009950503E+02 -0.26649882340E+03  0.32740762449E+03  0.18582461819E+03 0.  0.
        -13    1    4    4    0    0 -0.42282751603E+02 -0.32522513764E+02 -0.23318208971E+03  0.23920585927E+03  0.10566000000E+00 0. -1.
     200003    1    4    4    0    0  0.28190745440E+02  0.70532464267E+02 -0.33316733697E+02  0.88201765222E+02  0.30000000000E+02 0. -1.
     200000    1    3    3    0    0  0.49372686569E+02  0.35195283411E+02 -0.42970859336E+03  0.66206181385E+03  0.50000000000E+03 0. -1.
    -200001    1    1    2    0    0 -0.35280680406E+02 -0.73205233915E+02  0.11204127582E+04  0.13236043523E+04  0.70000000000E+03 0.  1.
<mgrwt>
<rscale>  0 0.22738426E+04</rscale>
<asrwt>0</asrwt>
<pdfrwt beam="1">  1        2 0.19551994E+00 0.22738426E+04</pdfrwt>
<pdfrwt beam="2">  1       -2 0.13491917E+00 0.22738426E+04</pdfrwt>
<totfact> 0.62103356E+00</totfact>
</mgrwt>
</event>
<event>
 8    1  0.2682466E-027  0.1472186E+04  0.7818608E-02  0.8903163E-01
         -2   -1    0    0    0  501 -0.00000000000E+00  0.00000000000E+00  0.12037558731E+04  0.12037558731E+04  0.25500000000E-02 0. -1.
          2   -1    0    0  501    0  0.00000000000E+00 -0.00000000000E+00 -0.45011829334E+03  0.45011829335E+03  0.25500000000E-02 0.  1.
     200001    2    1    2    0    0 -0.21732080763E+03 -0.62789845800E+02  0.34212764587E+03  0.81095582887E+03  0.69959068901E+03 0.  0.
    5000001    2    3    3    0    0 -0.65647833465E+02 -0.43109017559E+02  0.10538955327E+03  0.23698984506E+03  0.19720345658E+03 0.  0.
        -13    1    4    4    0    0 -0.40768657976E+02 -0.56813337296E+02  0.15641612521E+03  0.17133550174E+03  0.10566000000E+00 0. -1.
     200003    1    4    4    0    0 -0.24879175489E+02  0.13704319737E+02 -0.51026571935E+02  0.65654343314E+02  0.30000000000E+02 0. -1.
     200000    1    3    3    0    0 -0.15167297416E+03 -0.19680828241E+02  0.23673809259E+03  0.57396598382E+03  0.50000000000E+03 0.  1.
    -200001    1    1    2    0    0  0.21732080763E+03  0.62789845800E+02  0.41150993391E+03  0.84291833761E+03  0.70000000000E+03 0. -1.
<mgrwt>
<rscale>  0 0.14721855E+04</rscale>
<asrwt>0</asrwt>
<pdfrwt beam="1">  1        2 0.64302613E-01 0.14721855E+04</pdfrwt>
<pdfrwt beam="2">  1       -2 0.17196513E+00 0.14721855E+04</pdfrwt>
<totfact> 0.15140380E+01</totfact>
</mgrwt>
</event>
<event>
 8    1  0.2682466E-027  0.1560654E+04  0.7818608E-02  0.8845091E-01
         -2   -1    0    0    0  501 -0.00000000000E+00  0.00000000000E+00  0.22810422582E+03  0.22810422584E+03  0.25500000000E-02 0. -1.
          2   -1    0    0  501    0  0.00000000000E+00 -0.00000000000E+00 -0.26694377151E+04  0.26694377151E+04  0.25500000000E-02 0.  1.
     200001    2    1    2    0    0  0.25449243658E+03  0.97701482981E+02 -0.16070981038E+04  0.17749286244E+04  0.70234986045E+03 0.  0.
    5000001    2    3    3    0    0  0.13009956200E+03 -0.22699336891E+02 -0.48942087281E+03  0.53833154479E+03  0.18118196776E+03 0.  0.
        -13    1    4    4    0    0  0.55992099363E+02 -0.75729988720E+02 -0.38574904970E+03  0.39707995025E+03  0.10566000000E+00 0. -1.
     200003    1    4    4    0    0  0.74107462638E+02  0.53030651829E+02 -0.10367182311E+03  0.14125159454E+03  0.30000000000E+02 0. -1.
     200000    1    3    3    0    0  0.12439287458E+03  0.12040081987E+03 -0.11176772310E+04  0.12365970796E+04  0.50000000000E+03 0.  1.
    -200001    1    1    2    0    0 -0.25449243658E+03 -0.97701482981E+02 -0.83423538550E+03  0.11226133165E+04  0.70000000000E+03 0. -1.
<mgrwt>
<rscale>  0 0.15606537E+04</rscale>
<asrwt>0</asrwt>
<pdfrwt beam="1">  1        2 0.38134823E+00 0.15606537E+04</pdfrwt>
<pdfrwt beam="2">  1       -2 0.32586320E-01 0.15606537E+04</pdfrwt>
<totfact> 0.30345255E+01</totfact>
</mgrwt>
</event>
<event>
 8    1  0.2682466E-027  0.2249198E+04  0.7818608E-02  0.8498225E-01
         -2   -1    0    0    0  501 -0.00000000000E+00  0.00000000000E+00  0.75797713097E+03  0.75797713098E+03  0.25500000000E-02 0.  1.
          2   -1    0    0  501    0  0.00000000000E+00 -0.00000000000E+00 -0.16685505386E+04  0.16685505386E+04  0.25500000000E-02 0. -1.
     200001    2    1    2    0    0  0.52151966284E+03 -0.37178179913E+03  0.19754806403E+03  0.96771388406E+03  0.69802611620E+03 0.  0.
    5000001    2    3    3    0    0  0.21214934900E+03 -0.12557996021E+03  0.42002685079E+02  0.31157388261E+03  0.18583967846E+03 0.  0.
        -13    1    4    4    0    0  0.46251647159E+02  0.46301185584E+02 -0.71948041929E+01  0.65839129876E+02  0.10566000000E+00 0. -1.
     200003    1    4    4    0    0  0.16589770184E+03 -0.17188114579E+03  0.49197489272E+02  0.24573475274E+03  0.30000000000E+02 0. -1.
     200000    1    3    3    0    0  0.30937031384E+03 -0.24620183893E+03  0.15554537895E+03  0.65614000144E+03  0.50000000000E+03 0.  1.
    -200001    1    1    2    0    0 -0.52151966284E+03  0.37178179913E+03 -0.11081214717E+04  0.14588137855E+04  0.70000000000E+03 0. -1.
<mgrwt>
<rscale>  0 0.22491982E+04</rscale>
<asrwt>0</asrwt>
<pdfrwt beam="1">  1        2 0.23836436E+00 0.22491982E+04</pdfrwt>
<pdfrwt beam="2">  1       -2 0.10828245E+00 0.22491982E+04</pdfrwt>
<totfact> 0.74402777E+00</totfact>
</mgrwt>
</event>
<event>
 8    1  0.2682466E-027  0.1669019E+04  0.7818608E-02  0.8779234E-01
         -2   -1    0    0    0  501 -0.00000000000E+00  0.00000000000E+00  0.84810391868E+03  0.84810391868E+03  0.25500000000E-02 0. -1.
          2   -1    0    0  501    0  0.00000000000E+00 -0.00000000000E+00 -0.82113259400E+03  0.82113259401E+03  0.25500000000E-02 0.  1.
     200001    2    1    2    0    0  0.54222191678E+02 -0.42824089937E+03  0.15825775822E+03  0.83643014768E+03  0.69874141137E+03 0.  0.
    5000001    2    3    3    0    0  0.33931084876E+02 -0.95759085019E+02  0.52543016291E+02  0.22640433467E+03  0.19538944012E+03 0.  0.
        -13    1    4    4    0    0  0.84458144616E+02  0.23113629620E+02  0.23388325983E+02  0.90633564547E+02  0.10566000000E+00 0. -1.
     200003    1    4    4    0    0 -0.50527059740E+02 -0.11887271464E+03  0.29154690308E+02  0.13577077012E+03  0.30000000000E+02 0. -1.
     200000    1    3    3    0    0  0.20291106802E+02 -0.33248181435E+03  0.10571474193E+03  0.61002581302E+03  0.50000000000E+03 0. -1.
    -200001    1    1    2    0    0 -0.54222191678E+02  0.42824089937E+03 -0.13128643355E+03  0.83280636501E+03  0.70000000000E+03 0.  1.
<mgrwt>
<rscale>  0 0.16690186E+04</rscale>
<asrwt>0</asrwt>
<pdfrwt beam="1">  1        2 0.11730465E+00 0.16690186E+04</pdfrwt>
<pdfrwt beam="2">  1       -2 0.12115770E+00 0.16690186E+04</pdfrwt>
<totfact> 0.18217359E+01</totfact>
</mgrwt>
</event>
<event>
 8    1  0.2682466E-027  0.1521747E+04  0.7818608E-02  0.8870119E-01
          2   -1    0    0  501    0  0.00000000000E+00  0.00000000000E+00  0.10511404389E+04  0.10511404389E+04  0.25500000000E-02 0.  1.
         -2   -1    0    0    0  501 -0.00000000000E+00 -0.00000000000E+00 -0.55076235127E+03  0.55076235127E+03  0.25500000000E-02 0. -1.
     200001    2    1    2    0    0  0.19321789037E+03  0.15741157191E+03  0.42289870023E+03  0.85483210304E+03  0.69984502399E+03 0.  0.
    5000001    2    3    3    0    0  0.53113428197E+02 -0.11466543316E+03  0.10937108145E+03  0.19003534857E+03  0.90455527382E+02 0.  0.
        -13    1    4    4    0    0  0.18226365869E+02 -0.59527926013E+02  0.99744914296E+02  0.11757905205E+03  0.10566000000E+00 0. -1.
     200003    1    4    4    0    0  0.34887062328E+02 -0.55137507148E+02  0.96261671500E+01  0.72456296527E+02  0.30000000000E+02 0.  1.
     200000    1    3    3    0    0  0.14010446217E+03  0.27207700507E+03  0.31352761878E+03  0.66479675446E+03  0.50000000000E+03 0. -1.
    -200001    1    1    2    0    0 -0.19321789037E+03 -0.15741157191E+03  0.77479387415E+02  0.74707068715E+03  0.70000000000E+03 0. -1.
<mgrwt>
<rscale>  0 0.15217471E+04</rscale>
<asrwt>0</asrwt>
<pdfrwt beam="1">  1        2 0.15016292E+00 0.15217471E+04</pdfrwt>
<pdfrwt beam="2">  1       -2 0.78680337E-01 0.15217471E+04</pdfrwt>
<totfact> 0.36249089E+01</totfact>
</mgrwt>
</event>
<event>
 8    1  0.2682466E-027  0.1695293E+04  0.7818608E-02  0.8764054E-01
          2   -1    0    0  501    0  0.00000000000E+00  0.00000000000E+00  0.13166537040E+04  0.13166537040E+04  0.25500000000E-02 0.  1.
         -2   -1    0    0    0  501 -0.00000000000E+00 -0.00000000000E+00 -0.54570481247E+03  0.54570481248E+03  0.25500000000E-02 0. -1.
     200001    2    1    2    0    0  0.35245446640E+03  0.97423014835E+02  0.72454618516E+03  0.10712399376E+04  0.69919413234E+03 0.  0.
    5000001    2    3    3    0    0  0.15926198825E+03  0.10575177212E+02  0.23137832583E+03  0.33770028765E+03  0.18716126560E+03 0.  0.
        -13    1    4    4    0    0  0.30356969123E+02 -0.82148808531E+01 -0.30416196053E+02  0.43751411270E+02  0.10566000000E+00 0. -1.
     200003    1    4    4    0    0  0.12890501913E+03  0.18790058065E+02  0.26179452188E+03  0.29394887638E+03  0.30000000000E+02 0. -1.
     200000    1    3    3    0    0  0.19319247815E+03  0.86847837623E+02  0.49316785933E+03  0.73353964991E+03  0.50000000000E+03 0. -1.
    -200001    1    1    2    0    0 -0.35245446640E+03 -0.97423014835E+02  0.46402706337E+02  0.79111857889E+03  0.70000000000E+03 0. -1.
<mgrwt>
<rscale>  0 0.16952926E+04</rscale>
<asrwt>0</asrwt>
<pdfrwt beam="1">  1        2 0.18809338E+00 0.16952926E+04</pdfrwt>
<pdfrwt beam="2">  1       -2 0.77957831E-01 0.16952926E+04</pdfrwt>
<totfact> 0.25697294E+01</totfact>
</mgrwt>
</event>
<event>
 8    1  0.2682466E-027  0.1491869E+04  0.7818608E-02  0.8889878E-01
          2   -1    0    0  501    0  0.00000000000E+00  0.00000000000E+00  0.51879042333E+03  0.51879042333E+03  0.25500000000E-02 0.  1.
         -2   -1    0    0    0  501 -0.00000000000E+00 -0.00000000000E+00 -0.10725294002E+04  0.10725294003E+04  0.25500000000E-02 0. -1.
     200001    2    1    2    0    0 -0.16307267571E+03  0.60383864920E+02 -0.75697883265E+02  0.72600936142E+03  0.70079991056E+03 0.  0.
    5000001    2    3    3    0    0  0.19697323838E+02  0.80771994878E+02  0.55183880970E+02  0.17741972901E+03  0.14669832924E+03 0.  0.
        -13    1    4    4    0    0 -0.31323133088E+02  0.23385316422E+02  0.81907175108E+02  0.90756863039E+02  0.10566000000E+00 0. -1.
     200003    1    4    4    0    0  0.51020456926E+02  0.57386678455E+02 -0.26723294138E+02  0.86662865973E+02  0.30000000000E+02 0. -1.
     200000    1    3    3    0    0 -0.18276999955E+03 -0.20388129958E+02 -0.13088176424E+03  0.54858963241E+03  0.50000000000E+03 0.  1.
    -200001    1    1    2    0    0  0.16307267571E+03 -0.60383864920E+02 -0.47804109365E+03  0.86531046216E+03  0.70000000000E+03 0.  1.
<mgrwt>
<rscale>  0 0.14918686E+04</rscale>
<asrwt>0</asrwt>
<pdfrwt beam="1">  1        2 0.74112918E-01 0.14918686E+04</pdfrwt>
<pdfrwt beam="2">  1       -2 0.15321848E+00 0.14918686E+04</pdfrwt>
<totfact> 0.17635201E+01</totfact>
</mgrwt>
</event>
<event>
 8    1  0.2682466E-027  0.1426460E+04  0.7818608E-02  0.8934885E-01
         -2   -1    0    0    0  501 -0.00000000000E+00  0.00000000000E+00  0.30700488321E+03  0.30700488323E+03  0.25500000000E-02 0. -1.
          2   -1    0    0  501    0  0.00000000000E+00 -0.00000000000E+00 -0.16569682644E+04  0.16569682644E+04  0.25500000000E-02 0.  1.
     200001    2    1    2    0    0 -0.96644234199E+02 -0.20050174142E+02 -0.80512003091E+03  0.10714506584E+04  0.70003295044E+03 0.  0.
    5000001    2    3    3    0    0 -0.13020940653E+01  0.10102269451E+03 -0.24154749536E+03  0.30244951012E+03  0.15140420537E+03 0.  0.
        -13    1    4    4    0    0 -0.18744489123E+02  0.35524604949E+02 -0.22225700200E+03  0.22585734332E+03  0.10566000000E+00 0. -1.
     200003    1    4    4    0    0  0.17442395058E+02  0.65498089560E+02 -0.19290493356E+02  0.76592166801E+02  0.30000000000E+02 0. -1.
     200000    1    3    3    0    0 -0.95342140134E+02 -0.12107286865E+03 -0.56357253555E+03  0.76900114827E+03  0.50000000000E+03 0.  1.
    -200001    1    1    2    0    0  0.96644234199E+02  0.20050174142E+02 -0.54484335032E+03  0.89252248928E+03  0.70000000000E+03 0. -1.
<mgrwt>
<rscale>  0 0.14264604E+04</rscale>
<asrwt>0</asrwt>
<pdfrwt beam="1">  1        2 0.23670975E+00 0.14264604E+04</pdfrwt>
<pdfrwt beam="2">  1       -2 0.43857841E-01 0.14264604E+04</pdfrwt>
<totfact> 0.57897728E+01</totfact>
</mgrwt>
</event>
<event>
 8    1  0.2682466E-027  0.1578290E+04  0.7818608E-02  0.8833997E-01
          2   -1    0    0  501    0  0.00000000000E+00  0.00000000000E+00  0.24187575236E+04  0.24187575237E+04  0.25500000000E-02 0.  1.
         -2   -1    0    0    0  501 -0.00000000000E+00 -0.00000000000E+00 -0.25746680771E+03  0.25746680772E+03  0.25500000000E-02 0. -1.
     200001    2    1    2    0    0 -0.12411974769E+03 -0.12228059912E+03  0.16231425351E+04  0.17762455976E+04  0.70007033720E+03 0.  0.
    5000001    2    3    3    0    0  0.18423672120E+02 -0.73803246692E+02  0.52445178600E+03  0.55977938664E+03  0.18032452677E+03 0.  0.
        -13    1    4    4    0    0  0.14212548501E+02  0.49368543209E+02  0.63421088130E+02  0.81617983172E+02  0.10566000000E+00 0. -1.
     200003    1    4    4    0    0  0.42111236193E+01 -0.12317178990E+03  0.46103069787E+03  0.47816140347E+03  0.30000000000E+02 0. -1.
     200000    1    3    3    0    0 -0.14254341981E+03 -0.48477352429E+02  0.10986907491E+04  0.12164662110E+04  0.50000000000E+03 0.  1.
    -200001    1    1    2    0    0  0.12411974769E+03  0.12228059912E+03  0.53814818081E+03  0.89997873374E+03  0.70000000000E+03 0. -1.
<mgrwt>
<rscale>  0 0.15782899E+04</rscale>
<asrwt>0</asrwt>
<pdfrwt beam="1">  1        2 0.34553676E+00 0.15782899E+04</pdfrwt>
<pdfrwt beam="2">  1       -2 0.36780975E-01 0.15782899E+04</pdfrwt>
<totfact> 0.32621463E+01</totfact>
</mgrwt>
</event>
<event>
 8    1  0.2682466E-027  0.1564489E+04  0.7818608E-02  0.8842666E-01
          2   -1    0    0  501    0  0.00000000000E+00  0.00000000000E+00  0.17255791148E+04  0.17255791148E+04  0.25500000000E-02 0.  1.
         -2   -1    0    0    0  501 -0.00000000000E+00 -0.00000000000E+00 -0.35460921814E+03  0.35460921815E+03  0.25500000000E-02 0. -1.
     200001    2    1    2    0    0  0.18967133311E+03 -0.21512090485E+03  0.94978398751E+03  0.12143651475E+04  0.70024343647E+03 0.  0.
    5000001    2    3    3    0    0  0.34795764847E+02 -0.83922199328E+02  0.42793466291E+03  0.46368128628E+03  0.15368337168E+03 0.  0.
        -13    1    4    4    0    0 -0.30347337983E+02  0.25531001401E+02  0.50532047828E+02  0.64236220133E+02  0.10566000000E+00 0. -1.
     200003    1    4    4    0    0  0.65143102830E+02 -0.10945320073E+03  0.37740261508E+03  0.39944506614E+03  0.30000000000E+02 0. -1.
     200000    1    3    3    0    0  0.15487556827E+03 -0.13119870552E+03  0.52184932460E+03  0.75068386126E+03  0.50000000000E+03 0.  1.
    -200001    1    1    2    0    0 -0.18967133311E+03  0.21512090485E+03  0.42118590914E+03  0.86582318539E+03  0.70000000000E+03 0. -1.
<mgrwt>
<rscale>  0 0.15644887E+04</rscale>
<asrwt>0</asrwt>
<pdfrwt beam="1">  1        2 0.24651131E+00 0.15644887E+04</pdfrwt>
<pdfrwt beam="2">  1       -2 0.50658459E-01 0.15644887E+04</pdfrwt>
<totfact> 0.39470101E+01</totfact>
</mgrwt>
</event>
<event>
 8    1  0.2682466E-027  0.1573863E+04  0.7818608E-02  0.8836768E-01
          2   -1    0    0  501    0  0.00000000000E+00  0.00000000000E+00  0.12970020462E+04  0.12970020462E+04  0.25500000000E-02 0.  1.
         -2   -1    0    0    0  501 -0.00000000000E+00 -0.00000000000E+00 -0.47745581354E+03  0.47745581355E+03  0.25500000000E-02 0. -1.
     200001    2    1    2    0    0  0.52812029687E+01 -0.11643092432E+01  0.81577530378E+03  0.10744268129E+04  0.69919552579E+03 0.  0.
    5000001    2    3    3    0    0  0.86124733551E+02 -0.92907273783E+01  0.20728109833E+03  0.28267753871E+03  0.17157316171E+03 0.  0.
        -13    1    4    4    0    0  0.88555847442E+02 -0.60481114179E+02  0.19424372863E+03  0.22188001389E+03  0.10566000000E+00 0. -1.
     200003    1    4    4    0    0 -0.24311138918E+01  0.51190386800E+02  0.13037369706E+02  0.60797524821E+02  0.30000000000E+02 0. -1.
     200000    1    3    3    0    0 -0.80843530582E+02  0.81264181351E+01  0.60849420545E+03  0.79174927419E+03  0.50000000000E+03 0.  1.
    -200001    1    1    2    0    0 -0.52812029687E+01  0.11643092432E+01  0.37709289207E+01  0.70003104690E+03  0.70000000000E+03 0. -1.
<mgrwt>
<rscale>  0 0.15738630E+04</rscale>
<asrwt>0</asrwt>
<pdfrwt beam="1">  1        2 0.18528601E+00 0.15738630E+04</pdfrwt>
<pdfrwt beam="2">  1       -2 0.68207973E-01 0.15738630E+04</pdfrwt>
<totfact> 0.35691808E+01</totfact>
</mgrwt>
</event>
<event>
 8    1  0.2682466E-027  0.1562370E+04  0.7818608E-02  0.8844005E-01
         -2   -1    0    0    0  501 -0.00000000000E+00  0.00000000000E+00  0.23477125598E+03  0.23477125600E+03  0.25500000000E-02 0. -1.
          2   -1    0    0  501    0  0.00000000000E+00 -0.00000000000E+00 -0.25993372423E+04  0.25993372423E+04  0.25500000000E-02 0.  1.
     200001    2    1    2    0    0 -0.19876375311E+03 -0.11328620511E+03 -0.16555751164E+04  0.18118517558E+04  0.69966922568E+03 0.  0.
    5000001    2    3    3    0    0 -0.10686664597E+03 -0.10055410867E+03 -0.45749439447E+03  0.51031243612E+03  0.17200596703E+03 0.  0.
        -13    1    4    4    0    0 -0.81463227692E+00 -0.25925814672E+02 -0.31216674298E+03  0.31324255471E+03  0.10566000000E+00 0. -1.
     200003    1    4    4    0    0 -0.10605201369E+03 -0.74628293993E+02 -0.14532765149E+03  0.19706988141E+03  0.30000000000E+02 0. -1.
     200000    1    3    3    0    0 -0.91897107144E+02 -0.12732096444E+02 -0.11980807219E+04  0.13015393197E+04  0.50000000000E+03 0.  1.
    -200001    1    1    2    0    0  0.19876375311E+03  0.11328620511E+03 -0.70899086992E+03  0.10222567424E+04  0.70000000000E+03 0. -1.
<mgrwt>
<rscale>  0 0.15623696E+04</rscale>
<asrwt>0</asrwt>
<pdfrwt beam="1">  1        2 0.37133387E+00 0.15623696E+04</pdfrwt>
<pdfrwt beam="2">  1       -2 0.33538752E-01 0.15623696E+04</pdfrwt>
<totfact> 0.31308604E+01</totfact>
</mgrwt>
</event>
<event>
 8    1  0.2682466E-027  0.2663144E+04  0.7818608E-02  0.8347063E-01
          2   -1    0    0  501    0  0.00000000000E+00  0.00000000000E+00  0.46200738696E+04  0.46200738697E+04  0.25500000000E-02 0.  1.
         -2   -1    0    0    0  501 -0.00000000000E+00 -0.00000000000E+00 -0.38377826136E+03  0.38377826137E+03  0.25500000000E-02 0. -1.
     200001    2    1    2    0    0 -0.75378168522E+03 -0.68842316276E+03  0.30389024780E+04  0.32816838500E+04  0.70171742173E+03 0.  0.
    5000001    2    3    3    0    0 -0.10309739502E+03 -0.19104175716E+03  0.56410854468E+03  0.62736975385E+03  0.16807240113E+03 0.  0.
        -13    1    4    4    0    0 -0.54163612225E+02 -0.75838162881E+02  0.69411228598E+02  0.11620264050E+03  0.10566000000E+00 0. -1.
     200003    1    4    4    0    0 -0.48933782792E+02 -0.11520359428E+03  0.49469731609E+03  0.51116711336E+03  0.30000000000E+02 0. -1.
     200000    1    3    3    0    0 -0.65068429020E+03 -0.49738140560E+03  0.24747939334E+04  0.26543140961E+04  0.50000000000E+03 0. -1.
    -200001    1    1    2    0    0  0.75378168522E+03  0.68842316276E+03  0.11973931302E+04  0.17221682811E+04  0.70000000000E+03 0.  1.
<mgrwt>
<rscale>  0 0.26631439E+04</rscale>
<asrwt>0</asrwt>
<pdfrwt beam="1">  1        2 0.66001052E+00 0.26631439E+04</pdfrwt>
<pdfrwt beam="2">  1       -2 0.54825469E-01 0.26631439E+04</pdfrwt>
<totfact> 0.53707453E-01</totfact>
</mgrwt>
</event>
<event>
 8    1  0.2682466E-027  0.1457675E+04  0.7818608E-02  0.8913097E-01
         -2   -1    0    0    0  501 -0.00000000000E+00  0.00000000000E+00  0.48179531670E+03  0.48179531671E+03  0.25500000000E-02 0. -1.
          2   -1    0    0  501    0  0.00000000000E+00 -0.00000000000E+00 -0.11025514444E+04  0.11025514444E+04  0.25500000000E-02 0.  1.
     200001    2    1    2    0    0 -0.17044698815E+03 -0.24371977955E+02 -0.22611661489E+03  0.76252773350E+03  0.70758296457E+03 0.  0.
    5000001    2    3    3    0    0 -0.87431393575E+02  0.26251978392E+02 -0.89025435520E+02  0.23503520714E+03  0.19744013137E+03 0.  0.
        -13    1    4    4    0    0 -0.24618464421E+02 -0.41033005663E+02  0.47659934186E+02  0.67537077482E+02  0.10566000000E+00 0. -1.
     200003    1    4    4    0    0 -0.62812929153E+02  0.67284984055E+02 -0.13668536971E+03  0.16749812966E+03  0.30000000000E+02 0. -1.
     200000    1    3    3    0    0 -0.83015594579E+02 -0.50623956347E+02 -0.13709117937E+03  0.52749252636E+03  0.50000000000E+03 0. -1.
    -200001    1    1    2    0    0  0.17044698815E+03  0.24371977955E+02 -0.39463951281E+03  0.82181902761E+03  0.70000000000E+03 0.  1.
<mgrwt>
<rscale>  0 0.14576750E+04</rscale>
<asrwt>0</asrwt>
<pdfrwt beam="1">  1        2 0.15750735E+00 0.14576750E+04</pdfrwt>
<pdfrwt beam="2">  1       -2 0.68827903E-01 0.14576750E+04</pdfrwt>
<totfact> 0.45590810E+01</totfact>
</mgrwt>
</event>
<event>
 8    1  0.2682466E-027  0.1787024E+04  0.7818608E-02  0.8713231E-01
         -2   -1    0    0    0  501 -0.00000000000E+00  0.00000000000E+00  0.39026583079E+03  0.39026583080E+03  0.25500000000E-02 0. -1.
          2   -1    0    0  501    0  0.00000000000E+00 -0.00000000000E+00 -0.20456914534E+04  0.20456914534E+04  0.25500000000E-02 0.  1.
     200001    2    1    2    0    0  0.10913902239E+03 -0.45473875237E+03 -0.41748568642E+03  0.93889551369E+03  0.69895051910E+03 0.  0.
    5000001    2    3    3    0    0  0.21658852369E+02 -0.25174926225E+03 -0.18183020170E+03  0.34358801271E+03  0.14540874559E+03 0.  0.
        -13    1    4    4    0    0  0.39567185962E+02 -0.99590551860E+01 -0.54542825439E+02  0.68115166857E+02  0.10566000000E+00 0. -1.
     200003    1    4    4    0    0 -0.17908333592E+02 -0.24179020707E+03 -0.12728737626E+03  0.27547284585E+03  0.30000000000E+02 0. -1.
     200000    1    3    3    0    0  0.87480170023E+02 -0.20298949011E+03 -0.23565548472E+03  0.59530750098E+03  0.50000000000E+03 0. -1.
    -200001    1    1    2    0    0 -0.10913902239E+03  0.45473875237E+03 -0.12379399362E+04  0.14970617705E+04  0.70000000000E+03 0. -1.
<mgrwt>
<rscale>  0 0.17870238E+04</rscale>
<asrwt>0</asrwt>
<pdfrwt beam="1">  1        2 0.29224163E+00 0.17870238E+04</pdfrwt>
<pdfrwt beam="2">  1       -2 0.55752263E-01 0.17870238E+04</pdfrwt>
<totfact> 0.21762801E+01</totfact>
</mgrwt>
</event>
<event>
 8    1  0.2682466E-027  0.1806792E+04  0.7818608E-02  0.8702696E-01
          2   -1    0    0  501    0  0.00000000000E+00  0.00000000000E+00  0.10884910731E+04  0.10884910731E+04  0.25500000000E-02 0.  1.
         -2   -1    0    0    0  501 -0.00000000000E+00 -0.00000000000E+00 -0.74977611669E+03  0.74977611669E+03  0.25500000000E-02 0. -1.
     200001    2    1    2    0    0 -0.19588499035E+03  0.46790073409E+03 -0.97092558158E+02  0.87016067906E+03  0.70032179470E+03 0.  0.
    5000001    2    3    3    0    0 -0.59522305502E+02  0.15148475151E+02 -0.71575350510E+02  0.18151670887E+03  0.15508998565E+03 0.  0.
        -13    1    4    4    0    0 -0.77636974857E+02 -0.10442343491E+02  0.19417070529E+02  0.80706729549E+02  0.10566000000E+00 0. -1.
     200003    1    4    4    0    0  0.18114669355E+02  0.25590818642E+02 -0.90992421039E+02  0.10080997932E+03  0.30000000000E+02 0. -1.
     200000    1    3    3    0    0 -0.13636268485E+03  0.45275225894E+03 -0.25517207648E+02  0.68864397019E+03  0.50000000000E+03 0.  1.
    -200001    1    1    2    0    0  0.19588499035E+03 -0.46790073409E+03  0.43580751461E+03  0.96810651077E+03  0.70000000000E+03 0.  1.
<mgrwt>
<rscale>  0 0.18067923E+04</rscale>
<asrwt>0</asrwt>
<pdfrwt beam="1">  1        2 0.15549872E+00 0.18067923E+04</pdfrwt>
<pdfrwt beam="2">  1       -2 0.10711088E+00 0.18067923E+04</pdfrwt>
<totfact> 0.16463785E+01</totfact>
</mgrwt>
</event>
<event>
 8    1  0.2682466E-027  0.2559475E+04  0.7818608E-02  0.8382099E-01
          2   -1    0    0  501    0  0.00000000000E+00  0.00000000000E+00  0.34087285505E+04  0.34087285505E+04  0.25500000000E-02 0.  1.
         -2   -1    0    0    0  501 -0.00000000000E+00 -0.00000000000E+00 -0.48045113953E+03  0.48045113953E+03  0.25500000000E-02 0. -1.
     200001    2    1    2    0    0  0.34179685004E+03  0.57221457861E+03  0.18253451571E+03  0.97827628086E+03  0.69242401864E+03 0.  0.
    5000001    2    3    3    0    0  0.94116744463E+02  0.17862956684E+03  0.31930413956E+01  0.27228905676E+03  0.18265993315E+03 0.  0.
        -13    1    4    4    0    0  0.10543756369E+02 -0.37042793207E+02  0.63356938586E+01  0.39031929336E+02  0.10566000000E+00 0. -1.
     200003    1    4    4    0    0  0.83572988094E+02  0.21567236005E+03 -0.31426524630E+01  0.23325712742E+03  0.30000000000E+02 0. -1.
     200000    1    3    3    0    0  0.24768010558E+03  0.39358501176E+03  0.17934147431E+03  0.70598722410E+03  0.50000000000E+03 0. -1.
    -200001    1    1    2    0    0 -0.34179685004E+03 -0.57221457861E+03  0.27457428953E+04  0.29109034092E+04  0.70000000000E+03 0.  1.
<mgrwt>
<rscale>  0 0.25594746E+04</rscale>
<asrwt>0</asrwt>
<pdfrwt beam="1">  1        2 0.48696120E+00 0.25594746E+04</pdfrwt>
<pdfrwt beam="2">  1       -2 0.68635880E-01 0.25594746E+04</pdfrwt>
<totfact> 0.23649289E+00</totfact>
</mgrwt>
</event>
<event>
 8    1  0.2682466E-027  0.1728509E+04  0.7818608E-02  0.8745269E-01
          2   -1    0    0  501    0  0.00000000000E+00  0.00000000000E+00  0.14541158325E+04  0.14541158325E+04  0.25500000000E-02 0.  1.
         -2   -1    0    0    0  501 -0.00000000000E+00 -0.00000000000E+00 -0.51367035057E+03  0.51367035057E+03  0.25500000000E-02 0. -1.
     200001    2    1    2    0    0 -0.89522773237E+02 -0.46986852171E+03  0.66141961293E+03  0.10752357978E+04  0.69990382337E+03 0.  0.
    5000001    2    3    3    0    0 -0.64265479683E+02 -0.84956101551E+02  0.28920716688E+03  0.34220264234E+03  0.14870868158E+03 0.  0.
        -13    1    4    4    0    0 -0.54530060407E+02  0.67776668494E+01  0.24280677249E+02  0.60075175468E+02  0.10566000000E+00 0. -1.
     200003    1    4    4    0    0 -0.97354192760E+01 -0.91733768401E+02  0.26492648963E+03  0.28212746687E+03  0.30000000000E+02 0. -1.
     200000    1    3    3    0    0 -0.25257293555E+02 -0.38491242016E+03  0.37221244605E+03  0.73303315550E+03  0.50000000000E+03 0.  1.
    -200001    1    1    2    0    0  0.89522773237E+02  0.46986852171E+03  0.27902586901E+03  0.89255038524E+03  0.70000000000E+03 0.  1.
<mgrwt>
<rscale>  0 0.17285094E+04</rscale>
<asrwt>0</asrwt>
<pdfrwt beam="1">  1        2 0.20773083E+00 0.17285094E+04</pdfrwt>
<pdfrwt beam="2">  1       -2 0.73381479E-01 0.17285094E+04</pdfrwt>
<totfact> 0.24679704E+01</totfact>
</mgrwt>
</event>
<event>
 8    1  0.2682466E-027  0.1734524E+04  0.7818608E-02  0.8741916E-01
         -2   -1    0    0    0  501 -0.00000000000E+00  0.00000000000E+00  0.10626488182E+04  0.10626488182E+04  0.25500000000E-02 0. -1.
          2   -1    0    0  501    0  0.00000000000E+00 -0.00000000000E+00 -0.70780026573E+03  0.70780026573E+03  0.25500000000E-02 0.  1.
     200001    2    1    2    0    0 -0.25697874837E+02  0.39427350798E+03  0.51231822637E+03  0.95135893131E+03  0.69749686110E+03 0.  0.
    5000001    2    3    3    0    0  0.30932463174E+02  0.11359422001E+03  0.16355187697E+03  0.27784143016E+03  0.19127514150E+03 0.  0.
        -13    1    4    4    0    0 -0.22519180230E+02  0.91948435364E+02  0.18629936053E+03  0.20897150796E+03  0.10566000000E+00 0. -1.
     200003    1    4    4    0    0  0.53451643403E+02  0.21645784645E+02 -0.22747483556E+02  0.68869922198E+02  0.30000000000E+02 0. -1.
     200000    1    3    3    0    0 -0.56630338011E+02  0.28067928797E+03  0.34876634940E+03  0.67351750115E+03  0.50000000000E+03 0. -1.
    -200001    1    1    2    0    0  0.25697874837E+02 -0.39427350798E+03 -0.15746967393E+03  0.81909015259E+03  0.70000000000E+03 0.  1.
<mgrwt>
<rscale>  0 0.17345237E+04</rscale>
<asrwt>0</asrwt>
<pdfrwt beam="1">  1        2 0.10111432E+00 0.17345237E+04</pdfrwt>
<pdfrwt beam="2">  1       -2 0.15180697E+00 0.17345237E+04</pdfrwt>
<totfact> 0.12255494E+01</totfact>
</mgrwt>
</event>
<event>
 8    1  0.2682466E-027  0.1601287E+04  0.7818608E-02  0.8819758E-01
          2   -1    0    0  501    0  0.00000000000E+00  0.00000000000E+00  0.11764116662E+04  0.11764116662E+04  0.25500000000E-02 0.  1.
         -2   -1    0    0    0  501 -0.00000000000E+00 -0.00000000000E+00 -0.54490263900E+03  0.54490263901E+03  0.25500000000E-02 0. -1.
     200001    2    1    2    0    0 -0.24934831111E+03  0.27489296548E+03  0.44260653989E+03  0.90680532895E+03  0.69903836285E+03 0.  0.
    5000001    2    3    3    0    0 -0.65729650671E+02  0.96170541079E+02  0.12062449594E+03  0.25924841711E+03  0.19771270269E+03 0.  0.
        -13    1    4    4    0    0  0.18439312459E+02 -0.52561840365E+02  0.24050805115E+02  0.60672956886E+02  0.10566000000E+00 0. -1.
     200003    1    4    4    0    0 -0.84168963130E+02  0.14873238144E+03  0.96573690825E+02  0.19857546023E+03  0.30000000000E+02 0. -1.
     200000    1    3    3    0    0 -0.18361866044E+03  0.17872242440E+03  0.32198204395E+03  0.64755691184E+03  0.50000000000E+03 0.  1.
    -200001    1    1    2    0    0  0.24934831111E+03 -0.27489296548E+03  0.18890248733E+03  0.81450897628E+03  0.70000000000E+03 0. -1.
<mgrwt>
<rscale>  0 0.16012868E+04</rscale>
<asrwt>0</asrwt>
<pdfrwt beam="1">  1        2 0.16805881E+00 0.16012868E+04</pdfrwt>
<pdfrwt beam="2">  1       -2 0.77843234E-01 0.16012868E+04</pdfrwt>
<totfact> 0.31143208E+01</totfact>
</mgrwt>
</event>
<event>
 8    1  0.2682466E-027  0.1419326E+04  0.7818608E-02  0.8939947E-01
          2   -1    0    0  501    0  0.00000000000E+00  0.00000000000E+00  0.71419879704E+03  0.71419879704E+03  0.25500000000E-02 0.  1.
         -2   -1    0    0    0  501 -0.00000000000E+00 -0.00000000000E+00 -0.70515595425E+03  0.70515595426E+03  0.25500000000E-02 0. -1.
     200001    2    1    2    0    0  0.41136652269E+02  0.54477249120E+02 -0.91373139913E+02  0.70890182224E+03  0.69966616900E+03 0.  0.
    5000001    2    3    3    0    0 -0.43297725428E+01  0.39636620076E+02 -0.77149606888E+02  0.20641824146E+03  0.18726083409E+03 0.  0.
        -13    1    4    4    0    0 -0.15202332137E+02 -0.69179455944E+02 -0.29300791995E+01  0.70890793163E+02  0.10566000000E+00 0. -1.
     200003    1    4    4    0    0  0.10872559594E+02  0.10881607602E+03 -0.74219527689E+02  0.13552744830E+03  0.30000000000E+02 0. -1.
     200000    1    3    3    0    0  0.45466424812E+02  0.14840629044E+02 -0.14223533025E+02  0.50248358077E+03  0.50000000000E+03 0. -1.
    -200001    1    1    2    0    0 -0.41136652269E+02 -0.54477249120E+02  0.10041598270E+03  0.71045292906E+03  0.70000000000E+03 0.  1.
<mgrwt>
<rscale>  0 0.14193259E+04</rscale>
<asrwt>0</asrwt>
<pdfrwt beam="1">  1        2 0.10202840E+00 0.14193259E+04</pdfrwt>
<pdfrwt beam="2">  1       -2 0.10073657E+00 0.14193259E+04</pdfrwt>
<totfact> 0.34700722E+01</totfact>
</mgrwt>
</event>
<event>
 8    1  0.2682466E-027  0.1428012E+04  0.7818608E-02  0.8933788E-01
          2   -1    0    0  501    0  0.00000000000E+00  0.00000000000E+00  0.19793687340E+04  0.19793687340E+04  0.25500000000E-02 0.  1.
         -2   -1    0    0    0  501 -0.00000000000E+00 -0.00000000000E+00 -0.25755931205E+03  0.25755931206E+03  0.25500000000E-02 0. -1.
     200001    2    1    2    0    0 -0.61467342421E+02  0.96926392504E+02  0.73647317982E+03  0.10228191260E+04  0.70042362908E+03 0.  0.
    5000001    2    3    3    0    0 -0.13635409340E+02 -0.10402826892E+02  0.25069630235E+03  0.31586323640E+03  0.19138130761E+03 0.  0.
        -13    1    4    4    0    0  0.14413046113E+02  0.74496165286E+02  0.41719217394E+02  0.86590523757E+02  0.10566000000E+00 0. -1.
     200003    1    4    4    0    0 -0.28048455453E+02 -0.84898992177E+02  0.20897708495E+03  0.22927271264E+03  0.30000000000E+02 0. -1.
     200000    1    3    3    0    0 -0.47831933081E+02  0.10732921940E+03  0.48577687747E+03  0.70695588960E+03  0.50000000000E+03 0. -1.
    -200001    1    1    2    0    0  0.61467342421E+02 -0.96926392504E+02  0.98533624217E+03  0.12141089201E+04  0.70000000000E+03 0.  1.
<mgrwt>
<rscale>  0 0.14280124E+04</rscale>
<asrwt>0</asrwt>
<pdfrwt beam="1">  1        2 0.28276696E+00 0.14280124E+04</pdfrwt>
<pdfrwt beam="2">  1       -2 0.36794187E-01 0.14280124E+04</pdfrwt>
<totfact> 0.55631474E+01</totfact>
</mgrwt>
</event>
<event>
 8    1  0.2682466E-027  0.1678901E+04  0.7818608E-02  0.8773490E-01
         -2   -1    0    0    0  501 -0.00000000000E+00  0.00000000000E+00  0.58498707126E+03  0.58498707126E+03  0.25500000000E-02 0. -1.
          2   -1    0    0  501    0  0.00000000000E+00 -0.00000000000E+00 -0.12046033091E+04  0.12046033091E+04  0.25500000000E-02 0.  1.
     200001    2    1    2    0    0  0.28682473966E+02 -0.57391430865E+02  0.17922595560E+03  0.72551082004E+03  0.70009109849E+03 0.  0.
    5000001    2    3    3    0    0  0.47573518973E+02 -0.60988457591E+02  0.24553846660E+02  0.20178066866E+03  0.18474229400E+03 0.  0.
        -13    1    4    4    0    0  0.10916313773E+03 -0.71675315386E+02  0.10313936158E+02  0.13099744241E+03  0.10566000000E+00 0. -1.
     200003    1    4    4    0    0 -0.61589618755E+02  0.10686857796E+02  0.14239910501E+02  0.70783226255E+02  0.30000000000E+02 0. -1.
     200000    1    3    3    0    0 -0.18891045007E+02  0.35970267252E+01  0.15467210894E+03  0.52373015138E+03  0.50000000000E+03 0. -1.
    -200001    1    1    2    0    0 -0.28682473966E+02  0.57391430865E+02 -0.79884219341E+03  0.10640795603E+04  0.70000000000E+03 0.  1.
<mgrwt>
<rscale>  0 0.16789013E+04</rscale>
<asrwt>0</asrwt>
<pdfrwt beam="1">  1        2 0.17208619E+00 0.16789013E+04</pdfrwt>
<pdfrwt beam="2">  1       -2 0.83569582E-01 0.16789013E+04</pdfrwt>
<totfact> 0.25424325E+01</totfact>
</mgrwt>
</event>
<event>
 8    1  0.2682466E-027  0.1533215E+04  0.7818608E-02  0.8862661E-01
          2   -1    0    0  501    0  0.00000000000E+00  0.00000000000E+00  0.13960465459E+04  0.13960465459E+04  0.25500000000E-02 0.  1.
         -2   -1    0    0    0  501 -0.00000000000E+00 -0.00000000000E+00 -0.42096509522E+03  0.42096509523E+03  0.25500000000E-02 0. -1.
     200001    2    1    2    0    0 -0.64343829720E+00  0.25323145359E+03  0.70327001952E+03  0.10245420599E+04  0.70069332027E+03 0.  0.
    5000001    2    3    3    0    0 -0.10058481998E+02  0.12822759437E+03  0.27410375255E+03  0.35379747919E+03  0.18301994454E+03 0.  0.
        -13    1    4    4    0    0  0.47719074280E+02  0.62809981423E+02  0.17084009583E+02  0.80709840565E+02  0.10566000000E+00 0. -1.
     200003    1    4    4    0    0 -0.57777556278E+02  0.65417612950E+02  0.25701974297E+03  0.27308763862E+03  0.30000000000E+02 0. -1.
     200000    1    3    3    0    0  0.94150437004E+01  0.12500385921E+03  0.42916626697E+03  0.67074458072E+03  0.50000000000E+03 0. -1.
    -200001    1    1    2    0    0  0.64343829720E+00 -0.25323145359E+03  0.27181143120E+03  0.79246958127E+03  0.70000000000E+03 0.  1.
<mgrwt>
<rscale>  0 0.15332147E+04</rscale>
<asrwt>0</asrwt>
<pdfrwt beam="1">  1        2 0.19943522E+00 0.15332147E+04</pdfrwt>
<pdfrwt beam="2">  1       -2 0.60137870E-01 0.15332147E+04</pdfrwt>
<totfact> 0.41372726E+01</totfact>
</mgrwt>
</event>
<event>
 8    1  0.2682466E-027  0.1946739E+04  0.7818608E-02  0.8631935E-01
         -2   -1    0    0    0  501 -0.00000000000E+00  0.00000000000E+00  0.31100171495E+03  0.31100171496E+03  0.25500000000E-02 0. -1.
          2   -1    0    0  501    0  0.00000000000E+00 -0.00000000000E+00 -0.30464394723E+04  0.30464394723E+04  0.25500000000E-02 0.  1.
     200001    2    1    2    0    0  0.15634493783E+03 -0.36554361333E+03 -0.41650332778E+03  0.90274716122E+03  0.69527803231E+03 0.  0.
    5000001    2    3    3    0    0  0.13210421254E+03 -0.27375378198E+02  0.76628900221E+01  0.16459924356E+03  0.93985407354E+02 0.  0.
        -13    1    4    4    0    0  0.90497096232E+02 -0.40386904360E+02 -0.25267417858E+02  0.10227062159E+03  0.10566000000E+00 0. -1.
     200003    1    4    4    0    0  0.41607116311E+02  0.13011526162E+02  0.32930307880E+02  0.62328621979E+02  0.30000000000E+02 0. -1.
     200000    1    3    3    0    0  0.24240725290E+02 -0.33816823513E+03 -0.42416621780E+03  0.73814791766E+03  0.50000000000E+03 0.  1.
    -200001    1    1    2    0    0 -0.15634493783E+03  0.36554361333E+03 -0.23189344296E+04  0.24546940261E+04  0.70000000000E+03 0.  1.
<mgrwt>
<rscale>  0 0.19467387E+04</rscale>
<asrwt>0</asrwt>
<pdfrwt beam="1">  1        2 0.43520562E+00 0.19467387E+04</pdfrwt>
<pdfrwt beam="2">  1       -2 0.44428818E-01 0.19467387E+04</pdfrwt>
<totfact> 0.10003779E+01</totfact>
</mgrwt>
</event>
<event>
 8    1  0.2682466E-027  0.1506396E+04  0.7818608E-02  0.8880211E-01
         -2   -1    0    0    0  501 -0.00000000000E+00  0.00000000000E+00  0.11783460235E+04  0.11783460235E+04  0.25500000000E-02 0. -1.
          2   -1    0    0  501    0  0.00000000000E+00 -0.00000000000E+00 -0.48144337768E+03  0.48144337768E+03  0.25500000000E-02 0.  1.
     200001    2    1    2    0    0  0.39155315873E+02 -0.17676171652E+03  0.11915584519E+03  0.73427915875E+03  0.70156248785E+03 0.  0.
    5000001    2    3    3    0    0  0.16345179973E+02 -0.80947336327E+02  0.61550008924E+02  0.22142525156E+03  0.19601301555E+03 0.  0.
        -13    1    4    4    0    0  0.38420735342E+02 -0.77018080336E+02 -0.52883884473E+02  0.10101808751E+03  0.10566000000E+00 0. -1.
     200003    1    4    4    0    0 -0.22075555369E+02 -0.39292559912E+01  0.11443389340E+03  0.12040716405E+03  0.30000000000E+02 0. -1.
     200000    1    3    3    0    0  0.22810135900E+02 -0.95814380188E+02  0.57605836268E+02  0.51285390719E+03  0.50000000000E+03 0.  1.
    -200001    1    1    2    0    0 -0.39155315873E+02  0.17676171652E+03  0.57774680061E+03  0.92551024241E+03  0.70000000000E+03 0. -1.
<mgrwt>
<rscale>  0 0.15063956E+04</rscale>
<asrwt>0</asrwt>
<pdfrwt beam="1">  1        2 0.68777627E-01 0.15063956E+04</pdfrwt>
<pdfrwt beam="2">  1       -2 0.16833514E+00 0.15063956E+04</pdfrwt>
<totfact> 0.14848164E+01</totfact>
</mgrwt>
</event>
<event>
 8    1  0.2682466E-027  0.2605543E+04  0.7818608E-02  0.8366321E-01
          2   -1    0    0  501    0  0.00000000000E+00  0.00000000000E+00  0.49991544624E+04  0.49991544624E+04  0.25500000000E-02 0.  1.
         -2   -1    0    0    0  501 -0.00000000000E+00 -0.00000000000E+00 -0.33950016682E+03  0.33950016683E+03  0.25500000000E-02 0. -1.
     200001    2    1    2    0    0 -0.56034194267E+03  0.90573799604E+03  0.17744435871E+04  0.21844851280E+04  0.69927163566E+03 0.  0.
    5000001    2    3    3    0    0 -0.15557550265E+03  0.32563478365E+03  0.52002041293E+03  0.66003994764E+03  0.18705548181E+03 0.  0.
        -13    1    4    4    0    0 -0.41795325583E+02  0.16345714323E+02  0.18024460945E+03  0.18574757607E+03  0.10566000000E+00 0. -1.
     200003    1    4    4    0    0 -0.11378017707E+03  0.30928906933E+03  0.33977580348E+03  0.47429237157E+03  0.30000000000E+02 0. -1.
     200000    1    3    3    0    0 -0.40476644002E+03  0.58010321238E+03  0.12544231741E+04  0.15244451803E+04  0.50000000000E+03 0.  1.
    -200001    1    1    2    0    0  0.56034194267E+03 -0.90573799604E+03  0.28852107085E+04  0.31541695013E+04  0.70000000000E+03 0.  1.
<mgrwt>
<rscale>  0 0.26055431E+04</rscale>
<asrwt>0</asrwt>
<pdfrwt beam="1">  1        2 0.71416492E+00 0.26055431E+04</pdfrwt>
<pdfrwt beam="2">  1       -2 0.48500024E-01 0.26055431E+04</pdfrwt>
<totfact> 0.31756859E-01</totfact>
</mgrwt>
</event>
<event>
 8    1  0.2682466E-027  0.2561504E+04  0.7818608E-02  0.8381396E-01
         -2   -1    0    0    0  501 -0.00000000000E+00  0.00000000000E+00  0.18332015809E+04  0.18332015809E+04  0.25500000000E-02 0. -1.
          2   -1    0    0  501    0  0.00000000000E+00 -0.00000000000E+00 -0.89478711454E+03  0.89478711454E+03  0.25500000000E-02 0.  1.
     200001    2    1    2    0    0 -0.51111523474E+03  0.35248608688E+03  0.14005576826E+04  0.16844075645E+04  0.70012984249E+03 0.  0.
    5000001    2    3    3    0    0 -0.12442952574E+03  0.11917370818E+02  0.43732743877E+03  0.48302278409E+03  0.16257610725E+03 0.  0.
        -13    1    4    4    0    0 -0.13339969779E+03  0.40327941466E+02  0.40909942203E+03  0.43218534277E+03  0.10566000000E+00 0. -1.
     200003    1    4    4    0    0  0.89701720529E+01 -0.28410570648E+02  0.28228016733E+02  0.50837441319E+02  0.30000000000E+02 0. -1.
     200000    1    3    3    0    0 -0.38668570900E+03  0.34056871606E+03  0.96323024385E+03  0.12013847804E+04  0.50000000000E+03 0. -1.
    -200001    1    1    2    0    0  0.51111523474E+03 -0.35248608688E+03 -0.46214321623E+03  0.10435811310E+04  0.70000000000E+03 0.  1.
<mgrwt>
<rscale>  0 0.25615036E+04</rscale>
<asrwt>0</asrwt>
<pdfrwt beam="1">  1        2 0.12782673E+00 0.25615036E+04</pdfrwt>
<pdfrwt beam="2">  1       -2 0.26188594E+00 0.25615036E+04</pdfrwt>
<totfact> 0.15882819E+00</totfact>
</mgrwt>
</event>
<event>
 8    1  0.2682466E-027  0.1407718E+04  0.7818608E-02  0.8948250E-01
          2   -1    0    0  501    0  0.00000000000E+00  0.00000000000E+00  0.93193902273E+03  0.93193902273E+03  0.25500000000E-02 0.  1.
         -2   -1    0    0    0  501 -0.00000000000E+00 -0.00000000000E+00 -0.53159888334E+03  0.53159888334E+03  0.25500000000E-02 0. -1.
     200001    2    1    2    0    0  0.45313525637E+02  0.53989708868E+02  0.17564038857E+03  0.72498649806E+03  0.69984832071E+03 0.  0.
    5000001    2    3    3    0    0  0.10858025186E+03  0.90028746915E+01  0.13045129978E+03  0.21698202205E+03  0.13488118264E+03 0.  0.
        -13    1    4    4    0    0  0.21406832699E+02  0.46484184262E+02 -0.21117015748E+01  0.51220135887E+02  0.10566000000E+00 0. -1.
     200003    1    4    4    0    0  0.87173419165E+02 -0.37481309571E+02  0.13256300135E+03  0.16576188616E+03  0.30000000000E+02 0. -1.
     200000    1    3    3    0    0 -0.63266726228E+02  0.44986834176E+02  0.45189088791E+02  0.50800447601E+03  0.50000000000E+03 0. -1.
    -200001    1    1    2    0    0 -0.45313525637E+02 -0.53989708868E+02  0.22469975082E+03  0.73855140802E+03  0.70000000000E+03 0.  1.
<mgrwt>
<rscale>  0 0.14077184E+04</rscale>
<asrwt>0</asrwt>
<pdfrwt beam="1">  1        2 0.13313414E+00 0.14077184E+04</pdfrwt>
<pdfrwt beam="2">  1       -2 0.75942698E-01 0.14077184E+04</pdfrwt>
<totfact> 0.46920673E+01</totfact>
</mgrwt>
</event>
<event>
 8    1  0.2682466E-027  0.1444224E+04  0.7818608E-02  0.8922415E-01
         -2   -1    0    0    0  501 -0.00000000000E+00  0.00000000000E+00  0.43082927745E+03  0.43082927745E+03  0.25500000000E-02 0.  1.
          2   -1    0    0  501    0  0.00000000000E+00 -0.00000000000E+00 -0.12103299683E+04  0.12103299683E+04  0.25500000000E-02 0. -1.
     200001    2    1    2    0    0 -0.16494270387E+03  0.13861439426E+02 -0.44689777494E+03  0.84868026512E+03  0.70224093877E+03 0.  0.
    5000001    2    3    3    0    0 -0.58043431616E+02  0.63554484825E+02 -0.16976171157E+03  0.26498406777E+03  0.18436188588E+03 0.  0.
        -13    1    4    4    0    0  0.71689407206E+00  0.14292862261E+02  0.38480105083E+02  0.41055200644E+02  0.10566000000E+00 0. -1.
     200003    1    4    4    0    0 -0.58760325688E+02  0.49261622564E+02 -0.20824181665E+03  0.22392886713E+03  0.30000000000E+02 0. -1.
     200000    1    3    3    0    0 -0.10689927226E+03 -0.49693045399E+02 -0.27713606338E+03  0.58369619734E+03  0.50000000000E+03 0. -1.
    -200001    1    1    2    0    0  0.16494270387E+03 -0.13861439426E+02 -0.33260291590E+03  0.79247898062E+03  0.70000000000E+03 0. -1.
<mgrwt>
<rscale>  0 0.14442238E+04</rscale>
<asrwt>0</asrwt>
<pdfrwt beam="1">  1        2 0.17290428E+00 0.14442238E+04</pdfrwt>
<pdfrwt beam="2">  1       -2 0.61547040E-01 0.14442238E+04</pdfrwt>
<totfact> 0.50260412E+01</totfact>
</mgrwt>
</event>
<event>
 8    1  0.2682466E-027  0.1452668E+04  0.7818608E-02  0.8916553E-01
         -2   -1    0    0    0  501 -0.00000000000E+00  0.00000000000E+00  0.21344197363E+03  0.21344197364E+03  0.25500000000E-02 0. -1.
          2   -1    0    0  501    0  0.00000000000E+00 -0.00000000000E+00 -0.24716833085E+04  0.24716833085E+04  0.25500000000E-02 0.  1.
     200001    2    1    2    0    0  0.48392657442E+02  0.18703346224E+03 -0.11031544300E+04  0.13207392946E+04  0.70005658519E+03 0.  0.
    5000001    2    3    3    0    0 -0.63102904099E+01  0.47490461484E+02 -0.34106674900E+03  0.39702814106E+03  0.19750861709E+03 0.  0.
        -13    1    4    4    0    0  0.73321302987E+02  0.14144176530E+00 -0.26055324373E+03  0.27067330393E+03  0.10566000000E+00 0. -1.
     200003    1    4    4    0    0 -0.79631593397E+02  0.47349019718E+02 -0.80513505262E+02  0.12635483712E+03  0.30000000000E+02 0. -1.
     200000    1    3    3    0    0  0.54702947852E+02  0.13954300076E+03 -0.76208768103E+03  0.92371115352E+03  0.50000000000E+03 0. -1.
    -200001    1    1    2    0    0 -0.48392657442E+02 -0.18703346224E+03 -0.11550869048E+04  0.13643859875E+04  0.70000000000E+03 0. -1.
<mgrwt>
<rscale>  0 0.14526678E+04</rscale>
<asrwt>0</asrwt>
<pdfrwt beam="1">  1        2 0.35309760E+00 0.14526678E+04</pdfrwt>
<pdfrwt beam="2">  1       -2 0.30491712E-01 0.14526678E+04</pdfrwt>
<totfact> 0.44132764E+01</totfact>
</mgrwt>
</event>
<event>
 8    1  0.2682466E-027  0.1581631E+04  0.7818608E-02  0.8831913E-01
          2   -1    0    0  501    0  0.00000000000E+00  0.00000000000E+00  0.24320804791E+04  0.24320804791E+04  0.25500000000E-02 0.  1.
         -2   -1    0    0    0  501 -0.00000000000E+00 -0.00000000000E+00 -0.25714173473E+03  0.25714173474E+03  0.25500000000E-02 0. -1.
     200001    2    1    2    0    0 -0.26318557836E+03  0.14000948099E+03  0.14536042540E+04  0.16407982774E+04  0.70027448657E+03 0.  0.
    5000001    2    3    3    0    0  0.28024424043E+02 -0.43963750830E+02  0.24742896417E+03  0.29042490487E+03  0.14285430804E+03 0.  0.
        -13    1    4    4    0    0  0.38322303628E+00 -0.33976450537E+02  0.24607062771E+03  0.24840553745E+03  0.10566000000E+00 0. -1.
     200003    1    4    4    0    0  0.27641201007E+02 -0.99873002925E+01  0.13583364623E+01  0.42019367418E+02  0.30000000000E+02 0. -1.
     200000    1    3    3    0    0 -0.29121000240E+03  0.18397323182E+03  0.12061752898E+04  0.13503733726E+04  0.50000000000E+03 0.  1.
    -200001    1    1    2    0    0  0.26318557836E+03 -0.14000948099E+03  0.72133449033E+03  0.10484239364E+04  0.70000000000E+03 0.  1.
<mgrwt>
<rscale>  0 0.15816313E+04</rscale>
<asrwt>0</asrwt>
<pdfrwt beam="1">  1        2 0.34744009E+00 0.15816313E+04</pdfrwt>
<pdfrwt beam="2">  1       -2 0.36734531E-01 0.15816313E+04</pdfrwt>
<totfact> 0.32172076E+01</totfact>
</mgrwt>
</event>
<event>
 8    1  0.2682466E-027  0.3452012E+04  0.7818608E-02  0.8125258E-01
          2   -1    0    0  501    0  0.00000000000E+00  0.00000000000E+00  0.12797472642E+04  0.12797472642E+04  0.25500000000E-02 0.  1.
         -2   -1    0    0    0  501 -0.00000000000E+00 -0.00000000000E+00 -0.23278783202E+04  0.23278783202E+04  0.25500000000E-02 0. -1.
     200001    2    1    2    0    0 -0.10606049834E+03  0.60355911370E+03 -0.20438187219E+04  0.22449347314E+04  0.69785711094E+03 0.  0.
    5000001    2    3    3    0    0 -0.33869579529E+02  0.76794029651E+02 -0.41013270593E+03  0.45562676985E+03  0.17984005540E+03 0.  0.
        -13    1    4    4    0    0  0.27573793109E+02  0.27695849747E+02 -0.35000423629E+03  0.35217942976E+03  0.10566000000E+00 0. -1.
     200003    1    4    4    0    0 -0.61443372638E+02  0.49098179904E+02 -0.60128469634E+02  0.10344734009E+03  0.30000000000E+02 0. -1.
     200000    1    3    3    0    0 -0.72190918811E+02  0.52676508405E+03 -0.16336860160E+04  0.17893079616E+04  0.50000000000E+03 0. -1.
    -200001    1    1    2    0    0  0.10606049834E+03 -0.60355911370E+03  0.99568766588E+03  0.13626908531E+04  0.70000000000E+03 0.  1.
<mgrwt>
<rscale>  0 0.34520115E+04</rscale>
<asrwt>0</asrwt>
<pdfrwt beam="1">  1        2 0.18282104E+00 0.34520115E+04</pdfrwt>
<pdfrwt beam="2">  1       -2 0.33255405E+00 0.34520115E+04</pdfrwt>
<totfact> 0.32058783E-01</totfact>
</mgrwt>
</event>
<event>
 8    1  0.2682466E-027  0.1822181E+04  0.7818608E-02  0.8694592E-01
          2   -1    0    0  501    0  0.00000000000E+00  0.00000000000E+00  0.10649934572E+04  0.10649934572E+04  0.25500000000E-02 0.  1.
         -2   -1    0    0    0  501 -0.00000000000E+00 -0.00000000000E+00 -0.77942828924E+03  0.77942828924E+03  0.25500000000E-02 0. -1.
     200001    2    1    2    0    0 -0.53244463995E+03 -0.19534909645E+03  0.28030257454E+03  0.94348542294E+03  0.69995474561E+03 0.  0.
    5000001    2    3    3    0    0 -0.18391214363E+03 -0.10191478314E+03 -0.12231058487E+02  0.26100406909E+03  0.15415325391E+03 0.  0.
        -13    1    4    4    0    0 -0.60205368943E+02 -0.44375066940E+02 -0.76719889175E+02  0.10714376125E+03  0.10566000000E+00 0. -1.
     200003    1    4    4    0    0 -0.12370677469E+03 -0.57539716203E+02  0.64488830688E+02  0.15386030784E+03  0.30000000000E+02 0. -1.
     200000    1    3    3    0    0 -0.34853249632E+03 -0.93434313309E+02  0.29253363303E+03  0.68248135385E+03  0.50000000000E+03 0.  1.
    -200001    1    1    2    0    0  0.53244463995E+03  0.19534909645E+03  0.52625933972E+01  0.90093632349E+03  0.70000000000E+03 0. -1.
<mgrwt>
<rscale>  0 0.18221811E+04</rscale>
<asrwt>0</asrwt>
<pdfrwt beam="1">  1        2 0.15214192E+00 0.18221811E+04</pdfrwt>
<pdfrwt beam="2">  1       -2 0.11134690E+00 0.18221811E+04</pdfrwt>
<totfact> 0.15462873E+01</totfact>
</mgrwt>
</event>
<event>
 8    1  0.2682466E-027  0.2097060E+04  0.7818608E-02  0.8562539E-01
          2   -1    0    0  501    0  0.00000000000E+00  0.00000000000E+00  0.20679451344E+04  0.20679451344E+04  0.25500000000E-02 0.  1.
         -2   -1    0    0    0  501 -0.00000000000E+00 -0.00000000000E+00 -0.53164632026E+03  0.53164632027E+03  0.25500000000E-02 0. -1.
     200001    2    1    2    0    0 -0.35103525644E+03 -0.64856280073E+03  0.44926619509E+03  0.11111360900E+04  0.69923089084E+03 0.  0.
    5000001    2    3    3    0    0 -0.10187671486E+03 -0.28544118249E+03  0.18935311944E+03  0.39594933442E+03  0.17048676749E+03 0.  0.
        -13    1    4    4    0    0 -0.95707450387E+02 -0.11993217736E+03  0.16594246984E+03  0.22601008315E+03  0.10566000000E+00 0. -1.
     200003    1    4    4    0    0 -0.61692644714E+01 -0.16550900514E+03  0.23410649599E+02  0.16993925126E+03  0.30000000000E+02 0. -1.
     200000    1    3    3    0    0 -0.24915854158E+03 -0.36312161824E+03  0.25991307565E+03  0.71518675559E+03  0.50000000000E+03 0. -1.
    -200001    1    1    2    0    0  0.35103525644E+03  0.64856280073E+03  0.10870326191E+04  0.14884553647E+04  0.70000000000E+03 0. -1.
<mgrwt>
<rscale>  0 0.20970602E+04</rscale>
<asrwt>0</asrwt>
<pdfrwt beam="1">  1        2 0.29542073E+00 0.20970602E+04</pdfrwt>
<pdfrwt beam="2">  1       -2 0.75949476E-01 0.20970602E+04</pdfrwt>
<totfact> 0.10636504E+01</totfact>
</mgrwt>
</event>
<event>
 8    1  0.2682466E-027  0.1625375E+04  0.7818608E-02  0.8805109E-01
         -2   -1    0    0    0  501 -0.00000000000E+00  0.00000000000E+00  0.73520462177E+03  0.73520462177E+03  0.25500000000E-02 0. -1.
          2   -1    0    0  501    0  0.00000000000E+00 -0.00000000000E+00 -0.89833604699E+03  0.89833604700E+03  0.25500000000E-02 0.  1.
     200001    2    1    2    0    0  0.92588391278E+02 -0.33278825245E+03 -0.30865625416E+03  0.83950155952E+03  0.70012395619E+03 0.  0.
    5000001    2    3    3    0    0  0.99605621083E+02 -0.21234211365E+03 -0.86906420691E+02  0.27938594422E+03  0.12447219323E+03 0.  0.
        -13    1    4    4    0    0  0.53504012824E+02 -0.12724686116E+03 -0.10875501245E+03  0.17573305597E+03  0.10566000000E+00 0. -1.
     200003    1    4    4    0    0  0.46101608259E+02 -0.85095252490E+02  0.21848591757E+02  0.10365288825E+03  0.30000000000E+02 0. -1.
     200000    1    3    3    0    0 -0.70172298057E+01 -0.12044613881E+03 -0.22174983347E+03  0.56011561531E+03  0.50000000000E+03 0.  1.
    -200001    1    1    2    0    0 -0.92588391278E+02  0.33278825245E+03  0.14552482894E+03  0.79403910924E+03  0.70000000000E+03 0. -1.
<mgrwt>
<rscale>  0 0.16253748E+04</rscale>
<asrwt>0</asrwt>
<pdfrwt beam="1">  1        2 0.12833372E+00 0.16253748E+04</pdfrwt>
<pdfrwt beam="2">  1       -2 0.10502923E+00 0.16253748E+04</pdfrwt>
<totfact> 0.22978984E+01</totfact>
</mgrwt>
</event>
<event>
 8    1  0.2682466E-027  0.1934049E+04  0.7818608E-02  0.8638091E-01
         -2   -1    0    0    0  501 -0.00000000000E+00  0.00000000000E+00  0.16214922077E+04  0.16214922077E+04  0.25500000000E-02 0. -1.
          2   -1    0    0  501    0  0.00000000000E+00 -0.00000000000E+00 -0.57671362682E+03  0.57671362683E+03  0.25500000000E-02 0.  1.
     200001    2    1    2    0    0 -0.22849546141E+03 -0.59432287141E+03  0.29656688475E+03  0.99186815646E+03  0.70030041504E+03 0.  0.
    5000001    2    3    3    0    0 -0.83041725409E+02 -0.22575837410E+03  0.18948998867E+02  0.29611800837E+03  0.17165092103E+03 0.  0.
        -13    1    4    4    0    0 -0.53579560798E+01 -0.42998487836E+02 -0.65263962375E+02  0.78338838378E+02  0.10566000000E+00 0. -1.
     200003    1    4    4    0    0 -0.77683769329E+02 -0.18275988626E+03  0.84212961242E+02  0.21777917000E+03  0.30000000000E+02 0. -1.
     200000    1    3    3    0    0 -0.14545373600E+03 -0.36856449731E+03  0.27761788588E+03  0.69575014808E+03  0.50000000000E+03 0. -1.
    -200001    1    1    2    0    0  0.22849546141E+03  0.59432287141E+03  0.74821169617E+03  0.12063376781E+04  0.70000000000E+03 0. -1.
<mgrwt>
<rscale>  0 0.19340493E+04</rscale>
<asrwt>0</asrwt>
<pdfrwt beam="1">  1        2 0.82387660E-01 0.19340493E+04</pdfrwt>
<pdfrwt beam="2">  1       -2 0.23164175E+00 0.19340493E+04</pdfrwt>
<totfact> 0.44474069E+00</totfact>
</mgrwt>
</event>
<event>
 8    1  0.2682466E-027  0.1846868E+04  0.7818608E-02  0.8681765E-01
         -2   -1    0    0    0  501 -0.00000000000E+00  0.00000000000E+00  0.44422317087E+03  0.44422317088E+03  0.25500000000E-02 0. -1.
          2   -1    0    0  501    0  0.00000000000E+00 -0.00000000000E+00 -0.19195986521E+04  0.19195986521E+04  0.25500000000E-02 0.  1.
     200001    2    1    2    0    0  0.24882481918E+03 -0.27104039278E+03 -0.13489501341E+04  0.15629722406E+04  0.69845477710E+03 0.  0.
    5000001    2    3    3    0    0  0.40118446229E+02 -0.10595529528E+03 -0.38364394777E+03  0.44376382715E+03  0.19211361560E+03 0.  0.
        -13    1    4    4    0    0  0.76891786370E+02 -0.41672670362E+02 -0.50119206308E+02  0.10080131086E+03  0.10566000000E+00 0. -1.
     200003    1    4    4    0    0 -0.36773340140E+02 -0.64282624915E+02 -0.33352474146E+03  0.34296251629E+03  0.30000000000E+02 0. -1.
     200000    1    3    3    0    0  0.20870637295E+03 -0.16508509750E+03 -0.96530618628E+03  0.11192084135E+04  0.50000000000E+03 0.  1.
    -200001    1    1    2    0    0 -0.24882481918E+03  0.27104039278E+03 -0.12642534719E+03  0.80084958236E+03  0.70000000000E+03 0. -1.
<mgrwt>
<rscale>  0 0.18468678E+04</rscale>
<asrwt>0</asrwt>
<pdfrwt beam="1">  1        2 0.27422837E+00 0.18468678E+04</pdfrwt>
<pdfrwt beam="2">  1       -2 0.63460454E-01 0.18468678E+04</pdfrwt>
<totfact> 0.19139245E+01</totfact>
</mgrwt>
</event>
<event>
 8    1  0.2682466E-027  0.2350303E+04  0.7818608E-02  0.8458347E-01
          2   -1    0    0  501    0  0.00000000000E+00  0.00000000000E+00  0.21077937258E+04  0.21077937258E+04  0.25500000000E-02 0.  1.
         -2   -1    0    0    0  501 -0.00000000000E+00 -0.00000000000E+00 -0.65517834311E+03  0.65517834311E+03  0.25500000000E-02 0. -1.
     200001    2    1    2    0    0 -0.85211333573E+03  0.11903423835E+03  0.26944234997E+03  0.11411938128E+04  0.69961264388E+03 0.  0.
    5000001    2    3    3    0    0 -0.22994568419E+03 -0.40035388541E+01  0.80763286379E+02  0.31183823745E+03  0.19449763986E+03 0.  0.
        -13    1    4    4    0    0 -0.14126134520E+03 -0.93828061894E+02  0.62891811153E+02  0.18086974297E+03  0.10566000000E+00 0. -1.
     200003    1    4    4    0    0 -0.88684338982E+02  0.89824523040E+02  0.17871475226E+02  0.13096849448E+03  0.30000000000E+02 0. -1.
     200000    1    3    3    0    0 -0.62216765154E+03  0.12303777720E+03  0.18867906359E+03  0.82935557530E+03  0.50000000000E+03 0. -1.
    -200001    1    1    2    0    0  0.85211333573E+03 -0.11903423835E+03  0.11831730328E+04  0.16217782562E+04  0.70000000000E+03 0.  1.
<mgrwt>
<rscale>  0 0.23503028E+04</rscale>
<asrwt>0</asrwt>
<pdfrwt beam="1">  1        2 0.30111339E+00 0.23503028E+04</pdfrwt>
<pdfrwt beam="2">  1       -2 0.93596907E-01 0.23503028E+04</pdfrwt>
<totfact> 0.61820490E+00</totfact>
</mgrwt>
</event>
<event>
 8    1  0.2682466E-027  0.2085240E+04  0.7818608E-02  0.8567773E-01
          2   -1    0    0  501    0  0.00000000000E+00  0.00000000000E+00  0.19413285331E+04  0.19413285331E+04  0.25500000000E-02 0.  1.
         -2   -1    0    0    0  501 -0.00000000000E+00 -0.00000000000E+00 -0.55995466467E+03  0.55995466467E+03  0.25500000000E-02 0. -1.
     200001    2    1    2    0    0  0.12686031709E+03 -0.26014265840E+03 -0.16663618699E+03  0.77788455716E+03  0.70254467665E+03 0.  0.
    5000001    2    3    3    0    0 -0.33629768740E+01 -0.16124448352E+03  0.28485617338E+02  0.21680392676E+03  0.14206132192E+03 0.  0.
        -13    1    4    4    0    0  0.39754631197E+02 -0.12318442396E+03  0.62299808767E+02  0.14365274221E+03  0.10566000000E+00 0. -1.
     200003    1    4    4    0    0 -0.43117608071E+02 -0.38060059555E+02 -0.33814191430E+02  0.73151184551E+02  0.30000000000E+02 0. -1.
     200000    1    3    3    0    0  0.13022329396E+03 -0.98898174886E+02 -0.19512180432E+03  0.56108063040E+03  0.50000000000E+03 0. -1.
    -200001    1    1    2    0    0 -0.12686031709E+03  0.26014265840E+03  0.15480100554E+04  0.17233986406E+04  0.70000000000E+03 0.  1.
<mgrwt>
<rscale>  0 0.20852395E+04</rscale>
<asrwt>0</asrwt>
<pdfrwt beam="1">  1        2 0.27733265E+00 0.20852395E+04</pdfrwt>
<pdfrwt beam="2">  1       -2 0.79993523E-01 0.20852395E+04</pdfrwt>
<totfact> 0.11018490E+01</totfact>
</mgrwt>
</event>
<event>
 8    1  0.2682466E-027  0.2166786E+04  0.7818608E-02  0.8532381E-01
          2   -1    0    0  501    0  0.00000000000E+00  0.00000000000E+00  0.32366700074E+04  0.32366700074E+04  0.25500000000E-02 0.  1.
         -2   -1    0    0    0  501 -0.00000000000E+00 -0.00000000000E+00 -0.36263817501E+03  0.36263817502E+03  0.25500000000E-02 0. -1.
     200001    2    1    2    0    0 -0.15009976017E+03 -0.85634889071E+00  0.85951799001E+02  0.72078061717E+03  0.69971873992E+03 0.  0.
    5000001    2    3    3    0    0  0.66934180699E+02  0.27849304004E+02  0.40861861287E+02  0.17309380111E+03  0.15177616413E+03 0.  0.
        -13    1    4    4    0    0  0.70455017861E+02  0.14538379634E+02 -0.42415848751E+02  0.83512809877E+02  0.10566000000E+00 0. -1.
     200003    1    4    4    0    0 -0.35208371627E+01  0.13310924370E+02  0.83277710038E+02  0.89580991238E+02  0.30000000000E+02 0. -1.
     200000    1    3    3    0    0 -0.21703394087E+03 -0.28705652895E+02  0.45089937714E+02  0.54768681605E+03  0.50000000000E+03 0. -1.
    -200001    1    1    2    0    0  0.15009976017E+03  0.85634889071E+00  0.27880800334E+04  0.28785275653E+04  0.70000000000E+03 0.  1.
<mgrwt>
<rscale>  0 0.21667857E+04</rscale>
<asrwt>0</asrwt>
<pdfrwt beam="1">  1        2 0.46238145E+00 0.21667857E+04</pdfrwt>
<pdfrwt beam="2">  1       -2 0.51805452E-01 0.21667857E+04</pdfrwt>
<totfact> 0.55992384E+00</totfact>
</mgrwt>
</event>
<event>
 8    1  0.2682466E-027  0.1511674E+04  0.7818608E-02  0.8876727E-01
         -2   -1    0    0    0  501 -0.00000000000E+00  0.00000000000E+00  0.31337440737E+03  0.31337440738E+03  0.25500000000E-02 0. -1.
          2   -1    0    0  501    0  0.00000000000E+00 -0.00000000000E+00 -0.18230244095E+04  0.18230244095E+04  0.25500000000E-02 0.  1.
     200001    2    1    2    0    0  0.21419045713E+03  0.16527607450E+03 -0.63023558371E+03  0.98030044214E+03  0.70042725044E+03 0.  0.
    5000001    2    3    3    0    0 -0.34844062180E+02 -0.18511240876E+02 -0.10764216196E+03  0.19359855861E+03  0.15600253894E+03 0.  0.
        -13    1    4    4    0    0 -0.16882222755E+02  0.59674790682E+02 -0.85207430860E+01  0.62599555229E+02  0.10566000000E+00 0. -1.
     200003    1    4    4    0    0 -0.17961839425E+02 -0.78186031558E+02 -0.99121418875E+02  0.13099900338E+03  0.30000000000E+02 0. -1.
     200000    1    3    3    0    0  0.24903451931E+03  0.18378731537E+03 -0.52259342175E+03  0.78670188353E+03  0.50000000000E+03 0.  1.
    -200001    1    1    2    0    0 -0.21419045713E+03 -0.16527607450E+03 -0.87941441839E+03  0.11560983747E+04  0.70000000000E+03 0.  1.
<mgrwt>
<rscale>  0 0.15116735E+04</rscale>
<asrwt>0</asrwt>
<pdfrwt beam="1">  1        2 0.26043205E+00 0.15116735E+04</pdfrwt>
<pdfrwt beam="2">  1       -2 0.44767773E-01 0.15116735E+04</pdfrwt>
<totfact> 0.45289285E+01</totfact>
</mgrwt>
</event>
<event>
 8    1  0.2682466E-027  0.1575138E+04  0.7818608E-02  0.8835969E-01
          2   -1    0    0  501    0  0.00000000000E+00  0.00000000000E+00  0.15028668831E+04  0.15028668831E+04  0.25500000000E-02 0.  1.
         -2   -1    0    0    0  501 -0.00000000000E+00 -0.00000000000E+00 -0.41272107562E+03  0.41272107563E+03  0.25500000000E-02 0. -1.
     200001    2    1    2    0    0  0.35631620382E+03  0.51511997126E+02  0.58441231022E+03  0.97996993131E+03  0.69942018485E+03 0.  0.
    5000001    2    3    3    0    0  0.14174170319E+02  0.58896318792E+02  0.28669817375E+03  0.30487778475E+03  0.84172069773E+02 0.  0.
        -13    1    4    4    0    0  0.36460373150E+02  0.13267452791E+02  0.16686374913E+03  0.17131522423E+03  0.10566000000E+00 0. -1.
     200003    1    4    4    0    0 -0.22286202831E+02  0.45628866001E+02  0.11983442461E+03  0.13356256052E+03  0.30000000000E+02 0.  1.
     200000    1    3    3    0    0  0.34214203350E+03 -0.73843216665E+01  0.29771413647E+03  0.67509214656E+03  0.50000000000E+03 0. -1.
    -200001    1    1    2    0    0 -0.35631620382E+03 -0.51511997126E+02  0.50573349723E+03  0.93561802739E+03  0.70000000000E+03 0.  1.
<mgrwt>
<rscale>  0 0.15751379E+04</rscale>
<asrwt>0</asrwt>
<pdfrwt beam="1">  1        2 0.21469527E+00 0.15751379E+04</pdfrwt>
<pdfrwt beam="2">  1       -2 0.58960154E-01 0.15751379E+04</pdfrwt>
<totfact> 0.37679524E+01</totfact>
</mgrwt>
</event>
<event>
 8    1  0.2682466E-027  0.1445433E+04  0.7818608E-02  0.8921573E-01
          2   -1    0    0  501    0  0.00000000000E+00  0.00000000000E+00  0.12002379516E+04  0.12002379516E+04  0.25500000000E-02 0.  1.
         -2   -1    0    0    0  501 -0.00000000000E+00 -0.00000000000E+00 -0.43517938154E+03  0.43517938155E+03  0.25500000000E-02 0. -1.
     200001    2    1    2    0    0  0.20978149559E+02  0.37650106676E+02  0.58083712299E+03  0.91029999448E+03  0.69958323537E+03 0.  0.
    5000001    2    3    3    0    0  0.35041633178E+02 -0.53263553166E+02  0.24441473302E+03  0.30067461805E+03  0.16310040487E+03 0.  0.
        -13    1    4    4    0    0 -0.12892456058E+02  0.51765499297E+02  0.53454614594E+02  0.75520125305E+02  0.10566000000E+00 0. -1.
     200003    1    4    4    0    0  0.47934089235E+02 -0.10502905246E+03  0.19096011843E+03  0.22515449274E+03  0.30000000000E+02 0. -1.
     200000    1    3    3    0    0 -0.14063483619E+02  0.90913659841E+02  0.33642238997E+03  0.60962537643E+03  0.50000000000E+03 0.  1.
    -200001    1    1    2    0    0 -0.20978149559E+02 -0.37650106676E+02  0.18422144707E+03  0.72511733868E+03  0.70000000000E+03 0. -1.
<mgrwt>
<rscale>  0 0.14454325E+04</rscale>
<asrwt>0</asrwt>
<pdfrwt beam="1">  1        2 0.17146256E+00 0.14454325E+04</pdfrwt>
<pdfrwt beam="2">  1       -2 0.62168484E-01 0.14454325E+04</pdfrwt>
<totfact> 0.49849374E+01</totfact>
</mgrwt>
</event>
<event>
 8    1  0.2682466E-027  0.1805602E+04  0.7818608E-02  0.8703326E-01
         -2   -1    0    0    0  501 -0.00000000000E+00  0.00000000000E+00  0.24383996614E+03  0.24383996615E+03  0.25500000000E-02 0. -1.
          2   -1    0    0  501    0  0.00000000000E+00 -0.00000000000E+00 -0.33425583420E+04  0.33425583420E+04  0.25500000000E-02 0.  1.
     200001    2    1    2    0    0 -0.49958013735E+01  0.33045951823E+03 -0.62634796641E+03  0.99567564975E+03  0.69987839891E+03 0.  0.
    5000001    2    3    3    0    0 -0.99068213828E+01  0.13808339098E+02 -0.97109011760E+02  0.20170716267E+03  0.17597387297E+03 0.  0.
        -13    1    4    4    0    0  0.10395021527E+02  0.70521171937E+02 -0.11202337043E+03  0.13278003935E+03  0.10566000000E+00 0. -1.
     200003    1    4    4    0    0 -0.20301842910E+02 -0.56712832839E+02  0.14914358667E+02  0.68927123316E+02  0.30000000000E+02 0. -1.
     200000    1    3    3    0    0  0.49110200093E+01  0.31665117913E+03 -0.52923895465E+03  0.79396848709E+03  0.50000000000E+03 0. -1.
    -200001    1    1    2    0    0  0.49958013735E+01 -0.33045951823E+03 -0.24723704094E+04  0.25907226584E+04  0.70000000000E+03 0.  1.
<mgrwt>
<rscale>  0 0.18056016E+04</rscale>
<asrwt>0</asrwt>
<pdfrwt beam="1">  1        2 0.47750831E+00 0.18056016E+04</pdfrwt>
<pdfrwt beam="2">  1       -2 0.34834283E-01 0.18056016E+04</pdfrwt>
<totfact> 0.10989984E+01</totfact>
</mgrwt>
</event>
<event>
 8    1  0.2682466E-027  0.1405808E+04  0.7818608E-02  0.8949625E-01
          2   -1    0    0  501    0  0.00000000000E+00  0.00000000000E+00  0.32659390776E+04  0.32659390776E+04  0.25500000000E-02 0.  1.
         -2   -1    0    0    0  501 -0.00000000000E+00 -0.00000000000E+00 -0.15128077152E+03  0.15128077154E+03  0.25500000000E-02 0. -1.
     200001    2    1    2    0    0 -0.48605448857E+02  0.32552058230E+02  0.14839613819E+04  0.16416651232E+04  0.69964338611E+03 0.  0.
    5000001    2    3    3    0    0  0.35760096842E+02 -0.96995589472E+01  0.38695474836E+03  0.43239827986E+03  0.18937114135E+03 0.  0.
        -13    1    4    4    0    0  0.38950230970E+02 -0.59080683074E+02  0.41304101788E+02  0.81937095346E+02  0.10566000000E+00 0. -1.
     200003    1    4    4    0    0 -0.31901341275E+01  0.49381124127E+02  0.34565064657E+03  0.35046118451E+03  0.30000000000E+02 0. -1.
     200000    1    3    3    0    0 -0.84365545700E+02  0.42251617177E+02  0.10970066335E+04  0.12092668434E+04  0.50000000000E+03 0. -1.
    -200001    1    1    2    0    0  0.48605448857E+02 -0.32552058230E+02  0.16306969242E+04  0.17755547259E+04  0.70000000000E+03 0. -1.
<mgrwt>
<rscale>  0 0.14058076E+04</rscale>
<asrwt>0</asrwt>
<pdfrwt beam="1">  1        2 0.46656271E+00 0.14058076E+04</pdfrwt>
<pdfrwt beam="2">  1       -2 0.21611540E-01 0.14058076E+04</pdfrwt>
<totfact> 0.30431251E+01</totfact>
</mgrwt>
</event>
<event>
 8    1  0.2682466E-027  0.1464981E+04  0.7818608E-02  0.8908080E-01
         -2   -1    0    0    0  501 -0.00000000000E+00  0.00000000000E+00  0.38583404593E+03  0.38583404593E+03  0.25500000000E-02 0. -1.
          2   -1    0    0  501    0  0.00000000000E+00 -0.00000000000E+00 -0.13906037499E+04  0.13906037499E+04  0.25500000000E-02 0.  1.
     200001    2    1    2    0    0  0.12814576905E+03 -0.17145936904E+03 -0.44895066032E+03  0.85733254469E+03  0.69831421540E+03 0.  0.
    5000001    2    3    3    0    0  0.13970153275E+02 -0.11679709459E+03 -0.18570793181E+03  0.27826366312E+03  0.17060628297E+03 0.  0.
        -13    1    4    4    0    0  0.66687663206E+02 -0.39687995321E+00 -0.26093607247E+02  0.71612076082E+02  0.10566000000E+00 0. -1.
     200003    1    4    4    0    0 -0.52717509931E+02 -0.11640021464E+03 -0.15961432456E+03  0.20665158704E+03  0.30000000000E+02 0. -1.
     200000    1    3    3    0    0  0.11417561578E+03 -0.54662274446E+02 -0.26324272851E+03  0.57906888157E+03  0.50000000000E+03 0. -1.
    -200001    1    1    2    0    0 -0.12814576905E+03  0.17145936904E+03 -0.55581904360E+03  0.91910525110E+03  0.70000000000E+03 0. -1.
<mgrwt>
<rscale>  0 0.14649809E+04</rscale>
<asrwt>0</asrwt>
<pdfrwt beam="1">  1        2 0.19865768E+00 0.14649809E+04</pdfrwt>
<pdfrwt beam="2">  1       -2 0.55119150E-01 0.14649809E+04</pdfrwt>
<totfact> 0.50255018E+01</totfact>
</mgrwt>
</event>
<event>
 8    1  0.2682466E-027  0.2433252E+04  0.7818608E-02  0.8427158E-01
         -2   -1    0    0    0  501 -0.00000000000E+00  0.00000000000E+00  0.93318565029E+03  0.93318565029E+03  0.25500000000E-02 0. -1.
          2   -1    0    0  501    0  0.00000000000E+00 -0.00000000000E+00 -0.15861567198E+04  0.15861567198E+04  0.25500000000E-02 0.  1.
     200001    2    1    2    0    0 -0.31489469520E+03  0.64299819421E+03  0.38906326328E+03  0.10741984681E+04  0.69994769744E+03 0.  0.
    5000001    2    3    3    0    0 -0.84125163494E+02  0.11004952551E+03  0.47574248121E+02  0.23520883303E+03  0.18404332331E+03 0.  0.
        -13    1    4    4    0    0 -0.66101269818E+02  0.14526365086E+03  0.77312306310E+02  0.17733614973E+03  0.10566000000E+00 0. -1.
     200003    1    4    4    0    0 -0.18023893675E+02 -0.35214125346E+02 -0.29738058189E+02  0.57872683296E+02  0.30000000000E+02 0. -1.
     200000    1    3    3    0    0 -0.23076953170E+03  0.53294866870E+03  0.34148901516E+03  0.83898963504E+03  0.50000000000E+03 0. -1.
    -200001    1    1    2    0    0  0.31489469520E+03 -0.64299819421E+03 -0.10420343328E+04  0.14451439020E+04  0.70000000000E+03 0.  1.
<mgrwt>
<rscale>  0 0.24332519E+04</rscale>
<asrwt>0</asrwt>
<pdfrwt beam="1">  1        2 0.22659382E+00 0.24332519E+04</pdfrwt>
<pdfrwt beam="2">  1       -2 0.13331223E+00 0.24332519E+04</pdfrwt>
<totfact> 0.48365143E+00</totfact>
</mgrwt>
</event>
<event>
 8    1  0.2682466E-027  0.1551810E+04  0.7818608E-02  0.8850712E-01
         -2   -1    0    0    0  501 -0.00000000000E+00  0.00000000000E+00  0.32059870937E+03  0.32059870938E+03  0.25500000000E-02 0. -1.
          2   -1    0    0  501    0  0.00000000000E+00 -0.00000000000E+00 -0.18778261750E+04  0.18778261750E+04  0.25500000000E-02 0.  1.
     200001    2    1    2    0    0 -0.17968951093E+03  0.20454790151E+03 -0.10529480325E+04  0.12937559333E+04  0.70069728951E+03 0.  0.
    5000001    2    3    3    0    0 -0.40721248366E+02  0.32624379644E+02 -0.23567418640E+03  0.31049278702E+03  0.19529689818E+03 0.  0.
        -13    1    4    4    0    0  0.54379478757E+02 -0.34840510670E+02 -0.27891984679E+02  0.70348865428E+02  0.10566000000E+00 0. -1.
     200003    1    4    4    0    0 -0.95100727123E+02  0.67464890314E+02 -0.20778220172E+03  0.24014392159E+03  0.30000000000E+02 0. -1.
     200000    1    3    3    0    0 -0.13896826256E+03  0.17192352186E+03 -0.81727384610E+03  0.98326314631E+03  0.50000000000E+03 0.  1.
    -200001    1    1    2    0    0  0.17968951093E+03 -0.20454790151E+03 -0.50427943316E+03  0.90466895108E+03  0.70000000000E+03 0. -1.
<mgrwt>
<rscale>  0 0.15518101E+04</rscale>
<asrwt>0</asrwt>
<pdfrwt beam="1">  1        2 0.26826088E+00 0.15518101E+04</pdfrwt>
<pdfrwt beam="2">  1       -2 0.45799817E-01 0.15518101E+04</pdfrwt>
<totfact> 0.40421180E+01</totfact>
</mgrwt>
</event>
<event>
 8    1  0.2682466E-027  0.2462046E+04  0.7818608E-02  0.8416633E-01
          2   -1    0    0  501    0  0.00000000000E+00  0.00000000000E+00  0.16820851014E+04  0.16820851014E+04  0.25500000000E-02 0.  1.
         -2   -1    0    0    0  501 -0.00000000000E+00 -0.00000000000E+00 -0.90091606285E+03  0.90091606286E+03  0.25500000000E-02 0. -1.
     200001    2    1    2    0    0  0.36557749195E+03  0.14113465303E+03 -0.58929562041E+03  0.99500265219E+03  0.69942480419E+03 0.  0.
    5000001    2    3    3    0    0  0.90604537013E+02  0.66210603550E+02 -0.21728481199E+03  0.30971747015E+03  0.19005050814E+03 0.  0.
        -13    1    4    4    0    0 -0.51839293688E+00  0.90066661709E+02 -0.18493700942E+03  0.20570362393E+03  0.10566000000E+00 0. -1.
     200003    1    4    4    0    0  0.91122929950E+02 -0.23856058159E+02 -0.32347802571E+02  0.10401384622E+03  0.30000000000E+02 0. -1.
     200000    1    3    3    0    0  0.27497295493E+03  0.74924049484E+02 -0.37201080842E+03  0.68528518204E+03  0.50000000000E+03 0. -1.
    -200001    1    1    2    0    0 -0.36557749195E+03 -0.14113465303E+03  0.13704646590E+04  0.15879985121E+04  0.70000000000E+03 0.  1.
<mgrwt>
<rscale>  0 0.24620459E+04</rscale>
<asrwt>0</asrwt>
<pdfrwt beam="1">  1        2 0.24029787E+00 0.24620459E+04</pdfrwt>
<pdfrwt beam="2">  1       -2 0.12870229E+00 0.24620459E+04</pdfrwt>
<totfact> 0.46995457E+00</totfact>
</mgrwt>
</event>
<event>
 8    1  0.2682466E-027  0.1909215E+04  0.7818608E-02  0.8650283E-01
          2   -1    0    0  501    0  0.00000000000E+00  0.00000000000E+00  0.10849276875E+04  0.10849276875E+04  0.25500000000E-02 0.  1.
         -2   -1    0    0    0  501 -0.00000000000E+00 -0.00000000000E+00 -0.83994102649E+03  0.83994102649E+03  0.25500000000E-02 0. -1.
     200001    2    1    2    0    0  0.29217691982E+03 -0.39106830426E+02  0.70531190702E+03  0.10367268173E+04  0.70031486547E+03 0.  0.
    5000001    2    3    3    0    0  0.18462045879E+03  0.37969789112E+02  0.13972196684E+03  0.27030579850E+03  0.13422584697E+03 0.  0.
        -13    1    4    4    0    0 -0.19278548703E+02  0.18282536228E+01  0.12688603481E+01  0.19406857602E+02  0.10566000000E+00 0. -1.
     200003    1    4    4    0    0  0.20389900749E+03  0.36141535489E+02  0.13845310649E+03  0.25089894089E+03  0.30000000000E+02 0. -1.
     200000    1    3    3    0    0  0.10755646103E+03 -0.77076619539E+02  0.56558994018E+03  0.76642101878E+03  0.50000000000E+03 0.  1.
    -200001    1    1    2    0    0 -0.29217691982E+03  0.39106830426E+02 -0.46032524599E+03  0.88814189674E+03  0.70000000000E+03 0. -1.
<mgrwt>
<rscale>  0 0.19092148E+04</rscale>
<asrwt>0</asrwt>
<pdfrwt beam="1">  1        2 0.15498967E+00 0.19092148E+04</pdfrwt>
<pdfrwt beam="2">  1       -2 0.11999158E+00 0.19092148E+04</pdfrwt>
<totfact> 0.12442310E+01</totfact>
</mgrwt>
</event>
<event>
 8    1  0.2682466E-027  0.1792070E+04  0.7818608E-02  0.8710528E-01
         -2   -1    0    0    0  501 -0.00000000000E+00  0.00000000000E+00  0.12667166384E+04  0.12667166384E+04  0.25500000000E-02 0. -1.
          2   -1    0    0  501    0  0.00000000000E+00 -0.00000000000E+00 -0.63382682858E+03  0.63382682858E+03  0.25500000000E-02 0.  1.
     200001    2    1    2    0    0 -0.12917421477E+03  0.20783309238E+03  0.84966240966E+03  0.11279692426E+04  0.70036264165E+03 0.  0.
    5000001    2    3    3    0    0 -0.55395942274E+01  0.17226154123E+03  0.22628815666E+03  0.31855815178E+03  0.14341631890E+03 0.  0.
        -13    1    4    4    0    0 -0.54349173028E+02  0.60013031011E+02  0.32176742549E+02  0.87124912769E+02  0.10566000000E+00 0. -1.
     200003    1    4    4    0    0  0.48809578800E+02  0.11224851022E+03  0.19411141411E+03  0.23143323901E+03  0.30000000000E+02 0. -1.
     200000    1    3    3    0    0 -0.12363462054E+03  0.35571551150E+02  0.62337425300E+03  0.80941109082E+03  0.50000000000E+03 0. -1.
    -200001    1    1    2    0    0  0.12917421477E+03 -0.20783309238E+03 -0.21677259988E+03  0.77257422434E+03  0.70000000000E+03 0.  1.
<mgrwt>
<rscale>  0 0.17920703E+04</rscale>
<asrwt>0</asrwt>
<pdfrwt beam="1">  1        2 0.90546689E-01 0.17920703E+04</pdfrwt>
<pdfrwt beam="2">  1       -2 0.18095952E+00 0.17920703E+04</pdfrwt>
<totfact> 0.85908487E+00</totfact>
</mgrwt>
</event>
<event>
 8    1  0.2682466E-027  0.1451719E+04  0.7818608E-02  0.8917209E-01
         -2   -1    0    0    0  501 -0.00000000000E+00  0.00000000000E+00  0.43908468608E+03  0.43908468609E+03  0.25500000000E-02 0. -1.
          2   -1    0    0  501    0  0.00000000000E+00 -0.00000000000E+00 -0.11999330897E+04  0.11999330897E+04  0.25500000000E-02 0.  1.
     200001    2    1    2    0    0 -0.14952183601E+03  0.38249794597E+02 -0.25176305834E+03  0.75982057662E+03  0.70008774084E+03 0.  0.
    5000001    2    3    3    0    0 -0.33521386594E+01 -0.53995813489E+01 -0.17023273563E+03  0.23074776314E+03  0.15564367510E+03 0.  0.
        -13    1    4    4    0    0  0.48244201618E+02 -0.53274838131E+02 -0.11779438037E+03  0.13798999449E+03  0.10566000000E+00 0. -1.
     200003    1    4    4    0    0 -0.51596340278E+02  0.47875256782E+02 -0.52438355261E+02  0.92757768648E+02  0.30000000000E+02 0. -1.
     200000    1    3    3    0    0 -0.14616969735E+03  0.43649375946E+02 -0.81530322710E+02  0.52907281348E+03  0.50000000000E+03 0. -1.
    -200001    1    1    2    0    0  0.14952183601E+03 -0.38249794597E+02 -0.50908534525E+03  0.87919719914E+03  0.70000000000E+03 0. -1.
<mgrwt>
<rscale>  0 0.14517193E+04</rscale>
<asrwt>0</asrwt>
<pdfrwt beam="1">  1        2 0.17141901E+00 0.14517193E+04</pdfrwt>
<pdfrwt beam="2">  1       -2 0.62726384E-01 0.14517193E+04</pdfrwt>
<totfact> 0.48906744E+01</totfact>
</mgrwt>
</event>
<event>
 8    1  0.2682466E-027  0.1557540E+04  0.7818608E-02  0.8847066E-01
         -2   -1    0    0    0  501 -0.00000000000E+00  0.00000000000E+00  0.10766343619E+04  0.10766343619E+04  0.25500000000E-02 0. -1.
          2   -1    0    0  501    0  0.00000000000E+00 -0.00000000000E+00 -0.56331345241E+03  0.56331345242E+03  0.25500000000E-02 0.  1.
     200001    2    1    2    0    0 -0.19316548692E+03 -0.27925459393E+03  0.22181198247E+03  0.80912082384E+03  0.70012850138E+03 0.  0.
    5000001    2    3    3    0    0  0.33765920894E+01  0.40272361150E+02  0.25592589203E+02  0.15396564060E+03  0.14634607414E+03 0.  0.
        -13    1    4    4    0    0  0.40216622433E+02  0.10144828697E+02  0.70625778302E+02  0.81904248937E+02  0.10566000000E+00 0. -1.
     200003    1    4    4    0    0 -0.36840030344E+02  0.30127532453E+02 -0.45033189099E+02  0.72061391659E+02  0.30000000000E+02 0. -1.
     200000    1    3    3    0    0 -0.19654207901E+03 -0.31952695508E+03  0.19621939326E+03  0.65515518325E+03  0.50000000000E+03 0.  1.
    -200001    1    1    2    0    0  0.19316548692E+03  0.27925459393E+03  0.29150892702E+03  0.83082699047E+03  0.70000000000E+03 0. -1.
<mgrwt>
<rscale>  0 0.15575399E+04</rscale>
<asrwt>0</asrwt>
<pdfrwt beam="1">  1        2 0.80473352E-01 0.15575399E+04</pdfrwt>
<pdfrwt beam="2">  1       -2 0.15380491E+00 0.15575399E+04</pdfrwt>
<totfact> 0.15786080E+01</totfact>
</mgrwt>
</event>
<event>
 8    1  0.2682466E-027  0.2675068E+04  0.7818608E-02  0.8343140E-01
         -2   -1    0    0    0  501 -0.00000000000E+00  0.00000000000E+00  0.75147855924E+03  0.75147855924E+03  0.25500000000E-02 0. -1.
          2   -1    0    0  501    0  0.00000000000E+00 -0.00000000000E+00 -0.23806364176E+04  0.23806364176E+04  0.25500000000E-02 0.  1.
     200001    2    1    2    0    0 -0.42232143779E+02  0.30314234457E+03 -0.20992259425E+04  0.22350961148E+04  0.70372313423E+03 0.  0.
    5000001    2    3    3    0    0  0.58327036070E+01  0.15747012963E+03 -0.56631422275E+03  0.61542054101E+03  0.18220807130E+03 0.  0.
        -13    1    4    4    0    0  0.82297998623E+01  0.18428246789E+03 -0.52993976133E+03  0.56112736467E+03  0.10566000000E+00 0. -1.
     200003    1    4    4    0    0 -0.23970962553E+01 -0.26812338260E+02 -0.36374461420E+02  0.54293176339E+02  0.30000000000E+02 0. -1.
     200000    1    3    3    0    0 -0.48064847386E+02  0.14567221494E+03 -0.15329117197E+04  0.16196755738E+04  0.50000000000E+03 0.  1.
    -200001    1    1    2    0    0  0.42232143779E+02 -0.30314234457E+03  0.47006808418E+03  0.89701886201E+03  0.70000000000E+03 0. -1.
<mgrwt>
<rscale>  0 0.26750680E+04</rscale>
<asrwt>0</asrwt>
<pdfrwt beam="1">  1        2 0.34009091E+00 0.26750680E+04</pdfrwt>
<pdfrwt beam="2">  1       -2 0.10735408E+00 0.26750680E+04</pdfrwt>
<totfact> 0.31401470E+00</totfact>
</mgrwt>
</event>
<event>
 8    1  0.2682466E-027  0.1468824E+04  0.7818608E-02  0.8905454E-01
          2   -1    0    0  501    0  0.00000000000E+00  0.00000000000E+00  0.15805952150E+04  0.15805952150E+04  0.25500000000E-02 0.  1.
         -2   -1    0    0    0  501 -0.00000000000E+00 -0.00000000000E+00 -0.34123904923E+03  0.34123904924E+03  0.25500000000E-02 0. -1.
     200001    2    1    2    0    0 -0.19605306035E+03 -0.91259600432E+02  0.54951033993E+03  0.91552795869E+03  0.69961754717E+03 0.  0.
    5000001    2    3    3    0    0 -0.25402818759E+02 -0.68452337833E+02  0.27974753715E+03  0.32188358202E+03  0.14148968189E+03 0.  0.
        -13    1    4    4    0    0 -0.41116108302E+02  0.32638969118E+02  0.86773439175E+02  0.10141734357E+03  0.10566000000E+00 0. -1.
     200003    1    4    4    0    0  0.15713289543E+02 -0.10109130695E+03  0.19297409797E+03  0.22046623845E+03  0.30000000000E+02 0. -1.
     200000    1    3    3    0    0 -0.17065024159E+03 -0.22807262599E+02  0.26976280279E+03  0.59364437667E+03  0.50000000000E+03 0.  1.
    -200001    1    1    2    0    0  0.19605306035E+03  0.91259600432E+02  0.68984582582E+03  0.10063063055E+04  0.70000000000E+03 0.  1.
<mgrwt>
<rscale>  0 0.14688238E+04</rscale>
<asrwt>0</asrwt>
<pdfrwt beam="1">  1        2 0.22579932E+00 0.14688238E+04</pdfrwt>
<pdfrwt beam="2">  1       -2 0.48748435E-01 0.14688238E+04</pdfrwt>
<totfact> 0.51183065E+01</totfact>
</mgrwt>
</event>
<event>
 8    1  0.2682466E-027  0.1842501E+04  0.7818608E-02  0.8684019E-01
         -2   -1    0    0    0  501 -0.00000000000E+00  0.00000000000E+00  0.98799744997E+03  0.98799744997E+03  0.25500000000E-02 0. -1.
          2   -1    0    0  501    0  0.00000000000E+00 -0.00000000000E+00 -0.85901240125E+03  0.85901240125E+03  0.25500000000E-02 0.  1.
     200001    2    1    2    0    0  0.35052035298E+03 -0.48227303766E+03  0.50726740778E+01  0.91921349571E+03  0.69962555555E+03 0.  0.
    5000001    2    3    3    0    0  0.21825207165E+02 -0.14446074377E+03  0.46414680248E+02  0.23083365416E+03  0.17258217518E+03 0.  0.
        -13    1    4    4    0    0  0.33161339680E+02 -0.17123855880E+03  0.88417574257E+01  0.17464394151E+03  0.10566000000E+00 0. -1.
     200003    1    4    4    0    0 -0.11336132516E+02  0.26777815026E+02  0.37572922823E+02  0.56189712647E+02  0.30000000000E+02 0. -1.
     200000    1    3    3    0    0  0.32869514581E+03 -0.33781229389E+03 -0.41342006170E+02  0.68837984156E+03  0.50000000000E+03 0.  1.
    -200001    1    1    2    0    0 -0.35052035298E+03  0.48227303766E+03  0.12391237464E+03  0.92779635551E+03  0.70000000000E+03 0.  1.
<mgrwt>
<rscale>  0 0.18425005E+04</rscale>
<asrwt>0</asrwt>
<pdfrwt beam="1">  1        2 0.12271606E+00 0.18425005E+04</pdfrwt>
<pdfrwt beam="2">  1       -2 0.14114249E+00 0.18425005E+04</pdfrwt>
<totfact> 0.11489212E+01</totfact>
</mgrwt>
</event>
<event>
 8    1  0.2682466E-027  0.2193671E+04  0.7818608E-02  0.8521067E-01
          2   -1    0    0  501    0  0.00000000000E+00  0.00000000000E+00  0.21445595563E+04  0.21445595563E+04  0.25500000000E-02 0.  1.
         -2   -1    0    0    0  501 -0.00000000000E+00 -0.00000000000E+00 -0.56097652465E+03  0.56097652466E+03  0.25500000000E-02 0. -1.
     200001    2    1    2    0    0  0.72226399323E+03  0.49471874665E+02  0.25528652407E+03  0.10386574548E+04  0.69966088694E+03 0.  0.
    5000001    2    3    3    0    0  0.14202399841E+03  0.10338044644E+03  0.12950137498E+02  0.23347951796E+03  0.15325353639E+03 0.  0.
        -13    1    4    4    0    0  0.17205110996E+02  0.97084810603E+02  0.31751196975E+02  0.10358390786E+03  0.10566000000E+00 0. -1.
     200003    1    4    4    0    0  0.12481888741E+03  0.62956358338E+01 -0.18801059477E+02  0.12989561010E+03  0.30000000000E+02 0. -1.
     200000    1    3    3    0    0  0.58023999483E+03 -0.53908571772E+02  0.24233638657E+03  0.80517793683E+03  0.50000000000E+03 0. -1.
    -200001    1    1    2    0    0 -0.72226399323E+03 -0.49471874665E+02  0.13282965076E+04  0.16668786262E+04  0.70000000000E+03 0.  1.
<mgrwt>
<rscale>  0 0.21936705E+04</rscale>
<asrwt>0</asrwt>
<pdfrwt beam="1">  1        2 0.30636565E+00 0.21936705E+04</pdfrwt>
<pdfrwt beam="2">  1       -2 0.80139503E-01 0.21936705E+04</pdfrwt>
<totfact> 0.85457016E+00</totfact>
</mgrwt>
</event>
<event>
 8    1  0.2682466E-027  0.1615778E+04  0.7818608E-02  0.8810913E-01
         -2   -1    0    0    0  501 -0.00000000000E+00  0.00000000000E+00  0.33679754022E+03  0.33679754023E+03  0.25500000000E-02 0. -1.
          2   -1    0    0  501    0  0.00000000000E+00 -0.00000000000E+00 -0.19379128561E+04  0.19379128561E+04  0.25500000000E-02 0.  1.
     200001    2    1    2    0    0  0.12416778401E+03  0.21111633272E+03 -0.35018794502E+03  0.82047278449E+03  0.70039720782E+03 0.  0.
    5000001    2    3    3    0    0 -0.31818487035E+02 -0.80354548954E+02 -0.75432188594E+02  0.16109602019E+03  0.11310456661E+03 0.  0.
        -13    1    4    4    0    0  0.21059321581E+02 -0.73946593268E+02 -0.22179360420E+02  0.80022052424E+02  0.10566000000E+00 0. -1.
     200003    1    4    4    0    0 -0.52877808615E+02 -0.64079556858E+01 -0.53252828174E+02  0.81073967762E+02  0.30000000000E+02 0. -1.
     200000    1    3    3    0    0  0.15598627105E+03  0.29147088167E+03 -0.27475575643E+03  0.65937676431E+03  0.50000000000E+03 0. -1.
    -200001    1    1    2    0    0 -0.12416778401E+03 -0.21111633272E+03 -0.12509273709E+04  0.14542376119E+04  0.70000000000E+03 0.  1.
<mgrwt>
<rscale>  0 0.16157776E+04</rscale>
<asrwt>0</asrwt>
<pdfrwt beam="1">  1        2 0.27684469E+00 0.16157776E+04</pdfrwt>
<pdfrwt beam="2">  1       -2 0.48113935E-01 0.16157776E+04</pdfrwt>
<totfact> 0.33917063E+01</totfact>
</mgrwt>
</event>
<event>
 8    1  0.2682466E-027  0.2029560E+04  0.7818608E-02  0.8592924E-01
          2   -1    0    0  501    0  0.00000000000E+00  0.00000000000E+00  0.10357927775E+04  0.10357927775E+04  0.25500000000E-02 0.  1.
         -2   -1    0    0    0  501 -0.00000000000E+00 -0.00000000000E+00 -0.99419330843E+03  0.99419330843E+03  0.25500000000E-02 0. -1.
     200001    2    1    2    0    0 -0.46677153365E+02 -0.66819019394E+03 -0.28321923962E+03  0.10081426119E+04  0.69819875132E+03 0.  0.
    5000001    2    3    3    0    0 -0.38433122606E+02 -0.13456049551E+03 -0.40406651589E+02  0.23756713087E+03  0.18767475139E+03 0.  0.
        -13    1    4    4    0    0 -0.22278710696E+02  0.44675336892E+02 -0.20759443827E+02  0.54066554807E+02  0.10566000000E+00 0. -1.
     200003    1    4    4    0    0 -0.16154411910E+02 -0.17923583240E+03 -0.19647207762E+02  0.18350057606E+03  0.30000000000E+02 0. -1.
     200000    1    3    3    0    0 -0.82440307598E+01 -0.53362969843E+03 -0.24281258803E+03  0.77057548105E+03  0.50000000000E+03 0. -1.
    -200001    1    1    2    0    0  0.46677153365E+02  0.66819019394E+03  0.32481870874E+03  0.10218434741E+04  0.70000000000E+03 0.  1.
<mgrwt>
<rscale>  0 0.20295598E+04</rscale>
<asrwt>0</asrwt>
<pdfrwt beam="1">  1        2 0.14797040E+00 0.20295598E+04</pdfrwt>
<pdfrwt beam="2">  1       -2 0.14202761E+00 0.20295598E+04</pdfrwt>
<totfact> 0.85948884E+00</totfact>
</mgrwt>
</event>
<event>
 8    1  0.2682466E-027  0.1570503E+04  0.7818608E-02  0.8838877E-01
         -2   -1    0    0    0  501 -0.00000000000E+00  0.00000000000E+00  0.12281975176E+04  0.12281975176E+04  0.25500000000E-02 0. -1.
          2   -1    0    0  501    0  0.00000000000E+00 -0.00000000000E+00 -0.50205253912E+03  0.50205253913E+03  0.25500000000E-02 0.  1.
     200001    2    1    2    0    0 -0.64295552662E+02 -0.13495126516E+03  0.71869111491E+03  0.10144279264E+04  0.70014379754E+03 0.  0.
    5000001    2    3    3    0    0 -0.10229273201E+03 -0.85168549288E+02  0.29248260376E+03  0.35444626047E+03  0.14956133608E+03 0.  0.
        -13    1    4    4    0    0  0.35936453900E+02 -0.28710354060E+02  0.48594617474E+02  0.66911592124E+02  0.10566000000E+00 0. -1.
     200003    1    4    4    0    0 -0.13822918591E+03 -0.56458195229E+02  0.24388798629E+03  0.28753466835E+03  0.30000000000E+02 0. -1.
     200000    1    3    3    0    0  0.37997179352E+02 -0.49782715870E+02  0.42620851115E+03  0.65998166597E+03  0.50000000000E+03 0. -1.
    -200001    1    1    2    0    0  0.64295552662E+02  0.13495126516E+03  0.74538635191E+01  0.71582213024E+03  0.70000000000E+03 0.  1.
<mgrwt>
<rscale>  0 0.15705027E+04</rscale>
<asrwt>0</asrwt>
<pdfrwt beam="1">  1        2 0.71721790E-01 0.15705027E+04</pdfrwt>
<pdfrwt beam="2">  1       -2 0.17545679E+00 0.15705027E+04</pdfrwt>
<totfact> 0.12541629E+01</totfact>
</mgrwt>
</event>
<event>
 8    1  0.2682466E-027  0.1672807E+04  0.7818608E-02  0.8777027E-01
         -2   -1    0    0    0  501 -0.00000000000E+00  0.00000000000E+00  0.15238206686E+04  0.15238206686E+04  0.25500000000E-02 0. -1.
          2   -1    0    0  501    0  0.00000000000E+00 -0.00000000000E+00 -0.45908979294E+03  0.45908979295E+03  0.25500000000E-02 0.  1.
     200001    2    1    2    0    0 -0.16745052722E+02  0.34729028908E+03  0.88437140922E+03  0.11807755110E+04  0.70087593502E+03 0.  0.
    5000001    2    3    3    0    0 -0.15275180065E+02  0.62388521777E+02  0.11219985181E+03  0.21774898407E+03  0.17521459568E+03 0.  0.
        -13    1    4    4    0    0 -0.25360714167E+02 -0.20382048962E+02  0.12413987662E+03  0.12833282461E+03  0.10566000000E+00 0. -1.
     200003    1    4    4    0    0  0.10085534102E+02  0.82770570739E+02 -0.11940024806E+02  0.89416159451E+02  0.30000000000E+02 0. -1.
     200000    1    3    3    0    0 -0.14698726573E+01  0.28490176730E+03  0.77217155741E+03  0.96302652695E+03  0.50000000000E+03 0. -1.
    -200001    1    1    2    0    0  0.16745052722E+02 -0.34729028908E+03  0.18035946640E+03  0.80213495049E+03  0.70000000000E+03 0.  1.
<mgrwt>
<rscale>  0 0.16728066E+04</rscale>
<asrwt>0</asrwt>
<pdfrwt beam="1">  1        2 0.65584257E-01 0.16728066E+04</pdfrwt>
<pdfrwt beam="2">  1       -2 0.21768867E+00 0.16728066E+04</pdfrwt>
<totfact> 0.72289760E+00</totfact>
</mgrwt>
</event>
<event>
 8    1  0.2682466E-027  0.1568345E+04  0.7818608E-02  0.8840234E-01
         -2   -1    0    0    0  501 -0.00000000000E+00  0.00000000000E+00  0.74857787828E+03  0.74857787829E+03  0.25500000000E-02 0. -1.
          2   -1    0    0  501    0  0.00000000000E+00 -0.00000000000E+00 -0.82145945912E+03  0.82145945912E+03  0.25500000000E-02 0.  1.
     200001    2    1    2    0    0  0.16334210700E+03 -0.10582043006E+03 -0.33227931551E+03  0.79856744681E+03  0.69958688971E+03 0.  0.
    5000001    2    3    3    0    0  0.48725451073E+02 -0.33677232640E+02 -0.11772407924E+03  0.23787540285E+03  0.19803389323E+03 0.  0.
        -13    1    4    4    0    0  0.43881407511E+02  0.14463213456E+02 -0.16027457200E+03  0.16680141505E+03  0.10566000000E+00 0. -1.
     200003    1    4    4    0    0  0.48440435614E+01 -0.48140446097E+02  0.42550492761E+02  0.71073987806E+02  0.30000000000E+02 0. -1.
     200000    1    3    3    0    0  0.11461665593E+03 -0.72143197417E+02 -0.21455523627E+03  0.56069204396E+03  0.50000000000E+03 0.  1.
    -200001    1    1    2    0    0 -0.16334210700E+03  0.10582043006E+03  0.25939773467E+03  0.77146989059E+03  0.70000000000E+03 0. -1.
<mgrwt>
<rscale>  0 0.15683448E+04</rscale>
<asrwt>0</asrwt>
<pdfrwt beam="1">  1        2 0.11735135E+00 0.15683448E+04</pdfrwt>
<pdfrwt beam="2">  1       -2 0.10693970E+00 0.15683448E+04</pdfrwt>
<totfact> 0.24889437E+01</totfact>
</mgrwt>
</event>
<event>
 8    1  0.2682466E-027  0.1573991E+04  0.7818608E-02  0.8836688E-01
          2   -1    0    0  501    0  0.00000000000E+00  0.00000000000E+00  0.25815128931E+04  0.25815128931E+04  0.25500000000E-02 0.  1.
         -2   -1    0    0    0  501 -0.00000000000E+00 -0.00000000000E+00 -0.23992210192E+03  0.23992210194E+03  0.25500000000E-02 0. -1.
     200001    2    1    2    0    0 -0.27075046260E+03 -0.15371908755E+03  0.86680071888E+03  0.11595261142E+04  0.70443023244E+03 0.  0.
    5000001    2    3    3    0    0 -0.61033427445E+02 -0.54097923713E+02  0.45727709023E+02  0.17055366835E+03  0.14263893508E+03 0.  0.
        -13    1    4    4    0    0  0.18154137064E+01  0.26714376171E+02 -0.29634437192E+02  0.39939512426E+02  0.10566000000E+00 0. -1.
     200003    1    4    4    0    0 -0.62848841151E+02 -0.80812299884E+02  0.75362146215E+02  0.13061415593E+03  0.30000000000E+02 0. -1.
     200000    1    3    3    0    0 -0.20971703515E+03 -0.99621163841E+02  0.82107300986E+03  0.98897244585E+03  0.50000000000E+03 0. -1.
    -200001    1    1    2    0    0  0.27075046260E+03  0.15371908755E+03  0.14747900723E+04  0.16619088808E+04  0.70000000000E+03 0.  1.
<mgrwt>
<rscale>  0 0.15739911E+04</rscale>
<asrwt>0</asrwt>
<pdfrwt beam="1">  1        2 0.36878752E+00 0.15739911E+04</pdfrwt>
<pdfrwt beam="2">  1       -2 0.34274589E-01 0.15739911E+04</pdfrwt>
<totfact> 0.30674661E+01</totfact>
</mgrwt>
</event>
<event>
 8    1  0.2682466E-027  0.1415192E+04  0.7818608E-02  0.8942895E-01
          2   -1    0    0  501    0  0.00000000000E+00  0.00000000000E+00  0.42675064705E+03  0.42675064705E+03  0.25500000000E-02 0.  1.
         -2   -1    0    0    0  501 -0.00000000000E+00 -0.00000000000E+00 -0.11732660619E+04  0.11732660619E+04  0.25500000000E-02 0. -1.
     200001    2    1    2    0    0 -0.64957829460E+02  0.68272981745E+02 -0.32799974425E+03  0.77901970155E+03  0.70029075642E+03 0.  0.
    5000001    2    3    3    0    0 -0.32924003482E+02 -0.11915829909E+02 -0.98349896123E+02  0.22206776084E+03  0.19599849828E+03 0.  0.
        -13    1    4    4    0    0  0.31814899385E+02 -0.36965781468E+02  0.40872285417E+02  0.63633416549E+02  0.10566000000E+00 0. -1.
     200003    1    4    4    0    0 -0.64738902867E+02  0.25049951558E+02 -0.13922218154E+03  0.15843434429E+03  0.30000000000E+02 0. -1.
     200000    1    3    3    0    0 -0.32033825978E+02  0.80188811655E+02 -0.22964984813E+03  0.55695194072E+03  0.50000000000E+03 0.  1.
    -200001    1    1    2    0    0  0.64957829460E+02 -0.68272981745E+02 -0.41851567062E+03  0.82099700743E+03  0.70000000000E+03 0. -1.
<mgrwt>
<rscale>  0 0.14151919E+04</rscale>
<asrwt>0</asrwt>
<pdfrwt beam="1">  1        2 0.60964379E-01 0.14151919E+04</pdfrwt>
<pdfrwt beam="2">  1       -2 0.16760944E+00 0.14151919E+04</pdfrwt>
<totfact> 0.17341788E+01</totfact>
</mgrwt>
</event>
<event>
 8    1  0.2682466E-027  0.1656525E+04  0.7818608E-02  0.8786556E-01
         -2   -1    0    0    0  501 -0.00000000000E+00  0.00000000000E+00  0.47149338230E+03  0.47149338230E+03  0.25500000000E-02 0. -1.
          2   -1    0    0  501    0  0.00000000000E+00 -0.00000000000E+00 -0.14549908358E+04  0.14549908358E+04  0.25500000000E-02 0.  1.
     200001    2    1    2    0    0 -0.95246479675E+02  0.28097498424E+03 -0.10991101768E+03  0.76839437076E+03  0.70023613413E+03 0.  0.
    5000001    2    3    3    0    0 -0.30804938731E+02  0.92105796725E+02 -0.60418477718E+02  0.22777084768E+03  0.19696889237E+03 0.  0.
        -13    1    4    4    0    0  0.37831598480E+02 -0.23518192324E+02 -0.77052863702E+02  0.89002753791E+02  0.10566000000E+00 0. -1.
     200003    1    4    4    0    0 -0.68636537211E+02  0.11562398905E+03  0.16634385984E+02  0.13876809389E+03  0.30000000000E+02 0. -1.
     200000    1    3    3    0    0 -0.64441540944E+02  0.18886918752E+03 -0.49492539966E+02  0.54062352308E+03  0.50000000000E+03 0. -1.
    -200001    1    1    2    0    0  0.95246479675E+02 -0.28097498424E+03 -0.87358643577E+03  0.11580898473E+04  0.70000000000E+03 0.  1.
<mgrwt>
<rscale>  0 0.16565247E+04</rscale>
<asrwt>0</asrwt>
<pdfrwt beam="1">  1        2 0.20785583E+00 0.16565247E+04</pdfrwt>
<pdfrwt beam="2">  1       -2 0.67356198E-01 0.16565247E+04</pdfrwt>
<totfact> 0.29893357E+01</totfact>
</mgrwt>
</event>
<event>
 8    1  0.2682466E-027  0.1922160E+04  0.7818608E-02  0.8643904E-01
         -2   -1    0    0    0  501 -0.00000000000E+00  0.00000000000E+00  0.97870575772E+03  0.97870575773E+03  0.25500000000E-02 0. -1.
          2   -1    0    0  501    0  0.00000000000E+00 -0.00000000000E+00 -0.94377186039E+03  0.94377186039E+03  0.25500000000E-02 0.  1.
     200001    2    1    2    0    0 -0.61578657993E+03 -0.23441028986E+03  0.12599355010E+01  0.96056533951E+03  0.69895843083E+03 0.  0.
    5000001    2    3    3    0    0 -0.13635138025E+03 -0.21321944643E+02  0.85934584453E+01  0.23577672611E+03  0.19097249233E+03 0.  0.
        -13    1    4    4    0    0 -0.33859525013E+02  0.25312731714E+02  0.86034966423E+02  0.95860463343E+02  0.10566000000E+00 0. -1.
     200003    1    4    4    0    0 -0.10249185524E+03 -0.46634676357E+02 -0.77441507978E+02  0.13991626277E+03  0.30000000000E+02 0. -1.
     200000    1    3    3    0    0 -0.47943519968E+03 -0.21308834522E+03 -0.73335229443E+01  0.72478861340E+03  0.50000000000E+03 0.  1.
    -200001    1    1    2    0    0  0.61578657993E+03  0.23441028986E+03  0.33673961837E+02  0.96191227860E+03  0.70000000000E+03 0. -1.
<mgrwt>
<rscale>  0 0.19221602E+04</rscale>
<asrwt>0</asrwt>
<pdfrwt beam="1">  1        2 0.13482455E+00 0.19221602E+04</pdfrwt>
<pdfrwt beam="2">  1       -2 0.13981511E+00 0.19221602E+04</pdfrwt>
<totfact> 0.10300975E+01</totfact>
</mgrwt>
</event>
<event>
 8    1  0.2682466E-027  0.1475719E+04  0.7818608E-02  0.8900762E-01
          2   -1    0    0  501    0  0.00000000000E+00  0.00000000000E+00  0.17366407787E+04  0.17366407787E+04  0.25500000000E-02 0.  1.
         -2   -1    0    0    0  501 -0.00000000000E+00 -0.00000000000E+00 -0.31349967703E+03  0.31349967704E+03  0.25500000000E-02 0. -1.
     200001    2    1    2    0    0  0.27568704156E+02 -0.95505785648E+02  0.41837733173E+03  0.82155117451E+03  0.70001810841E+03 0.  0.
    5000001    2    3    3    0    0 -0.17475700683E+02 -0.10582222426E+03  0.16515109416E+03  0.25918211890E+03  0.16851333359E+03 0.  0.
        -13    1    4    4    0    0 -0.83075944240E+01 -0.14717096804E+03  0.11438187990E+03  0.18657849709E+03  0.10566000000E+00 0. -1.
     200003    1    4    4    0    0 -0.91681062594E+01  0.41348743788E+02  0.50769214252E+02  0.72603621817E+02  0.30000000000E+02 0. -1.
     200000    1    3    3    0    0  0.45044404840E+02  0.10316438608E+02  0.25322623757E+03  0.56236905561E+03  0.50000000000E+03 0. -1.
    -200001    1    1    2    0    0 -0.27568704156E+02  0.95505785648E+02  0.10047637699E+04  0.12285892812E+04  0.70000000000E+03 0.  1.
<mgrwt>
<rscale>  0 0.14757186E+04</rscale>
<asrwt>0</asrwt>
<pdfrwt beam="1">  1        2 0.24809154E+00 0.14757186E+04</pdfrwt>
<pdfrwt beam="2">  1       -2 0.44785669E-01 0.14757186E+04</pdfrwt>
<totfact> 0.50293964E+01</totfact>
</mgrwt>
</event>
<event>
 8    1  0.2682466E-027  0.1589965E+04  0.7818608E-02  0.8826737E-01
          2   -1    0    0  501    0  0.00000000000E+00  0.00000000000E+00  0.10207604494E+04  0.10207604494E+04  0.25500000000E-02 0.  1.
         -2   -1    0    0    0  501 -0.00000000000E+00 -0.00000000000E+00 -0.61914312299E+03  0.61914312299E+03  0.25500000000E-02 0. -1.
     200001    2    1    2    0    0 -0.13560678241E+03 -0.13059510127E+03  0.53553342154E+03  0.90276193036E+03  0.70195354363E+03 0.  0.
    5000001    2    3    3    0    0 -0.11220445641E+03 -0.95979610627E+02  0.23014835836E+03  0.31538986951E+03  0.15716417289E+03 0.  0.
        -13    1    4    4    0    0 -0.67817016410E+02 -0.61926159128E+02  0.17527372202E+02  0.93494474914E+02  0.10566000000E+00 0. -1.
     200003    1    4    4    0    0 -0.44387440004E+02 -0.34053451499E+02  0.21262098616E+03  0.22189539460E+03  0.30000000000E+02 0. -1.
     200000    1    3    3    0    0 -0.23402325994E+02 -0.34615490644E+02  0.30538506317E+03  0.58737206085E+03  0.50000000000E+03 0.  1.
    -200001    1    1    2    0    0  0.13560678241E+03  0.13059510127E+03 -0.13391609511E+03  0.73714164205E+03  0.70000000000E+03 0. -1.
<mgrwt>
<rscale>  0 0.15899645E+04</rscale>
<asrwt>0</asrwt>
<pdfrwt beam="1">  1        2 0.14582292E+00 0.15899645E+04</pdfrwt>
<pdfrwt beam="2">  1       -2 0.88449018E-01 0.15899645E+04</pdfrwt>
<totfact> 0.28858248E+01</totfact>
</mgrwt>
</event>
<event>
 8    1  0.2682466E-027  0.1929744E+04  0.7818608E-02  0.8640191E-01
         -2   -1    0    0    0  501 -0.00000000000E+00  0.00000000000E+00  0.40504428423E+03  0.40504428424E+03  0.25500000000E-02 0. -1.
          2   -1    0    0  501    0  0.00000000000E+00 -0.00000000000E+00 -0.22984600986E+04  0.22984600986E+04  0.25500000000E-02 0.  1.
     200001    2    1    2    0    0 -0.40392474636E+03  0.31082232753E+02 -0.16838406382E+04  0.18680146699E+04  0.70002728969E+03 0.  0.
    5000001    2    3    3    0    0 -0.12638732764E+03  0.42951475199E+02 -0.50118660563E+03  0.55430295937E+03  0.19556372695E+03 0.  0.
        -13    1    4    4    0    0 -0.57290633802E+02  0.11088688449E+03 -0.19290686616E+03  0.22976333052E+03  0.10566000000E+00 0. -1.
     200003    1    4    4    0    0 -0.69096693840E+02 -0.67935409286E+02 -0.30827973946E+03  0.32453962886E+03  0.30000000000E+02 0. -1.
     200000    1    3    3    0    0 -0.27753741872E+03 -0.11869242445E+02 -0.11826540326E+04  0.13137117106E+04  0.50000000000E+03 0.  1.
    -200001    1    1    2    0    0  0.40392474636E+03 -0.31082232753E+02 -0.20957517618E+03  0.83548971292E+03  0.70000000000E+03 0. -1.
<mgrwt>
<rscale>  0 0.19297442E+04</rscale>
<asrwt>0</asrwt>
<pdfrwt beam="1">  1        2 0.32835144E+00 0.19297442E+04</pdfrwt>
<pdfrwt beam="2">  1       -2 0.57863470E-01 0.19297442E+04</pdfrwt>
<totfact> 0.14735654E+01</totfact>
</mgrwt>
</event>
<event>
 8    1  0.2682466E-027  0.1778092E+04  0.7818608E-02  0.8718038E-01
          2   -1    0    0  501    0  0.00000000000E+00  0.00000000000E+00  0.35016930721E+04  0.35016930721E+04  0.25500000000E-02 0.  1.
         -2   -1    0    0    0  501 -0.00000000000E+00 -0.00000000000E+00 -0.22572012943E+03  0.22572012945E+03  0.25500000000E-02 0. -1.
     200001    2    1    2    0    0 -0.40092264555E+03 -0.67109250254E+01  0.85489285741E+03  0.11754702587E+04  0.70007465833E+03 0.  0.
    5000001    2    3    3    0    0 -0.14263658939E+03 -0.18761776769E+02  0.26487044184E+03  0.36000513946E+03  0.19685057424E+03 0.  0.
        -13    1    4    4    0    0  0.10824936645E+02 -0.57865532772E+02  0.11917015867E+02  0.60063512781E+02  0.10566000000E+00 0. -1.
     200003    1    4    4    0    0 -0.15346152604E+03  0.39103756003E+02  0.25295342597E+03  0.29994162668E+03  0.30000000000E+02 0. -1.
     200000    1    3    3    0    0 -0.25828605616E+03  0.12050851744E+02  0.59002241557E+03  0.81546511925E+03  0.50000000000E+03 0. -1.
    -200001    1    1    2    0    0  0.40092264555E+03  0.67109250254E+01  0.24210800852E+04  0.25519429428E+04  0.70000000000E+03 0.  1.
<mgrwt>
<rscale>  0 0.17780918E+04</rscale>
<asrwt>0</asrwt>
<pdfrwt beam="1">  1        2 0.50024184E+00 0.17780918E+04</pdfrwt>
<pdfrwt beam="2">  1       -2 0.32245735E-01 0.17780918E+04</pdfrwt>
<totfact> 0.10239221E+01</totfact>
</mgrwt>
</event>
<event>
 8    1  0.2682466E-027  0.2264957E+04  0.7818608E-02  0.8491867E-01
          2   -1    0    0  501    0  0.00000000000E+00  0.00000000000E+00  0.28260470683E+04  0.28260470683E+04  0.25500000000E-02 0.  1.
         -2   -1    0    0    0  501 -0.00000000000E+00 -0.00000000000E+00 -0.45381690702E+03  0.45381690702E+03  0.25500000000E-02 0. -1.
     200001    2    1    2    0    0  0.75981130854E+03 -0.31027930823E+03  0.16851555349E+04  0.20009355114E+04  0.70029084678E+03 0.  0.
    5000001    2    3    3    0    0  0.33664972347E+03 -0.19212709559E+03  0.56512880555E+03  0.69805963588E+03  0.13293167872E+03 0.  0.
        -13    1    4    4    0    0  0.27710403562E+03 -0.20029940968E+03  0.45672485269E+03  0.57052966820E+03  0.10566000000E+00 0. -1.
     200003    1    4    4    0    0  0.59545687852E+02  0.81723140830E+01  0.10840395286E+03  0.12752996768E+03  0.30000000000E+02 0. -1.
     200000    1    3    3    0    0  0.42316158508E+03 -0.11815221263E+03  0.11200267294E+04  0.13028758755E+04  0.50000000000E+03 0.  1.
    -200001    1    1    2    0    0 -0.75981130854E+03  0.31027930823E+03  0.68707462634E+03  0.12789284639E+04  0.70000000000E+03 0. -1.
<mgrwt>
<rscale>  0 0.22649573E+04</rscale>
<asrwt>0</asrwt>
<pdfrwt beam="1">  1        2 0.40372100E+00 0.22649573E+04</pdfrwt>
<pdfrwt beam="2">  1       -2 0.64830988E-01 0.22649573E+04</pdfrwt>
<totfact> 0.59049545E+00</totfact>
</mgrwt>
</event>
<event>
 8    1  0.2682466E-027  0.1610602E+04  0.7818608E-02  0.8814061E-01
          2   -1    0    0  501    0  0.00000000000E+00  0.00000000000E+00  0.73679307864E+03  0.73679307864E+03  0.25500000000E-02 0. -1.
         -2   -1    0    0    0  501 -0.00000000000E+00 -0.00000000000E+00 -0.88017852772E+03  0.88017852773E+03  0.25500000000E-02 0.  1.
     200001    2    1    2    0    0 -0.23549990805E+03 -0.12528859899E+03 -0.36137630001E+03  0.83679377355E+03  0.70602659264E+03 0.  0.
    5000001    2    3    3    0    0 -0.12455756700E+03  0.10100897858E+03 -0.11239338987E+03  0.22400401662E+03  0.10875717966E+03 0.  0.
        -13    1    4    4    0    0 -0.98404702503E+02  0.87012200163E+02 -0.35130965797E+02  0.13597354292E+03  0.10566000000E+00 0. -1.
     200003    1    4    4    0    0 -0.26152864492E+02  0.13996778416E+02 -0.77262424071E+02  0.88030473704E+02  0.30000000000E+02 0. -1.
     200000    1    3    3    0    0 -0.11094234106E+03 -0.22629757757E+03 -0.24898291015E+03  0.61278975693E+03  0.50000000000E+03 0. -1.
    -200001    1    1    2    0    0  0.23549990805E+03  0.12528859899E+03  0.21799085093E+03  0.78017783282E+03  0.70000000000E+03 0. -1.
<mgrwt>
<rscale>  0 0.16106017E+04</rscale>
<asrwt>0</asrwt>
<pdfrwt beam="1">  1        2 0.10525615E+00 0.16106017E+04</pdfrwt>
<pdfrwt beam="2">  1       -2 0.12573979E+00 0.16106017E+04</pdfrwt>
<totfact> 0.19154168E+01</totfact>
</mgrwt>
</event>
<event>
 8    1  0.2682466E-027  0.1722552E+04  0.7818608E-02  0.8748606E-01
         -2   -1    0    0    0  501 -0.00000000000E+00  0.00000000000E+00  0.19936883895E+04  0.19936883895E+04  0.25500000000E-02 0.  1.
          2   -1    0    0  501    0  0.00000000000E+00 -0.00000000000E+00 -0.37207238403E+03  0.37207238404E+03  0.25500000000E-02 0. -1.
     200001    2    1    2    0    0 -0.42173025105E+03 -0.13266885640E+03  0.11369242713E+04  0.14063945727E+04  0.69992247096E+03 0.  0.
    5000001    2    3    3    0    0 -0.92883471286E+02 -0.12313258068E+03  0.52901880912E+03  0.55329422921E+03  0.49846083320E+02 0.  0.
        -13    1    4    4    0    0  0.33247913144E+00 -0.17322202843E+02  0.43528673134E+02  0.46850035246E+02  0.10566000000E+00 0. -1.
     200003    1    4    4    0    0 -0.93215950417E+02 -0.10581037783E+03  0.48549013598E+03  0.50644419397E+03  0.30000000000E+02 0. -1.
     200000    1    3    3    0    0 -0.32884677976E+03 -0.95362757280E+01  0.60790546221E+03  0.85310034351E+03  0.50000000000E+03 0. -1.
    -200001    1    1    2    0    0  0.42173025105E+03  0.13266885640E+03  0.48469173413E+03  0.95936620080E+03  0.70000000000E+03 0.  1.
<mgrwt>
<rscale>  0 0.17225521E+04</rscale>
<asrwt>0</asrwt>
<pdfrwt beam="1">  1        2 0.53153196E-01 0.17225521E+04</pdfrwt>
<pdfrwt beam="2">  1       -2 0.28481263E+00 0.17225521E+04</pdfrwt>
<totfact> 0.35204359E+00</totfact>
</mgrwt>
</event>
<event>
 8    1  0.2682466E-027  0.2101660E+04  0.7818608E-02  0.8560512E-01
          2   -1    0    0  501    0  0.00000000000E+00  0.00000000000E+00  0.11350180618E+04  0.11350180618E+04  0.25500000000E-02 0.  1.
         -2   -1    0    0    0  501 -0.00000000000E+00 -0.00000000000E+00 -0.97288685820E+03  0.97288685820E+03  0.25500000000E-02 0. -1.
     200001    2    1    2    0    0 -0.63914546024E+03  0.44205755066E+03  0.18216481793E+03  0.10618059079E+04  0.70023279540E+03 0.  0.
    5000001    2    3    3    0    0 -0.22330803043E+03  0.11385147151E+03  0.68741343629E+02  0.32457807139E+03  0.19441429496E+03 0.  0.
        -13    1    4    4    0    0 -0.18399237316E+02  0.31685990849E+02 -0.57738231888E+02  0.68383101242E+02  0.10566000000E+00 0. -1.
     200003    1    4    4    0    0 -0.20490879311E+03  0.82165480664E+02  0.12647957552E+03  0.25619497015E+03  0.30000000000E+02 0. -1.
     200000    1    3    3    0    0 -0.41583742980E+03  0.32820607914E+03  0.11342347430E+03  0.73722783652E+03  0.50000000000E+03 0. -1.
    -200001    1    1    2    0    0  0.63914546024E+03 -0.44205755066E+03 -0.20033614320E+02  0.10460990121E+04  0.70000000000E+03 0. -1.
<mgrwt>
<rscale>  0 0.21016604E+04</rscale>
<asrwt>0</asrwt>
<pdfrwt beam="1">  1        2 0.16214544E+00 0.21016604E+04</pdfrwt>
<pdfrwt beam="2">  1       -2 0.13898384E+00 0.21016604E+04</pdfrwt>
<totfact> 0.78927976E+00</totfact>
</mgrwt>
</event>
<event>
 8    1  0.2682466E-027  0.2983886E+04  0.7818608E-02  0.8248347E-01
         -2   -1    0    0    0  501 -0.00000000000E+00  0.00000000000E+00  0.18018920934E+04  0.18018920934E+04  0.25500000000E-02 0. -1.
          2   -1    0    0  501    0  0.00000000000E+00 -0.00000000000E+00 -0.12353092975E+04  0.12353092975E+04  0.25500000000E-02 0.  1.
     200001    2    1    2    0    0 -0.43720707700E+03 -0.10814337765E+04 -0.34134077283E+03  0.14016665402E+04  0.69821667517E+03 0.  0.
    5000001    2    3    3    0    0 -0.87944874428E+02 -0.37706472229E+03 -0.22532933841E+02  0.41690347786E+03  0.15293355098E+03 0.  0.
        -13    1    4    4    0    0 -0.12476688400E+03 -0.30792195116E+03 -0.13193201606E+02  0.33250078960E+03  0.10566000000E+00 0. -1.
     200003    1    4    4    0    0  0.36822009574E+02 -0.69142771126E+02 -0.93397322349E+01  0.84402688264E+02  0.30000000000E+02 0. -1.
     200000    1    3    3    0    0 -0.34926220257E+03 -0.70436905424E+03 -0.31880783899E+03  0.98476306232E+03  0.50000000000E+03 0. -1.
    -200001    1    1    2    0    0  0.43720707700E+03  0.10814337765E+04  0.90792356879E+03  0.16355348507E+04  0.70000000000E+03 0.  1.
<mgrwt>
<rscale>  0 0.29838861E+04</rscale>
<asrwt>0</asrwt>
<pdfrwt beam="1">  1        2 0.17647276E+00 0.29838861E+04</pdfrwt>
<pdfrwt beam="2">  1       -2 0.25741315E+00 0.29838861E+04</pdfrwt>
<totfact> 0.10192189E+00</totfact>
</mgrwt>
</event>
<event>
 8    1  0.2682466E-027  0.1457089E+04  0.7818608E-02  0.8913501E-01
          2   -1    0    0  501    0  0.00000000000E+00  0.00000000000E+00  0.48220691599E+04  0.48220691599E+04  0.25500000000E-02 0.  1.
         -2   -1    0    0    0  501 -0.00000000000E+00 -0.00000000000E+00 -0.11007249007E+03  0.11007249010E+03  0.25500000000E-02 0. -1.
     200001    2    1    2    0    0 -0.17841772623E+02  0.18804472477E+03  0.25879558324E+04  0.26877645368E+04  0.70063090661E+03 0.  0.
    5000001    2    3    3    0    0 -0.69594201790E+02 -0.17356094651E+02  0.32082153117E+03  0.35650613188E+03  0.13793324568E+03 0.  0.
        -13    1    4    4    0    0 -0.10010108379E+03 -0.10160221215E+02  0.27756986189E+03  0.29524311417E+03  0.10566000000E+00 0. -1.
     200003    1    4    4    0    0  0.30506881999E+02 -0.71958734358E+01  0.43251669282E+02  0.61263017714E+02  0.30000000000E+02 0. -1.
     200000    1    3    3    0    0  0.51752429167E+02  0.20540081942E+03  0.22671343012E+04  0.23312584049E+04  0.50000000000E+03 0.  1.
    -200001    1    1    2    0    0  0.17841772623E+02 -0.18804472477E+03  0.21240408375E+04  0.22443771133E+04  0.70000000000E+03 0. -1.
<mgrwt>
<rscale>  0 0.14570891E+04</rscale>
<asrwt>0</asrwt>
<pdfrwt beam="1">  1        2 0.68886708E+00 0.14570891E+04</pdfrwt>
<pdfrwt beam="2">  1       -2 0.15724640E-01 0.14570891E+04</pdfrwt>
<totfact> 0.42294372E+00</totfact>
</mgrwt>
</event>
<event>
 8    1  0.2682466E-027  0.1600581E+04  0.7818608E-02  0.8820191E-01
          2   -1    0    0  501    0  0.00000000000E+00  0.00000000000E+00  0.25281700333E+04  0.25281700333E+04  0.25500000000E-02 0.  1.
         -2   -1    0    0    0  501 -0.00000000000E+00 -0.00000000000E+00 -0.25333137392E+03  0.25333137393E+03  0.25500000000E-02 0. -1.
     200001    2    1    2    0    0 -0.26503155337E+03  0.89395607586E+02  0.15960099556E+04  0.17670844772E+04  0.70505777929E+03 0.  0.
    5000001    2    3    3    0    0 -0.84368363980E+02  0.67930689269E+02  0.49097323572E+03  0.54062368163E+03  0.19871247458E+03 0.  0.
        -13    1    4    4    0    0 -0.13273060490E+03  0.27689258123E+02  0.41917014936E+03  0.44055389429E+03  0.10566000000E+00 0. -1.
     200003    1    4    4    0    0  0.48362240918E+02  0.40241431146E+02  0.71803086363E+02  0.10006978734E+03  0.30000000000E+02 0. -1.
     200000    1    3    3    0    0 -0.18066318939E+03  0.21464918317E+02  0.11050367199E+04  0.12264607955E+04  0.50000000000E+03 0.  1.
    -200001    1    1    2    0    0  0.26503155337E+03 -0.89395607586E+02  0.67882870379E+03  0.10144169301E+04  0.70000000000E+03 0.  1.
<mgrwt>
<rscale>  0 0.16005809E+04</rscale>
<asrwt>0</asrwt>
<pdfrwt beam="1">  1        2 0.36116715E+00 0.16005809E+04</pdfrwt>
<pdfrwt beam="2">  1       -2 0.36190196E-01 0.16005809E+04</pdfrwt>
<totfact> 0.29432994E+01</totfact>
</mgrwt>
</event>
<event>
 8    1  0.2682466E-027  0.1734188E+04  0.7818608E-02  0.8742103E-01
         -2   -1    0    0    0  501 -0.00000000000E+00  0.00000000000E+00  0.37419375106E+03  0.37419375107E+03  0.25500000000E-02 0. -1.
          2   -1    0    0  501    0  0.00000000000E+00 -0.00000000000E+00 -0.20092574964E+04  0.20092574964E+04  0.25500000000E-02 0.  1.
     200001    2    1    2    0    0  0.11747323183E+03  0.49317286575E+03 -0.91188052569E+03  0.12565025331E+04  0.70018075291E+03 0.  0.
    5000001    2    3    3    0    0 -0.90399893702E+02  0.69675853514E+02 -0.26068932729E+03  0.30960711509E+03  0.12194578717E+03 0.  0.
        -13    1    4    4    0    0 -0.47741234255E+02 -0.96820276890E+01 -0.17516020449E+03  0.18180779826E+03  0.10566000000E+00 0. -1.
     200003    1    4    4    0    0 -0.42658659448E+02  0.79357881203E+02 -0.85529122795E+02  0.12779931683E+03  0.30000000000E+02 0. -1.
     200000    1    3    3    0    0  0.20787312553E+03  0.42349701224E+03 -0.65119119840E+03  0.94689541797E+03  0.50000000000E+03 0. -1.
    -200001    1    1    2    0    0 -0.11747323183E+03 -0.49317286575E+03 -0.72318321964E+03  0.11269487144E+04  0.70000000000E+03 0.  1.
<mgrwt>
<rscale>  0 0.17341875E+04</rscale>
<asrwt>0</asrwt>
<pdfrwt beam="1">  1        2 0.28703678E+00 0.17341875E+04</pdfrwt>
<pdfrwt beam="2">  1       -2 0.53456251E-01 0.17341875E+04</pdfrwt>
<totfact> 0.24899025E+01</totfact>
</mgrwt>
</event>
<event>
 8    1  0.2682466E-027  0.2238685E+04  0.7818608E-02  0.8502497E-01
         -2   -1    0    0    0  501 -0.00000000000E+00  0.00000000000E+00  0.65807265128E+03  0.65807265129E+03  0.25500000000E-02 0. -1.
          2   -1    0    0  501    0  0.00000000000E+00 -0.00000000000E+00 -0.19039344105E+04  0.19039344105E+04  0.25500000000E-02 0.  1.
     200001    2    1    2    0    0  0.79506668462E+03  0.24304311083E+03 -0.92953055023E+03  0.14300766662E+04  0.69992231049E+03 0.  0.
    5000001    2    3    3    0    0  0.11696534912E+03  0.14713395416E+02 -0.67074531476E+02  0.20297183596E+03  0.15100065073E+03 0.  0.
        -13    1    4    4    0    0  0.12851725022E+03 -0.28087673997E+02 -0.22814540370E+02  0.13351447656E+03  0.10566000000E+00 0. -1.
     200003    1    4    4    0    0 -0.11551901099E+02  0.42801069413E+02 -0.44259991106E+02  0.69457359398E+02  0.30000000000E+02 0. -1.
     200000    1    3    3    0    0  0.67810133550E+03  0.22832971541E+03 -0.86245601876E+03  0.12271048303E+04  0.50000000000E+03 0.  1.
    -200001    1    1    2    0    0 -0.79506668462E+03 -0.24304311083E+03 -0.31633120903E+03  0.11319303956E+04  0.70000000000E+03 0.  1.
<mgrwt>
<rscale>  0 0.22386846E+04</rscale>
<asrwt>0</asrwt>
<pdfrwt beam="1">  1        2 0.27199063E+00 0.22386846E+04</pdfrwt>
<pdfrwt beam="2">  1       -2 0.94010380E-01 0.22386846E+04</pdfrwt>
<totfact> 0.78645052E+00</totfact>
</mgrwt>
</event>
<event>
 8    1  0.2682466E-027  0.1650510E+04  0.7818608E-02  0.8790105E-01
          2   -1    0    0  501    0  0.00000000000E+00  0.00000000000E+00  0.19896222552E+04  0.19896222552E+04  0.25500000000E-02 0.  1.
         -2   -1    0    0    0  501 -0.00000000000E+00 -0.00000000000E+00 -0.34229894057E+03  0.34229894058E+03  0.25500000000E-02 0. -1.
     200001    2    1    2    0    0 -0.53895373334E+02  0.20437921454E+03  0.28353325438E+03  0.78447203571E+03  0.70023545602E+03 0.  0.
    5000001    2    3    3    0    0  0.37110460964E+00  0.10610668030E+03  0.95888845132E+02  0.23874979323E+03  0.19117538498E+03 0.  0.
        -13    1    4    4    0    0  0.14888164144E+02  0.20542309349E+02  0.13614400975E+03  0.13848771230E+03  0.10566000000E+00 0. -1.
     200003    1    4    4    0    0 -0.14517059534E+02  0.85564370950E+02 -0.40255164615E+02  0.10026208093E+03  0.30000000000E+02 0. -1.
     200000    1    3    3    0    0 -0.54266477944E+02  0.98272534246E+02  0.18764440925E+03  0.54572224248E+03  0.50000000000E+03 0. -1.
    -200001    1    1    2    0    0  0.53895373334E+02 -0.20437921454E+03  0.13637900603E+04  0.15474491601E+04  0.70000000000E+03 0.  1.
<mgrwt>
<rscale>  0 0.16505097E+04</rscale>
<asrwt>0</asrwt>
<pdfrwt beam="1">  1        2 0.28423174E+00 0.16505097E+04</pdfrwt>
<pdfrwt beam="2">  1       -2 0.48899851E-01 0.16505097E+04</pdfrwt>
<totfact> 0.30787424E+01</totfact>
</mgrwt>
</event>
<event>
 8    1  0.2682466E-027  0.1744804E+04  0.7818608E-02  0.8736216E-01
         -2   -1    0    0    0  501 -0.00000000000E+00  0.00000000000E+00  0.47173396715E+03  0.47173396716E+03  0.25500000000E-02 0. -1.
          2   -1    0    0  501    0  0.00000000000E+00 -0.00000000000E+00 -0.16133781710E+04  0.16133781710E+04  0.25500000000E-02 0.  1.
     200001    2    1    2    0    0 -0.11885299801E+03  0.33294266584E+03 -0.11615713808E+03  0.79414328650E+03  0.70156555282E+03 0.  0.
    5000001    2    3    3    0    0  0.73970621886E+02  0.48716686596E+02 -0.15379938439E+02  0.17922752021E+03  0.15505158187E+03 0.  0.
        -13    1    4    4    0    0  0.71143261003E+02  0.11756756797E+02 -0.74226338738E+02  0.10348500105E+03  0.10566000000E+00 0. -1.
     200003    1    4    4    0    0  0.28273608826E+01  0.36959929799E+02  0.58846400299E+02  0.75742519158E+02  0.30000000000E+02 0. -1.
     200000    1    3    3    0    0 -0.19282361989E+03  0.28422597924E+03 -0.10077719964E+03  0.61491576629E+03  0.50000000000E+03 0. -1.
    -200001    1    1    2    0    0  0.11885299801E+03 -0.33294266584E+03 -0.10254870658E+04  0.12909688517E+04  0.70000000000E+03 0.  1.
<mgrwt>
<rscale>  0 0.17448040E+04</rscale>
<asrwt>0</asrwt>
<pdfrwt beam="1">  1        2 0.23048259E+00 0.17448040E+04</pdfrwt>
<pdfrwt beam="2">  1       -2 0.67390567E-01 0.17448040E+04</pdfrwt>
<totfact> 0.24443562E+01</totfact>
</mgrwt>
</event>
<event>
 8    1  0.2682466E-027  0.1568741E+04  0.7818608E-02  0.8839985E-01
         -2   -1    0    0    0  501 -0.00000000000E+00  0.00000000000E+00  0.17693286614E+03  0.17693286616E+03  0.25500000000E-02 0. -1.
          2   -1    0    0  501    0  0.00000000000E+00 -0.00000000000E+00 -0.34772352723E+04  0.34772352723E+04  0.25500000000E-02 0.  1.
     200001    2    1    2    0    0  0.14326597654E+02  0.18956682078E+03 -0.94969275487E+03  0.11941871296E+04  0.69858839170E+03 0.  0.
    5000001    2    3    3    0    0 -0.50580160770E+02 -0.33194162577E+01 -0.33678627340E+03  0.37744216165E+03  0.16269056595E+03 0.  0.
        -13    1    4    4    0    0  0.52512372525E+02  0.16589765628E+02 -0.69247263971E+02  0.88475783824E+02  0.10566000000E+00 0. -1.
     200003    1    4    4    0    0 -0.10309253330E+03 -0.19909181885E+02 -0.26753900943E+03  0.28896637782E+03  0.30000000000E+02 0. -1.
     200000    1    3    3    0    0  0.64906758424E+02  0.19288623704E+03 -0.61290648147E+03  0.81674496800E+03  0.50000000000E+03 0. -1.
    -200001    1    1    2    0    0 -0.14326597654E+02 -0.18956682078E+03 -0.23506096513E+04  0.24599810088E+04  0.70000000000E+03 0.  1.
<mgrwt>
<rscale>  0 0.15687412E+04</rscale>
<asrwt>0</asrwt>
<pdfrwt beam="1">  1        2 0.49674785E+00 0.15687412E+04</pdfrwt>
<pdfrwt beam="2">  1       -2 0.25276126E-01 0.15687412E+04</pdfrwt>
<totfact> 0.16955146E+01</totfact>
</mgrwt>
</event>
<event>
 8    1  0.2682466E-027  0.1762408E+04  0.7818608E-02  0.8726550E-01
          2   -1    0    0  501    0  0.00000000000E+00  0.00000000000E+00  0.18340866883E+04  0.18340866883E+04  0.25500000000E-02 0.  1.
         -2   -1    0    0    0  501 -0.00000000000E+00 -0.00000000000E+00 -0.42338262142E+03  0.42338262143E+03  0.25500000000E-02 0. -1.
     200001    2    1    2    0    0 -0.60201283966E+02 -0.20819860083E+03  0.13323071993E+04  0.15205046424E+04  0.69994359937E+03 0.  0.
    5000001    2    3    3    0    0  0.33576096528E+02 -0.78514153327E+02  0.34206756928E+03  0.39970725757E+03  0.18831846236E+03 0.  0.
        -13    1    4    4    0    0 -0.67235600216E+02 -0.15932062596E+02  0.57345419487E+02  0.89794013470E+02  0.10566000000E+00 0. -1.
     200003    1    4    4    0    0  0.10081169674E+03 -0.62582090731E+02  0.28472214980E+03  0.30991324410E+03  0.30000000000E+02 0. -1.
     200000    1    3    3    0    0 -0.93777380494E+02 -0.12968444750E+03  0.99023963001E+03  0.11207973848E+04  0.50000000000E+03 0.  1.
    -200001    1    1    2    0    0  0.60201283966E+02  0.20819860083E+03  0.78396867536E+02  0.73696466728E+03  0.70000000000E+03 0. -1.
<mgrwt>
<rscale>  0 0.17624079E+04</rscale>
<asrwt>0</asrwt>
<pdfrwt beam="1">  1        2 0.26201239E+00 0.17624079E+04</pdfrwt>
<pdfrwt beam="2">  1       -2 0.60483230E-01 0.17624079E+04</pdfrwt>
<totfact> 0.23622702E+01</totfact>
</mgrwt>
</event>
<event>
 8    1  0.2682466E-027  0.1924318E+04  0.7818608E-02  0.8642846E-01
          2   -1    0    0  501    0  0.00000000000E+00  0.00000000000E+00  0.71531516122E+03  0.71531516122E+03  0.25500000000E-02 0. -1.
         -2   -1    0    0    0  501 -0.00000000000E+00 -0.00000000000E+00 -0.12941844098E+04  0.12941844098E+04  0.25500000000E-02 0.  1.
     200001    2    1    2    0    0 -0.64117095090E+03 -0.15942653608E+03 -0.27378132588E+03  0.99974928047E+03  0.69858814814E+03 0.  0.
    5000001    2    3    3    0    0 -0.18357571877E+03 -0.40351187317E+02 -0.72170526632E+02  0.28265845670E+03  0.19839091560E+03 0.  0.
        -13    1    4    4    0    0  0.17443954696E+02 -0.18044230288E+02 -0.74045634521E+02  0.78183457059E+02  0.10566000000E+00 0. -1.
     200003    1    4    4    0    0 -0.20101967346E+03 -0.22306957030E+02  0.18751078892E+01  0.20447499965E+03  0.30000000000E+02 0. -1.
     200000    1    3    3    0    0 -0.45759523213E+03 -0.11907534877E+03 -0.20161079925E+03  0.71709082377E+03  0.50000000000E+03 0. -1.
    -200001    1    1    2    0    0  0.64117095090E+03  0.15942653608E+03 -0.30508792270E+03  0.10097502905E+04  0.70000000000E+03 0. -1.
<mgrwt>
<rscale>  0 0.19243178E+04</rscale>
<asrwt>0</asrwt>
<pdfrwt beam="1">  1        2 0.10218788E+00 0.19243178E+04</pdfrwt>
<pdfrwt beam="2">  1       -2 0.18488349E+00 0.19243178E+04</pdfrwt>
<totfact> 0.68937409E+00</totfact>
</mgrwt>
</event>
<event>
 8    1  0.2682466E-027  0.1744047E+04  0.7818608E-02  0.8736634E-01
          2   -1    0    0  501    0  0.00000000000E+00  0.00000000000E+00  0.78070219243E+03  0.78070219243E+03  0.25500000000E-02 0. -1.
         -2   -1    0    0    0  501 -0.00000000000E+00 -0.00000000000E+00 -0.97402695139E+03  0.97402695139E+03  0.25500000000E-02 0.  1.
     200001    2    1    2    0    0 -0.30031704924E+03 -0.40577350000E+03  0.22670067810E+02  0.86506840592E+03  0.70213029530E+03 0.  0.
    5000001    2    3    3    0    0 -0.44515791232E+02 -0.10521811423E+03  0.39024378361E+02  0.22785942373E+03  0.19324727072E+03 0.  0.
        -13    1    4    4    0    0  0.47222449280E+02 -0.93374127025E+02 -0.29715811546E+02  0.10877374653E+03  0.10566000000E+00 0. -1.
     200003    1    4    4    0    0 -0.91738240512E+02 -0.11843987210E+02  0.68740189907E+02  0.11908567720E+03  0.30000000000E+02 0. -1.
     200000    1    3    3    0    0 -0.25580125801E+03 -0.30055538577E+03 -0.16354310552E+02  0.63720898219E+03  0.50000000000E+03 0.  1.
    -200001    1    1    2    0    0  0.30031704924E+03  0.40577350000E+03 -0.21599482677E+03  0.88966073790E+03  0.70000000000E+03 0.  1.
<mgrwt>
<rscale>  0 0.17440470E+04</rscale>
<asrwt>0</asrwt>
<pdfrwt beam="1">  1        2 0.11152888E+00 0.17440470E+04</pdfrwt>
<pdfrwt beam="2">  1       -2 0.13914671E+00 0.17440470E+04</pdfrwt>
<totfact> 0.13608979E+01</totfact>
</mgrwt>
</event>
<event>
 8    1  0.2682466E-027  0.2726693E+04  0.7818608E-02  0.8326396E-01
         -2   -1    0    0    0  501 -0.00000000000E+00  0.00000000000E+00  0.78824655343E+03  0.78824655343E+03  0.25500000000E-02 0. -1.
          2   -1    0    0  501    0  0.00000000000E+00 -0.00000000000E+00 -0.23580362097E+04  0.23580362097E+04  0.25500000000E-02 0.  1.
     200001    2    1    2    0    0  0.31801595432E+03 -0.10186772150E+04 -0.13379691872E+04  0.18491404635E+04  0.70022959965E+03 0.  0.
    5000001    2    3    3    0    0  0.72593342938E+02 -0.17259486660E+03 -0.33964139765E+03  0.42690772098E+03  0.17842405057E+03 0.  0.
        -13    1    4    4    0    0 -0.42253214799E+02 -0.14281445036E+02 -0.13530868406E+03  0.14247015470E+03  0.10566000000E+00 0. -1.
     200003    1    4    4    0    0  0.11484655774E+03 -0.15831342156E+03 -0.20433271359E+03  0.28443756628E+03  0.30000000000E+02 0. -1.
     200000    1    3    3    0    0  0.24542261138E+03 -0.84608234840E+03 -0.99832778958E+03  0.14222327425E+04  0.50000000000E+03 0.  1.
    -200001    1    1    2    0    0 -0.31801595432E+03  0.10186772150E+04 -0.23182046901E+03  0.12971422996E+04  0.70000000000E+03 0. -1.
<mgrwt>
<rscale>  0 0.27266932E+04</rscale>
<asrwt>0</asrwt>
<pdfrwt beam="1">  1        2 0.33686231E+00 0.27266932E+04</pdfrwt>
<pdfrwt beam="2">  1       -2 0.11260665E+00 0.27266932E+04</pdfrwt>
<totfact> 0.28626510E+00</totfact>
</mgrwt>
</event>
<event>
 8    1  0.2682466E-027  0.2207855E+04  0.7818608E-02  0.8515166E-01
         -2   -1    0    0    0  501 -0.00000000000E+00  0.00000000000E+00  0.82978171858E+03  0.82978171859E+03  0.25500000000E-02 0. -1.
          2   -1    0    0  501    0  0.00000000000E+00 -0.00000000000E+00 -0.14686468243E+04  0.14686468243E+04  0.25500000000E-02 0.  1.
     200001    2    1    2    0    0 -0.31603431278E+03 -0.15835683652E+03 -0.11284423362E+04  0.13739608911E+04  0.69959406063E+03 0.  0.
    5000001    2    3    3    0    0 -0.11670467127E+03 -0.12152580126E+03 -0.22892047418E+03  0.32504315774E+03  0.15767044817E+03 0.  0.
        -13    1    4    4    0    0  0.31994522766E+02 -0.60694498526E+01 -0.68673384689E+02  0.76003504112E+02  0.10566000000E+00 0. -1.
     200003    1    4    4    0    0 -0.14869919404E+03 -0.11545635141E+03 -0.16024708949E+03  0.24903965363E+03  0.30000000000E+02 0. -1.
     200000    1    3    3    0    0 -0.19932964151E+03 -0.36831035260E+02 -0.89952186205E+03  0.10489177334E+04  0.50000000000E+03 0.  1.
    -200001    1    1    2    0    0  0.31603431278E+03  0.15835683652E+03  0.48957723050E+03  0.92446765176E+03  0.70000000000E+03 0. -1.
<mgrwt>
<rscale>  0 0.22078553E+04</rscale>
<asrwt>0</asrwt>
<pdfrwt beam="1">  1        2 0.20980669E+00 0.22078553E+04</pdfrwt>
<pdfrwt beam="2">  1       -2 0.11854025E+00 0.22078553E+04</pdfrwt>
<totfact> 0.76357013E+00</totfact>
</mgrwt>
</event>
<event>
 8    1  0.2682466E-027  0.1632706E+04  0.7818608E-02  0.8800703E-01
          2   -1    0    0  501    0  0.00000000000E+00  0.00000000000E+00  0.12508460550E+04  0.12508460550E+04  0.25500000000E-02 0.  1.
         -2   -1    0    0    0  501 -0.00000000000E+00 -0.00000000000E+00 -0.53278545795E+03  0.53278545796E+03  0.25500000000E-02 0. -1.
     200001    2    1    2    0    0 -0.39402881269E+03 -0.13507255682E+03  0.30173171187E+03  0.86884572302E+03  0.70024821573E+03 0.  0.
    5000001    2    3    3    0    0 -0.70303789696E+02  0.23242871868E+02  0.16651439592E+03  0.23785809398E+03  0.15286129296E+03 0.  0.
        -13    1    4    4    0    0 -0.62052336799E+02 -0.27390263738E+02  0.76705590128E+01  0.68261026138E+02  0.10566000000E+00 0. -1.
     200003    1    4    4    0    0 -0.82514528967E+01  0.50633135606E+02  0.15884383691E+03  0.16959706784E+03  0.30000000000E+02 0. -1.
     200000    1    3    3    0    0 -0.32372502299E+03 -0.15831542869E+03  0.13521731594E+03  0.63098762904E+03  0.50000000000E+03 0.  1.
    -200001    1    1    2    0    0  0.39402881269E+03  0.13507255682E+03  0.41632888518E+03  0.91478578994E+03  0.70000000000E+03 0.  1.
<mgrwt>
<rscale>  0 0.16327065E+04</rscale>
<asrwt>0</asrwt>
<pdfrwt beam="1">  1        2 0.17869229E+00 0.16327065E+04</pdfrwt>
<pdfrwt beam="2">  1       -2 0.76112208E-01 0.16327065E+04</pdfrwt>
<totfact> 0.29634833E+01</totfact>
</mgrwt>
</event>
<event>
 8    1  0.2682466E-027  0.1679786E+04  0.7818608E-02  0.8772978E-01
         -2   -1    0    0    0  501 -0.00000000000E+00  0.00000000000E+00  0.23222053302E+04  0.23222053302E+04  0.25500000000E-02 0.  1.
          2   -1    0    0  501    0  0.00000000000E+00 -0.00000000000E+00 -0.30377155256E+03  0.30377155257E+03  0.25500000000E-02 0. -1.
     200001    2    1    2    0    0  0.16124209626E+02 -0.76772733705E+02  0.29489567658E+03  0.76405915404E+03  0.70047761422E+03 0.  0.
    5000001    2    3    3    0    0  0.13155441519E+02 -0.13642851634E+02  0.13695845294E+03  0.23591299794E+03  0.19114950097E+03 0.  0.
        -13    1    4    4    0    0  0.49669505230E+02 -0.20024391029E+02 -0.30614456851E+02  0.61687049842E+02  0.10566000000E+00 0. -1.
     200003    1    4    4    0    0 -0.36514063711E+02  0.63815393954E+01  0.16757290979E+03  0.17422594809E+03  0.30000000000E+02 0. -1.
     200000    1    3    3    0    0  0.29687681078E+01 -0.63129882071E+02  0.15793722364E+03  0.52814615610E+03  0.50000000000E+03 0. -1.
    -200001    1    1    2    0    0 -0.16124209626E+02  0.76772733705E+02  0.17235381011E+04  0.18619177287E+04  0.70000000000E+03 0.  1.
<mgrwt>
<rscale>  0 0.16797856E+04</rscale>
<asrwt>0</asrwt>
<pdfrwt beam="1">  1        2 0.43395936E-01 0.16797856E+04</pdfrwt>
<pdfrwt beam="2">  1       -2 0.33174362E+00 0.16797856E+04</pdfrwt>
<totfact> 0.22841453E+00</totfact>
</mgrwt>
</event>
<event>
 8    1  0.2682466E-027  0.1748365E+04  0.7818608E-02  0.8734251E-01
         -2   -1    0    0    0  501 -0.00000000000E+00  0.00000000000E+00  0.21859291836E+03  0.21859291837E+03  0.25500000000E-02 0. -1.
          2   -1    0    0  501    0  0.00000000000E+00 -0.00000000000E+00 -0.34959739664E+04  0.34959739664E+04  0.25500000000E-02 0.  1.
     200001    2    1    2    0    0 -0.75354198010E+02  0.26606674898E+02 -0.27382318299E+04  0.28273983271E+04  0.69991540600E+03 0.  0.
    5000001    2    3    3    0    0 -0.55035875762E+02 -0.59468942530E+01 -0.68641141111E+03  0.71518631122E+03  0.19304538660E+03 0.  0.
        -13    1    4    4    0    0 -0.41919091643E+02 -0.43036476353E+02 -0.53808730349E+02  0.80651963193E+02  0.10566000000E+00 0. -1.
     200003    1    4    4    0    0 -0.13116784119E+02  0.37089582100E+02 -0.63260268076E+03  0.63453434803E+03  0.30000000000E+02 0. -1.
     200000    1    3    3    0    0 -0.20318322248E+02  0.32553569151E+02 -0.20518204188E+04  0.21122120158E+04  0.50000000000E+03 0.  1.
    -200001    1    1    2    0    0  0.75354198010E+02 -0.26606674898E+02 -0.53914921817E+03  0.88716855770E+03  0.70000000000E+03 0. -1.
<mgrwt>
<rscale>  0 0.17483651E+04</rscale>
<asrwt>0</asrwt>
<pdfrwt beam="1">  1        2 0.49942482E+00 0.17483651E+04</pdfrwt>
<pdfrwt beam="2">  1       -2 0.31227562E-01 0.17483651E+04</pdfrwt>
<totfact> 0.10994220E+01</totfact>
</mgrwt>
</event>
<event>
 8    1  0.2682466E-027  0.1988691E+04  0.7818608E-02  0.8611926E-01
         -2   -1    0    0    0  501 -0.00000000000E+00  0.00000000000E+00  0.43333776156E+03  0.43333776156E+03  0.25500000000E-02 0. -1.
          2   -1    0    0  501    0  0.00000000000E+00 -0.00000000000E+00 -0.22816461923E+04  0.22816461923E+04  0.25500000000E-02 0.  1.
     200001    2    1    2    0    0 -0.60934575483E+03 -0.11410023444E+03 -0.13852186502E+04  0.16715409716E+04  0.70064070567E+03 0.  0.
    5000001    2    3    3    0    0 -0.49776128402E+02 -0.35048592408E+01 -0.15243318555E+03  0.22409166137E+03  0.15649680393E+03 0.  0.
        -13    1    4    4    0    0 -0.95663864260E+02  0.16242204529E+02 -0.57762386348E+02  0.11292426034E+03  0.10566000000E+00 0. -1.
     200003    1    4    4    0    0  0.45887735858E+02 -0.19747063770E+02 -0.94670799198E+02  0.11116740102E+03  0.30000000000E+02 0. -1.
     200000    1    3    3    0    0 -0.55956962643E+03 -0.11059537520E+03 -0.12327854646E+04  0.14474493102E+04  0.50000000000E+03 0. -1.
    -200001    1    1    2    0    0  0.60934575483E+03  0.11410023444E+03 -0.46308978058E+03  0.10434429823E+04  0.70000000000E+03 0. -1.
<mgrwt>
<rscale>  0 0.19886915E+04</rscale>
<asrwt>0</asrwt>
<pdfrwt beam="1">  1        2 0.32594945E+00 0.19886915E+04</pdfrwt>
<pdfrwt beam="2">  1       -2 0.61905396E-01 0.19886915E+04</pdfrwt>
<totfact> 0.12974647E+01</totfact>
</mgrwt>
</event>
<event>
 8    1  0.2682466E-027  0.1576136E+04  0.7818608E-02  0.8835344E-01
          2   -1    0    0  501    0  0.00000000000E+00  0.00000000000E+00  0.14030162427E+04  0.14030162427E+04  0.25500000000E-02 0.  1.
         -2   -1    0    0    0  501 -0.00000000000E+00 -0.00000000000E+00 -0.44265450102E+03  0.44265450103E+03  0.25500000000E-02 0. -1.
     200001    2    1    2    0    0 -0.14419429229E+03  0.21450779835E+03  0.77982155246E+03  0.10779466074E+04  0.69788369038E+03 0.  0.
    5000001    2    3    3    0    0 -0.84828204239E+02  0.71291828729E+02  0.23870288138E+03  0.32505580355E+03  0.19079795797E+03 0.  0.
        -13    1    4    4    0    0 -0.32469740586E+02  0.75312090693E+02  0.25037220815E+03  0.26346242396E+03  0.10566000000E+00 0. -1.
     200003    1    4    4    0    0 -0.52358463653E+02 -0.40202619641E+01 -0.11669326775E+02  0.61593379593E+02  0.30000000000E+02 0. -1.
     200000    1    3    3    0    0 -0.59366088053E+02  0.14321596963E+03  0.54111867109E+03  0.75289080388E+03  0.50000000000E+03 0.  1.
    -200001    1    1    2    0    0  0.14419429229E+03 -0.21450779835E+03  0.18054018916E+03  0.76772413625E+03  0.70000000000E+03 0. -1.
<mgrwt>
<rscale>  0 0.15761364E+04</rscale>
<asrwt>0</asrwt>
<pdfrwt beam="1">  1        2 0.20043089E+00 0.15761364E+04</pdfrwt>
<pdfrwt beam="2">  1       -2 0.63236358E-01 0.15761364E+04</pdfrwt>
<totfact> 0.36743422E+01</totfact>
</mgrwt>
</event>
<event>
 8    1  0.2682466E-027  0.1799759E+04  0.7818608E-02  0.8706428E-01
         -2   -1    0    0    0  501 -0.00000000000E+00  0.00000000000E+00  0.36402077324E+03  0.36402077325E+03  0.25500000000E-02 0. -1.
          2   -1    0    0  501    0  0.00000000000E+00 -0.00000000000E+00 -0.22245514778E+04  0.22245514778E+04  0.25500000000E-02 0.  1.
     200001    2    1    2    0    0  0.35123758184E+03 -0.41466462952E+03 -0.11554827223E+04  0.14561380361E+04  0.69991646989E+03 0.  0.
    5000001    2    3    3    0    0  0.38339143843E+02 -0.75116394225E+02 -0.37054066349E+03  0.41722876564E+03  0.17224139151E+03 0.  0.
        -13    1    4    4    0    0 -0.16673306223E+02 -0.55537513268E+02 -0.21148463444E+02  0.61722631105E+02  0.10566000000E+00 0. -1.
     200003    1    4    4    0    0  0.55012450066E+02 -0.19578880957E+02 -0.34939220004E+03  0.35550613453E+03  0.30000000000E+02 0. -1.
     200000    1    3    3    0    0  0.31289843800E+03 -0.33954823530E+03 -0.78494205883E+03  0.10389092705E+04  0.50000000000E+03 0. -1.
    -200001    1    1    2    0    0 -0.35123758184E+03  0.41466462952E+03 -0.70504798227E+03  0.11324342149E+04  0.70000000000E+03 0.  1.
<mgrwt>
<rscale>  0 0.17997588E+04</rscale>
<asrwt>0</asrwt>
<pdfrwt beam="1">  1        2 0.31779306E+00 0.17997588E+04</pdfrwt>
<pdfrwt beam="2">  1       -2 0.52002969E-01 0.17997588E+04</pdfrwt>
<totfact> 0.20302040E+01</totfact>
</mgrwt>
</event>
<event>
 8    1  0.2682466E-027  0.1587156E+04  0.7818608E-02  0.8828477E-01
         -2   -1    0    0    0  501 -0.00000000000E+00  0.00000000000E+00  0.47372461902E+03  0.47372461903E+03  0.25500000000E-02 0. -1.
          2   -1    0    0  501    0  0.00000000000E+00 -0.00000000000E+00 -0.13293933731E+04  0.13293933731E+04  0.25500000000E-02 0.  1.
     200001    2    1    2    0    0 -0.34889947325E+03  0.13219968514E+03 -0.44772174519E+03  0.91113796923E+03  0.70036421859E+03 0.  0.
    5000001    2    3    3    0    0 -0.53432266770E+02  0.54897005094E+02 -0.16035647051E+03  0.25856201539E+03  0.18780689515E+03 0.  0.
        -13    1    4    4    0    0 -0.95238804355E+02 -0.22706621141E+02 -0.12541887261E+03  0.15910978999E+03  0.10566000000E+00 0. -1.
     200003    1    4    4    0    0  0.41806537585E+02  0.77603626235E+02 -0.34937597893E+02  0.99452225396E+02  0.30000000000E+02 0. -1.
     200000    1    3    3    0    0 -0.29546720648E+03  0.77302680044E+02 -0.28736527468E+03  0.65257595385E+03  0.50000000000E+03 0.  1.
    -200001    1    1    2    0    0  0.34889947325E+03 -0.13219968514E+03 -0.40794700888E+03  0.89198002289E+03  0.70000000000E+03 0. -1.
<mgrwt>
<rscale>  0 0.15871564E+04</rscale>
<asrwt>0</asrwt>
<pdfrwt beam="1">  1        2 0.18991334E+00 0.15871564E+04</pdfrwt>
<pdfrwt beam="2">  1       -2 0.67674946E-01 0.15871564E+04</pdfrwt>
<totfact> 0.34803631E+01</totfact>
</mgrwt>
</event>
<event>
 8    1  0.2682466E-027  0.1779650E+04  0.7818608E-02  0.8717197E-01
         -2   -1    0    0    0  501 -0.00000000000E+00  0.00000000000E+00  0.53107016849E+03  0.53107016849E+03  0.25500000000E-02 0. -1.
          2   -1    0    0  501    0  0.00000000000E+00 -0.00000000000E+00 -0.14909294097E+04  0.14909294097E+04  0.25500000000E-02 0.  1.
     200001    2    1    2    0    0  0.18524511063E+03  0.44172674554E+03 -0.17360578161E+03  0.86543882687E+03  0.69957639105E+03 0.  0.
    5000001    2    3    3    0    0  0.34481057626E+01  0.56073406328E+02 -0.95652972660E+02  0.20373248003E+03  0.17088392526E+03 0.  0.
        -13    1    4    4    0    0  0.34017954314E+02  0.22165700866E+01 -0.12452644620E+03  0.12910840936E+03  0.10566000000E+00 0. -1.
     200003    1    4    4    0    0 -0.30569848552E+02  0.53856836241E+02  0.28873473542E+02  0.74624070679E+02  0.30000000000E+02 0. -1.
     200000    1    3    3    0    0  0.18179700487E+03  0.38565333921E+03 -0.77952808948E+02  0.66170634684E+03  0.50000000000E+03 0. -1.
    -200001    1    1    2    0    0 -0.18524511063E+03 -0.44172674554E+03 -0.78625345957E+03  0.11565607513E+04  0.70000000000E+03 0.  1.
<mgrwt>
<rscale>  0 0.17796496E+04</rscale>
<asrwt>0</asrwt>
<pdfrwt beam="1">  1        2 0.21298991E+00 0.17796496E+04</pdfrwt>
<pdfrwt beam="2">  1       -2 0.75867167E-01 0.17796496E+04</pdfrwt>
<totfact> 0.21822217E+01</totfact>
</mgrwt>
</event>
<event>
 8    1  0.2682466E-027  0.1654087E+04  0.7818608E-02  0.8787992E-01
          2   -1    0    0  501    0  0.00000000000E+00  0.00000000000E+00  0.11131104364E+04  0.11131104364E+04  0.25500000000E-02 0.  1.
         -2   -1    0    0    0  501 -0.00000000000E+00 -0.00000000000E+00 -0.61449505355E+03  0.61449505356E+03  0.25500000000E-02 0. -1.
     200001    2    1    2    0    0 -0.22925409565E+03 -0.37388341859E+03  0.21212581531E+03  0.85329288949E+03  0.70054631728E+03 0.  0.
    5000001    2    3    3    0    0  0.58506842735E+02 -0.16658298151E+03  0.67301608610E+02  0.22340886864E+03  0.11920182754E+03 0.  0.
        -13    1    4    4    0    0  0.10206461233E+02 -0.30053806812E+02 -0.32155604070E+02  0.45181823690E+02  0.10566000000E+00 0. -1.
     200003    1    4    4    0    0  0.48300381502E+02 -0.13652917470E+03  0.99457212680E+02  0.17822704495E+03  0.30000000000E+02 0. -1.
     200000    1    3    3    0    0 -0.28776093838E+03 -0.20730043708E+03  0.14482420670E+03  0.62988402085E+03  0.50000000000E+03 0. -1.
    -200001    1    1    2    0    0  0.22925409565E+03  0.37388341859E+03  0.28648956756E+03  0.87431260050E+03  0.70000000000E+03 0.  1.
<mgrwt>
<rscale>  0 0.16540869E+04</rscale>
<asrwt>0</asrwt>
<pdfrwt beam="1">  1        2 0.15901578E+00 0.16540869E+04</pdfrwt>
<pdfrwt beam="2">  1       -2 0.87785007E-01 0.16540869E+04</pdfrwt>
<totfact> 0.25720361E+01</totfact>
</mgrwt>
</event>
<event>
 8    1  0.2682466E-027  0.3241731E+04  0.7818608E-02  0.8177882E-01
         -2   -1    0    0    0  501 -0.00000000000E+00  0.00000000000E+00  0.13483296642E+04  0.13483296642E+04  0.25500000000E-02 0. -1.
          2   -1    0    0  501    0  0.00000000000E+00 -0.00000000000E+00 -0.19484880947E+04  0.19484880947E+04  0.25500000000E-02 0.  1.
     200001    2    1    2    0    0  0.75858100155E+03  0.11661216954E+04  0.15677052472E+03  0.15652790248E+04  0.70016889650E+03 0.  0.
    5000001    2    3    3    0    0  0.90416833128E+02  0.94012262964E+02  0.31615905443E+02  0.20090163205E+03  0.14949378243E+03 0.  0.
        -13    1    4    4    0    0  0.93357489094E+02  0.12442459731E+03  0.26076733453E+02  0.15772478682E+03  0.10566000000E+00 0. -1.
     200003    1    4    4    0    0 -0.29406559656E+01 -0.30412334348E+02  0.55391719892E+01  0.43176845233E+02  0.30000000000E+02 0. -1.
     200000    1    3    3    0    0  0.66816416842E+03  0.10721094324E+04  0.12515461928E+03  0.13643773927E+04  0.50000000000E+03 0.  1.
    -200001    1    1    2    0    0 -0.75858100155E+03 -0.11661216954E+04 -0.75692895527E+03  0.17315387341E+04  0.70000000000E+03 0. -1.
<mgrwt>
<rscale>  0 0.32417306E+04</rscale>
<asrwt>0</asrwt>
<pdfrwt beam="1">  1        2 0.27835544E+00 0.32417306E+04</pdfrwt>
<pdfrwt beam="2">  1       -2 0.19261852E+00 0.32417306E+04</pdfrwt>
<totfact> 0.10750272E+00</totfact>
</mgrwt>
</event>
<event>
 8    1  0.2682466E-027  0.1497554E+04  0.7818608E-02  0.8886081E-01
          2   -1    0    0  501    0  0.00000000000E+00  0.00000000000E+00  0.10683680154E+04  0.10683680154E+04  0.25500000000E-02 0. -1.
         -2   -1    0    0    0  501 -0.00000000000E+00 -0.00000000000E+00 -0.52478813098E+03  0.52478813099E+03  0.25500000000E-02 0.  1.
     200001    2    1    2    0    0 -0.24761026940E+03  0.33736392626E+02  0.36667441629E+03  0.82912438373E+03  0.70039140945E+03 0.  0.
    5000001    2    3    3    0    0 -0.15276260962E+03  0.48856506317E+02  0.13510342211E+03  0.26979458679E+03  0.16974336890E+03 0.  0.
        -13    1    4    4    0    0 -0.10912350612E+03  0.49829196352E+02 -0.49463163938E+01  0.12006400629E+03  0.10566000000E+00 0. -1.
     200003    1    4    4    0    0 -0.43639103500E+02 -0.97269003477E+00  0.14004973851E+03  0.14973058050E+03  0.30000000000E+02 0. -1.
     200000    1    3    3    0    0 -0.94847659786E+02 -0.15120113691E+02  0.23157099418E+03  0.55932979694E+03  0.50000000000E+03 0. -1.
    -200001    1    1    2    0    0  0.24761026940E+03 -0.33736392626E+02  0.17690546813E+03  0.76403176266E+03  0.70000000000E+03 0.  1.
<mgrwt>
<rscale>  0 0.14975538E+04</rscale>
<asrwt>0</asrwt>
<pdfrwt beam="1">  1        2 0.15262400E+00 0.14975538E+04</pdfrwt>
<pdfrwt beam="2">  1       -2 0.74969733E-01 0.14975538E+04</pdfrwt>
<totfact> 0.39486868E+01</totfact>
</mgrwt>
</event>
<event>
 8    1  0.2682466E-027  0.1833367E+04  0.7818608E-02  0.8688754E-01
         -2   -1    0    0    0  501 -0.00000000000E+00  0.00000000000E+00  0.34383676061E+03  0.34383676062E+03  0.25500000000E-02 0. -1.
          2   -1    0    0  501    0  0.00000000000E+00 -0.00000000000E+00 -0.24439169134E+04  0.24439169134E+04  0.25500000000E-02 0.  1.
     200001    2    1    2    0    0 -0.42146521310E+03 -0.16906102862E+03 -0.16272710414E+04  0.18287109153E+04  0.69997000818E+03 0.  0.
    5000001    2    3    3    0    0 -0.18351024764E+03 -0.55532471492E+02 -0.61966925688E+03  0.67338730046E+03  0.18083307805E+03 0.  0.
        -13    1    4    4    0    0 -0.13156081286E+02  0.56118478383E+02 -0.14003818327E+03  0.15143668654E+03  0.10566000000E+00 0. -1.
     200003    1    4    4    0    0 -0.17035416635E+03 -0.11165094988E+03 -0.47963107361E+03  0.52195061392E+03  0.30000000000E+02 0. -1.
     200000    1    3    3    0    0 -0.23795496546E+03 -0.11352855713E+03 -0.10076017845E+04  0.11553236149E+04  0.50000000000E+03 0.  1.
    -200001    1    1    2    0    0  0.42146521310E+03  0.16906102862E+03 -0.47280911140E+03  0.95904275873E+03  0.70000000000E+03 0. -1.
<mgrwt>
<rscale>  0 0.18333668E+04</rscale>
<asrwt>0</asrwt>
<pdfrwt beam="1">  1        2 0.34913098E+00 0.18333668E+04</pdfrwt>
<pdfrwt beam="2">  1       -2 0.49119539E-01 0.18333668E+04</pdfrwt>
<totfact> 0.17488991E+01</totfact>
</mgrwt>
</event>
<event>
 8    1  0.2682466E-027  0.1531439E+04  0.7818608E-02  0.8863811E-01
         -2   -1    0    0    0  501 -0.00000000000E+00  0.00000000000E+00  0.28533988721E+03  0.28533988723E+03  0.25500000000E-02 0. -1.
          2   -1    0    0  501    0  0.00000000000E+00 -0.00000000000E+00 -0.20548361324E+04  0.20548361324E+04  0.25500000000E-02 0.  1.
     200001    2    1    2    0    0  0.93421295152E+02  0.25387916653E+03 -0.11163234821E+04  0.13452806342E+04  0.70029972037E+03 0.  0.
    5000001    2    3    3    0    0 -0.89669921212E+02  0.29286401910E+02 -0.18270155174E+03  0.24727598376E+03  0.13735780658E+03 0.  0.
        -13    1    4    4    0    0  0.25381753588E+02  0.22909946080E+02 -0.90307235386E+02  0.96563486741E+02  0.10566000000E+00 0. -1.
     200003    1    4    4    0    0 -0.11505167480E+03  0.63764558307E+01 -0.92394316354E+02  0.15071249702E+03  0.30000000000E+02 0. -1.
     200000    1    3    3    0    0  0.18309121636E+03  0.22459276462E+03 -0.93362193038E+03  0.10980046504E+04  0.50000000000E+03 0.  1.
    -200001    1    1    2    0    0 -0.93421295152E+02 -0.25387916653E+03 -0.65317276305E+03  0.99489538544E+03  0.70000000000E+03 0. -1.
<mgrwt>
<rscale>  0 0.15314395E+04</rscale>
<asrwt>0</asrwt>
<pdfrwt beam="1">  1        2 0.29354801E+00 0.15314395E+04</pdfrwt>
<pdfrwt beam="2">  1       -2 0.40762842E-01 0.15314395E+04</pdfrwt>
<totfact> 0.41359934E+01</totfact>
</mgrwt>
</event>
<event>
 8    1  0.2682466E-027  0.2541756E+04  0.7818608E-02  0.8388259E-01
         -2   -1    0    0    0  501 -0.00000000000E+00  0.00000000000E+00  0.94460706620E+03  0.94460706621E+03  0.25500000000E-02 0. -1.
          2   -1    0    0  501    0  0.00000000000E+00 -0.00000000000E+00 -0.17098436356E+04  0.17098436356E+04  0.25500000000E-02 0.  1.
     200001    2    1    2    0    0 -0.91045634814E+03 -0.51594496221E+03 -0.20963333979E+03  0.12782875884E+04  0.70352189428E+03 0.  0.
    5000001    2    3    3    0    0 -0.28429837152E+03 -0.26630010056E+03 -0.74641298040E+02  0.42821746195E+03  0.16142355385E+03 0.  0.
        -13    1    4    4    0    0 -0.14548998692E+02 -0.61907542649E+02  0.33211333828E+02  0.71744136056E+02  0.10566000000E+00 0. -1.
     200003    1    4    4    0    0 -0.26974937283E+03 -0.20439255791E+03 -0.10785263187E+03  0.35647332589E+03  0.30000000000E+02 0. -1.
     200000    1    3    3    0    0 -0.62615797662E+03 -0.24964486165E+03 -0.13499204175E+03  0.85007012650E+03  0.50000000000E+03 0. -1.
    -200001    1    1    2    0    0  0.91045634814E+03  0.51594496221E+03 -0.55560322965E+03  0.13761631134E+04  0.70000000000E+03 0. -1.
<mgrwt>
<rscale>  0 0.25417556E+04</rscale>
<asrwt>0</asrwt>
<pdfrwt beam="1">  1        2 0.24426338E+00 0.25417556E+04</pdfrwt>
<pdfrwt beam="2">  1       -2 0.13494387E+00 0.25417556E+04</pdfrwt>
<totfact> 0.40047379E+00</totfact>
</mgrwt>
</event>
<event>
 8    1  0.2682466E-027  0.1920096E+04  0.7818608E-02  0.8644917E-01
          2   -1    0    0  501    0  0.00000000000E+00  0.00000000000E+00  0.24691302596E+04  0.24691302596E+04  0.25500000000E-02 0.  1.
         -2   -1    0    0    0  501 -0.00000000000E+00 -0.00000000000E+00 -0.37328634237E+03  0.37328634238E+03  0.25500000000E-02 0. -1.
     200001    2    1    2    0    0 -0.35174255905E+02 -0.48476157722E+03  0.38994639378E+03  0.93550355322E+03  0.69776621662E+03 0.  0.
    5000001    2    3    3    0    0 -0.56918254978E+02 -0.75733159868E+01  0.20279492377E+03  0.21911880263E+03  0.59918492118E+02 0.  0.
        -13    1    4    4    0    0 -0.58390345253E+01  0.80308851104E+01  0.91851824029E+02  0.92387002232E+02  0.10566000000E+00 0. -1.
     200003    1    4    4    0    0 -0.51079220453E+02 -0.15604201097E+02  0.11094309974E+03  0.12673180040E+03  0.30000000000E+02 0. -1.
     200000    1    3    3    0    0  0.21743999073E+02 -0.47718826123E+03  0.18715147001E+03  0.71638475059E+03  0.50000000000E+03 0. -1.
    -200001    1    1    2    0    0  0.35174255905E+02  0.48476157722E+03  0.17058975234E+04  0.19069130487E+04  0.70000000000E+03 0.  1.
<mgrwt>
<rscale>  0 0.19200965E+04</rscale>
<asrwt>0</asrwt>
<pdfrwt beam="1">  1        2 0.35273290E+00 0.19200965E+04</pdfrwt>
<pdfrwt beam="2">  1       -2 0.53326620E-01 0.19200965E+04</pdfrwt>
<totfact> 0.14234771E+01</totfact>
</mgrwt>
</event>
<event>
 8    1  0.2682466E-027  0.2174307E+04  0.7818608E-02  0.8529199E-01
          2   -1    0    0  501    0  0.00000000000E+00  0.00000000000E+00  0.33814038426E+04  0.33814038426E+04  0.25500000000E-02 0.  1.
         -2   -1    0    0    0  501 -0.00000000000E+00 -0.00000000000E+00 -0.34953029455E+03  0.34953029456E+03  0.25500000000E-02 0. -1.
     200001    2    1    2    0    0  0.60843068014E+02  0.55662333017E+03  0.25689761934E+04  0.27220707313E+04  0.70462683284E+03 0.  0.
    5000001    2    3    3    0    0  0.73421703964E+02  0.14360114538E+03  0.85534512950E+03  0.88978337114E+03  0.18462697913E+03 0.  0.
        -13    1    4    4    0    0 -0.11202870074E+02  0.29375110965E+02  0.55755672169E+03  0.55844239677E+03  0.10566000000E+00 0. -1.
     200003    1    4    4    0    0  0.84624574038E+02  0.11422603442E+03  0.29778840781E+03  0.33134097437E+03  0.30000000000E+02 0. -1.
     200000    1    3    3    0    0 -0.12578635950E+02  0.41302218479E+03  0.17136310639E+04  0.18322873602E+04  0.50000000000E+03 0. -1.
    -200001    1    1    2    0    0 -0.60843068014E+02 -0.55662333017E+03  0.46289735460E+03  0.10088634058E+04  0.70000000000E+03 0. -1.
<mgrwt>
<rscale>  0 0.21743073E+04</rscale>
<asrwt>0</asrwt>
<pdfrwt beam="1">  1        2 0.48305773E+00 0.21743073E+04</pdfrwt>
<pdfrwt beam="2">  1       -2 0.49932896E-01 0.21743073E+04</pdfrwt>
<totfact> 0.49579453E+00</totfact>
</mgrwt>
</event>
<event>
 8    1  0.2682466E-027  0.1517193E+04  0.7818608E-02  0.8873100E-01
          2   -1    0    0  501    0  0.00000000000E+00  0.00000000000E+00  0.17426747223E+04  0.17426747223E+04  0.25500000000E-02 0.  1.
         -2   -1    0    0    0  501 -0.00000000000E+00 -0.00000000000E+00 -0.33022149828E+03  0.33022149829E+03  0.25500000000E-02 0. -1.
     200001    2    1    2    0    0  0.27102229754E+03 -0.65714808021E+02  0.82578905719E+03  0.11179373909E+04  0.70006065543E+03 0.  0.
    5000001    2    3    3    0    0  0.65163174078E+02 -0.62758135379E+02  0.54632924302E+02  0.17609425009E+03  0.14085313516E+03 0.  0.
        -13    1    4    4    0    0  0.72846319707E+02 -0.42176084469E+02 -0.25334196424E+02  0.87904727225E+02  0.10566000000E+00 0. -1.
     200003    1    4    4    0    0 -0.76831456291E+01 -0.20582050910E+02  0.79967120726E+02  0.88189522868E+02  0.30000000000E+02 0. -1.
     200000    1    3    3    0    0  0.20585912346E+03 -0.29566726425E+01  0.77115613288E+03  0.94184314082E+03  0.50000000000E+03 0.  1.
    -200001    1    1    2    0    0 -0.27102229754E+03  0.65714808021E+02  0.58666416686E+03  0.95495882970E+03  0.70000000000E+03 0.  1.
<mgrwt>
<rscale>  0 0.15171930E+04</rscale>
<asrwt>0</asrwt>
<pdfrwt beam="1">  1        2 0.24895353E+00 0.15171930E+04</pdfrwt>
<pdfrwt beam="2">  1       -2 0.47174500E-01 0.15171930E+04</pdfrwt>
<totfact> 0.44849462E+01</totfact>
</mgrwt>
</event>
<event>
 8    1  0.2682466E-027  0.1986865E+04  0.7818608E-02  0.8612786E-01
         -2   -1    0    0    0  501 -0.00000000000E+00  0.00000000000E+00  0.54123574095E+03  0.54123574095E+03  0.25500000000E-02 0. -1.
          2   -1    0    0  501    0  0.00000000000E+00 -0.00000000000E+00 -0.18234346191E+04  0.18234346191E+04  0.25500000000E-02 0.  1.
     200001    2    1    2    0    0 -0.24170155792E+03 -0.44308498417E+03 -0.52596199281E+02  0.86244977233E+03  0.69735880529E+03 0.  0.
    5000001    2    3    3    0    0  0.81391848114E+02 -0.12130748349E+03  0.27697233098E+02  0.18099754052E+03  0.10321256930E+03 0.  0.
        -13    1    4    4    0    0  0.22956196936E+02  0.14427709255E+02 -0.24341045915E+01  0.27222817659E+02  0.10566000000E+00 0. -1.
     200003    1    4    4    0    0  0.58435651177E+02 -0.13573519275E+03  0.30131337690E+02  0.15377472286E+03  0.30000000000E+02 0. -1.
     200000    1    3    3    0    0 -0.32309340604E+03 -0.32177750067E+03 -0.80293432380E+02  0.68145223182E+03  0.50000000000E+03 0. -1.
    -200001    1    1    2    0    0  0.24170155792E+03  0.44308498417E+03 -0.12296026789E+04  0.15022205877E+04  0.70000000000E+03 0.  1.
<mgrwt>
<rscale>  0 0.19868649E+04</rscale>
<asrwt>0</asrwt>
<pdfrwt beam="1">  1        2 0.26049066E+00 0.19868649E+04</pdfrwt>
<pdfrwt beam="2">  1       -2 0.77319393E-01 0.19868649E+04</pdfrwt>
<totfact> 0.13785860E+01</totfact>
</mgrwt>
</event>
<event>
 8    1  0.2682466E-027  0.1817119E+04  0.7818608E-02  0.8697248E-01
          2   -1    0    0  501    0  0.00000000000E+00  0.00000000000E+00  0.89096235940E+03  0.89096235941E+03  0.25500000000E-02 0.  1.
         -2   -1    0    0    0  501 -0.00000000000E+00 -0.00000000000E+00 -0.92650428004E+03  0.92650428004E+03  0.25500000000E-02 0. -1.
     200001    2    1    2    0    0 -0.57026783827E+03  0.77261953894E+02  0.50398521647E+02  0.90721361061E+03  0.69951533751E+03 0.  0.
    5000001    2    3    3    0    0 -0.30424072745E+03  0.68670268674E+01  0.81349159573E+02  0.33565100561E+03  0.11590658095E+03 0.  0.
        -13    1    4    4    0    0 -0.65053143820E+02 -0.40693427076E+01  0.67667195524E+02  0.93953880096E+02  0.10566000000E+00 0. -1.
     200003    1    4    4    0    0 -0.23918758363E+03  0.10936369575E+02  0.13681964049E+02  0.24169712552E+03  0.30000000000E+02 0. -1.
     200000    1    3    3    0    0 -0.26602711082E+03  0.70394927026E+02 -0.30950637925E+02  0.57156260500E+03  0.50000000000E+03 0. -1.
    -200001    1    1    2    0    0  0.57026783827E+03 -0.77261953894E+02 -0.85940442279E+02  0.91025302884E+03  0.70000000000E+03 0.  1.
<mgrwt>
<rscale>  0 0.18171191E+04</rscale>
<asrwt>0</asrwt>
<pdfrwt beam="1">  1        2 0.12728034E+00 0.18171191E+04</pdfrwt>
<pdfrwt beam="2">  1       -2 0.13235775E+00 0.18171191E+04</pdfrwt>
<totfact> 0.12935290E+01</totfact>
</mgrwt>
</event>
<event>
 8    1  0.2682466E-027  0.1677946E+04  0.7818608E-02  0.8774044E-01
         -2   -1    0    0    0  501 -0.00000000000E+00  0.00000000000E+00  0.38943020263E+03  0.38943020264E+03  0.25500000000E-02 0. -1.
          2   -1    0    0  501    0  0.00000000000E+00 -0.00000000000E+00 -0.18074498332E+04  0.18074498332E+04  0.25500000000E-02 0.  1.
     200001    2    1    2    0    0  0.58323308217E+02 -0.43739943281E+03 -0.53122969465E+03  0.98398421899E+03  0.70092801531E+03 0.  0.
    5000001    2    3    3    0    0  0.87824905823E+02 -0.94522838964E+02 -0.11329270750E+03  0.24702694201E+03  0.17759304980E+03 0.  0.
        -13    1    4    4    0    0  0.10397699045E+03 -0.10494095752E+03 -0.22421699130E+02  0.14942075781E+03  0.10566000000E+00 0. -1.
     200003    1    4    4    0    0 -0.16152084629E+02  0.10418118551E+02 -0.90871008371E+02  0.97606184202E+02  0.30000000000E+02 0. -1.
     200000    1    3    3    0    0 -0.29501597606E+02 -0.34287659384E+03 -0.41793698714E+03  0.73695727698E+03  0.50000000000E+03 0. -1.
    -200001    1    1    2    0    0 -0.58323308217E+02  0.43739943281E+03 -0.88678993593E+03  0.12128958169E+04  0.70000000000E+03 0.  1.
<mgrwt>
<rscale>  0 0.16779458E+04</rscale>
<asrwt>0</asrwt>
<pdfrwt beam="1">  1        2 0.25820711E+00 0.16779458E+04</pdfrwt>
<pdfrwt beam="2">  1       -2 0.55632887E-01 0.16779458E+04</pdfrwt>
<totfact> 0.29252597E+01</totfact>
</mgrwt>
</event>
<event>
 8    1  0.2682466E-027  0.1728925E+04  0.7818608E-02  0.8745037E-01
         -2   -1    0    0    0  501 -0.00000000000E+00  0.00000000000E+00  0.75433356218E+03  0.75433356218E+03  0.25500000000E-02 0. -1.
          2   -1    0    0  501    0  0.00000000000E+00 -0.00000000000E+00 -0.99067007529E+03  0.99067007530E+03  0.25500000000E-02 0.  1.
     200001    2    1    2    0    0  0.33310560237E+01  0.67888301719E+02 -0.62511776147E+03  0.94140499604E+03  0.70060776004E+03 0.  0.
    5000001    2    3    3    0    0 -0.29028333202E+02  0.55585194857E+02 -0.19928857447E+03  0.28373563154E+03  0.19198337082E+03 0.  0.
        -13    1    4    4    0    0  0.20312460764E+01  0.12099181096E+03 -0.14250758700E+03  0.18695338402E+03  0.10566000000E+00 0. -1.
     200003    1    4    4    0    0 -0.31059579278E+02 -0.65406616107E+02 -0.56780987472E+02  0.96782247514E+02  0.30000000000E+02 0. -1.
     200000    1    3    3    0    0  0.32359389225E+02  0.12303106862E+02 -0.42582918700E+03  0.65766936451E+03  0.50000000000E+03 0.  1.
    -200001    1    1    2    0    0 -0.33310560237E+01 -0.67888301719E+02  0.38878124836E+03  0.80359864144E+03  0.70000000000E+03 0. -1.
<mgrwt>
<rscale>  0 0.17289253E+04</rscale>
<asrwt>0</asrwt>
<pdfrwt beam="1">  1        2 0.14152430E+00 0.17289253E+04</pdfrwt>
<pdfrwt beam="2">  1       -2 0.10776194E+00 0.17289253E+04</pdfrwt>
<totfact> 0.18715079E+01</totfact>
</mgrwt>
</event>
<event>
 8    1  0.2682466E-027  0.2496297E+04  0.7818608E-02  0.8404306E-01
         -2   -1    0    0    0  501 -0.00000000000E+00  0.00000000000E+00  0.38251613366E+03  0.38251613367E+03  0.25500000000E-02 0. -1.
          2   -1    0    0  501    0  0.00000000000E+00 -0.00000000000E+00 -0.40727027646E+04  0.40727027646E+04  0.25500000000E-02 0.  1.
     200001    2    1    2    0    0  0.46126686708E+03  0.62550125179E+03 -0.62978896921E+03  0.12210184118E+04  0.70016632139E+03 0.  0.
    5000001    2    3    3    0    0  0.13663427945E+03  0.10156146129E+03 -0.72390579813E+02  0.25117709206E+03  0.16989961385E+03 0.  0.
        -13    1    4    4    0    0  0.77996266449E+02  0.85943020096E+01 -0.10646290990E+03  0.13225597134E+03  0.10566000000E+00 0. -1.
     200003    1    4    4    0    0  0.58638013006E+02  0.92967159285E+02  0.34072330088E+02  0.11892112072E+03  0.30000000000E+02 0. -1.
     200000    1    3    3    0    0  0.32463258762E+03  0.52393979049E+03 -0.55739838940E+03  0.96984131976E+03  0.50000000000E+03 0. -1.
    -200001    1    1    2    0    0 -0.46126686708E+03 -0.62550125179E+03 -0.30603976618E+04  0.32342004865E+04  0.70000000000E+03 0.  1.
<mgrwt>
<rscale>  0 0.24962969E+04</rscale>
<asrwt>0</asrwt>
<pdfrwt beam="1">  1        2 0.58181466E+00 0.24962969E+04</pdfrwt>
<pdfrwt beam="2">  1       -2 0.54645164E-01 0.24962969E+04</pdfrwt>
<totfact> 0.14349245E+00</totfact>
</mgrwt>
</event>
<event>
 8    1  0.2682466E-027  0.2597180E+04  0.7818608E-02  0.8369160E-01
          2   -1    0    0  501    0  0.00000000000E+00  0.00000000000E+00  0.34793172613E+04  0.34793172613E+04  0.25500000000E-02 0.  1.
         -2   -1    0    0    0  501 -0.00000000000E+00 -0.00000000000E+00 -0.48467430483E+03  0.48467430484E+03  0.25500000000E-02 0. -1.
     200001    2    1    2    0    0  0.79407924512E+03  0.27011942609E+03  0.42424247262E+03  0.11710567299E+04  0.69847393458E+03 0.  0.
    5000001    2    3    3    0    0  0.30766218443E+03  0.11879748701E+03  0.21023818262E+03  0.42587371731E+03  0.16852141413E+03 0.  0.
        -13    1    4    4    0    0  0.65989427508E+01  0.21602445888E+02  0.78813501854E+02  0.81986529091E+02  0.10566000000E+00 0. -1.
     200003    1    4    4    0    0  0.30106324168E+03  0.97195041120E+02  0.13142468076E+03  0.34388718822E+03  0.30000000000E+02 0. -1.
     200000    1    3    3    0    0  0.48641706069E+03  0.15132193908E+03  0.21400429000E+03  0.74518301263E+03  0.50000000000E+03 0.  1.
    -200001    1    1    2    0    0 -0.79407924512E+03 -0.27011942609E+03  0.25704004839E+04  0.27929348362E+04  0.70000000000E+03 0. -1.
<mgrwt>
<rscale>  0 0.25971798E+04</rscale>
<asrwt>0</asrwt>
<pdfrwt beam="1">  1        2 0.49704532E+00 0.25971798E+04</pdfrwt>
<pdfrwt beam="2">  1       -2 0.69239187E-01 0.25971798E+04</pdfrwt>
<totfact> 0.20961054E+00</totfact>
</mgrwt>
</event>
<event>
 8    1  0.2682466E-027  0.1642501E+04  0.7818608E-02  0.8794855E-01
         -2   -1    0    0    0  501 -0.00000000000E+00  0.00000000000E+00  0.50615350854E+03  0.50615350854E+03  0.25500000000E-02 0. -1.
          2   -1    0    0  501    0  0.00000000000E+00 -0.00000000000E+00 -0.13325056265E+04  0.13325056265E+04  0.25500000000E-02 0.  1.
     200001    2    1    2    0    0 -0.42267643123E+03 -0.21022742332E+02 -0.32879248899E+03  0.88123399146E+03  0.69955094573E+03 0.  0.
    5000001    2    3    3    0    0 -0.19286317950E+03  0.96174285500E+02 -0.13907924708E+03  0.28748287512E+03  0.12983707991E+03 0.  0.
        -13    1    4    4    0    0 -0.13614267503E+02 -0.27513412237E+02 -0.87694027616E+01  0.31925690617E+02  0.10566000000E+00 0. -1.
     200003    1    4    4    0    0 -0.17924891200E+03  0.12368769774E+03 -0.13030984431E+03  0.25555718450E+03  0.30000000000E+02 0. -1.
     200000    1    3    3    0    0 -0.22981325173E+03 -0.11719702783E+03 -0.18971324192E+03  0.59375111635E+03  0.50000000000E+03 0. -1.
    -200001    1    1    2    0    0  0.42267643123E+03  0.21022742332E+02 -0.49755962900E+03  0.95742514361E+03  0.70000000000E+03 0. -1.
<mgrwt>
<rscale>  0 0.16425010E+04</rscale>
<asrwt>0</asrwt>
<pdfrwt beam="1">  1        2 0.19035795E+00 0.16425010E+04</pdfrwt>
<pdfrwt beam="2">  1       -2 0.72307644E-01 0.16425010E+04</pdfrwt>
<totfact> 0.29876537E+01</totfact>
</mgrwt>
</event>
<event>
 8    1  0.2682466E-027  0.1661591E+04  0.7818608E-02  0.8783579E-01
          2   -1    0    0  501    0  0.00000000000E+00  0.00000000000E+00  0.66682163202E+03  0.66682163202E+03  0.25500000000E-02 0.  1.
         -2   -1    0    0    0  501 -0.00000000000E+00 -0.00000000000E+00 -0.10350906083E+04  0.10350906083E+04  0.25500000000E-02 0. -1.
     200001    2    1    2    0    0  0.31411813931E+03 -0.17802831821E+03 -0.45357773676E+03  0.90967372054E+03  0.70100586805E+03 0.  0.
    5000001    2    3    3    0    0  0.21270565726E+03 -0.49821598344E+02 -0.21716535905E+03  0.33294825131E+03  0.12636398453E+03 0.  0.
        -13    1    4    4    0    0  0.21200680585E+03 -0.28680093801E+02 -0.17045586310E+03  0.27354094014E+03  0.10566000000E+00 0. -1.
     200003    1    4    4    0    0  0.69885141287E+00 -0.21141504543E+02 -0.46709495950E+02  0.59407311162E+02  0.30000000000E+02 0. -1.
     200000    1    3    3    0    0  0.10141248205E+03 -0.12820671986E+03 -0.23641237771E+03  0.57672546924E+03  0.50000000000E+03 0. -1.
    -200001    1    1    2    0    0 -0.31411813931E+03  0.17802831821E+03  0.85308760519E+02  0.79223851973E+03  0.70000000000E+03 0.  1.
<mgrwt>
<rscale>  0 0.16615906E+04</rscale>
<asrwt>0</asrwt>
<pdfrwt beam="1">  1        2 0.95260233E-01 0.16615906E+04</pdfrwt>
<pdfrwt beam="2">  1       -2 0.14787009E+00 0.16615906E+04</pdfrwt>
<totfact> 0.14218988E+01</totfact>
</mgrwt>
</event>
<event>
 8    1  0.2682466E-027  0.2934220E+04  0.7818608E-02  0.8262768E-01
          2   -1    0    0  501    0  0.00000000000E+00  0.00000000000E+00  0.19409660792E+04  0.19409660792E+04  0.25500000000E-02 0.  1.
         -2   -1    0    0    0  501 -0.00000000000E+00 -0.00000000000E+00 -0.11089387403E+04  0.11089387403E+04  0.25500000000E-02 0. -1.
     200001    2    1    2    0    0  0.38377760019E+03 -0.12041771345E+04  0.15031209127E+03  0.14523869021E+04  0.69964717612E+03 0.  0.
    5000001    2    3    3    0    0  0.86768616335E+02 -0.27869058169E+03  0.50369775126E+02  0.35478580771E+03  0.19529112116E+03 0.  0.
        -13    1    4    4    0    0 -0.42665489614E+02 -0.36165092609E+02  0.54677378000E+02  0.78216908379E+02  0.10566000000E+00 0. -1.
     200003    1    4    4    0    0  0.12943410595E+03 -0.24252548908E+03 -0.43076028733E+01  0.27656889933E+03  0.30000000000E+02 0. -1.
     200000    1    3    3    0    0  0.29700898385E+03 -0.92548655283E+03  0.99942316144E+02  0.10976010944E+04  0.50000000000E+03 0. -1.
    -200001    1    1    2    0    0 -0.38377760019E+03  0.12041771345E+04  0.68171524761E+03  0.15975179174E+04  0.70000000000E+03 0. -1.
<mgrwt>
<rscale>  0 0.29342205E+04</rscale>
<asrwt>0</asrwt>
<pdfrwt beam="1">  1        2 0.27728086E+00 0.29342205E+04</pdfrwt>
<pdfrwt beam="2">  1       -2 0.15841982E+00 0.29342205E+04</pdfrwt>
<totfact> 0.19318158E+00</totfact>
</mgrwt>
</event>
<event>
 8    1  0.2682466E-027  0.1718196E+04  0.7818608E-02  0.8751054E-01
          2   -1    0    0  501    0  0.00000000000E+00  0.00000000000E+00  0.10289462053E+04  0.10289462053E+04  0.25500000000E-02 0.  1.
         -2   -1    0    0    0  501 -0.00000000000E+00 -0.00000000000E+00 -0.71728679569E+03  0.71728679569E+03  0.25500000000E-02 0. -1.
     200001    2    1    2    0    0 -0.16966897237E+03  0.45780151689E+03  0.25875679950E+03  0.89114910144E+03  0.69915795830E+03 0.  0.
    5000001    2    3    3    0    0 -0.75103592767E+02  0.15071168735E+03 -0.52540942402E+02  0.22021463479E+03  0.13183084766E+03 0.  0.
        -13    1    4    4    0    0 -0.47974330421E+02  0.35256235238E+02  0.35660208965E+02  0.69398848477E+02  0.10566000000E+00 0. -1.
     200003    1    4    4    0    0 -0.27129262346E+02  0.11545545211E+03 -0.88201151367E+02  0.15081578631E+03  0.30000000000E+02 0. -1.
     200000    1    3    3    0    0 -0.94565379608E+02  0.30708982954E+03  0.31129774190E+03  0.67093446665E+03  0.50000000000E+03 0. -1.
    -200001    1    1    2    0    0  0.16966897237E+03 -0.45780151689E+03  0.52902610068E+02  0.85508389951E+03  0.70000000000E+03 0. -1.
<mgrwt>
<rscale>  0 0.17181962E+04</rscale>
<asrwt>0</asrwt>
<pdfrwt beam="1">  1        2 0.14699231E+00 0.17181962E+04</pdfrwt>
<pdfrwt beam="2">  1       -2 0.10246954E+00 0.17181962E+04</pdfrwt>
<totfact> 0.20021915E+01</totfact>
</mgrwt>
</event>
<event>
 8    1  0.2682466E-027  0.1802920E+04  0.7818608E-02  0.8704748E-01
          2   -1    0    0  501    0  0.00000000000E+00  0.00000000000E+00  0.26146498065E+04  0.26146498065E+04  0.25500000000E-02 0.  1.
         -2   -1    0    0    0  501 -0.00000000000E+00 -0.00000000000E+00 -0.31079901370E+03  0.31079901371E+03  0.25500000000E-02 0. -1.
     200001    2    1    2    0    0  0.94101339576E+02  0.49728554720E+03  0.73493141962E+03  0.11344558060E+04  0.70051253136E+03 0.  0.
    5000001    2    3    3    0    0 -0.19378712382E+01  0.23352585707E+03  0.21456235059E+03  0.36013244189E+03  0.17064668806E+03 0.  0.
        -13    1    4    4    0    0 -0.81196327531E+02  0.12566577913E+03  0.13523287240E+03  0.20167467017E+03  0.10566000000E+00 0. -1.
     200003    1    4    4    0    0  0.79258456293E+02  0.10786007795E+03  0.79329478187E+02  0.15845777172E+03  0.30000000000E+02 0. -1.
     200000    1    3    3    0    0  0.96039210814E+02  0.26375969013E+03  0.52036906903E+03  0.77432336408E+03  0.50000000000E+03 0. -1.
    -200001    1    1    2    0    0 -0.94101339576E+02 -0.49728554720E+03  0.15689193732E+04  0.17909930143E+04  0.70000000000E+03 0. -1.
<mgrwt>
<rscale>  0 0.18029205E+04</rscale>
<asrwt>0</asrwt>
<pdfrwt beam="1">  1        2 0.37352138E+00 0.18029205E+04</pdfrwt>
<pdfrwt beam="2">  1       -2 0.44399861E-01 0.18029205E+04</pdfrwt>
<totfact> 0.17457173E+01</totfact>
</mgrwt>
</event>
<event>
 8    1  0.2682466E-027  0.1508550E+04  0.7818608E-02  0.8878787E-01
         -2   -1    0    0    0  501 -0.00000000000E+00  0.00000000000E+00  0.25301558306E+03  0.25301558308E+03  0.25500000000E-02 0. -1.
          2   -1    0    0  501    0  0.00000000000E+00 -0.00000000000E+00 -0.22486000426E+04  0.22486000426E+04  0.25500000000E-02 0.  1.
     200001    2    1    2    0    0  0.69532459743E+02 -0.25538145763E+03 -0.11507111284E+04  0.13729591689E+04  0.70058998455E+03 0.  0.
    5000001    2    3    3    0    0  0.78744107319E+02 -0.64909619455E+02 -0.37357612788E+03  0.42940038180E+03  0.18550383132E+03 0.  0.
        -13    1    4    4    0    0  0.86029807994E+02 -0.88428959097E+01 -0.35105282805E+03  0.36154864668E+03  0.10566000000E+00 0. -1.
     200003    1    4    4    0    0 -0.72857006750E+01 -0.56066723545E+02 -0.22523299831E+02  0.67851735119E+02  0.30000000000E+02 0. -1.
     200000    1    3    3    0    0 -0.92116475760E+01 -0.19047183818E+03 -0.77713500056E+03  0.94355878709E+03  0.50000000000E+03 0. -1.
    -200001    1    1    2    0    0 -0.69532459743E+02  0.25538145763E+03 -0.84487333110E+03  0.11286564568E+04  0.70000000000E+03 0.  1.
<mgrwt>
<rscale>  0 0.15085501E+04</rscale>
<asrwt>0</asrwt>
<pdfrwt beam="1">  1        2 0.32122857E+00 0.15085501E+04</pdfrwt>
<pdfrwt beam="2">  1       -2 0.36145085E-01 0.15085501E+04</pdfrwt>
<totfact> 0.41580734E+01</totfact>
</mgrwt>
</event>
<event>
 8    1  0.2682466E-027  0.1470165E+04  0.7818608E-02  0.8904539E-01
         -2   -1    0    0    0  501 -0.00000000000E+00  0.00000000000E+00  0.11545563026E+04  0.11545563026E+04  0.25500000000E-02 0. -1.
          2   -1    0    0  501    0  0.00000000000E+00 -0.00000000000E+00 -0.46801213404E+03  0.46801213405E+03  0.25500000000E-02 0.  1.
     200001    2    1    2    0    0 -0.18418321223E+03 -0.11533290484E+03  0.28504712537E+03  0.78685017655E+03  0.70046855893E+03 0.  0.
    5000001    2    3    3    0    0 -0.80662169910E+02  0.75555887301E+02  0.16669158129E+02  0.17924679402E+03  0.14013020578E+03 0.  0.
        -13    1    4    4    0    0 -0.99159088518E+02  0.46724678957E+02 -0.30403657960E+02  0.11375462206E+03  0.10566000000E+00 0. -1.
     200003    1    4    4    0    0  0.18496918607E+02  0.28831208343E+02  0.47072816089E+02  0.65492171952E+02  0.30000000000E+02 0. -1.
     200000    1    3    3    0    0 -0.10352104232E+03 -0.19088879214E+03  0.26837796724E+03  0.60760338254E+03  0.50000000000E+03 0. -1.
    -200001    1    1    2    0    0  0.18418321223E+03  0.11533290484E+03  0.40149704322E+03  0.83571826013E+03  0.70000000000E+03 0. -1.
<mgrwt>
<rscale>  0 0.14701651E+04</rscale>
<asrwt>0</asrwt>
<pdfrwt beam="1">  1        2 0.66858875E-01 0.14701651E+04</pdfrwt>
<pdfrwt beam="2">  1       -2 0.16493662E+00 0.14701651E+04</pdfrwt>
<totfact> 0.16267543E+01</totfact>
</mgrwt>
</event>
<event>
 8    1  0.2682466E-027  0.2207572E+04  0.7818608E-02  0.8515283E-01
         -2   -1    0    0    0  501 -0.00000000000E+00  0.00000000000E+00  0.27200495634E+04  0.27200495634E+04  0.25500000000E-02 0. -1.
          2   -1    0    0  501    0  0.00000000000E+00 -0.00000000000E+00 -0.44791231922E+03  0.44791231923E+03  0.25500000000E-02 0.  1.
     200001    2    1    2    0    0 -0.16365066210E+03  0.44048970408E+03  0.21582830532E+04  0.23172119220E+04  0.70033751536E+03 0.  0.
    5000001    2    3    3    0    0  0.10874653364E+02  0.20483659778E+03  0.36936704398E+03  0.43673007948E+03  0.11056608553E+03 0.  0.
        -13    1    4    4    0    0 -0.19617856568E+02  0.53743295501E+02  0.34338542477E+02  0.66725922782E+02  0.10566000000E+00 0. -1.
     200003    1    4    4    0    0  0.30492509932E+02  0.15109330227E+03  0.33502850150E+03  0.37000415670E+03  0.30000000000E+02 0. -1.
     200000    1    3    3    0    0 -0.17452531546E+03  0.23565310631E+03  0.17889160092E+04  0.18804818426E+04  0.50000000000E+03 0. -1.
    -200001    1    1    2    0    0  0.16365066210E+03 -0.44048970408E+03  0.11385419099E+03  0.85074996057E+03  0.70000000000E+03 0.  1.
<mgrwt>
<rscale>  0 0.22075722E+04</rscale>
<asrwt>0</asrwt>
<pdfrwt beam="1">  1        2 0.63987474E-01 0.22075722E+04</pdfrwt>
<pdfrwt beam="2">  1       -2 0.38857851E+00 0.22075722E+04</pdfrwt>
<totfact> 0.61587260E-01</totfact>
</mgrwt>
</event>
<event>
 8    1  0.2682466E-027  0.1608551E+04  0.7818608E-02  0.8815312E-01
         -2   -1    0    0    0  501 -0.00000000000E+00  0.00000000000E+00  0.85905663806E+03  0.85905663807E+03  0.25500000000E-02 0. -1.
          2   -1    0    0  501    0  0.00000000000E+00 -0.00000000000E+00 -0.75298727969E+03  0.75298727969E+03  0.25500000000E-02 0.  1.
     200001    2    1    2    0    0 -0.19461694559E+03 -0.25186418805E+03 -0.18470403215E+03  0.78993657114E+03  0.69897988683E+03 0.  0.
    5000001    2    3    3    0    0  0.82557345496E+02  0.19832274023E+02  0.14447019003E+02  0.12638122581E+03  0.92490342686E+02 0.  0.
        -13    1    4    4    0    0  0.62698406090E+02  0.26709301698E+02  0.42436244773E+02  0.80282768748E+02  0.10566000000E+00 0. -1.
     200003    1    4    4    0    0  0.19858939406E+02 -0.68770276755E+01 -0.27989225770E+02  0.46098457058E+02  0.30000000000E+02 0. -1.
     200000    1    3    3    0    0 -0.27717429108E+03 -0.27169646208E+03 -0.19915105116E+03  0.66355534533E+03  0.50000000000E+03 0.  1.
    -200001    1    1    2    0    0  0.19461694559E+03  0.25186418805E+03  0.29077339053E+03  0.82210734662E+03  0.70000000000E+03 0. -1.
<mgrwt>
<rscale>  0 0.16085506E+04</rscale>
<asrwt>0</asrwt>
<pdfrwt beam="1">  1        2 0.10756961E+00 0.16085506E+04</pdfrwt>
<pdfrwt beam="2">  1       -2 0.12272238E+00 0.16085506E+04</pdfrwt>
<totfact> 0.19810118E+01</totfact>
</mgrwt>
</event>
<event>
 8    1  0.2682466E-027  0.1422534E+04  0.7818608E-02  0.8937667E-01
         -2   -1    0    0    0  501 -0.00000000000E+00  0.00000000000E+00  0.10006572667E+04  0.10006572667E+04  0.25500000000E-02 0. -1.
          2   -1    0    0  501    0  0.00000000000E+00 -0.00000000000E+00 -0.50556829617E+03  0.50556829618E+03  0.25500000000E-02 0.  1.
     200001    2    1    2    0    0 -0.31372189370E+02  0.96248696184E+01  0.37662023447E+03  0.79551345959E+03  0.69994429136E+03 0.  0.
    5000001    2    3    3    0    0 -0.12456929308E+02 -0.75552173660E+02  0.12385882238E+03  0.22850265969E+03  0.17609415542E+03 0.  0.
        -13    1    4    4    0    0  0.48835469909E+02 -0.42427384649E+02  0.13701100176E+03  0.15151571488E+03  0.10566000000E+00 0. -1.
     200003    1    4    4    0    0 -0.61292399217E+02 -0.33124789011E+02 -0.13152179379E+02  0.76986944810E+02  0.30000000000E+02 0. -1.
     200000    1    3    3    0    0 -0.18915260062E+02  0.85177043278E+02  0.25276141208E+03  0.56701079990E+03  0.50000000000E+03 0. -1.
    -200001    1    1    2    0    0  0.31372189370E+02 -0.96248696184E+01  0.11846873610E+03  0.71071210333E+03  0.70000000000E+03 0.  1.
<mgrwt>
<rscale>  0 0.14225338E+04</rscale>
<asrwt>0</asrwt>
<pdfrwt beam="1">  1        2 0.72224042E-01 0.14225338E+04</pdfrwt>
<pdfrwt beam="2">  1       -2 0.14295104E+00 0.14225338E+04</pdfrwt>
<totfact> 0.21934376E+01</totfact>
</mgrwt>
</event>
<event>
 8    1  0.2682466E-027  0.1653880E+04  0.7818608E-02  0.8788115E-01
         -2   -1    0    0    0  501 -0.00000000000E+00  0.00000000000E+00  0.29256616776E+03  0.29256616777E+03  0.25500000000E-02 0. -1.
          2   -1    0    0  501    0  0.00000000000E+00 -0.00000000000E+00 -0.23373502211E+04  0.23373502211E+04  0.25500000000E-02 0.  1.
     200001    2    1    2    0    0 -0.72178304362E+02 -0.14043832425E+02 -0.32634012562E+03  0.77291437767E+03  0.69677243113E+03 0.  0.
    5000001    2    3    3    0    0 -0.58477544804E+02 -0.80590327754E+01 -0.95324533487E+02  0.22192278750E+03  0.19151601936E+03 0.  0.
        -13    1    4    4    0    0 -0.67045896707E+02  0.79598126673E+02 -0.30246725593E+02  0.10837845546E+03  0.10566000000E+00 0. -1.
     200003    1    4    4    0    0  0.85683519025E+01 -0.87657159448E+02 -0.65077807894E+02  0.11354433203E+03  0.30000000000E+02 0. -1.
     200000    1    3    3    0    0 -0.13700759558E+02 -0.59847996500E+01 -0.23101559213E+03  0.55099159018E+03  0.50000000000E+03 0. -1.
    -200001    1    1    2    0    0  0.72178304362E+02  0.14043832425E+02 -0.17184439277E+04  0.18570020112E+04  0.70000000000E+03 0.  1.
<mgrwt>
<rscale>  0 0.16538798E+04</rscale>
<asrwt>0</asrwt>
<pdfrwt beam="1">  1        2 0.33390717E+00 0.16538798E+04</pdfrwt>
<pdfrwt beam="2">  1       -2 0.41795168E-01 0.16538798E+04</pdfrwt>
<totfact> 0.27868397E+01</totfact>
</mgrwt>
</event>
<event>
 8    1  0.2682466E-027  0.1833808E+04  0.7818608E-02  0.8688525E-01
          2   -1    0    0  501    0  0.00000000000E+00  0.00000000000E+00  0.22222467784E+04  0.22222467784E+04  0.25500000000E-02 0.  1.
         -2   -1    0    0    0  501 -0.00000000000E+00 -0.00000000000E+00 -0.37831662073E+03  0.37831662074E+03  0.25500000000E-02 0. -1.
     200001    2    1    2    0    0 -0.57149466426E+03 -0.55996450890E+02  0.11269237541E+04  0.14456435160E+04  0.70013304015E+03 0.  0.
    5000001    2    3    3    0    0 -0.96763095570E+02 -0.36962339529E+01  0.34646179161E+03  0.40294209663E+03  0.18152080151E+03 0.  0.
        -13    1    4    4    0    0 -0.10736375938E+03  0.66736105498E+02  0.24162951361E+03  0.27270041733E+03  0.10566000000E+00 0. -1.
     200003    1    4    4    0    0  0.10600663808E+02 -0.70432339451E+02  0.10483227800E+03  0.13024167929E+03  0.30000000000E+02 0. -1.
     200000    1    3    3    0    0 -0.47473156869E+03 -0.52300216937E+02  0.78046196254E+03  0.10427014194E+04  0.50000000000E+03 0. -1.
    -200001    1    1    2    0    0  0.57149466426E+03  0.55996450890E+02  0.71700640353E+03  0.11549198832E+04  0.70000000000E+03 0. -1.
<mgrwt>
<rscale>  0 0.18338079E+04</rscale>
<asrwt>0</asrwt>
<pdfrwt beam="1">  1        2 0.31746382E+00 0.18338079E+04</pdfrwt>
<pdfrwt beam="2">  1       -2 0.54045232E-01 0.18338079E+04</pdfrwt>
<totfact> 0.18751323E+01</totfact>
</mgrwt>
</event>
<event>
 8    1  0.2682466E-027  0.1868266E+04  0.7818608E-02  0.8670815E-01
          2   -1    0    0  501    0  0.00000000000E+00  0.00000000000E+00  0.12958355373E+04  0.12958355373E+04  0.25500000000E-02 0.  1.
         -2   -1    0    0    0  501 -0.00000000000E+00 -0.00000000000E+00 -0.67339168962E+03  0.67339168963E+03  0.25500000000E-02 0. -1.
     200001    2    1    2    0    0  0.21944013830E+03 -0.16892796681E+03 -0.27068653362E+03  0.80116365407E+03  0.70135680567E+03 0.  0.
    5000001    2    3    3    0    0  0.30149860125E+02 -0.12299722194E+02 -0.83747891720E+02  0.21353343679E+03  0.19370731021E+03 0.  0.
        -13    1    4    4    0    0  0.37885880193E+02 -0.36367908664E+02 -0.13738481269E+03  0.14708012313E+03  0.10566000000E+00 0. -1.
     200003    1    4    4    0    0 -0.77360200679E+01  0.24068186470E+02  0.53636920967E+02  0.66453313666E+02  0.30000000000E+02 0. -1.
     200000    1    3    3    0    0  0.18929027818E+03 -0.15662824462E+03 -0.18693864190E+03  0.58763021728E+03  0.50000000000E+03 0. -1.
    -200001    1    1    2    0    0 -0.21944013830E+03  0.16892796681E+03  0.89313038134E+03  0.11680635729E+04  0.70000000000E+03 0.  1.
<mgrwt>
<rscale>  0 0.18682664E+04</rscale>
<asrwt>0</asrwt>
<pdfrwt beam="1">  1        2 0.18511936E+00 0.18682664E+04</pdfrwt>
<pdfrwt beam="2">  1       -2 0.96198813E-01 0.18682664E+04</pdfrwt>
<totfact> 0.16095763E+01</totfact>
</mgrwt>
</event>
<event>
 8    1  0.2682466E-027  0.1445183E+04  0.7818608E-02  0.8921747E-01
         -2   -1    0    0    0  501 -0.00000000000E+00  0.00000000000E+00  0.34363506121E+03  0.34363506122E+03  0.25500000000E-02 0. -1.
          2   -1    0    0  501    0  0.00000000000E+00 -0.00000000000E+00 -0.15194555608E+04  0.15194555608E+04  0.25500000000E-02 0.  1.
     200001    2    1    2    0    0 -0.10320894921E+03 -0.12088074909E+03 -0.69796724517E+03  0.10007635521E+04  0.69936054310E+03 0.  0.
    5000001    2    3    3    0    0 -0.87328866397E+02  0.19558207567E+02 -0.23541101525E+03  0.30511023085E+03  0.17223545650E+03 0.  0.
        -13    1    4    4    0    0  0.42164197086E+02  0.40252108739E+02 -0.55691335790E+02  0.80620021210E+02  0.10566000000E+00 0. -1.
     200003    1    4    4    0    0 -0.12949306348E+03 -0.20693901172E+02 -0.17971967946E+03  0.22449020963E+03  0.30000000000E+02 0. -1.
     200000    1    3    3    0    0 -0.15880082812E+02 -0.14043895666E+03 -0.46255622992E+03  0.69565332128E+03  0.50000000000E+03 0.  1.
    -200001    1    1    2    0    0  0.10320894921E+03  0.12088074909E+03 -0.47785325439E+03  0.86232706987E+03  0.70000000000E+03 0.  1.
<mgrwt>
<rscale>  0 0.14451826E+04</rscale>
<asrwt>0</asrwt>
<pdfrwt beam="1">  1        2 0.21706508E+00 0.14451826E+04</pdfrwt>
<pdfrwt beam="2">  1       -2 0.49090724E-01 0.14451826E+04</pdfrwt>
<totfact> 0.54453563E+01</totfact>
</mgrwt>
</event>
<event>
 8    1  0.2682466E-027  0.1785709E+04  0.7818608E-02  0.8713936E-01
          2   -1    0    0  501    0  0.00000000000E+00  0.00000000000E+00  0.48860076379E+04  0.48860076379E+04  0.25500000000E-02 0.  1.
         -2   -1    0    0    0  501 -0.00000000000E+00 -0.00000000000E+00 -0.16315757278E+03  0.16315757280E+03  0.25500000000E-02 0. -1.
     200001    2    1    2    0    0 -0.21147435548E+03  0.39696726785E+03  0.14425176302E+04  0.16649540326E+04  0.69922128279E+03 0.  0.
    5000001    2    3    3    0    0 -0.91832540524E+02  0.25913324699E+02  0.21939287876E+03  0.28726417260E+03  0.15900551473E+03 0.  0.
        -13    1    4    4    0    0 -0.11399244620E+03  0.42519838364E+02  0.21388539862E+03  0.24606744879E+03  0.10566000000E+00 0. -1.
     200003    1    4    4    0    0  0.22159905676E+02 -0.16606513665E+02  0.55074801346E+01  0.41196723815E+02  0.30000000000E+02 0. -1.
     200000    1    3    3    0    0 -0.11964181496E+03  0.37105394315E+03  0.12231247515E+04  0.13776898600E+04  0.50000000000E+03 0.  1.
    -200001    1    1    2    0    0  0.21147435548E+03 -0.39696726785E+03  0.32803324349E+04  0.33842111781E+04  0.70000000000E+03 0.  1.
<mgrwt>
<rscale>  0 0.17857090E+04</rscale>
<asrwt>0</asrwt>
<pdfrwt beam="1">  1        2 0.69800108E+00 0.17857090E+04</pdfrwt>
<pdfrwt beam="2">  1       -2 0.23308225E-01 0.17857090E+04</pdfrwt>
<totfact> 0.17866734E+00</totfact>
</mgrwt>
</event>
<event>
 8    1  0.2682466E-027  0.2633285E+04  0.7818608E-02  0.8356982E-01
         -2   -1    0    0    0  501 -0.00000000000E+00  0.00000000000E+00  0.85163002610E+03  0.85163002611E+03  0.25500000000E-02 0. -1.
          2   -1    0    0  501    0  0.00000000000E+00 -0.00000000000E+00 -0.20355635246E+04  0.20355635246E+04  0.25500000000E-02 0.  1.
     200001    2    1    2    0    0 -0.89292987805E+03 -0.23716593200E+03  0.93205155978E+02  0.11624748521E+04  0.69934907903E+03 0.  0.
    5000001    2    3    3    0    0 -0.45537486823E+02  0.42059250798E+01  0.18087773991E+02  0.14661223388E+03  0.13811816333E+03 0.  0.
        -13    1    4    4    0    0  0.27565963767E+02  0.44245292668E+02  0.24888902149E+02  0.57766745589E+02  0.10566000000E+00 0. -1.
     200003    1    4    4    0    0 -0.73103450590E+02 -0.40039367589E+02 -0.68011281583E+01  0.88845488289E+02  0.30000000000E+02 0. -1.
     200000    1    3    3    0    0 -0.84739239123E+03 -0.24137185708E+03  0.75117381988E+02  0.10158626183E+04  0.50000000000E+03 0. -1.
    -200001    1    1    2    0    0  0.89292987805E+03  0.23716593200E+03 -0.12771386545E+04  0.17247186986E+04  0.70000000000E+03 0.  1.
<mgrwt>
<rscale>  0 0.26332847E+04</rscale>
<asrwt>0</asrwt>
<pdfrwt beam="1">  1        2 0.29079479E+00 0.26332847E+04</pdfrwt>
<pdfrwt beam="2">  1       -2 0.12166143E+00 0.26332847E+04</pdfrwt>
<totfact> 0.35043638E+00</totfact>
</mgrwt>
</event>
<event>
 8    1  0.2682466E-027  0.1935767E+04  0.7818608E-02  0.8637255E-01
          2   -1    0    0  501    0  0.00000000000E+00  0.00000000000E+00  0.53144081147E+03  0.53144081148E+03  0.25500000000E-02 0.  1.
         -2   -1    0    0    0  501 -0.00000000000E+00 -0.00000000000E+00 -0.17627524497E+04  0.17627524497E+04  0.25500000000E-02 0. -1.
     200001    2    1    2    0    0  0.18595126168E+03 -0.64174787800E+03 -0.63073452422E+03  0.11552854157E+04  0.70031431587E+03 0.  0.
    5000001    2    3    3    0    0  0.26847241793E+02 -0.88789672129E+02 -0.16907305385E+03  0.26410183201E+03  0.18044306544E+03 0.  0.
        -13    1    4    4    0    0  0.63532475010E+02 -0.70234173039E+02 -0.18743087116E+03  0.20999894540E+03  0.10566000000E+00 0. -1.
     200003    1    4    4    0    0 -0.36685233217E+02 -0.18555499090E+02  0.18357817313E+02  0.54102886607E+02  0.30000000000E+02 0. -1.
     200000    1    3    3    0    0  0.15910401989E+03 -0.55295820588E+03 -0.46166147038E+03  0.89118358368E+03  0.50000000000E+03 0.  1.
    -200001    1    1    2    0    0 -0.18595126168E+03  0.64174787800E+03 -0.60057711400E+03  0.11389078455E+04  0.70000000000E+03 0.  1.
<mgrwt>
<rscale>  0 0.19357671E+04</rscale>
<asrwt>0</asrwt>
<pdfrwt beam="1">  1        2 0.75920117E-01 0.19357671E+04</pdfrwt>
<pdfrwt beam="2">  1       -2 0.25182178E+00 0.19357671E+04</pdfrwt>
<totfact> 0.36709422E+00</totfact>
</mgrwt>
</event>
<event>
 8    1  0.2682466E-027  0.2190891E+04  0.7818608E-02  0.8522229E-01
          2   -1    0    0  501    0  0.00000000000E+00  0.00000000000E+00  0.65765351669E+03  0.65765351669E+03  0.25500000000E-02 0.  1.
         -2   -1    0    0    0  501 -0.00000000000E+00 -0.00000000000E+00 -0.18246701458E+04  0.18246701458E+04  0.25500000000E-02 0. -1.
     200001    2    1    2    0    0 -0.25840577393E+03  0.75646405803E+03 -0.28563542112E+03  0.11018004831E+04  0.70239966942E+03 0.  0.
    5000001    2    3    3    0    0 -0.98240431345E+02  0.22952356346E+03 -0.68499493591E+02  0.32690227504E+03  0.19960127322E+03 0.  0.
        -13    1    4    4    0    0 -0.12392965881E+03  0.15322745265E+03  0.26467149834E+02  0.19884097606E+03  0.10566000000E+00 0. -1.
     200003    1    4    4    0    0  0.25689227463E+02  0.76296110814E+02 -0.94966643425E+02  0.12806129898E+03  0.30000000000E+02 0. -1.
     200000    1    3    3    0    0 -0.16016534259E+03  0.52694049457E+03 -0.21713592753E+03  0.77489820803E+03  0.50000000000E+03 0. -1.
    -200001    1    1    2    0    0  0.25840577393E+03 -0.75646405803E+03 -0.88138120797E+03  0.13805231794E+04  0.70000000000E+03 0.  1.
<mgrwt>
<rscale>  0 0.21908909E+04</rscale>
<asrwt>0</asrwt>
<pdfrwt beam="1">  1        2 0.93950503E-01 0.21908909E+04</pdfrwt>
<pdfrwt beam="2">  1       -2 0.26066716E+00 0.21908909E+04</pdfrwt>
<totfact> 0.24662757E+00</totfact>
</mgrwt>
</event>
<event>
 8    1  0.2682466E-027  0.2629854E+04  0.7818608E-02  0.8358131E-01
          2   -1    0    0  501    0  0.00000000000E+00  0.00000000000E+00  0.74339871416E+03  0.74339871417E+03  0.25500000000E-02 0.  1.
         -2   -1    0    0    0  501 -0.00000000000E+00 -0.00000000000E+00 -0.23258491757E+04  0.23258491757E+04  0.25500000000E-02 0. -1.
     200001    2    1    2    0    0  0.10804087771E+04 -0.26378463884E+03 -0.76474645057E+03  0.15215058859E+04  0.70233721649E+03 0.  0.
    5000001    2    3    3    0    0  0.11424424231E+03  0.56957549669E+02 -0.19029162969E+03  0.25014920850E+03  0.10033849121E+03 0.  0.
        -13    1    4    4    0    0  0.30090777644E+02 -0.26178032157E+02 -0.55133191111E+02  0.68047220317E+02  0.10566000000E+00 0. -1.
     200003    1    4    4    0    0  0.84153464664E+02  0.83135581827E+02 -0.13515843858E+03  0.18210198818E+03  0.30000000000E+02 0. -1.
     200000    1    3    3    0    0  0.96616453484E+03 -0.32074218851E+03 -0.57445482087E+03  0.12713566774E+04  0.50000000000E+03 0.  1.
    -200001    1    1    2    0    0 -0.10804087771E+04  0.26378463884E+03 -0.81770401101E+03  0.15477420040E+04  0.70000000000E+03 0. -1.
<mgrwt>
<rscale>  0 0.26298542E+04</rscale>
<asrwt>0</asrwt>
<pdfrwt beam="1">  1        2 0.10619982E+00 0.26298542E+04</pdfrwt>
<pdfrwt beam="2">  1       -2 0.33226416E+00 0.26298542E+04</pdfrwt>
<totfact> 0.74419349E-01</totfact>
</mgrwt>
</event>
<event>
 8    1  0.2682466E-027  0.1641173E+04  0.7818608E-02  0.8795646E-01
          2   -1    0    0  501    0  0.00000000000E+00  0.00000000000E+00  0.21199888558E+04  0.21199888558E+04  0.25500000000E-02 0.  1.
         -2   -1    0    0    0  501 -0.00000000000E+00 -0.00000000000E+00 -0.31762526488E+03  0.31762526489E+03  0.25500000000E-02 0. -1.
     200001    2    1    2    0    0  0.38970667063E+03  0.53178428638E+02  0.66034074852E+03  0.10415785169E+04  0.70294855313E+03 0.  0.
    5000001    2    3    3    0    0  0.14140706293E+03 -0.95313566817E+02  0.24312068218E+03  0.32899508205E+03  0.14159613146E+03 0.  0.
        -13    1    4    4    0    0  0.13120757418E+03 -0.11962375394E+03  0.17074374946E+03  0.24633048770E+03  0.10566000000E+00 0. -1.
     200003    1    4    4    0    0  0.10199488745E+02  0.24310187119E+02  0.72376932721E+02  0.82664594347E+02  0.30000000000E+02 0. -1.
     200000    1    3    3    0    0  0.24829960771E+03  0.14849199545E+03  0.41722006634E+03  0.71258343487E+03  0.50000000000E+03 0.  1.
    -200001    1    1    2    0    0 -0.38970667063E+03 -0.53178428638E+02  0.11420228424E+04  0.13960356038E+04  0.70000000000E+03 0.  1.
<mgrwt>
<rscale>  0 0.16411728E+04</rscale>
<asrwt>0</asrwt>
<pdfrwt beam="1">  1        2 0.30285554E+00 0.16411728E+04</pdfrwt>
<pdfrwt beam="2">  1       -2 0.45375040E-01 0.16411728E+04</pdfrwt>
<totfact> 0.30695881E+01</totfact>
</mgrwt>
</event>
<event>
 8    1  0.2682466E-027  0.1468823E+04  0.7818608E-02  0.8905454E-01
         -2   -1    0    0    0  501 -0.00000000000E+00  0.00000000000E+00  0.13120813223E+04  0.13120813223E+04  0.25500000000E-02 0. -1.
          2   -1    0    0  501    0  0.00000000000E+00 -0.00000000000E+00 -0.41107202736E+03  0.41107202737E+03  0.25500000000E-02 0.  1.
     200001    2    1    2    0    0  0.11481033354E+03 -0.16815608918E+03  0.55327155333E+03  0.91545326923E+03  0.70034805161E+03 0.  0.
    5000001    2    3    3    0    0 -0.17143731410E+02  0.58781770130E+02  0.36282040693E+02  0.14982227232E+03  0.13183748625E+03 0.  0.
        -13    1    4    4    0    0 -0.69426483237E+02  0.20925756461E+02  0.69788430877E+01  0.72846683336E+02  0.10566000000E+00 0. -1.
     200003    1    4    4    0    0  0.52282751828E+02  0.37856013668E+02  0.29303197605E+02  0.76975588984E+02  0.30000000000E+02 0. -1.
     200000    1    3    3    0    0  0.13195406495E+03 -0.22693785931E+03  0.51698951264E+03  0.76563099691E+03  0.50000000000E+03 0.  1.
    -200001    1    1    2    0    0 -0.11481033354E+03  0.16815608918E+03  0.34773774162E+03  0.80770008045E+03  0.70000000000E+03 0.  1.
<mgrwt>
<rscale>  0 0.14688226E+04</rscale>
<asrwt>0</asrwt>
<pdfrwt beam="1">  1        2 0.58724575E-01 0.14688226E+04</pdfrwt>
<pdfrwt beam="2">  1       -2 0.18744019E+00 0.14688226E+04</pdfrwt>
<totfact> 0.13109987E+01</totfact>
</mgrwt>
</event>
<event>
 8    1  0.2682466E-027  0.2126920E+04  0.7818608E-02  0.8549477E-01
         -2   -1    0    0    0  501 -0.00000000000E+00  0.00000000000E+00  0.42673136313E+03  0.42673136313E+03  0.25500000000E-02 0. -1.
          2   -1    0    0  501    0  0.00000000000E+00 -0.00000000000E+00 -0.26502553998E+04  0.26502553998E+04  0.25500000000E-02 0.  1.
     200001    2    1    2    0    0 -0.26230052741E+03 -0.45795579941E+03 -0.19826337338E+04  0.21678370399E+04  0.70011129686E+03 0.  0.
    5000001    2    3    3    0    0 -0.83646131038E+02 -0.16669498357E+03 -0.56237015415E+03  0.62384905677E+03  0.19530376997E+03 0.  0.
        -13    1    4    4    0    0 -0.12520180936E+03 -0.67159594586E+02 -0.41585604052E+03  0.43945666659E+03  0.10566000000E+00 0. -1.
     200003    1    4    4    0    0  0.41555678323E+02 -0.99535388985E+02 -0.14651411363E+03  0.18439239018E+03  0.30000000000E+02 0. -1.
     200000    1    3    3    0    0 -0.17865439638E+03 -0.29126081584E+03 -0.14202635797E+04  0.15439879831E+04  0.50000000000E+03 0.  1.
    -200001    1    1    2    0    0  0.26230052741E+03  0.45795579941E+03 -0.24089030280E+03  0.90914972303E+03  0.70000000000E+03 0. -1.
<mgrwt>
<rscale>  0 0.21269199E+04</rscale>
<asrwt>0</asrwt>
<pdfrwt beam="1">  1        2 0.37860791E+00 0.21269199E+04</pdfrwt>
<pdfrwt beam="2">  1       -2 0.60961625E-01 0.21269199E+04</pdfrwt>
<totfact> 0.84782480E+00</totfact>
</mgrwt>
</event>
<event>
 8    1  0.2682466E-027  0.1718846E+04  0.7818608E-02  0.8750688E-01
         -2   -1    0    0    0  501 -0.00000000000E+00  0.00000000000E+00  0.63367207371E+03  0.63367207371E+03  0.25500000000E-02 0. -1.
          2   -1    0    0  501    0  0.00000000000E+00 -0.00000000000E+00 -0.11655999700E+04  0.11655999701E+04  0.25500000000E-02 0.  1.
     200001    2    1    2    0    0 -0.38141434835E+03  0.27877861255E+03 -0.99577324184E+02  0.85052474486E+03  0.70020159824E+03 0.  0.
    5000001    2    3    3    0    0 -0.12064955579E+03  0.13552126983E+03 -0.31870472678E+02  0.26477295355E+03  0.19017534018E+03 0.  0.
        -13    1    4    4    0    0 -0.10135369128E+03 -0.12143647324E+02 -0.46475086220E+02  0.11216052652E+03  0.10566000000E+00 0. -1.
     200003    1    4    4    0    0 -0.19295864508E+02  0.14766491716E+03  0.14604613542E+02  0.15261242703E+03  0.30000000000E+02 0. -1.
     200000    1    3    3    0    0 -0.26076479256E+03  0.14325734272E+03 -0.67706851506E+02  0.58575179131E+03  0.50000000000E+03 0. -1.
    -200001    1    1    2    0    0  0.38141434835E+03 -0.27877861255E+03 -0.43235057215E+03  0.94874729891E+03  0.70000000000E+03 0.  1.
<mgrwt>
<rscale>  0 0.17188463E+04</rscale>
<asrwt>0</asrwt>
<pdfrwt beam="1">  1        2 0.16651428E+00 0.17188463E+04</pdfrwt>
<pdfrwt beam="2">  1       -2 0.90524582E-01 0.17188463E+04</pdfrwt>
<totfact> 0.22224030E+01</totfact>
</mgrwt>
</event>
<event>
 8    1  0.2682466E-027  0.1487676E+04  0.7818608E-02  0.8892690E-01
         -2   -1    0    0    0  501 -0.00000000000E+00  0.00000000000E+00  0.14234366198E+03  0.14234366200E+03  0.25500000000E-02 0. -1.
          2   -1    0    0  501    0  0.00000000000E+00 -0.00000000000E+00 -0.38870364507E+04  0.38870364507E+04  0.25500000000E-02 0.  1.
     200001    2    1    2    0    0 -0.22780195309E+02  0.15543416783E+03 -0.13416210137E+04  0.15215059783E+04  0.70025336839E+03 0.  0.
    5000001    2    3    3    0    0 -0.98691784405E+02 -0.48286257705E+02 -0.18761688130E+03  0.24518700618E+03  0.11333553220E+03 0.  0.
        -13    1    4    4    0    0  0.11548354768E+02  0.36610278800E+01 -0.76831655009E+02  0.77780987384E+02  0.10566000000E+00 0. -1.
     200003    1    4    4    0    0 -0.11024013917E+03 -0.51947285585E+02 -0.11078522629E+03  0.16740601879E+03  0.30000000000E+02 0. -1.
     200000    1    3    3    0    0  0.75911589096E+02  0.20372042554E+03 -0.11540041324E+04  0.12763189722E+04  0.50000000000E+03 0. -1.
    -200001    1    1    2    0    0  0.22780195309E+02 -0.15543416783E+03 -0.24030717750E+04  0.25078741344E+04  0.70000000000E+03 0.  1.
<mgrwt>
<rscale>  0 0.14876760E+04</rscale>
<asrwt>0</asrwt>
<pdfrwt beam="1">  1        2 0.55529086E+00 0.14876760E+04</pdfrwt>
<pdfrwt beam="2">  1       -2 0.20334811E-01 0.14876760E+04</pdfrwt>
<totfact> 0.13891735E+01</totfact>
</mgrwt>
</event>
<event>
 8    1  0.2682466E-027  0.1704735E+04  0.7818608E-02  0.8758669E-01
         -2   -1    0    0    0  501 -0.00000000000E+00  0.00000000000E+00  0.26873293553E+03  0.26873293554E+03  0.25500000000E-02 0. -1.
          2   -1    0    0  501    0  0.00000000000E+00 -0.00000000000E+00 -0.27035398830E+04  0.27035398830E+04  0.25500000000E-02 0.  1.
     200001    2    1    2    0    0  0.87802486290E+02  0.22540412735E+03 -0.48143018396E+03  0.88320674074E+03  0.69983057066E+03 0.  0.
    5000001    2    3    3    0    0  0.80284124957E+02  0.46873880811E+02 -0.15509385038E+03  0.25996924403E+03  0.18678116606E+03 0.  0.
        -13    1    4    4    0    0  0.98332983719E+02  0.95843613196E+02 -0.65768003551E+02  0.15225247234E+03  0.10566000000E+00 0. -1.
     200003    1    4    4    0    0 -0.18048858762E+02 -0.48969732385E+02 -0.89325846831E+02  0.10771677170E+03  0.30000000000E+02 0. -1.
     200000    1    3    3    0    0  0.75183613322E+01  0.17853024654E+03 -0.32633633358E+03  0.62323749671E+03  0.50000000000E+03 0. -1.
    -200001    1    1    2    0    0 -0.87802486290E+02 -0.22540412735E+03 -0.19533767635E+04  0.20890660778E+04  0.70000000000E+03 0.  1.
<mgrwt>
<rscale>  0 0.17047348E+04</rscale>
<asrwt>0</asrwt>
<pdfrwt beam="1">  1        2 0.38621997E+00 0.17047348E+04</pdfrwt>
<pdfrwt beam="2">  1       -2 0.38390421E-01 0.17047348E+04</pdfrwt>
<totfact> 0.21003092E+01</totfact>
</mgrwt>
</event>
<event>
 8    1  0.2682466E-027  0.1515809E+04  0.7818608E-02  0.8874008E-01
          2   -1    0    0  501    0  0.00000000000E+00  0.00000000000E+00  0.56681548717E+03  0.56681548718E+03  0.25500000000E-02 0.  1.
         -2   -1    0    0    0  501 -0.00000000000E+00 -0.00000000000E+00 -0.10134149847E+04  0.10134149847E+04  0.25500000000E-02 0. -1.
     200001    2    1    2    0    0 -0.14038452349E+02  0.10420224365E+02 -0.52774197189E+03  0.87532639302E+03  0.69812538000E+03 0.  0.
    5000001    2    3    3    0    0  0.23702728293E+02 -0.60471804370E+02 -0.10336592376E+03  0.21461079105E+03  0.17650671089E+03 0.  0.
        -13    1    4    4    0    0  0.34916728814E+02 -0.91418725340E+02  0.44474089773E+01  0.97960971333E+02  0.10566000000E+00 0. -1.
     200003    1    4    4    0    0 -0.11214000521E+02  0.30946920970E+02 -0.10781333273E+03  0.11664981972E+03  0.30000000000E+02 0. -1.
     200000    1    3    3    0    0 -0.37741180642E+02  0.70892028735E+02 -0.42437604813E+03  0.66071560197E+03  0.50000000000E+03 0.  1.
    -200001    1    1    2    0    0  0.14038452349E+02 -0.10420224365E+02  0.81142474383E+02  0.70490407884E+03  0.70000000000E+03 0.  1.
<mgrwt>
<rscale>  0 0.15158091E+04</rscale>
<asrwt>0</asrwt>
<pdfrwt beam="1">  1        2 0.80973641E-01 0.15158091E+04</pdfrwt>
<pdfrwt beam="2">  1       -2 0.14477357E+00 0.15158091E+04</pdfrwt>
<totfact> 0.18455079E+01</totfact>
</mgrwt>
</event>
<event>
 8    1  0.2682466E-027  0.1736112E+04  0.7818608E-02  0.8741032E-01
          2   -1    0    0  501    0  0.00000000000E+00  0.00000000000E+00  0.15570389197E+04  0.15570389197E+04  0.25500000000E-02 0.  1.
         -2   -1    0    0    0  501 -0.00000000000E+00 -0.00000000000E+00 -0.48394508714E+03  0.48394508715E+03  0.25500000000E-02 0. -1.
     200001    2    1    2    0    0  0.15860906078E+03  0.15453972300E+03 -0.63335427443E+01  0.73553281331E+03  0.70137653621E+03 0.  0.
    5000001    2    3    3    0    0  0.25152538402E+02  0.25643339084E+02 -0.23278995386E+02  0.20194864046E+03  0.19736035754E+03 0.  0.
        -13    1    4    4    0    0 -0.44914483363E+02  0.19503338212E+02  0.67414714362E+02  0.83321341167E+02  0.10566000000E+00 0. -1.
     200003    1    4    4    0    0  0.70067021765E+02  0.61400008721E+01 -0.90693709748E+02  0.11862729929E+03  0.30000000000E+02 0. -1.
     200000    1    3    3    0    0  0.13345652237E+03  0.12889638391E+03  0.16945452642E+02  0.53358417285E+03  0.50000000000E+03 0. -1.
    -200001    1    1    2    0    0 -0.15860906078E+03 -0.15453972300E+03  0.10794273753E+04  0.13054511935E+04  0.70000000000E+03 0.  1.
<mgrwt>
<rscale>  0 0.17361121E+04</rscale>
<asrwt>0</asrwt>
<pdfrwt beam="1">  1        2 0.22243413E+00 0.17361121E+04</pdfrwt>
<pdfrwt beam="2">  1       -2 0.69135012E-01 0.17361121E+04</pdfrwt>
<totfact> 0.24775727E+01</totfact>
</mgrwt>
</event>
<event>
 8    1  0.2682466E-027  0.1846663E+04  0.7818608E-02  0.8681871E-01
         -2   -1    0    0    0  501 -0.00000000000E+00  0.00000000000E+00  0.67052095245E+03  0.67052095245E+03  0.25500000000E-02 0. -1.
          2   -1    0    0  501    0  0.00000000000E+00 -0.00000000000E+00 -0.12714601080E+04  0.12714601080E+04  0.25500000000E-02 0.  1.
     200001    2    1    2    0    0 -0.25162134980E+02 -0.15996994682E+03  0.30938644326E+03  0.78227583379E+03  0.70000856562E+03 0.  0.
    5000001    2    3    3    0    0 -0.86348705206E+02 -0.71269866322E+02  0.26967995027E+02  0.19800562186E+03  0.16106973892E+03 0.  0.
        -13    1    4    4    0    0  0.91369467455E+01 -0.18619917302E+02 -0.54705996219E+02  0.58505916817E+02  0.10566000000E+00 0. -1.
     200003    1    4    4    0    0 -0.95485651951E+02 -0.52649949020E+02  0.81673991246E+02  0.13949970504E+03  0.30000000000E+02 0. -1.
     200000    1    3    3    0    0  0.61186570225E+02 -0.88700080497E+02  0.28241844823E+03  0.58427021194E+03  0.50000000000E+03 0. -1.
    -200001    1    1    2    0    0  0.25162134980E+02  0.15996994682E+03 -0.91032559885E+03  0.11597052267E+04  0.70000000000E+03 0.  1.
<mgrwt>
<rscale>  0 0.18466625E+04</rscale>
<asrwt>0</asrwt>
<pdfrwt beam="1">  1        2 0.18163716E+00 0.18466625E+04</pdfrwt>
<pdfrwt beam="2">  1       -2 0.95788707E-01 0.18466625E+04</pdfrwt>
<totfact> 0.16801929E+01</totfact>
</mgrwt>
</event>
<event>
 8    1  0.2682466E-027  0.1730191E+04  0.7818608E-02  0.8744330E-01
         -2   -1    0    0    0  501 -0.00000000000E+00  0.00000000000E+00  0.10814132516E+04  0.10814132516E+04  0.25500000000E-02 0. -1.
          2   -1    0    0  501    0  0.00000000000E+00 -0.00000000000E+00 -0.69204793315E+03  0.69204793316E+03  0.25500000000E-02 0.  1.
     200001    2    1    2    0    0 -0.99151094068E+02 -0.36055523839E+03  0.54808856006E+03  0.96412560118E+03  0.69950417140E+03 0.  0.
    5000001    2    3    3    0    0 -0.50531604010E+01  0.32211142413E+02  0.19597140078E+03  0.23125020600E+03  0.11835867406E+03 0.  0.
        -13    1    4    4    0    0 -0.41397711058E+02  0.96529058588E+01  0.16527198854E+03  0.17065107803E+03  0.10566000000E+00 0. -1.
     200003    1    4    4    0    0  0.36344550657E+02  0.22558236554E+02  0.30699412238E+02  0.60599127969E+02  0.30000000000E+02 0. -1.
     200000    1    3    3    0    0 -0.94097933667E+02 -0.39276638080E+03  0.35211715927E+03  0.73287539518E+03  0.50000000000E+03 0. -1.
    -200001    1    1    2    0    0  0.99151094068E+02  0.36055523839E+03 -0.15872324163E+03  0.80933558356E+03  0.70000000000E+03 0.  1.
<mgrwt>
<rscale>  0 0.17301905E+04</rscale>
<asrwt>0</asrwt>
<pdfrwt beam="1">  1        2 0.98863991E-01 0.17301905E+04</pdfrwt>
<pdfrwt beam="2">  1       -2 0.15448761E+00 0.17301905E+04</pdfrwt>
<totfact> 0.12029543E+01</totfact>
</mgrwt>
</event>
<event>
 8    1  0.2682466E-027  0.1418822E+04  0.7818608E-02  0.8940306E-01
          2   -1    0    0  501    0  0.00000000000E+00  0.00000000000E+00  0.63470707833E+03  0.63470707833E+03  0.25500000000E-02 0.  1.
         -2   -1    0    0    0  501 -0.00000000000E+00 -0.00000000000E+00 -0.79290719843E+03  0.79290719844E+03  0.25500000000E-02 0. -1.
     200001    2    1    2    0    0 -0.26422498160E+02  0.10552987175E+03 -0.12626884784E+03  0.71849206700E+03  0.69889364439E+03 0.  0.
    5000001    2    3    3    0    0  0.44014587523E+01  0.72306026015E+02  0.91108252556E+01  0.19850976332E+03  0.18459573332E+03 0.  0.
        -13    1    4    4    0    0  0.68205254474E+02  0.84346384156E+02  0.46245265776E+02  0.11791906135E+03  0.10566000000E+00 0. -1.
     200003    1    4    4    0    0 -0.63803795721E+02 -0.12040358142E+02 -0.37134440520E+02  0.80590701978E+02  0.30000000000E+02 0. -1.
     200000    1    3    3    0    0 -0.30823956912E+02  0.33223845738E+02 -0.13537967309E+03  0.51998230367E+03  0.50000000000E+03 0. -1.
    -200001    1    1    2    0    0  0.26422498160E+02 -0.10552987175E+03 -0.31931272270E+02  0.70912220977E+03  0.70000000000E+03 0.  1.
<mgrwt>
<rscale>  0 0.14188218E+04</rscale>
<asrwt>0</asrwt>
<pdfrwt beam="1">  1        2 0.90672440E-01 0.14188218E+04</pdfrwt>
<pdfrwt beam="2">  1       -2 0.11327246E+00 0.14188218E+04</pdfrwt>
<totfact> 0.30219763E+01</totfact>
</mgrwt>
</event>
<event>
 8    1  0.2682466E-027  0.1700022E+04  0.7818608E-02  0.8761352E-01
          2   -1    0    0  501    0  0.00000000000E+00  0.00000000000E+00  0.19881047658E+04  0.19881047658E+04  0.25500000000E-02 0.  1.
         -2   -1    0    0    0  501 -0.00000000000E+00 -0.00000000000E+00 -0.36342085458E+03  0.36342085459E+03  0.25500000000E-02 0. -1.
     200001    2    1    2    0    0 -0.43799222146E+03 -0.11216953061E+03  0.57750296938E+03  0.10132404809E+04  0.69909041105E+03 0.  0.
    5000001    2    3    3    0    0 -0.22648209564E+03  0.21549755543E+02  0.15708331773E+03  0.31369057967E+03  0.14821632654E+03 0.  0.
        -13    1    4    4    0    0 -0.38298990134E+02  0.25648373249E+02 -0.22961331044E+02  0.51496461848E+02  0.10566000000E+00 0. -1.
     200003    1    4    4    0    0 -0.18818310551E+03 -0.40986177054E+01  0.18004464878E+03  0.26219411782E+03  0.30000000000E+02 0. -1.
     200000    1    3    3    0    0 -0.21151012582E+03 -0.13371928615E+03  0.42041965165E+03  0.69954990123E+03  0.50000000000E+03 0. -1.
    -200001    1    1    2    0    0  0.43799222146E+03  0.11216953061E+03  0.10471809418E+04  0.13382851395E+04  0.70000000000E+03 0.  1.
<mgrwt>
<rscale>  0 0.17000220E+04</rscale>
<asrwt>0</asrwt>
<pdfrwt beam="1">  1        2 0.28401497E+00 0.17000220E+04</pdfrwt>
<pdfrwt beam="2">  1       -2 0.51917264E-01 0.17000220E+04</pdfrwt>
<totfact> 0.27187631E+01</totfact>
</mgrwt>
</event>
<event>
 8    1  0.2682466E-027  0.1458425E+04  0.7818608E-02  0.8912580E-01
          2   -1    0    0  501    0  0.00000000000E+00  0.00000000000E+00  0.36369650723E+03  0.36369650723E+03  0.25500000000E-02 0.  1.
         -2   -1    0    0    0  501 -0.00000000000E+00 -0.00000000000E+00 -0.14620732846E+04  0.14620732846E+04  0.25500000000E-02 0. -1.
     200001    2    1    2    0    0 -0.11422473543E+03  0.16758112198E+03 -0.57986907176E+03  0.93135324269E+03  0.70002857060E+03 0.  0.
    5000001    2    3    3    0    0  0.10091447164E+03  0.77138418224E+02 -0.12453891563E+03  0.21595802873E+03  0.12244942839E+03 0.  0.
        -13    1    4    4    0    0  0.12086604982E+03  0.60697626664E+02 -0.83619142783E+02  0.15901250292E+03  0.10566000000E+00 0. -1.
     200003    1    4    4    0    0 -0.19951578184E+02  0.16440791559E+02 -0.40919772848E+02  0.56945525803E+02  0.30000000000E+02 0. -1.
     200000    1    3    3    0    0 -0.21513920707E+03  0.90442703760E+02 -0.45533015613E+03  0.71539521397E+03  0.50000000000E+03 0.  1.
    -200001    1    1    2    0    0  0.11422473543E+03 -0.16758112198E+03 -0.51850770565E+03  0.89441654918E+03  0.70000000000E+03 0. -1.
<mgrwt>
<rscale>  0 0.14584251E+04</rscale>
<asrwt>0</asrwt>
<pdfrwt beam="1">  1        2 0.51956645E-01 0.14584251E+04</pdfrwt>
<pdfrwt beam="2">  1       -2 0.20886761E+00 0.14584251E+04</pdfrwt>
<totfact> 0.10869957E+01</totfact>
</mgrwt>
</event>
<event>
 8    1  0.2682466E-027  0.1739814E+04  0.7818608E-02  0.8738977E-01
         -2   -1    0    0    0  501 -0.00000000000E+00  0.00000000000E+00  0.10424951222E+04  0.10424951222E+04  0.25500000000E-02 0. -1.
          2   -1    0    0  501    0  0.00000000000E+00 -0.00000000000E+00 -0.72589095482E+03  0.72589095482E+03  0.25500000000E-02 0.  1.
     200001    2    1    2    0    0 -0.30849171586E+03  0.14927957410E+03  0.55105580369E+03  0.95449474532E+03  0.69996156328E+03 0.  0.
    5000001    2    3    3    0    0 -0.16397355903E+03 -0.62884461020E+02  0.44532676012E+02  0.19788073916E+03  0.79572886074E+02 0.  0.
        -13    1    4    4    0    0 -0.10216652167E+03 -0.27298556965E+02  0.56000595876E+02  0.11966322436E+03  0.10566000000E+00 0. -1.
     200003    1    4    4    0    0 -0.61807037365E+02 -0.35585904056E+02 -0.11467919864E+02  0.78217514799E+02  0.30000000000E+02 0. -1.
     200000    1    3    3    0    0 -0.14451815683E+03  0.21216403512E+03  0.50652312767E+03  0.75661400616E+03  0.50000000000E+03 0. -1.
    -200001    1    1    2    0    0  0.30849171586E+03 -0.14927957410E+03 -0.23445163633E+03  0.81389133168E+03  0.70000000000E+03 0.  1.
<mgrwt>
<rscale>  0 0.17398135E+04</rscale>
<asrwt>0</asrwt>
<pdfrwt beam="1">  1        2 0.10369871E+00 0.17398135E+04</pdfrwt>
<pdfrwt beam="2">  1       -2 0.14892787E+00 0.17398135E+04</pdfrwt>
<totfact> 0.12490914E+01</totfact>
</mgrwt>
</event>
