<event>
 4    1  0.6239849E-005  0.4359616E+03  0.7818608E-02  0.1031993E+00
         -2   -1    0    0    0  501 -0.00000000000E+00  0.00000000000E+00  0.40589102422E+03  0.40589102422E+03  0.25500000000E-02 0. -1.
          2   -1    0    0  501    0  0.00000000000E+00 -0.00000000000E+00 -0.11706499149E+03  0.11706499152E+03  0.25500000000E-02 0.  1.
    5000001    1    1    2    0    0 -0.24019647909E+02 -0.96588434082E+02  0.20150637077E+03  0.29301038641E+03  0.18800000000E+03 0.  0.
   -5000001    1    1    2    0    0  0.24019647909E+02  0.96588434082E+02  0.87319661963E+02  0.22994562933E+03  0.18800000000E+03 0.  0.
<mgrwt>
<rscale>  0 0.43596160E+03</rscale>
<asrwt>0</asrwt>
<pdfrwt beam="1">  1        2 0.16723570E-01 0.43596160E+03</pdfrwt>
<pdfrwt beam="2">  1       -2 0.57984433E-01 0.43596160E+03</pdfrwt>
<totfact> 0.97997005E+02</totfact>
</mgrwt>
</event>
<event>
 4    1  0.6239849E-005  0.4151744E+03  0.7818608E-02  0.1038648E+00
         -2   -1    0    0    0  501 -0.00000000000E+00  0.00000000000E+00  0.22836099065E+02  0.22836099207E+02  0.25500000000E-02 0. -1.
          2   -1    0    0  501    0  0.00000000000E+00 -0.00000000000E+00 -0.18870321394E+04  0.18870321394E+04  0.25500000000E-02 0.  1.
    5000001    1    1    2    0    0  0.74240092419E+02 -0.45520211802E+02 -0.99114728806E+03  0.10125712951E+04  0.18800000000E+03 0.  0.
   -5000001    1    1    2    0    0 -0.74240092419E+02  0.45520211802E+02 -0.87304875229E+03  0.89729694354E+03  0.18800000000E+03 0.  0.
<mgrwt>
<rscale>  0 0.41517444E+03</rscale>
<asrwt>0</asrwt>
<pdfrwt beam="1">  1        2 0.26957592E+00 0.41517444E+03</pdfrwt>
<pdfrwt beam="2">  1       -2 0.32623011E-02 0.41517444E+03</pdfrwt>
<totfact> 0.37417741E+03</totfact>
</mgrwt>
</event>
<event>
 4    1  0.6239849E-005  0.4611915E+03  0.7818608E-02  0.1024436E+00
          2   -1    0    0  501    0  0.00000000000E+00  0.00000000000E+00  0.20722248118E+04  0.20722248118E+04  0.25500000000E-02 0.  1.
         -2   -1    0    0    0  501 -0.00000000000E+00 -0.00000000000E+00 -0.25660530918E+02  0.25660531045E+02  0.25500000000E-02 0. -1.
    5000001    1    1    2    0    0  0.57506668862E+02 -0.66971262045E+02  0.56752980924E+03  0.60433951657E+03  0.18800000000E+03 0.  0.
   -5000001    1    1    2    0    0 -0.57506668862E+02  0.66971262045E+02  0.14790344716E+04  0.14935458263E+04  0.18800000000E+03 0.  0.
<mgrwt>
<rscale>  0 0.46119145E+03</rscale>
<asrwt>0</asrwt>
<pdfrwt beam="1">  1        2 0.29603216E+00 0.46119145E+03</pdfrwt>
<pdfrwt beam="2">  1       -2 0.36657897E-02 0.46119145E+03</pdfrwt>
<totfact> 0.25338584E+03</totfact>
</mgrwt>
</event>
<event>
 4    1  0.6239849E-005  0.1064682E+04  0.7818608E-02  0.9240316E-01
         -2   -1    0    0    0  501 -0.00000000000E+00  0.00000000000E+00  0.11794541837E+03  0.11794541839E+03  0.25500000000E-02 0.  1.
          2   -1    0    0  501    0  0.00000000000E+00 -0.00000000000E+00 -0.24026944150E+04  0.24026944150E+04  0.25500000000E-02 0. -1.
    5000001    1    1    2    0    0 -0.19126114197E+03  0.58524599778E+02 -0.22222187520E+04  0.22391083348E+04  0.18800000000E+03 0.  0.
   -5000001    1    1    2    0    0  0.19126114197E+03 -0.58524599778E+02 -0.62530244633E+02  0.28153149860E+03  0.18800000000E+03 0.  0.
<mgrwt>
<rscale>  0 0.10646817E+04</rscale>
<asrwt>0</asrwt>
<pdfrwt beam="1">  1        2 0.34324203E+00 0.10646817E+04</pdfrwt>
<pdfrwt beam="2">  1       -2 0.16849347E-01 0.10646817E+04</pdfrwt>
<totfact> 0.14294334E+02</totfact>
</mgrwt>
</event>
<event>
 4    1  0.6239849E-005  0.6955006E+03  0.7818608E-02  0.9724958E-01
          2   -1    0    0  501    0  0.00000000000E+00  0.00000000000E+00  0.32632147915E+03  0.32632147916E+03  0.25500000000E-02 0. -1.
         -2   -1    0    0    0  501 -0.00000000000E+00 -0.00000000000E+00 -0.37058628843E+03  0.37058628844E+03  0.25500000000E-02 0.  1.
    5000001    1    1    2    0    0  0.11637939686E+03 -0.26702838816E+03  0.50876400114E+01  0.34672497484E+03  0.18800000000E+03 0.  0.
   -5000001    1    1    2    0    0 -0.11637939686E+03  0.26702838816E+03 -0.49352449294E+02  0.35018279276E+03  0.18800000000E+03 0.  0.
<mgrwt>
<rscale>  0 0.69550058E+03</rscale>
<asrwt>0</asrwt>
<pdfrwt beam="1">  1        2 0.46617354E-01 0.69550058E+03</pdfrwt>
<pdfrwt beam="2">  1       -2 0.52940898E-01 0.69550058E+03</pdfrwt>
<totfact> 0.36847470E+02</totfact>
</mgrwt>
</event>
<event>
 4    1  0.6239849E-005  0.6122486E+03  0.7818608E-02  0.9880315E-01
         -2   -1    0    0    0  501 -0.00000000000E+00  0.00000000000E+00  0.12606977237E+03  0.12606977240E+03  0.25500000000E-02 0. -1.
          2   -1    0    0  501    0  0.00000000000E+00 -0.00000000000E+00 -0.74333502858E+03  0.74333502858E+03  0.25500000000E-02 0.  1.
    5000001    1    1    2    0    0 -0.18034929539E+03 -0.34242818375E+02 -0.85596277202E+02  0.27634970894E+03  0.18800000000E+03 0.  0.
   -5000001    1    1    2    0    0  0.18034929539E+03  0.34242818375E+02 -0.53166897901E+03  0.59305509204E+03  0.18800000000E+03 0.  0.
<mgrwt>
<rscale>  0 0.61224857E+03</rscale>
<asrwt>0</asrwt>
<pdfrwt beam="1">  1        2 0.10619072E+00 0.61224857E+03</pdfrwt>
<pdfrwt beam="2">  1       -2 0.18009968E-01 0.61224857E+03</pdfrwt>
<totfact> 0.10720464E+03</totfact>
</mgrwt>
</event>
<event>
 4    1  0.6239849E-005  0.7802648E+03  0.7818608E-02  0.9589031E-01
          2   -1    0    0  501    0  0.00000000000E+00  0.00000000000E+00  0.70267974183E+03  0.70267974183E+03  0.25500000000E-02 0.  1.
         -2   -1    0    0    0  501 -0.00000000000E+00 -0.00000000000E+00 -0.21660408966E+03  0.21660408968E+03  0.25500000000E-02 0. -1.
    5000001    1    1    2    0    0  0.33291887541E+03  0.10248498510E+01  0.33447526083E+03  0.50798988969E+03  0.18800000000E+03 0.  0.
   -5000001    1    1    2    0    0 -0.33291887541E+03 -0.10248498510E+01  0.15160039133E+03  0.41129394181E+03  0.18800000000E+03 0.  0.
<mgrwt>
<rscale>  0 0.78026484E+03</rscale>
<asrwt>0</asrwt>
<pdfrwt beam="1">  1        2 0.10038282E+00 0.78026484E+03</pdfrwt>
<pdfrwt beam="2">  1       -2 0.30943441E-01 0.78026484E+03</pdfrwt>
<totfact> 0.43487766E+02</totfact>
</mgrwt>
</event>
<event>
 4    1  0.6239849E-005  0.5209239E+03  0.7818608E-02  0.1008457E+00
          2   -1    0    0  501    0  0.00000000000E+00  0.00000000000E+00  0.29434852548E+04  0.29434852548E+04  0.25500000000E-02 0.  1.
         -2   -1    0    0    0  501 -0.00000000000E+00 -0.00000000000E+00 -0.23047652929E+02  0.23047653070E+02  0.25500000000E-02 0. -1.
    5000001    1    1    2    0    0  0.10262937877E+03  0.95733192560E+02  0.21044761783E+04  0.21175130740E+04  0.18800000000E+03 0.  0.
   -5000001    1    1    2    0    0 -0.10262937877E+03 -0.95733192560E+02  0.81596142357E+03  0.84901983387E+03  0.18800000000E+03 0.  0.
<mgrwt>
<rscale>  0 0.52092390E+03</rscale>
<asrwt>0</asrwt>
<pdfrwt beam="1">  1        2 0.42049759E+00 0.52092390E+03</pdfrwt>
<pdfrwt beam="2">  1       -2 0.32925242E-02 0.52092390E+03</pdfrwt>
<totfact> 0.10629147E+03</totfact>
</mgrwt>
</event>
<event>
 4    1  0.6239849E-005  0.4283051E+03  0.7818608E-02  0.1034397E+00
         -2   -1    0    0    0  501 -0.00000000000E+00  0.00000000000E+00  0.62190496262E+03  0.62190496263E+03  0.25500000000E-02 0. -1.
          2   -1    0    0  501    0  0.00000000000E+00 -0.00000000000E+00 -0.73743273105E+02  0.73743273149E+02  0.25500000000E-02 0.  1.
    5000001    1    1    2    0    0  0.58765280624E+02 -0.73478785263E+02  0.20781041556E+03  0.29560388852E+03  0.18800000000E+03 0.  0.
   -5000001    1    1    2    0    0 -0.58765280624E+02  0.73478785263E+02  0.34035127396E+03  0.40004434726E+03  0.18800000000E+03 0.  0.
<mgrwt>
<rscale>  0 0.42830507E+03</rscale>
<asrwt>0</asrwt>
<pdfrwt beam="1">  1        2 0.10534753E-01 0.42830507E+03</pdfrwt>
<pdfrwt beam="2">  1       -2 0.88843566E-01 0.42830507E+03</pdfrwt>
<totfact> 0.68088734E+02</totfact>
</mgrwt>
</event>
<event>
 4    1  0.6239849E-005  0.5059630E+03  0.7818608E-02  0.1012234E+00
         -2   -1    0    0    0  501 -0.00000000000E+00  0.00000000000E+00  0.48469874006E+03  0.48469874007E+03  0.25500000000E-02 0. -1.
          2   -1    0    0  501    0  0.00000000000E+00 -0.00000000000E+00 -0.13204001877E+03  0.13204001880E+03  0.25500000000E-02 0.  1.
    5000001    1    1    2    0    0  0.14683635907E+03  0.84059914056E+02  0.16980543777E+03  0.30463892100E+03  0.18800000000E+03 0.  0.
   -5000001    1    1    2    0    0 -0.14683635907E+03 -0.84059914056E+02  0.18285328352E+03  0.31209983786E+03  0.18800000000E+03 0.  0.
<mgrwt>
<rscale>  0 0.50596297E+03</rscale>
<asrwt>0</asrwt>
<pdfrwt beam="1">  1        2 0.18862859E-01 0.50596297E+03</pdfrwt>
<pdfrwt beam="2">  1       -2 0.69242679E-01 0.50596297E+03</pdfrwt>
<totfact> 0.58395946E+02</totfact>
</mgrwt>
</event>
<event>
 4    1  0.6239849E-005  0.4201778E+03  0.7818608E-02  0.1037008E+00
         -2   -1    0    0    0  501 -0.00000000000E+00  0.00000000000E+00  0.14827307257E+02  0.14827307476E+02  0.25500000000E-02 0. -1.
          2   -1    0    0  501    0  0.00000000000E+00 -0.00000000000E+00 -0.29767609718E+04  0.29767609718E+04  0.25500000000E-02 0.  1.
    5000001    1    1    2    0    0 -0.61390126262E+02 -0.60456702858E+02 -0.12174769835E+04  0.12349161776E+04  0.18800000000E+03 0.  0.
   -5000001    1    1    2    0    0  0.61390126262E+02  0.60456702858E+02 -0.17444566811E+04  0.17566721016E+04  0.18800000000E+03 0.  0.
<mgrwt>
<rscale>  0 0.42017782E+03</rscale>
<asrwt>0</asrwt>
<pdfrwt beam="1">  1        2 0.42525119E+00 0.42017782E+03</pdfrwt>
<pdfrwt beam="2">  1       -2 0.21181887E-02 0.42017782E+03</pdfrwt>
<totfact> 0.19990619E+03</totfact>
</mgrwt>
</event>
<event>
 4    1  0.6239849E-005  0.5087457E+03  0.7818608E-02  0.1011521E+00
         -2   -1    0    0    0  501 -0.00000000000E+00  0.00000000000E+00  0.24547437357E+02  0.24547437489E+02  0.25500000000E-02 0.  1.
          2   -1    0    0  501    0  0.00000000000E+00 -0.00000000000E+00 -0.26359394004E+04  0.26359394004E+04  0.25500000000E-02 0. -1.
    5000001    1    1    2    0    0  0.41690309909E+02 -0.15594707052E+03 -0.16062894054E+04  0.16252898894E+04  0.18800000000E+03 0.  0.
   -5000001    1    1    2    0    0 -0.41690309909E+02  0.15594707052E+03 -0.10051025576E+04  0.10351969485E+04  0.18800000000E+03 0.  0.
<mgrwt>
<rscale>  0 0.50874574E+03</rscale>
<asrwt>0</asrwt>
<pdfrwt beam="1">  1        2 0.37656259E+00 0.50874574E+03</pdfrwt>
<pdfrwt beam="2">  1       -2 0.35067784E-02 0.50874574E+03</pdfrwt>
<totfact> 0.14034727E+03</totfact>
</mgrwt>
</event>
<event>
 4    1  0.6239849E-005  0.1213519E+04  0.7818608E-02  0.9101105E-01
         -2   -1    0    0    0  501 -0.00000000000E+00  0.00000000000E+00  0.39090166927E+03  0.39090166928E+03  0.25500000000E-02 0. -1.
          2   -1    0    0  501    0  0.00000000000E+00 -0.00000000000E+00 -0.94181540329E+03  0.94181540329E+03  0.25500000000E-02 0.  1.
    5000001    1    1    2    0    0 -0.43986412229E+03  0.12295336690E+03  0.11160353589E+03  0.50635691536E+03  0.18800000000E+03 0.  0.
   -5000001    1    1    2    0    0  0.43986412229E+03 -0.12295336690E+03 -0.66251726991E+03  0.82636015722E+03  0.18800000000E+03 0.  0.
<mgrwt>
<rscale>  0 0.12135192E+04</rscale>
<asrwt>0</asrwt>
<pdfrwt beam="1">  1        2 0.13454506E+00 0.12135192E+04</pdfrwt>
<pdfrwt beam="2">  1       -2 0.55843096E-01 0.12135192E+04</pdfrwt>
<totfact> 0.90773846E+01</totfact>
</mgrwt>
</event>
<event>
 4    1  0.6239849E-005  0.6518980E+03  0.7818608E-02  0.9803224E-01
          2   -1    0    0  501    0  0.00000000000E+00  0.00000000000E+00  0.19634929346E+04  0.19634929346E+04  0.25500000000E-02 0.  1.
         -2   -1    0    0    0  501 -0.00000000000E+00 -0.00000000000E+00 -0.54109051609E+02  0.54109051669E+02  0.25500000000E-02 0. -1.
    5000001    1    1    2    0    0  0.19593807819E+03 -0.37797533158E+02  0.40907871297E+03  0.49245281744E+03  0.18800000000E+03 0.  0.
   -5000001    1    1    2    0    0 -0.19593807819E+03  0.37797533158E+02  0.15003051700E+04  0.15251491688E+04  0.18800000000E+03 0.  0.
<mgrwt>
<rscale>  0 0.65189797E+03</rscale>
<asrwt>0</asrwt>
<pdfrwt beam="1">  1        2 0.28049898E+00 0.65189797E+03</pdfrwt>
<pdfrwt beam="2">  1       -2 0.77298648E-02 0.65189797E+03</pdfrwt>
<totfact> 0.89223694E+02</totfact>
</mgrwt>
</event>
<event>
 4    1  0.6239849E-005  0.4407491E+03  0.7818608E-02  0.1030517E+00
          2   -1    0    0  501    0  0.00000000000E+00  0.00000000000E+00  0.22681733247E+04  0.22681733247E+04  0.25500000000E-02 0.  1.
         -2   -1    0    0    0  501 -0.00000000000E+00 -0.00000000000E+00 -0.21411479418E+02  0.21411479570E+02  0.25500000000E-02 0. -1.
    5000001    1    1    2    0    0 -0.11442954200E+03  0.27818375948E+01  0.10666918756E+04  0.10891636315E+04  0.18800000000E+03 0.  0.
   -5000001    1    1    2    0    0  0.11442954200E+03 -0.27818375948E+01  0.11800699697E+04  0.12004211728E+04  0.18800000000E+03 0.  0.
<mgrwt>
<rscale>  0 0.44074912E+03</rscale>
<asrwt>0</asrwt>
<pdfrwt beam="1">  1        2 0.32402486E+00 0.44074912E+03</pdfrwt>
<pdfrwt beam="2">  1       -2 0.30587818E-02 0.44074912E+03</pdfrwt>
<totfact> 0.26646067E+03</totfact>
</mgrwt>
</event>
<event>
 4    1  0.6239849E-005  0.4425461E+03  0.7818608E-02  0.1029968E+00
          2   -1    0    0  501    0  0.00000000000E+00  0.00000000000E+00  0.17901257216E+04  0.17901257216E+04  0.25500000000E-02 0.  1.
         -2   -1    0    0    0  501 -0.00000000000E+00 -0.00000000000E+00 -0.27351020621E+02  0.27351020740E+02  0.25500000000E-02 0. -1.
    5000001    1    1    2    0    0 -0.48800082557E+01 -0.96331064914E+02  0.61163555242E+03  0.64710550727E+03  0.18800000000E+03 0.  0.
   -5000001    1    1    2    0    0  0.48800082557E+01  0.96331064914E+02  0.11511391485E+04  0.11703712350E+04  0.18800000000E+03 0.  0.
<mgrwt>
<rscale>  0 0.44254611E+03</rscale>
<asrwt>0</asrwt>
<pdfrwt beam="1">  1        2 0.25573222E+00 0.44254611E+03</pdfrwt>
<pdfrwt beam="2">  1       -2 0.39072891E-02 0.44254611E+03</pdfrwt>
<totfact> 0.31788236E+03</totfact>
</mgrwt>
</event>
<event>
 4    1  0.6239849E-005  0.4757868E+03  0.7818608E-02  0.1020300E+00
         -2   -1    0    0    0  501 -0.00000000000E+00  0.00000000000E+00  0.46148873740E+02  0.46148873810E+02  0.25500000000E-02 0. -1.
          2   -1    0    0  501    0  0.00000000000E+00 -0.00000000000E+00 -0.12263197397E+04  0.12263197397E+04  0.25500000000E-02 0.  1.
    5000001    1    1    2    0    0 -0.58163565841E+02 -0.13258080878E+03 -0.54465095244E+03  0.59409538901E+03  0.18800000000E+03 0.  0.
   -5000001    1    1    2    0    0  0.58163565841E+02  0.13258080878E+03 -0.63551991355E+03  0.67837322453E+03  0.18800000000E+03 0.  0.
<mgrwt>
<rscale>  0 0.47578682E+03</rscale>
<asrwt>0</asrwt>
<pdfrwt beam="1">  1        2 0.17518851E+00 0.47578682E+03</pdfrwt>
<pdfrwt beam="2">  1       -2 0.65926971E-02 0.47578682E+03</pdfrwt>
<totfact> 0.27787702E+03</totfact>
</mgrwt>
</event>
<event>
 4    1  0.6239849E-005  0.7158065E+03  0.7818608E-02  0.9690576E-01
          2   -1    0    0  501    0  0.00000000000E+00  0.00000000000E+00  0.17095521628E+04  0.17095521628E+04  0.25500000000E-02 0. -1.
         -2   -1    0    0    0  501 -0.00000000000E+00 -0.00000000000E+00 -0.74928820785E+02  0.74928820828E+02  0.25500000000E-02 0.  1.
    5000001    1    1    2    0    0 -0.25455638140E+03  0.16378591812E+03  0.90096355667E+03  0.96886743610E+03  0.18800000000E+03 0.  0.
   -5000001    1    1    2    0    0  0.25455638140E+03 -0.16378591812E+03  0.73365978539E+03  0.81561354757E+03  0.18800000000E+03 0.  0.
<mgrwt>
<rscale>  0 0.71580648E+03</rscale>
<asrwt>0</asrwt>
<pdfrwt beam="1">  1        2 0.24422171E+00 0.71580648E+03</pdfrwt>
<pdfrwt beam="2">  1       -2 0.10704119E-01 0.71580648E+03</pdfrwt>
<totfact> 0.70717754E+02</totfact>
</mgrwt>
</event>
<event>
 4    1  0.6239849E-005  0.4696264E+03  0.7818608E-02  0.1022026E+00
          2   -1    0    0  501    0  0.00000000000E+00  0.00000000000E+00  0.47172522178E+03  0.47172522179E+03  0.25500000000E-02 0.  1.
         -2   -1    0    0    0  501 -0.00000000000E+00 -0.00000000000E+00 -0.11688423810E+03  0.11688423813E+03  0.25500000000E-02 0. -1.
    5000001    1    1    2    0    0 -0.63136948055E+02  0.12386493418E+03  0.20443162531E+03  0.31058828947E+03  0.18800000000E+03 0.  0.
   -5000001    1    1    2    0    0  0.63136948055E+02 -0.12386493418E+03  0.15040935838E+03  0.27802117045E+03  0.18800000000E+03 0.  0.
<mgrwt>
<rscale>  0 0.46962642E+03</rscale>
<asrwt>0</asrwt>
<pdfrwt beam="1">  1        2 0.67389319E-01 0.46962642E+03</pdfrwt>
<pdfrwt beam="2">  1       -2 0.16697748E-01 0.46962642E+03</pdfrwt>
<totfact> 0.20806268E+03</totfact>
</mgrwt>
</event>
<event>
 4    1  0.6239849E-005  0.4718501E+03  0.7818608E-02  0.1021399E+00
          2   -1    0    0  501    0  0.00000000000E+00  0.00000000000E+00  0.14451683449E+03  0.14451683451E+03  0.25500000000E-02 0.  1.
         -2   -1    0    0    0  501 -0.00000000000E+00 -0.00000000000E+00 -0.38514973888E+03  0.38514973889E+03  0.25500000000E-02 0. -1.
    5000001    1    1    2    0    0  0.12933707139E+03  0.59442685771E+02 -0.12864970067E+03  0.26861916613E+03  0.18800000000E+03 0.  0.
   -5000001    1    1    2    0    0 -0.12933707139E+03 -0.59442685771E+02 -0.11198320372E+03  0.26104740727E+03  0.18800000000E+03 0.  0.
<mgrwt>
<rscale>  0 0.47185007E+03</rscale>
<asrwt>0</asrwt>
<pdfrwt beam="1">  1        2 0.20645262E-01 0.47185007E+03</pdfrwt>
<pdfrwt beam="2">  1       -2 0.55021391E-01 0.47185007E+03</pdfrwt>
<totfact> 0.85331894E+02</totfact>
</mgrwt>
</event>
<event>
 4    1  0.6239849E-005  0.5303691E+03  0.7818608E-02  0.1006143E+00
          2   -1    0    0  501    0  0.00000000000E+00  0.00000000000E+00  0.34661385512E+02  0.34661385606E+02  0.25500000000E-02 0.  1.
         -2   -1    0    0    0  501 -0.00000000000E+00 -0.00000000000E+00 -0.20288525510E+04  0.20288525510E+04  0.25500000000E-02 0. -1.
    5000001    1    1    2    0    0 -0.12455553629E+03  0.11794045555E+03 -0.70711846538E+03  0.75152149454E+03  0.18800000000E+03 0.  0.
   -5000001    1    1    2    0    0  0.12455553629E+03 -0.11794045555E+03 -0.12870727001E+04  0.13119924421E+04  0.18800000000E+03 0.  0.
<mgrwt>
<rscale>  0 0.53036908E+03</rscale>
<asrwt>0</asrwt>
<pdfrwt beam="1">  1        2 0.49516278E-02 0.53036908E+03</pdfrwt>
<pdfrwt beam="2">  1       -2 0.28983600E+00 0.53036908E+03</pdfrwt>
<totfact> 0.65061727E+01</totfact>
</mgrwt>
</event>
<event>
 4    1  0.6239849E-005  0.5584851E+03  0.7818608E-02  0.9995488E-01
         -2   -1    0    0    0  501 -0.00000000000E+00  0.00000000000E+00  0.34622645813E+02  0.34622645907E+02  0.25500000000E-02 0. -1.
          2   -1    0    0  501    0  0.00000000000E+00 -0.00000000000E+00 -0.22521789250E+04  0.22521789250E+04  0.25500000000E-02 0.  1.
    5000001    1    1    2    0    0  0.69355655368E+02 -0.16115774367E+03 -0.66303688206E+03  0.71115675645E+03  0.18800000000E+03 0.  0.
   -5000001    1    1    2    0    0 -0.69355655368E+02  0.16115774367E+03 -0.15545193971E+04  0.15756448144E+04  0.18800000000E+03 0.  0.
<mgrwt>
<rscale>  0 0.55848507E+03</rscale>
<asrwt>0</asrwt>
<pdfrwt beam="1">  1        2 0.32173975E+00 0.55848507E+03</pdfrwt>
<pdfrwt beam="2">  1       -2 0.49460937E-02 0.55848507E+03</pdfrwt>
<totfact> 0.12941646E+03</totfact>
</mgrwt>
</event>
<event>
 4    1  0.6239849E-005  0.5819431E+03  0.7818608E-02  0.9943593E-01
          2   -1    0    0  501    0  0.00000000000E+00  0.00000000000E+00  0.13813814702E+04  0.13813814702E+04  0.25500000000E-02 0.  1.
         -2   -1    0    0    0  501 -0.00000000000E+00 -0.00000000000E+00 -0.61289683757E+02  0.61289683811E+02  0.25500000000E-02 0. -1.
    5000001    1    1    2    0    0 -0.16218097725E+03 -0.15160043351E+03  0.67472742320E+03  0.73476966217E+03  0.18800000000E+03 0.  0.
   -5000001    1    1    2    0    0  0.16218097725E+03  0.15160043351E+03  0.64536436327E+03  0.70790149188E+03  0.18800000000E+03 0.  0.
<mgrwt>
<rscale>  0 0.58194307E+03</rscale>
<asrwt>0</asrwt>
<pdfrwt beam="1">  1        2 0.19734023E+00 0.58194307E+03</pdfrwt>
<pdfrwt beam="2">  1       -2 0.87556684E-02 0.58194307E+03</pdfrwt>
<totfact> 0.14586377E+03</totfact>
</mgrwt>
</event>
<event>
 4    1  0.6239849E-005  0.5536517E+03  0.7818608E-02  0.1000652E+00
          2   -1    0    0  501    0  0.00000000000E+00  0.00000000000E+00  0.71049135711E+03  0.71049135712E+03  0.25500000000E-02 0.  1.
         -2   -1    0    0    0  501 -0.00000000000E+00 -0.00000000000E+00 -0.10785852883E+03  0.10785852886E+03  0.25500000000E-02 0. -1.
    5000001    1    1    2    0    0 -0.14941417346E+03  0.10404391223E+03  0.16796944466E+03  0.31097823918E+03  0.18800000000E+03 0.  0.
   -5000001    1    1    2    0    0  0.14941417346E+03 -0.10404391223E+03  0.43466338363E+03  0.50737164680E+03  0.18800000000E+03 0.  0.
<mgrwt>
<rscale>  0 0.55365170E+03</rscale>
<asrwt>0</asrwt>
<pdfrwt beam="1">  1        2 0.10149877E+00 0.55365170E+03</pdfrwt>
<pdfrwt beam="2">  1       -2 0.15408361E-01 0.55365170E+03</pdfrwt>
<totfact> 0.14794206E+03</totfact>
</mgrwt>
</event>
<event>
 4    1  0.6239849E-005  0.6360873E+03  0.7818608E-02  0.9833241E-01
         -2   -1    0    0    0  501 -0.00000000000E+00  0.00000000000E+00  0.76731581270E+02  0.76731581312E+02  0.25500000000E-02 0. -1.
          2   -1    0    0  501    0  0.00000000000E+00 -0.00000000000E+00 -0.13182547647E+04  0.13182547647E+04  0.25500000000E-02 0.  1.
    5000001    1    1    2    0    0  0.54560735123E+02 -0.23666489597E+03 -0.80188113956E+03  0.85868766661E+03  0.18800000000E+03 0.  0.
   -5000001    1    1    2    0    0 -0.54560735123E+02  0.23666489597E+03 -0.43964204389E+03  0.53629867943E+03  0.18800000000E+03 0.  0.
<mgrwt>
<rscale>  0 0.63608733E+03</rscale>
<asrwt>0</asrwt>
<pdfrwt beam="1">  1        2 0.18832210E+00 0.63608733E+03</pdfrwt>
<pdfrwt beam="2">  1       -2 0.10961655E-01 0.63608733E+03</pdfrwt>
<totfact> 0.10942911E+03</totfact>
</mgrwt>
</event>
<event>
 4    1  0.6239849E-005  0.4190899E+03  0.7818608E-02  0.1037363E+00
          2   -1    0    0  501    0  0.00000000000E+00  0.00000000000E+00  0.51075412121E+03  0.51075412122E+03  0.25500000000E-02 0.  1.
         -2   -1    0    0    0  501 -0.00000000000E+00 -0.00000000000E+00 -0.85969113613E+02  0.85969113651E+02  0.25500000000E-02 0. -1.
    5000001    1    1    2    0    0  0.63303905141E+02 -0.65210441542E+02  0.23727100477E+03  0.31607169408E+03  0.18800000000E+03 0.  0.
   -5000001    1    1    2    0    0 -0.63303905141E+02  0.65210441542E+02  0.18751400283E+03  0.28065154079E+03  0.18800000000E+03 0.  0.
<mgrwt>
<rscale>  0 0.41908987E+03</rscale>
<asrwt>0</asrwt>
<pdfrwt beam="1">  1        2 0.72964876E-01 0.41908987E+03</pdfrwt>
<pdfrwt beam="2">  1       -2 0.12281302E-01 0.41908987E+03</pdfrwt>
<totfact> 0.31686482E+03</totfact>
</mgrwt>
</event>
<event>
 4    1  0.6239849E-005  0.5806405E+03  0.7818608E-02  0.9946405E-01
          2   -1    0    0  501    0  0.00000000000E+00  0.00000000000E+00  0.49413201573E+03  0.49413201574E+03  0.25500000000E-02 0.  1.
         -2   -1    0    0    0  501 -0.00000000000E+00 -0.00000000000E+00 -0.17057355292E+03  0.17057355294E+03  0.25500000000E-02 0. -1.
    5000001    1    1    2    0    0  0.21244246939E+03 -0.97552508538E+01  0.23155340673E+03  0.36631673165E+03  0.18800000000E+03 0.  0.
   -5000001    1    1    2    0    0 -0.21244246939E+03  0.97552508538E+01  0.92005056080E+02  0.29838883703E+03  0.18800000000E+03 0.  0.
<mgrwt>
<rscale>  0 0.58064052E+03</rscale>
<asrwt>0</asrwt>
<pdfrwt beam="1">  1        2 0.70590287E-01 0.58064052E+03</pdfrwt>
<pdfrwt beam="2">  1       -2 0.24367651E-01 0.58064052E+03</pdfrwt>
<totfact> 0.10235299E+03</totfact>
</mgrwt>
</event>
<event>
 4    1  0.6239849E-005  0.4882386E+03  0.7818608E-02  0.1016895E+00
          2   -1    0    0  501    0  0.00000000000E+00  0.00000000000E+00  0.13680006277E+04  0.13680006277E+04  0.25500000000E-02 0.  1.
         -2   -1    0    0    0  501 -0.00000000000E+00 -0.00000000000E+00 -0.43563008875E+02  0.43563008950E+02  0.25500000000E-02 0. -1.
    5000001    1    1    2    0    0 -0.54914170588E+02 -0.12698445115E+03  0.45555610209E+03  0.51187496434E+03  0.18800000000E+03 0.  0.
   -5000001    1    1    2    0    0  0.54914170588E+02  0.12698445115E+03  0.86888151673E+03  0.89968867231E+03  0.18800000000E+03 0.  0.
<mgrwt>
<rscale>  0 0.48823856E+03</rscale>
<asrwt>0</asrwt>
<pdfrwt beam="1">  1        2 0.19542865E+00 0.48823856E+03</pdfrwt>
<pdfrwt beam="2">  1       -2 0.62232875E-02 0.48823856E+03</pdfrwt>
<totfact> 0.25495259E+03</totfact>
</mgrwt>
</event>
<event>
 4    1  0.6239849E-005  0.7723938E+03  0.7818608E-02  0.9600859E-01
          2   -1    0    0  501    0  0.00000000000E+00  0.00000000000E+00  0.13619756764E+04  0.13619756764E+04  0.25500000000E-02 0.  1.
         -2   -1    0    0    0  501 -0.00000000000E+00 -0.00000000000E+00 -0.10950861031E+03  0.10950861034E+03  0.25500000000E-02 0. -1.
    5000001    1    1    2    0    0  0.30742210042E+03  0.11741306811E+03  0.76764615627E+03  0.85610676765E+03  0.18800000000E+03 0.  0.
   -5000001    1    1    2    0    0 -0.30742210042E+03 -0.11741306811E+03  0.48482090981E+03  0.61537751907E+03  0.18800000000E+03 0.  0.
<mgrwt>
<rscale>  0 0.77239385E+03</rscale>
<asrwt>0</asrwt>
<pdfrwt beam="1">  1        2 0.19456793E+00 0.77239385E+03</pdfrwt>
<pdfrwt beam="2">  1       -2 0.15644089E-01 0.77239385E+03</pdfrwt>
<totfact> 0.56979013E+02</totfact>
</mgrwt>
</event>
<event>
 4    1  0.6239849E-005  0.5355382E+03  0.7818608E-02  0.1004898E+00
         -2   -1    0    0    0  501 -0.00000000000E+00  0.00000000000E+00  0.10353876214E+03  0.10353876217E+03  0.25500000000E-02 0. -1.
          2   -1    0    0  501    0  0.00000000000E+00 -0.00000000000E+00 -0.69249695756E+03  0.69249695757E+03  0.25500000000E-02 0.  1.
    5000001    1    1    2    0    0 -0.16190824500E+03 -0.33646604800E+02 -0.43557104332E+03  0.50240671531E+03  0.18800000000E+03 0.  0.
   -5000001    1    1    2    0    0  0.16190824500E+03  0.33646604800E+02 -0.15338715210E+03  0.29362900443E+03  0.18800000000E+03 0.  0.
<mgrwt>
<rscale>  0 0.53553815E+03</rscale>
<asrwt>0</asrwt>
<pdfrwt beam="1">  1        2 0.98928135E-01 0.53553815E+03</pdfrwt>
<pdfrwt beam="2">  1       -2 0.14791252E-01 0.53553815E+03</pdfrwt>
<totfact> 0.16351800E+03</totfact>
</mgrwt>
</event>
<event>
 4    1  0.6239849E-005  0.1206133E+04  0.7818608E-02  0.9107505E-01
          2   -1    0    0  501    0  0.00000000000E+00  0.00000000000E+00  0.12119041764E+04  0.12119041764E+04  0.25500000000E-02 0.  1.
         -2   -1    0    0    0  501 -0.00000000000E+00 -0.00000000000E+00 -0.30009750848E+03  0.30009750849E+03  0.25500000000E-02 0. -1.
    5000001    1    1    2    0    0  0.30998539978E+03 -0.40758006873E+03  0.13352493413E+03  0.56159181666E+03  0.18800000000E+03 0.  0.
   -5000001    1    1    2    0    0 -0.30998539978E+03  0.40758006873E+03  0.77828173380E+03  0.95040986825E+03  0.18800000000E+03 0.  0.
<mgrwt>
<rscale>  0 0.12061334E+04</rscale>
<asrwt>0</asrwt>
<pdfrwt beam="1">  1        2 0.17312917E+00 0.12061334E+04</pdfrwt>
<pdfrwt beam="2">  1       -2 0.42871072E-01 0.12061334E+04</pdfrwt>
<totfact> 0.10699554E+02</totfact>
</mgrwt>
</event>
<event>
 4    1  0.6239849E-005  0.5366626E+03  0.7818608E-02  0.1004629E+00
          2   -1    0    0  501    0  0.00000000000E+00  0.00000000000E+00  0.11412339848E+04  0.11412339848E+04  0.25500000000E-02 0.  1.
         -2   -1    0    0    0  501 -0.00000000000E+00 -0.00000000000E+00 -0.63091090864E+02  0.63091090915E+02  0.25500000000E-02 0. -1.
    5000001    1    1    2    0    0 -0.18681397124E+02 -0.19054173832E+03  0.53548901361E+03  0.59895545104E+03  0.18800000000E+03 0.  0.
   -5000001    1    1    2    0    0  0.18681397124E+02  0.19054173832E+03  0.54265388029E+03  0.60536962464E+03  0.18800000000E+03 0.  0.
<mgrwt>
<rscale>  0 0.53666264E+03</rscale>
<asrwt>0</asrwt>
<pdfrwt beam="1">  1        2 0.16303341E+00 0.53666264E+03</pdfrwt>
<pdfrwt beam="2">  1       -2 0.90130138E-02 0.53666264E+03</pdfrwt>
<totfact> 0.18885588E+03</totfact>
</mgrwt>
</event>
<event>
 4    1  0.6239849E-005  0.5712873E+03  0.7818608E-02  0.9966834E-01
          2   -1    0    0  501    0  0.00000000000E+00  0.00000000000E+00  0.77543786952E+03  0.77543786952E+03  0.25500000000E-02 0.  1.
         -2   -1    0    0    0  501 -0.00000000000E+00 -0.00000000000E+00 -0.10522091917E+03  0.10522091920E+03  0.25500000000E-02 0. -1.
    5000001    1    1    2    0    0  0.13941619714E+02 -0.16561238041E+03  0.54549515771E+03  0.60044216740E+03  0.18800000000E+03 0.  0.
   -5000001    1    1    2    0    0 -0.13941619714E+02  0.16561238041E+03  0.12472179264E+03  0.28021662132E+03  0.18800000000E+03 0.  0.
<mgrwt>
<rscale>  0 0.57128727E+03</rscale>
<asrwt>0</asrwt>
<pdfrwt beam="1">  1        2 0.11077684E+00 0.57128727E+03</pdfrwt>
<pdfrwt beam="2">  1       -2 0.15031560E-01 0.57128727E+03</pdfrwt>
<totfact> 0.13832613E+03</totfact>
</mgrwt>
</event>
<event>
 4    1  0.6239849E-005  0.6266548E+03  0.7818608E-02  0.9851599E-01
         -2   -1    0    0    0  501 -0.00000000000E+00  0.00000000000E+00  0.69512355407E+02  0.69512355454E+02  0.25500000000E-02 0. -1.
          2   -1    0    0  501    0  0.00000000000E+00 -0.00000000000E+00 -0.14123253418E+04  0.14123253418E+04  0.25500000000E-02 0.  1.
    5000001    1    1    2    0    0  0.71896851419E+00 -0.21967510682E+03 -0.38595147470E+03  0.48224496917E+03  0.18800000000E+03 0.  0.
   -5000001    1    1    2    0    0 -0.71896851419E+00  0.21967510682E+03 -0.95686151171E+03  0.99959272810E+03  0.18800000000E+03 0.  0.
<mgrwt>
<rscale>  0 0.62665480E+03</rscale>
<asrwt>0</asrwt>
<pdfrwt beam="1">  1        2 0.20176075E+00 0.62665480E+03</pdfrwt>
<pdfrwt beam="2">  1       -2 0.99303373E-02 0.62665480E+03</pdfrwt>
<totfact> 0.11447342E+03</totfact>
</mgrwt>
</event>
<event>
 4    1  0.6239849E-005  0.6993928E+03  0.7818608E-02  0.9718271E-01
         -2   -1    0    0    0  501 -0.00000000000E+00  0.00000000000E+00  0.25159914441E+03  0.25159914442E+03  0.25500000000E-02 0. -1.
          2   -1    0    0  501    0  0.00000000000E+00 -0.00000000000E+00 -0.48604129763E+03  0.48604129763E+03  0.25500000000E-02 0.  1.
    5000001    1    1    2    0    0  0.13901944267E+03 -0.23641755944E+03 -0.23141940224E+03  0.40511554844E+03  0.18800000000E+03 0.  0.
   -5000001    1    1    2    0    0 -0.13901944267E+03  0.23641755944E+03 -0.30227509835E+01  0.33252489362E+03  0.18800000000E+03 0.  0.
<mgrwt>
<rscale>  0 0.69939281E+03</rscale>
<asrwt>0</asrwt>
<pdfrwt beam="1">  1        2 0.69434471E-01 0.69939281E+03</pdfrwt>
<pdfrwt beam="2">  1       -2 0.35942735E-01 0.69939281E+03</pdfrwt>
<totfact> 0.50779374E+02</totfact>
</mgrwt>
</event>
<event>
 4    1  0.6239849E-005  0.3862386E+03  0.7818608E-02  0.1048652E+00
         -2   -1    0    0    0  501 -0.00000000000E+00  0.00000000000E+00  0.19375638815E+03  0.19375638817E+03  0.25500000000E-02 0. -1.
          2   -1    0    0  501    0  0.00000000000E+00 -0.00000000000E+00 -0.19248427414E+03  0.19248427416E+03  0.25500000000E-02 0.  1.
    5000001    1    1    2    0    0 -0.40647804920E+02 -0.17248425631E+02  0.17786518092E+01  0.19312409439E+03  0.18800000000E+03 0.  0.
   -5000001    1    1    2    0    0  0.40647804920E+02  0.17248425631E+02 -0.50653780220E+00  0.19311656794E+03  0.18800000000E+03 0.  0.
<mgrwt>
<rscale>  0 0.38623857E+03</rscale>
<asrwt>0</asrwt>
<pdfrwt beam="1">  1        2 0.27497754E-01 0.38623857E+03</pdfrwt>
<pdfrwt beam="2">  1       -2 0.27679484E-01 0.38623857E+03</pdfrwt>
<totfact> 0.23042272E+03</totfact>
</mgrwt>
</event>
<event>
 4    1  0.6239849E-005  0.4722700E+03  0.7818608E-02  0.1021281E+00
         -2   -1    0    0    0  501 -0.00000000000E+00  0.00000000000E+00  0.22016450005E+02  0.22016450153E+02  0.25500000000E-02 0. -1.
          2   -1    0    0  501    0  0.00000000000E+00 -0.00000000000E+00 -0.25326400923E+04  0.25326400923E+04  0.25500000000E-02 0.  1.
    5000001    1    1    2    0    0  0.12394363188E+03 -0.61273702138E+02 -0.14502913967E+04  0.14689471147E+04  0.18800000000E+03 0.  0.
   -5000001    1    1    2    0    0 -0.12394363188E+03  0.61273702138E+02 -0.10603322456E+04  0.10857094278E+04  0.18800000000E+03 0.  0.
<mgrwt>
<rscale>  0 0.47227003E+03</rscale>
<asrwt>0</asrwt>
<pdfrwt beam="1">  1        2 0.36180554E+00 0.47227003E+03</pdfrwt>
<pdfrwt beam="2">  1       -2 0.31452088E-02 0.47227003E+03</pdfrwt>
<totfact> 0.18754899E+03</totfact>
</mgrwt>
</event>
<event>
 4    1  0.6239849E-005  0.5839233E+03  0.7818608E-02  0.9939333E-01
         -2   -1    0    0    0  501 -0.00000000000E+00  0.00000000000E+00  0.34710974423E+03  0.34710974424E+03  0.25500000000E-02 0. -1.
          2   -1    0    0  501    0  0.00000000000E+00 -0.00000000000E+00 -0.24557539276E+03  0.24557539277E+03  0.25500000000E-02 0.  1.
    5000001    1    1    2    0    0 -0.18190707433E+03 -0.11098456324E+03  0.11877899041E+03  0.30799384009E+03  0.18800000000E+03 0.  0.
   -5000001    1    1    2    0    0  0.18190707433E+03  0.11098456324E+03 -0.17244638943E+02  0.28469129692E+03  0.18800000000E+03 0.  0.
<mgrwt>
<rscale>  0 0.58392332E+03</rscale>
<asrwt>0</asrwt>
<pdfrwt beam="1">  1        2 0.35082199E-01 0.58392332E+03</pdfrwt>
<pdfrwt beam="2">  1       -2 0.49587106E-01 0.58392332E+03</pdfrwt>
<totfact> 0.57828662E+02</totfact>
</mgrwt>
</event>
<event>
 4    1  0.6239849E-005  0.5505513E+03  0.7818608E-02  0.1001366E+00
          2   -1    0    0  501    0  0.00000000000E+00  0.00000000000E+00  0.84792982822E+03  0.84792982822E+03  0.25500000000E-02 0.  1.
         -2   -1    0    0    0  501 -0.00000000000E+00 -0.00000000000E+00 -0.89366692216E+02  0.89366692252E+02  0.25500000000E-02 0. -1.
    5000001    1    1    2    0    0  0.12835256849E+03 -0.92596731064E+02  0.59044364702E+03  0.63954377235E+03  0.18800000000E+03 0.  0.
   -5000001    1    1    2    0    0 -0.12835256849E+03  0.92596731064E+02  0.16811948898E+03  0.29775274813E+03  0.18800000000E+03 0.  0.
<mgrwt>
<rscale>  0 0.55055130E+03</rscale>
<asrwt>0</asrwt>
<pdfrwt beam="1">  1        2 0.12113284E+00 0.55055130E+03</pdfrwt>
<pdfrwt beam="2">  1       -2 0.12766670E-01 0.55055130E+03</pdfrwt>
<totfact> 0.16200436E+03</totfact>
</mgrwt>
</event>
<event>
 4    1  0.6239849E-005  0.7635217E+03  0.7818608E-02  0.9614373E-01
          2   -1    0    0  501    0  0.00000000000E+00  0.00000000000E+00  0.29046076738E+04  0.29046076738E+04  0.25500000000E-02 0.  1.
         -2   -1    0    0    0  501 -0.00000000000E+00 -0.00000000000E+00 -0.50175914945E+02  0.50175915010E+02  0.25500000000E-02 0. -1.
    5000001    1    1    2    0    0  0.19956277866E+03  0.20568564912E+03  0.20778432237E+04  0.21059222092E+04  0.18800000000E+03 0.  0.
   -5000001    1    1    2    0    0 -0.19956277866E+03 -0.20568564912E+03  0.77658853518E+03  0.84886137965E+03  0.18800000000E+03 0.  0.
<mgrwt>
<rscale>  0 0.76352170E+03</rscale>
<asrwt>0</asrwt>
<pdfrwt beam="1">  1        2 0.41494396E+00 0.76352170E+03</pdfrwt>
<pdfrwt beam="2">  1       -2 0.71679878E-02 0.76352170E+03</pdfrwt>
<totfact> 0.32602829E+02</totfact>
</mgrwt>
</event>
<event>
 4    1  0.6239849E-005  0.4705357E+03  0.7818608E-02  0.1021769E+00
         -2   -1    0    0    0  501 -0.00000000000E+00  0.00000000000E+00  0.87118438596E+02  0.87118438634E+02  0.25500000000E-02 0. -1.
          2   -1    0    0  501    0  0.00000000000E+00 -0.00000000000E+00 -0.63535309604E+03  0.63535309604E+03  0.25500000000E-02 0.  1.
    5000001    1    1    2    0    0 -0.45209176279E+02  0.11186581878E+03 -0.16077501915E+03  0.27522797426E+03  0.18800000000E+03 0.  0.
   -5000001    1    1    2    0    0  0.45209176279E+02 -0.11186581878E+03 -0.38745963828E+03  0.44724356041E+03  0.18800000000E+03 0.  0.
<mgrwt>
<rscale>  0 0.47053574E+03</rscale>
<asrwt>0</asrwt>
<pdfrwt beam="1">  1        2 0.90764725E-01 0.47053574E+03</pdfrwt>
<pdfrwt beam="2">  1       -2 0.12445492E-01 0.47053574E+03</pdfrwt>
<totfact> 0.24136823E+03</totfact>
</mgrwt>
</event>
<event>
 4    1  0.6239849E-005  0.6721966E+03  0.7818608E-02  0.9765998E-01
          2   -1    0    0  501    0  0.00000000000E+00  0.00000000000E+00  0.14202737766E+04  0.14202737766E+04  0.25500000000E-02 0.  1.
         -2   -1    0    0    0  501 -0.00000000000E+00 -0.00000000000E+00 -0.79535427824E+02  0.79535427865E+02  0.25500000000E-02 0. -1.
    5000001    1    1    2    0    0 -0.24733660268E+03  0.62752058966E+02  0.91987414642E+03  0.97294689536E+03  0.18800000000E+03 0.  0.
   -5000001    1    1    2    0    0  0.24733660268E+03 -0.62752058966E+02  0.42086420231E+03  0.52686230906E+03  0.18800000000E+03 0.  0.
<mgrwt>
<rscale>  0 0.67219665E+03</rscale>
<asrwt>0</asrwt>
<pdfrwt beam="1">  1        2 0.20289625E+00 0.67219665E+03</pdfrwt>
<pdfrwt beam="2">  1       -2 0.11362204E-01 0.67219665E+03</pdfrwt>
<totfact> 0.90840032E+02</totfact>
</mgrwt>
</event>
<event>
 4    1  0.6239849E-005  0.5759755E+03  0.7818608E-02  0.9956542E-01
         -2   -1    0    0    0  501 -0.00000000000E+00  0.00000000000E+00  0.72552661429E+02  0.72552661474E+02  0.25500000000E-02 0. -1.
          2   -1    0    0  501    0  0.00000000000E+00 -0.00000000000E+00 -0.11431276586E+04  0.11431276586E+04  0.25500000000E-02 0.  1.
    5000001    1    1    2    0    0 -0.15174787669E+03  0.60040458004E+02 -0.84086264392E+03  0.87694142371E+03  0.18800000000E+03 0.  0.
   -5000001    1    1    2    0    0  0.15174787669E+03 -0.60040458004E+02 -0.22971235326E+03  0.33873889637E+03  0.18800000000E+03 0.  0.
<mgrwt>
<rscale>  0 0.57597553E+03</rscale>
<asrwt>0</asrwt>
<pdfrwt beam="1">  1        2 0.16330394E+00 0.57597553E+03</pdfrwt>
<pdfrwt beam="2">  1       -2 0.10364667E-01 0.57597553E+03</pdfrwt>
<totfact> 0.15024758E+03</totfact>
</mgrwt>
</event>
<event>
 4    1  0.6239849E-005  0.4697262E+03  0.7818608E-02  0.1021998E+00
         -2   -1    0    0    0  501 -0.00000000000E+00  0.00000000000E+00  0.54346711181E+02  0.54346711241E+02  0.25500000000E-02 0. -1.
          2   -1    0    0  501    0  0.00000000000E+00 -0.00000000000E+00 -0.10149771167E+04  0.10149771167E+04  0.25500000000E-02 0.  1.
    5000001    1    1    2    0    0  0.10711700283E+03  0.88048130306E+02 -0.42501292619E+03  0.48498094084E+03  0.18800000000E+03 0.  0.
   -5000001    1    1    2    0    0 -0.10711700283E+03 -0.88048130306E+02 -0.53561747929E+03  0.58434288707E+03  0.18800000000E+03 0.  0.
<mgrwt>
<rscale>  0 0.46972617E+03</rscale>
<asrwt>0</asrwt>
<pdfrwt beam="1">  1        2 0.14499672E+00 0.46972617E+03</pdfrwt>
<pdfrwt beam="2">  1       -2 0.77638166E-02 0.46972617E+03</pdfrwt>
<totfact> 0.28389192E+03</totfact>
</mgrwt>
</event>
<event>
 4    1  0.6239849E-005  0.1266134E+04  0.7818608E-02  0.9056861E-01
          2   -1    0    0  501    0  0.00000000000E+00  0.00000000000E+00  0.10377527455E+04  0.10377527455E+04  0.25500000000E-02 0.  1.
         -2   -1    0    0    0  501 -0.00000000000E+00 -0.00000000000E+00 -0.38619381243E+03  0.38619381244E+03  0.25500000000E-02 0. -1.
    5000001    1    1    2    0    0  0.23926414499E+03 -0.55062492431E+03  0.24629865178E+03  0.67560503567E+03  0.18800000000E+03 0.  0.
   -5000001    1    1    2    0    0 -0.23926414499E+03  0.55062492431E+03  0.40526028127E+03  0.74834152225E+03  0.18800000000E+03 0.  0.
<mgrwt>
<rscale>  0 0.12661338E+04</rscale>
<asrwt>0</asrwt>
<pdfrwt beam="1">  1        2 0.14825039E+00 0.12661338E+04</pdfrwt>
<pdfrwt beam="2">  1       -2 0.55170545E-01 0.12661338E+04</pdfrwt>
<totfact> 0.80850734E+01</totfact>
</mgrwt>
</event>
<event>
 4    1  0.6239849E-005  0.5936005E+03  0.7818608E-02  0.9918773E-01
         -2   -1    0    0    0  501 -0.00000000000E+00  0.00000000000E+00  0.18118182680E+03  0.18118182682E+03  0.25500000000E-02 0. -1.
          2   -1    0    0  501    0  0.00000000000E+00 -0.00000000000E+00 -0.48619876357E+03  0.48619876357E+03  0.25500000000E-02 0.  1.
    5000001    1    1    2    0    0  0.13259465154E+03 -0.57048519222E+02 -0.35334660008E+03  0.42548054591E+03  0.18800000000E+03 0.  0.
   -5000001    1    1    2    0    0 -0.13259465154E+03  0.57048519222E+02  0.48329663309E+02  0.24190004448E+03  0.18800000000E+03 0.  0.
<mgrwt>
<rscale>  0 0.59360047E+03</rscale>
<asrwt>0</asrwt>
<pdfrwt beam="1">  1        2 0.69456966E-01 0.59360047E+03</pdfrwt>
<pdfrwt beam="2">  1       -2 0.25883118E-01 0.59360047E+03</pdfrwt>
<totfact> 0.93532222E+02</totfact>
</mgrwt>
</event>
<event>
 4    1  0.6239849E-005  0.4894207E+03  0.7818608E-02  0.1016578E+00
         -2   -1    0    0    0  501 -0.00000000000E+00  0.00000000000E+00  0.11123104797E+03  0.11123104800E+03  0.25500000000E-02 0. -1.
          2   -1    0    0  501    0  0.00000000000E+00 -0.00000000000E+00 -0.53836717410E+03  0.53836717411E+03  0.25500000000E-02 0.  1.
    5000001    1    1    2    0    0  0.91230533875E+02  0.10600497866E+03 -0.30722437404E+03  0.38638178246E+03  0.18800000000E+03 0.  0.
   -5000001    1    1    2    0    0 -0.91230533875E+02 -0.10600497866E+03 -0.11991175210E+03  0.26321643965E+03  0.18800000000E+03 0.  0.
<mgrwt>
<rscale>  0 0.48942066E+03</rscale>
<asrwt>0</asrwt>
<pdfrwt beam="1">  1        2 0.76909595E-01 0.48942066E+03</pdfrwt>
<pdfrwt beam="2">  1       -2 0.15890150E-01 0.48942066E+03</pdfrwt>
<totfact> 0.19489002E+03</totfact>
</mgrwt>
</event>
<event>
 4    1  0.6239849E-005  0.1448504E+04  0.7818608E-02  0.8919438E-01
          2   -1    0    0  501    0  0.00000000000E+00  0.00000000000E+00  0.20696979510E+04  0.20696979510E+04  0.25500000000E-02 0.  1.
         -2   -1    0    0    0  501 -0.00000000000E+00 -0.00000000000E+00 -0.25343843204E+03  0.25343843205E+03  0.25500000000E-02 0. -1.
    5000001    1    1    2    0    0  0.47047416331E+03 -0.50092440013E+03  0.11167852066E+04  0.13246978488E+04  0.18800000000E+03 0.  0.
   -5000001    1    1    2    0    0 -0.47047416331E+03  0.50092440013E+03  0.69947431236E+03  0.99843853423E+03  0.18800000000E+03 0.  0.
<mgrwt>
<rscale>  0 0.14485041E+04</rscale>
<asrwt>0</asrwt>
<pdfrwt beam="1">  1        2 0.29567114E+00 0.14485041E+04</pdfrwt>
<pdfrwt beam="2">  1       -2 0.36205490E-01 0.14485041E+04</pdfrwt>
<totfact> 0.51488500E+01</totfact>
</mgrwt>
</event>
<event>
 4    1  0.6239849E-005  0.5340080E+03  0.7818608E-02  0.1005265E+00
         -2   -1    0    0    0  501 -0.00000000000E+00  0.00000000000E+00  0.42788063705E+02  0.42788063781E+02  0.25500000000E-02 0. -1.
          2   -1    0    0  501    0  0.00000000000E+00 -0.00000000000E+00 -0.16661456553E+04  0.16661456553E+04  0.25500000000E-02 0.  1.
    5000001    1    1    2    0    0  0.13268411823E+03  0.10607324264E+03 -0.10811528973E+04  0.11104468449E+04  0.18800000000E+03 0.  0.
   -5000001    1    1    2    0    0 -0.13268411823E+03 -0.10607324264E+03 -0.54220469425E+03  0.59848687413E+03  0.18800000000E+03 0.  0.
<mgrwt>
<rscale>  0 0.53400804E+03</rscale>
<asrwt>0</asrwt>
<pdfrwt beam="1">  1        2 0.23802077E+00 0.53400804E+03</pdfrwt>
<pdfrwt beam="2">  1       -2 0.61125816E-02 0.53400804E+03</pdfrwt>
<totfact> 0.18359305E+03</totfact>
</mgrwt>
</event>
<event>
 4    1  0.6239849E-005  0.5128544E+03  0.7818608E-02  0.1010477E+00
          2   -1    0    0  501    0  0.00000000000E+00  0.00000000000E+00  0.21649171904E+04  0.21649171904E+04  0.25500000000E-02 0.  1.
         -2   -1    0    0    0  501 -0.00000000000E+00 -0.00000000000E+00 -0.30372948459E+02  0.30372948566E+02  0.25500000000E-02 0. -1.
    5000001    1    1    2    0    0  0.16991845866E+03  0.39180770663E+02  0.10752836707E+04  0.11054349316E+04  0.18800000000E+03 0.  0.
   -5000001    1    1    2    0    0 -0.16991845866E+03 -0.39180770663E+02  0.10592605712E+04  0.10898552074E+04  0.18800000000E+03 0.  0.
<mgrwt>
<rscale>  0 0.51285444E+03</rscale>
<asrwt>0</asrwt>
<pdfrwt beam="1">  1        2 0.30927395E+00 0.51285444E+03</pdfrwt>
<pdfrwt beam="2">  1       -2 0.43389917E-02 0.51285444E+03</pdfrwt>
<totfact> 0.17563306E+03</totfact>
</mgrwt>
</event>
<event>
 4    1  0.6239849E-005  0.4822163E+03  0.7818608E-02  0.1018528E+00
         -2   -1    0    0    0  501 -0.00000000000E+00  0.00000000000E+00  0.35606923994E+02  0.35606924086E+02  0.25500000000E-02 0. -1.
          2   -1    0    0  501    0  0.00000000000E+00 -0.00000000000E+00 -0.16326355494E+04  0.16326355494E+04  0.25500000000E-02 0.  1.
    5000001    1    1    2    0    0 -0.13516438039E+03 -0.66780445671E+02 -0.82533234427E+03  0.85979446157E+03  0.18800000000E+03 0.  0.
   -5000001    1    1    2    0    0  0.13516438039E+03  0.66780445671E+02 -0.77169628112E+03  0.80844801190E+03  0.18800000000E+03 0.  0.
<mgrwt>
<rscale>  0 0.48221626E+03</rscale>
<asrwt>0</asrwt>
<pdfrwt beam="1">  1        2 0.23323360E+00 0.48221626E+03</pdfrwt>
<pdfrwt beam="2">  1       -2 0.50867045E-02 0.48221626E+03</pdfrwt>
<totfact> 0.25437702E+03</totfact>
</mgrwt>
</event>
<event>
 4    1  0.6239849E-005  0.5110003E+03  0.7818608E-02  0.1010947E+00
         -2   -1    0    0    0  501 -0.00000000000E+00  0.00000000000E+00  0.17820490082E+02  0.17820490265E+02  0.25500000000E-02 0. -1.
          2   -1    0    0  501    0  0.00000000000E+00 -0.00000000000E+00 -0.36632170575E+04  0.36632170576E+04  0.25500000000E-02 0.  1.
    5000001    1    1    2    0    0 -0.13293670641E+03  0.10769145923E+03 -0.16366969541E+04  0.16563183685E+04  0.18800000000E+03 0.  0.
   -5000001    1    1    2    0    0  0.13293670641E+03 -0.10769145923E+03 -0.20086996134E+04  0.20247191794E+04  0.18800000000E+03 0.  0.
<mgrwt>
<rscale>  0 0.51100029E+03</rscale>
<asrwt>0</asrwt>
<pdfrwt beam="1">  1        2 0.52331624E+00 0.51100029E+03</pdfrwt>
<pdfrwt beam="2">  1       -2 0.25457866E-02 0.51100029E+03</pdfrwt>
<totfact> 0.60957534E+02</totfact>
</mgrwt>
</event>
<event>
 4    1  0.6239849E-005  0.6432380E+03  0.7818608E-02  0.9819551E-01
          2   -1    0    0  501    0  0.00000000000E+00  0.00000000000E+00  0.78963033503E+03  0.78963033503E+03  0.25500000000E-02 0.  1.
         -2   -1    0    0    0  501 -0.00000000000E+00 -0.00000000000E+00 -0.13099648059E+03  0.13099648061E+03  0.25500000000E-02 0. -1.
    5000001    1    1    2    0    0  0.54828415523E+02  0.25505160910E+03  0.32057389968E+03  0.45405848039E+03  0.18800000000E+03 0.  0.
   -5000001    1    1    2    0    0 -0.54828415523E+02 -0.25505160910E+03  0.33805995476E+03  0.46656833526E+03  0.18800000000E+03 0.  0.
<mgrwt>
<rscale>  0 0.64323804E+03</rscale>
<asrwt>0</asrwt>
<pdfrwt beam="1">  1        2 0.11280434E+00 0.64323804E+03</pdfrwt>
<pdfrwt beam="2">  1       -2 0.18713782E-01 0.64323804E+03</pdfrwt>
<totfact> 0.92932252E+02</totfact>
</mgrwt>
</event>
<event>
 4    1  0.6239849E-005  0.9673978E+03  0.7818608E-02  0.9345043E-01
         -2   -1    0    0    0  501 -0.00000000000E+00  0.00000000000E+00  0.94331085692E+02  0.94331085727E+02  0.25500000000E-02 0. -1.
          2   -1    0    0  501    0  0.00000000000E+00 -0.00000000000E+00 -0.24802496179E+04  0.24802496179E+04  0.25500000000E-02 0.  1.
    5000001    1    1    2    0    0 -0.98354552853E+02 -0.25894969987E+03 -0.26380219644E+03  0.42622079252E+03  0.18800000000E+03 0.  0.
   -5000001    1    1    2    0    0  0.98354552853E+02  0.25894969987E+03 -0.21221163357E+04  0.21483599111E+04  0.18800000000E+03 0.  0.
<mgrwt>
<rscale>  0 0.96739783E+03</rscale>
<asrwt>0</asrwt>
<pdfrwt beam="1">  1        2 0.35432133E+00 0.96739783E+03</pdfrwt>
<pdfrwt beam="2">  1       -2 0.13475871E-01 0.96739783E+03</pdfrwt>
<totfact> 0.19191406E+02</totfact>
</mgrwt>
</event>
<event>
 4    1  0.6239849E-005  0.8974151E+03  0.7818608E-02  0.9428818E-01
          2   -1    0    0  501    0  0.00000000000E+00  0.00000000000E+00  0.25020135493E+03  0.25020135494E+03  0.25500000000E-02 0.  1.
         -2   -1    0    0    0  501 -0.00000000000E+00 -0.00000000000E+00 -0.80470575626E+03  0.80470575627E+03  0.25500000000E-02 0. -1.
    5000001    1    1    2    0    0 -0.27811277021E+03  0.22705065603E+03 -0.50848791683E+02  0.40844621797E+03  0.18800000000E+03 0.  0.
   -5000001    1    1    2    0    0  0.27811277021E+03 -0.22705065603E+03 -0.50365560965E+03  0.64646089324E+03  0.18800000000E+03 0.  0.
<mgrwt>
<rscale>  0 0.89741511E+03</rscale>
<asrwt>0</asrwt>
<pdfrwt beam="1">  1        2 0.35743051E-01 0.89741511E+03</pdfrwt>
<pdfrwt beam="2">  1       -2 0.11495796E+00 0.89741511E+03</pdfrwt>
<totfact> 0.86510238E+01</totfact>
</mgrwt>
</event>
<event>
 4    1  0.6239849E-005  0.6011894E+03  0.7818608E-02  0.9902942E-01
          2   -1    0    0  501    0  0.00000000000E+00  0.00000000000E+00  0.14904421926E+04  0.14904421927E+04  0.25500000000E-02 0.  1.
         -2   -1    0    0    0  501 -0.00000000000E+00 -0.00000000000E+00 -0.60624402422E+02  0.60624402476E+02  0.25500000000E-02 0. -1.
    5000001    1    1    2    0    0 -0.86908751124E+02  0.18051817566E+03  0.10295545312E+04  0.10655826929E+04  0.18800000000E+03 0.  0.
   -5000001    1    1    2    0    0  0.86908751124E+02 -0.18051817566E+03  0.40026325906E+03  0.48548390223E+03  0.18800000000E+03 0.  0.
<mgrwt>
<rscale>  0 0.60118938E+03</rscale>
<asrwt>0</asrwt>
<pdfrwt beam="1">  1        2 0.21292032E+00 0.60118938E+03</pdfrwt>
<pdfrwt beam="2">  1       -2 0.86606288E-02 0.60118938E+03</pdfrwt>
<totfact> 0.12995253E+03</totfact>
</mgrwt>
</event>
<event>
 4    1  0.6239849E-005  0.6104128E+03  0.7818608E-02  0.9884035E-01
         -2   -1    0    0    0  501 -0.00000000000E+00  0.00000000000E+00  0.95217803891E+02  0.95217803925E+02  0.25500000000E-02 0. -1.
          2   -1    0    0  501    0  0.00000000000E+00 -0.00000000000E+00 -0.97829351163E+03  0.97829351164E+03  0.25500000000E-02 0.  1.
    5000001    1    1    2    0    0 -0.13074215143E+03 -0.15932496382E+03 -0.65927872395E+03  0.71587037242E+03  0.18800000000E+03 0.  0.
   -5000001    1    1    2    0    0  0.13074215143E+03  0.15932496382E+03 -0.22379698380E+03  0.35764094314E+03  0.18800000000E+03 0.  0.
<mgrwt>
<rscale>  0 0.61041284E+03</rscale>
<asrwt>0</asrwt>
<pdfrwt beam="1">  1        2 0.13975621E+00 0.61041284E+03</pdfrwt>
<pdfrwt beam="2">  1       -2 0.13602544E-01 0.61041284E+03</pdfrwt>
<totfact> 0.12021055E+03</totfact>
</mgrwt>
</event>
<event>
 4    1  0.6239849E-005  0.4749873E+03  0.7818608E-02  0.1020522E+00
          2   -1    0    0  501    0  0.00000000000E+00  0.00000000000E+00  0.56846775926E+03  0.56846775927E+03  0.25500000000E-02 0.  1.
         -2   -1    0    0    0  501 -0.00000000000E+00 -0.00000000000E+00 -0.99219775432E+02  0.99219775465E+02  0.25500000000E-02 0. -1.
    5000001    1    1    2    0    0  0.78250897822E+02  0.35832430695E+01  0.62903460193E+02  0.21315930180E+03  0.18800000000E+03 0.  0.
   -5000001    1    1    2    0    0 -0.78250897822E+02 -0.35832430695E+01  0.40634452364E+03  0.45452823293E+03  0.18800000000E+03 0.  0.
<mgrwt>
<rscale>  0 0.47498734E+03</rscale>
<asrwt>0</asrwt>
<pdfrwt beam="1">  1        2 0.81209678E-01 0.47498734E+03</pdfrwt>
<pdfrwt beam="2">  1       -2 0.14174254E-01 0.47498734E+03</pdfrwt>
<totfact> 0.22166646E+03</totfact>
</mgrwt>
</event>
<event>
 4    1  0.6239849E-005  0.5910775E+03  0.7818608E-02  0.9924092E-01
          2   -1    0    0  501    0  0.00000000000E+00  0.00000000000E+00  0.19431515819E+04  0.19431515819E+04  0.25500000000E-02 0.  1.
         -2   -1    0    0    0  501 -0.00000000000E+00 -0.00000000000E+00 -0.44949218331E+02  0.44949218404E+02  0.25500000000E-02 0. -1.
    5000001    1    1    2    0    0 -0.22616581744E+03 -0.46096921628E+01  0.10458232016E+04  0.10863988196E+04  0.18800000000E+03 0.  0.
   -5000001    1    1    2    0    0  0.22616581744E+03  0.46096921628E+01  0.85237916200E+03  0.90170198073E+03  0.18800000000E+03 0.  0.
<mgrwt>
<rscale>  0 0.59107747E+03</rscale>
<asrwt>0</asrwt>
<pdfrwt beam="1">  1        2 0.27759312E+00 0.59107747E+03</pdfrwt>
<pdfrwt beam="2">  1       -2 0.64213160E-02 0.59107747E+03</pdfrwt>
<totfact> 0.12290747E+03</totfact>
</mgrwt>
</event>
<event>
 4    1  0.6239849E-005  0.5239356E+03  0.7818608E-02  0.1007714E+00
         -2   -1    0    0    0  501 -0.00000000000E+00  0.00000000000E+00  0.50316366374E+02  0.50316366438E+02  0.25500000000E-02 0. -1.
          2   -1    0    0  501    0  0.00000000000E+00 -0.00000000000E+00 -0.13639128220E+04  0.13639128220E+04  0.25500000000E-02 0.  1.
    5000001    1    1    2    0    0 -0.13141910529E+02 -0.17741778353E+03 -0.54770884243E+03  0.60578771513E+03  0.18800000000E+03 0.  0.
   -5000001    1    1    2    0    0  0.13141910529E+02  0.17741778353E+03 -0.76588761320E+03  0.80844147331E+03  0.18800000000E+03 0.  0.
<mgrwt>
<rscale>  0 0.52393563E+03</rscale>
<asrwt>0</asrwt>
<pdfrwt beam="1">  1        2 0.19484467E+00 0.52393563E+03</pdfrwt>
<pdfrwt beam="2">  1       -2 0.71880532E-02 0.52393563E+03</pdfrwt>
<totfact> 0.20423118E+03</totfact>
</mgrwt>
</event>
<event>
 4    1  0.6239849E-005  0.6760366E+03  0.7818608E-02  0.9759114E-01
          2   -1    0    0  501    0  0.00000000000E+00  0.00000000000E+00  0.29426910842E+04  0.29426910842E+04  0.25500000000E-02 0.  1.
         -2   -1    0    0    0  501 -0.00000000000E+00 -0.00000000000E+00 -0.38827168690E+02  0.38827168774E+02  0.25500000000E-02 0. -1.
    5000001    1    1    2    0    0  0.25841354796E+03 -0.77804699450E+02  0.17958563682E+04  0.18257259456E+04  0.18800000000E+03 0.  0.
   -5000001    1    1    2    0    0 -0.25841354796E+03  0.77804699450E+02  0.11080075473E+04  0.11557923074E+04  0.18800000000E+03 0.  0.
<mgrwt>
<rscale>  0 0.67603658E+03</rscale>
<asrwt>0</asrwt>
<pdfrwt beam="1">  1        2 0.42038444E+00 0.67603658E+03</pdfrwt>
<pdfrwt beam="2">  1       -2 0.55467384E-02 0.67603658E+03</pdfrwt>
<totfact> 0.46960493E+02</totfact>
</mgrwt>
</event>
<event>
 4    1  0.6239849E-005  0.4945270E+03  0.7818608E-02  0.1015217E+00
          2   -1    0    0  501    0  0.00000000000E+00  0.00000000000E+00  0.16539406393E+04  0.16539406393E+04  0.25500000000E-02 0.  1.
         -2   -1    0    0    0  501 -0.00000000000E+00 -0.00000000000E+00 -0.36965793167E+02  0.36965793255E+02  0.25500000000E-02 0. -1.
    5000001    1    1    2    0    0  0.15230823600E+03  0.89703998930E+01  0.98002838263E+03  0.10094938819E+04  0.18800000000E+03 0.  0.
   -5000001    1    1    2    0    0 -0.15230823600E+03 -0.89703998930E+01  0.63694646352E+03  0.68141255068E+03  0.18800000000E+03 0.  0.
<mgrwt>
<rscale>  0 0.49452696E+03</rscale>
<asrwt>0</asrwt>
<pdfrwt beam="1">  1        2 0.23627729E+00 0.49452696E+03</pdfrwt>
<pdfrwt beam="2">  1       -2 0.52808264E-02 0.49452696E+03</pdfrwt>
<totfact> 0.23408971E+03</totfact>
</mgrwt>
</event>
<event>
 4    1  0.6239849E-005  0.6721611E+03  0.7818608E-02  0.9766062E-01
         -2   -1    0    0    0  501 -0.00000000000E+00  0.00000000000E+00  0.68495084771E+02  0.68495084819E+02  0.25500000000E-02 0. -1.
          2   -1    0    0  501    0  0.00000000000E+00 -0.00000000000E+00 -0.16490255465E+04  0.16490255465E+04  0.25500000000E-02 0.  1.
    5000001    1    1    2    0    0  0.25587829678E+03  0.22628603142E+02 -0.10657127654E+04  0.11122380387E+04  0.18800000000E+03 0.  0.
   -5000001    1    1    2    0    0 -0.25587829678E+03 -0.22628603142E+02 -0.51481769631E+03  0.60528259258E+03  0.18800000000E+03 0.  0.
<mgrwt>
<rscale>  0 0.67216113E+03</rscale>
<asrwt>0</asrwt>
<pdfrwt beam="1">  1        2 0.23557505E+00 0.67216113E+03</pdfrwt>
<pdfrwt beam="2">  1       -2 0.97850131E-02 0.67216113E+03</pdfrwt>
<totfact> 0.88102491E+02</totfact>
</mgrwt>
</event>
<event>
 4    1  0.6239849E-005  0.6671769E+03  0.7818608E-02  0.9775071E-01
          2   -1    0    0  501    0  0.00000000000E+00  0.00000000000E+00  0.51164488396E+03  0.51164488397E+03  0.25500000000E-02 0.  1.
         -2   -1    0    0    0  501 -0.00000000000E+00 -0.00000000000E+00 -0.21749707653E+03  0.21749707654E+03  0.25500000000E-02 0. -1.
    5000001    1    1    2    0    0  0.81491866615E+02 -0.23138000837E+03  0.28427074994E+03  0.41991843478E+03  0.18800000000E+03 0.  0.
   -5000001    1    1    2    0    0 -0.81491866615E+02  0.23138000837E+03  0.98770574991E+01  0.30922352573E+03  0.18800000000E+03 0.  0.
<mgrwt>
<rscale>  0 0.66717694E+03</rscale>
<asrwt>0</asrwt>
<pdfrwt beam="1">  1        2 0.73092126E-01 0.66717694E+03</pdfrwt>
<pdfrwt beam="2">  1       -2 0.31071011E-01 0.66717694E+03</pdfrwt>
<totfact> 0.63063671E+02</totfact>
</mgrwt>
</event>
<event>
 4    1  0.6239849E-005  0.4730737E+03  0.7818608E-02  0.1021056E+00
          2   -1    0    0  501    0  0.00000000000E+00  0.00000000000E+00  0.30067278539E+03  0.30067278540E+03  0.25500000000E-02 0.  1.
         -2   -1    0    0    0  501 -0.00000000000E+00 -0.00000000000E+00 -0.18608161803E+03  0.18608161804E+03  0.25500000000E-02 0. -1.
    5000001    1    1    2    0    0  0.10843485705E+03  0.15118260760E+02 -0.38227755508E+02  0.22088920599E+03  0.18800000000E+03 0.  0.
   -5000001    1    1    2    0    0 -0.10843485705E+03 -0.15118260760E+02  0.15281892287E+03  0.26586519746E+03  0.18800000000E+03 0.  0.
<mgrwt>
<rscale>  0 0.47307369E+03</rscale>
<asrwt>0</asrwt>
<pdfrwt beam="1">  1        2 0.42953255E-01 0.47307369E+03</pdfrwt>
<pdfrwt beam="2">  1       -2 0.26583088E-01 0.47307369E+03</pdfrwt>
<totfact> 0.15181810E+03</totfact>
</mgrwt>
</event>
<event>
 4    1  0.6239849E-005  0.9787480E+03  0.7818608E-02  0.9332166E-01
          2   -1    0    0  501    0  0.00000000000E+00  0.00000000000E+00  0.17969192859E+04  0.17969192859E+04  0.25500000000E-02 0.  1.
         -2   -1    0    0    0  501 -0.00000000000E+00 -0.00000000000E+00 -0.13327639771E+03  0.13327639773E+03  0.25500000000E-02 0. -1.
    5000001    1    1    2    0    0 -0.45096528354E+03 -0.14149696626E+02  0.78461312181E+03  0.92440881204E+03  0.18800000000E+03 0.  0.
   -5000001    1    1    2    0    0  0.45096528354E+03  0.14149696626E+02  0.87902976641E+03  0.10057868716E+04  0.18800000000E+03 0.  0.
<mgrwt>
<rscale>  0 0.97874804E+03</rscale>
<asrwt>0</asrwt>
<pdfrwt beam="1">  1        2 0.25670277E+00 0.97874804E+03</pdfrwt>
<pdfrwt beam="2">  1       -2 0.19039484E-01 0.97874804E+03</pdfrwt>
<totfact> 0.23782491E+02</totfact>
</mgrwt>
</event>
<event>
 4    1  0.6239849E-005  0.1086726E+04  0.7818608E-02  0.9218227E-01
          2   -1    0    0  501    0  0.00000000000E+00  0.00000000000E+00  0.11121084236E+04  0.11121084236E+04  0.25500000000E-02 0.  1.
         -2   -1    0    0    0  501 -0.00000000000E+00 -0.00000000000E+00 -0.26548084409E+03  0.26548084410E+03  0.25500000000E-02 0. -1.
    5000001    1    1    2    0    0 -0.35144226225E+03  0.36665460031E+02  0.88915336239E+03  0.97508652001E+03  0.18800000000E+03 0.  0.
   -5000001    1    1    2    0    0  0.35144226225E+03 -0.36665460031E+02 -0.42525782917E+02  0.40250274765E+03  0.18800000000E+03 0.  0.
<mgrwt>
<rscale>  0 0.10867262E+04</rscale>
<asrwt>0</asrwt>
<pdfrwt beam="1">  1        2 0.15887263E+00 0.10867262E+04</pdfrwt>
<pdfrwt beam="2">  1       -2 0.37925835E-01 0.10867262E+04</pdfrwt>
<totfact> 0.15645907E+02</totfact>
</mgrwt>
</event>
<event>
 4    1  0.6239849E-005  0.5724291E+03  0.7818608E-02  0.9964318E-01
          2   -1    0    0  501    0  0.00000000000E+00  0.00000000000E+00  0.92966141264E+03  0.92966141264E+03  0.25500000000E-02 0.  1.
         -2   -1    0    0    0  501 -0.00000000000E+00 -0.00000000000E+00 -0.88116773581E+02  0.88116773618E+02  0.25500000000E-02 0. -1.
    5000001    1    1    2    0    0  0.20401974635E+03  0.62767828947E+02  0.47730336832E+03  0.55563149899E+03  0.18800000000E+03 0.  0.
   -5000001    1    1    2    0    0 -0.20401974635E+03 -0.62767828947E+02  0.36424127073E+03  0.46214668727E+03  0.18800000000E+03 0.  0.
<mgrwt>
<rscale>  0 0.57242908E+03</rscale>
<asrwt>0</asrwt>
<pdfrwt beam="1">  1        2 0.13280877E+00 0.57242908E+03</pdfrwt>
<pdfrwt beam="2">  1       -2 0.12588111E-01 0.57242908E+03</pdfrwt>
<totfact> 0.14671549E+03</totfact>
</mgrwt>
</event>
<event>
 4    1  0.6239849E-005  0.4782170E+03  0.7818608E-02  0.1019626E+00
          2   -1    0    0  501    0  0.00000000000E+00  0.00000000000E+00  0.10070380742E+04  0.10070380742E+04  0.25500000000E-02 0.  1.
         -2   -1    0    0    0  501 -0.00000000000E+00 -0.00000000000E+00 -0.56773308283E+02  0.56773308341E+02  0.25500000000E-02 0. -1.
    5000001    1    1    2    0    0  0.76153277473E+02  0.11981754615E+03  0.56612972501E+03  0.61319037140E+03  0.18800000000E+03 0.  0.
   -5000001    1    1    2    0    0 -0.76153277473E+02 -0.11981754615E+03  0.38413504092E+03  0.45062101116E+03  0.18800000000E+03 0.  0.
<mgrwt>
<rscale>  0 0.47821703E+03</rscale>
<asrwt>0</asrwt>
<pdfrwt beam="1">  1        2 0.14386259E+00 0.47821703E+03</pdfrwt>
<pdfrwt beam="2">  1       -2 0.81104720E-02 0.47821703E+03</pdfrwt>
<totfact> 0.26784669E+03</totfact>
</mgrwt>
</event>
<event>
 4    1  0.6239849E-005  0.4851720E+03  0.7818608E-02  0.1017723E+00
         -2   -1    0    0    0  501 -0.00000000000E+00  0.00000000000E+00  0.22643202598E+03  0.22643202600E+03  0.25500000000E-02 0. -1.
          2   -1    0    0  501    0  0.00000000000E+00 -0.00000000000E+00 -0.25989243326E+03  0.25989243327E+03  0.25500000000E-02 0.  1.
    5000001    1    1    2    0    0  0.16470352307E+02 -0.14691773790E+03 -0.57420667102E+02  0.24596184099E+03  0.18800000000E+03 0.  0.
   -5000001    1    1    2    0    0 -0.16470352307E+02  0.14691773790E+03  0.23960259825E+02  0.24036261828E+03  0.18800000000E+03 0.  0.
<mgrwt>
<rscale>  0 0.48517201E+03</rscale>
<asrwt>0</asrwt>
<pdfrwt beam="1">  1        2 0.37127490E-01 0.48517201E+03</pdfrwt>
<pdfrwt beam="2">  1       -2 0.32347432E-01 0.48517201E+03</pdfrwt>
<totfact> 0.12438462E+03</totfact>
</mgrwt>
</event>
<event>
 4    1  0.6239849E-005  0.5312870E+03  0.7818608E-02  0.1005920E+00
          2   -1    0    0  501    0  0.00000000000E+00  0.00000000000E+00  0.27900245373E+04  0.27900245373E+04  0.25500000000E-02 0.  1.
         -2   -1    0    0    0  501 -0.00000000000E+00 -0.00000000000E+00 -0.25292419102E+02  0.25292419231E+02  0.25500000000E-02 0. -1.
    5000001    1    1    2    0    0  0.90011353489E+02  0.15475008958E+03  0.16808506550E+04  0.17007799853E+04  0.18800000000E+03 0.  0.
   -5000001    1    1    2    0    0 -0.90011353489E+02 -0.15475008958E+03  0.10838814632E+04  0.11145369712E+04  0.18800000000E+03 0.  0.
<mgrwt>
<rscale>  0 0.53128700E+03</rscale>
<asrwt>0</asrwt>
<pdfrwt beam="1">  1        2 0.39857511E+00 0.53128700E+03</pdfrwt>
<pdfrwt beam="2">  1       -2 0.36132011E-02 0.53128700E+03</pdfrwt>
<totfact> 0.11124088E+03</totfact>
</mgrwt>
</event>
<event>
 4    1  0.6239849E-005  0.5106676E+03  0.7818608E-02  0.1011031E+00
          2   -1    0    0  501    0  0.00000000000E+00  0.00000000000E+00  0.21313534195E+03  0.21313534196E+03  0.25500000000E-02 0.  1.
         -2   -1    0    0    0  501 -0.00000000000E+00 -0.00000000000E+00 -0.30588703358E+03  0.30588703359E+03  0.25500000000E-02 0. -1.
    5000001    1    1    2    0    0  0.34105918308E+02 -0.15240052221E+03  0.28740041410E+02  0.24608763238E+03  0.18800000000E+03 0.  0.
   -5000001    1    1    2    0    0 -0.34105918308E+02  0.15240052221E+03 -0.12149173304E+03  0.27293474317E+03  0.18800000000E+03 0.  0.
<mgrwt>
<rscale>  0 0.51066755E+03</rscale>
<asrwt>0</asrwt>
<pdfrwt beam="1">  1        2 0.30447906E-01 0.51066755E+03</pdfrwt>
<pdfrwt beam="2">  1       -2 0.43698147E-01 0.51066755E+03</pdfrwt>
<totfact> 0.87191695E+02</totfact>
</mgrwt>
</event>
<event>
 4    1  0.6239849E-005  0.1085256E+04  0.7818608E-02  0.9219682E-01
          2   -1    0    0  501    0  0.00000000000E+00  0.00000000000E+00  0.18328861085E+04  0.18328861085E+04  0.25500000000E-02 0.  1.
         -2   -1    0    0    0  501 -0.00000000000E+00 -0.00000000000E+00 -0.16064574541E+03  0.16064574543E+03  0.25500000000E-02 0. -1.
    5000001    1    1    2    0    0 -0.71569002202E+02 -0.45710031953E+03  0.12259570756E+04  0.13237739895E+04  0.18800000000E+03 0.  0.
   -5000001    1    1    2    0    0  0.71569002202E+02  0.45710031953E+03  0.44628328747E+03  0.66975786435E+03  0.18800000000E+03 0.  0.
<mgrwt>
<rscale>  0 0.10852564E+04</rscale>
<asrwt>0</asrwt>
<pdfrwt beam="1">  1        2 0.26184088E+00 0.10852564E+04</pdfrwt>
<pdfrwt beam="2">  1       -2 0.22949391E-01 0.10852564E+04</pdfrwt>
<totfact> 0.16273366E+02</totfact>
</mgrwt>
</event>
<event>
 4    1  0.6239849E-005  0.5528889E+03  0.7818608E-02  0.1000827E+00
         -2   -1    0    0    0  501 -0.00000000000E+00  0.00000000000E+00  0.48321674213E+02  0.48321674280E+02  0.25500000000E-02 0. -1.
          2   -1    0    0  501    0  0.00000000000E+00 -0.00000000000E+00 -0.15815164798E+04  0.15815164798E+04  0.25500000000E-02 0.  1.
    5000001    1    1    2    0    0  0.36027904078E+02 -0.19888934450E+03 -0.72262162426E+03  0.77355089883E+03  0.18800000000E+03 0.  0.
   -5000001    1    1    2    0    0 -0.36027904078E+02  0.19888934450E+03 -0.81057318131E+03  0.85628725524E+03  0.18800000000E+03 0.  0.
<mgrwt>
<rscale>  0 0.55288886E+03</rscale>
<asrwt>0</asrwt>
<pdfrwt beam="1">  1        2 0.22593089E+00 0.55288886E+03</pdfrwt>
<pdfrwt beam="2">  1       -2 0.69030973E-02 0.55288886E+03</pdfrwt>
<totfact> 0.16745149E+03</totfact>
</mgrwt>
</event>
<event>
 4    1  0.6239849E-005  0.4214804E+03  0.7818608E-02  0.1036586E+00
          2   -1    0    0  501    0  0.00000000000E+00  0.00000000000E+00  0.16913656183E+04  0.16913656183E+04  0.25500000000E-02 0.  1.
         -2   -1    0    0    0  501 -0.00000000000E+00 -0.00000000000E+00 -0.26257734873E+02  0.26257734997E+02  0.25500000000E-02 0. -1.
    5000001    1    1    2    0    0 -0.31248253027E+02 -0.83850773966E+02  0.96523487203E+03  0.98743595427E+03  0.18800000000E+03 0.  0.
   -5000001    1    1    2    0    0  0.31248253027E+02  0.83850773966E+02  0.69987301140E+03  0.73018739902E+03  0.18800000000E+03 0.  0.
<mgrwt>
<rscale>  0 0.42148039E+03</rscale>
<asrwt>0</asrwt>
<pdfrwt beam="1">  1        2 0.24162372E+00 0.42148039E+03</pdfrwt>
<pdfrwt beam="2">  1       -2 0.37511040E-02 0.42148039E+03</pdfrwt>
<totfact> 0.37914261E+03</totfact>
</mgrwt>
</event>
<event>
 4    1  0.6239849E-005  0.4892685E+03  0.7818608E-02  0.1016619E+00
         -2   -1    0    0    0  501 -0.00000000000E+00  0.00000000000E+00  0.15153448189E+02  0.15153448403E+02  0.25500000000E-02 0. -1.
          2   -1    0    0  501    0  0.00000000000E+00 -0.00000000000E+00 -0.39493271495E+04  0.39493271495E+04  0.25500000000E-02 0.  1.
    5000001    1    1    2    0    0 -0.12982826821E+03 -0.48602989297E+02 -0.13780634672E+04  0.13977197679E+04  0.18800000000E+03 0.  0.
   -5000001    1    1    2    0    0  0.12982826821E+03  0.48602989297E+02 -0.25561102341E+04  0.25667608300E+04  0.18800000000E+03 0.  0.
<mgrwt>
<rscale>  0 0.48926853E+03</rscale>
<asrwt>0</asrwt>
<pdfrwt beam="1">  1        2 0.56418894E+00 0.48926853E+03</pdfrwt>
<pdfrwt beam="2">  1       -2 0.21647808E-02 0.48926853E+03</pdfrwt>
<totfact> 0.51424946E+02</totfact>
</mgrwt>
</event>
<event>
 4    1  0.6239849E-005  0.5184686E+03  0.7818608E-02  0.1009068E+00
          2   -1    0    0  501    0  0.00000000000E+00  0.00000000000E+00  0.73177469431E+03  0.73177469432E+03  0.25500000000E-02 0.  1.
         -2   -1    0    0    0  501 -0.00000000000E+00 -0.00000000000E+00 -0.91834854956E+02  0.91834854992E+02  0.25500000000E-02 0. -1.
    5000001    1    1    2    0    0  0.13741372909E+02 -0.13887844024E+03  0.49673680656E+03  0.54915161976E+03  0.18800000000E+03 0.  0.
   -5000001    1    1    2    0    0 -0.13741372909E+02  0.13887844024E+03  0.14320303280E+03  0.27445792955E+03  0.18800000000E+03 0.  0.
<mgrwt>
<rscale>  0 0.51846860E+03</rscale>
<asrwt>0</asrwt>
<pdfrwt beam="1">  1        2 0.10453924E+00 0.51846860E+03</pdfrwt>
<pdfrwt beam="2">  1       -2 0.13119265E-01 0.51846860E+03</pdfrwt>
<totfact> 0.18665070E+03</totfact>
</mgrwt>
</event>
<event>
 4    1  0.6239849E-005  0.5824692E+03  0.7818608E-02  0.9942459E-01
          2   -1    0    0  501    0  0.00000000000E+00  0.00000000000E+00  0.22415316381E+04  0.22415316381E+04  0.25500000000E-02 0.  1.
         -2   -1    0    0    0  501 -0.00000000000E+00 -0.00000000000E+00 -0.37839128838E+02  0.37839128924E+02  0.25500000000E-02 0. -1.
    5000001    1    1    2    0    0 -0.10306306964E+03  0.19359218396E+03  0.95680755409E+03  0.99946216816E+03  0.18800000000E+03 0.  0.
   -5000001    1    1    2    0    0  0.10306306964E+03 -0.19359218396E+03  0.12468849551E+04  0.12799085988E+04  0.18800000000E+03 0.  0.
<mgrwt>
<rscale>  0 0.58246924E+03</rscale>
<asrwt>0</asrwt>
<pdfrwt beam="1">  1        2 0.32021897E+00 0.58246924E+03</pdfrwt>
<pdfrwt beam="2">  1       -2 0.54055871E-02 0.58246924E+03</pdfrwt>
<totfact> 0.11397849E+03</totfact>
</mgrwt>
</event>
<event>
 4    1  0.6239849E-005  0.5460131E+03  0.7818608E-02  0.1002421E+00
         -2   -1    0    0    0  501 -0.00000000000E+00  0.00000000000E+00  0.59272387954E+02  0.59272388008E+02  0.25500000000E-02 0. -1.
          2   -1    0    0  501    0  0.00000000000E+00 -0.00000000000E+00 -0.12574587150E+04  0.12574587150E+04  0.25500000000E-02 0.  1.
    5000001    1    1    2    0    0  0.76224191602E+02 -0.16643327453E+03 -0.41737107479E+03  0.49300382993E+03  0.18800000000E+03 0.  0.
   -5000001    1    1    2    0    0 -0.76224191602E+02  0.16643327453E+03 -0.78081525221E+03  0.82372727303E+03  0.18800000000E+03 0.  0.
<mgrwt>
<rscale>  0 0.54601312E+03</rscale>
<asrwt>0</asrwt>
<pdfrwt beam="1">  1        2 0.17963694E+00 0.54601312E+03</pdfrwt>
<pdfrwt beam="2">  1       -2 0.84674848E-02 0.54601312E+03</pdfrwt>
<totfact> 0.17968773E+03</totfact>
</mgrwt>
</event>
<event>
 4    1  0.6239849E-005  0.4611572E+03  0.7818608E-02  0.1024446E+00
          2   -1    0    0  501    0  0.00000000000E+00  0.00000000000E+00  0.26088810117E+04  0.26088810117E+04  0.25500000000E-02 0.  1.
         -2   -1    0    0    0  501 -0.00000000000E+00 -0.00000000000E+00 -0.20379042346E+02  0.20379042505E+02  0.25500000000E-02 0. -1.
    5000001    1    1    2    0    0  0.13621587001E+02 -0.13132086950E+03  0.11814001481E+04  0.12035285739E+04  0.18800000000E+03 0.  0.
   -5000001    1    1    2    0    0 -0.13621587001E+02  0.13132086950E+03  0.14071018213E+04  0.14257314803E+04  0.18800000000E+03 0.  0.
<mgrwt>
<rscale>  0 0.46115723E+03</rscale>
<asrwt>0</asrwt>
<pdfrwt beam="1">  1        2 0.37269760E+00 0.46115723E+03</pdfrwt>
<pdfrwt beam="2">  1       -2 0.29112893E-02 0.46115723E+03</pdfrwt>
<totfact> 0.19280753E+03</totfact>
</mgrwt>
</event>
<event>
 4    1  0.6239849E-005  0.4757311E+03  0.7818608E-02  0.1020315E+00
         -2   -1    0    0    0  501 -0.00000000000E+00  0.00000000000E+00  0.28874842803E+02  0.28874842915E+02  0.25500000000E-02 0. -1.
          2   -1    0    0  501    0  0.00000000000E+00 -0.00000000000E+00 -0.19594914907E+04  0.19594914907E+04  0.25500000000E-02 0.  1.
    5000001    1    1    2    0    0 -0.35844821150E+02  0.12416550610E+03 -0.68387227982E+03  0.72092109084E+03  0.18800000000E+03 0.  0.
   -5000001    1    1    2    0    0  0.35844821150E+02 -0.12416550610E+03 -0.12467443680E+04  0.12674452427E+04  0.18800000000E+03 0.  0.
<mgrwt>
<rscale>  0 0.47573105E+03</rscale>
<asrwt>0</asrwt>
<pdfrwt beam="1">  1        2 0.27992727E+00 0.47573105E+03</pdfrwt>
<pdfrwt beam="2">  1       -2 0.41249788E-02 0.47573105E+03</pdfrwt>
<totfact> 0.24070219E+03</totfact>
</mgrwt>
</event>
<event>
 4    1  0.6239849E-005  0.8699437E+03  0.7818608E-02  0.9463953E-01
          2   -1    0    0  501    0  0.00000000000E+00  0.00000000000E+00  0.16239707915E+03  0.16239707917E+03  0.25500000000E-02 0.  1.
         -2   -1    0    0    0  501 -0.00000000000E+00 -0.00000000000E+00 -0.11650487537E+04  0.11650487537E+04  0.25500000000E-02 0. -1.
    5000001    1    1    2    0    0 -0.37066282800E+03  0.48704322060E+02 -0.32017737612E+03  0.52689713913E+03  0.18800000000E+03 0.  0.
   -5000001    1    1    2    0    0  0.37066282800E+03 -0.48704322060E+02 -0.68247429845E+03  0.80054869377E+03  0.18800000000E+03 0.  0.
<mgrwt>
<rscale>  0 0.86994371E+03</rscale>
<asrwt>0</asrwt>
<pdfrwt beam="1">  1        2 0.23199583E-01 0.86994371E+03</pdfrwt>
<pdfrwt beam="2">  1       -2 0.16643553E+00 0.86994371E+03</pdfrwt>
<totfact> 0.54349315E+01</totfact>
</mgrwt>
</event>
<event>
 4    1  0.6239849E-005  0.4634082E+03  0.7818608E-02  0.1023797E+00
          2   -1    0    0  501    0  0.00000000000E+00  0.00000000000E+00  0.97976035921E+02  0.97976035954E+02  0.25500000000E-02 0.  1.
         -2   -1    0    0    0  501 -0.00000000000E+00 -0.00000000000E+00 -0.54795848017E+03  0.54795848018E+03  0.25500000000E-02 0. -1.
    5000001    1    1    2    0    0 -0.35516645209E+02  0.55833097531E+02 -0.38970509151E+03  0.43771317688E+03  0.18800000000E+03 0.  0.
   -5000001    1    1    2    0    0  0.35516645209E+02 -0.55833097531E+02 -0.60277352745E+02  0.20822133925E+03  0.18800000000E+03 0.  0.
<mgrwt>
<rscale>  0 0.46340824E+03</rscale>
<asrwt>0</asrwt>
<pdfrwt beam="1">  1        2 0.13996577E-01 0.46340824E+03</pdfrwt>
<pdfrwt beam="2">  1       -2 0.78279781E-01 0.46340824E+03</pdfrwt>
<totfact> 0.63753732E+02</totfact>
</mgrwt>
</event>
<event>
 4    1  0.6239849E-005  0.1729436E+04  0.7818608E-02  0.8744752E-01
         -2   -1    0    0    0  501 -0.00000000000E+00  0.00000000000E+00  0.20917879704E+04  0.20917879704E+04  0.25500000000E-02 0. -1.
          2   -1    0    0  501    0  0.00000000000E+00 -0.00000000000E+00 -0.35746326575E+03  0.35746326575E+03  0.25500000000E-02 0.  1.
    5000001    1    1    2    0    0  0.16008501469E+03  0.59939785362E+03  0.16776133005E+04  0.17985092118E+04  0.18800000000E+03 0.  0.
   -5000001    1    1    2    0    0 -0.16008501469E+03 -0.59939785362E+03  0.56711404090E+02  0.65074202431E+03  0.18800000000E+03 0.  0.
<mgrwt>
<rscale>  0 0.17294362E+04</rscale>
<asrwt>0</asrwt>
<pdfrwt beam="1">  1        2 0.51066180E-01 0.17294362E+04</pdfrwt>
<pdfrwt beam="2">  1       -2 0.29882686E+00 0.17294362E+04</pdfrwt>
<totfact> 0.30228887E+00</totfact>
</mgrwt>
</event>
<event>
 4    1  0.6239849E-005  0.8557062E+03  0.7818608E-02  0.9482710E-01
          2   -1    0    0  501    0  0.00000000000E+00  0.00000000000E+00  0.16715473558E+04  0.16715473558E+04  0.25500000000E-02 0.  1.
         -2   -1    0    0    0  501 -0.00000000000E+00 -0.00000000000E+00 -0.10951427204E+03  0.10951427207E+03  0.25500000000E-02 0. -1.
    5000001    1    1    2    0    0 -0.25894557841E+03  0.39725650679E+02  0.19569193381E+03  0.37718731799E+03  0.18800000000E+03 0.  0.
   -5000001    1    1    2    0    0  0.25894557841E+03 -0.39725650679E+02  0.13663411499E+04  0.14038743098E+04  0.18800000000E+03 0.  0.
<mgrwt>
<rscale>  0 0.85570624E+03</rscale>
<asrwt>0</asrwt>
<pdfrwt beam="1">  1        2 0.23879249E+00 0.85570624E+03</pdfrwt>
<pdfrwt beam="2">  1       -2 0.15644895E-01 0.85570624E+03</pdfrwt>
<totfact> 0.38983738E+02</totfact>
</mgrwt>
</event>
<event>
 4    1  0.6239849E-005  0.6810243E+03  0.7818608E-02  0.9750245E-01
          2   -1    0    0  501    0  0.00000000000E+00  0.00000000000E+00  0.46423736001E+03  0.46423736002E+03  0.25500000000E-02 0.  1.
         -2   -1    0    0    0  501 -0.00000000000E+00 -0.00000000000E+00 -0.24976131524E+03  0.24976131525E+03  0.25500000000E-02 0. -1.
    5000001    1    1    2    0    0  0.30121475813E+02 -0.27594020288E+03  0.44734019029E+02  0.33822393666E+03  0.18800000000E+03 0.  0.
   -5000001    1    1    2    0    0 -0.30121475813E+02  0.27594020288E+03  0.16974202574E+03  0.37577473861E+03  0.18800000000E+03 0.  0.
<mgrwt>
<rscale>  0 0.68102433E+03</rscale>
<asrwt>0</asrwt>
<pdfrwt beam="1">  1        2 0.66319622E-01 0.68102433E+03</pdfrwt>
<pdfrwt beam="2">  1       -2 0.35680188E-01 0.68102433E+03</pdfrwt>
<totfact> 0.54271061E+02</totfact>
</mgrwt>
</event>
<event>
 4    1  0.6239849E-005  0.5128252E+03  0.7818608E-02  0.1010485E+00
         -2   -1    0    0    0  501 -0.00000000000E+00  0.00000000000E+00  0.10187582413E+03  0.10187582416E+03  0.25500000000E-02 0. -1.
          2   -1    0    0  501    0  0.00000000000E+00 -0.00000000000E+00 -0.64536834417E+03  0.64536834418E+03  0.25500000000E-02 0.  1.
    5000001    1    1    2    0    0 -0.12892986781E+03 -0.93243324990E+02 -0.37566407508E+03  0.44920454781E+03  0.18800000000E+03 0.  0.
   -5000001    1    1    2    0    0  0.12892986781E+03  0.93243324990E+02 -0.16782844496E+03  0.29803962053E+03  0.18800000000E+03 0.  0.
<mgrwt>
<rscale>  0 0.51282524E+03</rscale>
<asrwt>0</asrwt>
<pdfrwt beam="1">  1        2 0.92195476E-01 0.51282524E+03</pdfrwt>
<pdfrwt beam="2">  1       -2 0.14553689E-01 0.51282524E+03</pdfrwt>
<totfact> 0.18287452E+03</totfact>
</mgrwt>
</event>
<event>
 4    1  0.6239849E-005  0.4923402E+03  0.7818608E-02  0.1015798E+00
          2   -1    0    0  501    0  0.00000000000E+00  0.00000000000E+00  0.19099099770E+03  0.19099099772E+03  0.25500000000E-02 0.  1.
         -2   -1    0    0    0  501 -0.00000000000E+00 -0.00000000000E+00 -0.31729097897E+03  0.31729097898E+03  0.25500000000E-02 0. -1.
    5000001    1    1    2    0    0 -0.15203345607E+03  0.45856153170E+02 -0.56722476881E+02  0.25254385348E+03  0.18800000000E+03 0.  0.
   -5000001    1    1    2    0    0  0.15203345607E+03 -0.45856153170E+02 -0.69577504394E+02  0.25573812322E+03  0.18800000000E+03 0.  0.
<mgrwt>
<rscale>  0 0.49234021E+03</rscale>
<asrwt>0</asrwt>
<pdfrwt beam="1">  1        2 0.27284428E-01 0.49234021E+03</pdfrwt>
<pdfrwt beam="2">  1       -2 0.45327283E-01 0.49234021E+03</pdfrwt>
<totfact> 0.91741774E+02</totfact>
</mgrwt>
</event>
<event>
 4    1  0.6239849E-005  0.4903843E+03  0.7818608E-02  0.1016320E+00
         -2   -1    0    0    0  501 -0.00000000000E+00  0.00000000000E+00  0.55255684932E+03  0.55255684932E+03  0.25500000000E-02 0. -1.
          2   -1    0    0  501    0  0.00000000000E+00 -0.00000000000E+00 -0.10880179754E+03  0.10880179757E+03  0.25500000000E-02 0.  1.
    5000001    1    1    2    0    0 -0.97714426271E+02 -0.12108596847E+03  0.25394197081E+03  0.35219376116E+03  0.18800000000E+03 0.  0.
   -5000001    1    1    2    0    0  0.97714426271E+02  0.12108596847E+03  0.18981308097E+03  0.30916488573E+03  0.18800000000E+03 0.  0.
<mgrwt>
<rscale>  0 0.49038425E+03</rscale>
<asrwt>0</asrwt>
<pdfrwt beam="1">  1        2 0.15543114E-01 0.49038425E+03</pdfrwt>
<pdfrwt beam="2">  1       -2 0.78936692E-01 0.49038425E+03</pdfrwt>
<totfact> 0.55142130E+02</totfact>
</mgrwt>
</event>
<event>
 4    1  0.6239849E-005  0.6423117E+03  0.7818608E-02  0.9821314E-01
         -2   -1    0    0    0  501 -0.00000000000E+00  0.00000000000E+00  0.61787465288E+02  0.61787465341E+02  0.25500000000E-02 0. -1.
          2   -1    0    0  501    0  0.00000000000E+00 -0.00000000000E+00 -0.16692881550E+04  0.16692881550E+04  0.25500000000E-02 0.  1.
    5000001    1    1    2    0    0 -0.19588190588E+03  0.12576938386E+03 -0.11181558105E+04  0.11574990607E+04  0.18800000000E+03 0.  0.
   -5000001    1    1    2    0    0  0.19588190588E+03 -0.12576938386E+03 -0.48934487928E+03  0.57357655971E+03  0.18800000000E+03 0.  0.
<mgrwt>
<rscale>  0 0.64231171E+03</rscale>
<asrwt>0</asrwt>
<pdfrwt beam="1">  1        2 0.23846971E+00 0.64231171E+03</pdfrwt>
<pdfrwt beam="2">  1       -2 0.88267818E-02 0.64231171E+03</pdfrwt>
<totfact> 0.10174001E+03</totfact>
</mgrwt>
</event>
<event>
 4    1  0.6239849E-005  0.7005209E+03  0.7818608E-02  0.9716342E-01
         -2   -1    0    0    0  501 -0.00000000000E+00  0.00000000000E+00  0.10649072987E+03  0.10649072990E+03  0.25500000000E-02 0. -1.
          2   -1    0    0  501    0  0.00000000000E+00 -0.00000000000E+00 -0.11520476509E+04  0.11520476509E+04  0.25500000000E-02 0.  1.
    5000001    1    1    2    0    0  0.20311506943E+03  0.19161837641E+03 -0.69663885675E+03  0.77370732861E+03  0.18800000000E+03 0.  0.
   -5000001    1    1    2    0    0 -0.20311506943E+03 -0.19161837641E+03 -0.34891806431E+03  0.48483105223E+03  0.18800000000E+03 0.  0.
<mgrwt>
<rscale>  0 0.70052094E+03</rscale>
<asrwt>0</asrwt>
<pdfrwt beam="1">  1        2 0.16457823E+00 0.70052094E+03</pdfrwt>
<pdfrwt beam="2">  1       -2 0.15212962E-01 0.70052094E+03</pdfrwt>
<totfact> 0.78364885E+02</totfact>
</mgrwt>
</event>
<event>
 4    1  0.6239849E-005  0.8995718E+03  0.7818608E-02  0.9426117E-01
         -2   -1    0    0    0  501 -0.00000000000E+00  0.00000000000E+00  0.41850754773E+03  0.41850754774E+03  0.25500000000E-02 0. -1.
          2   -1    0    0  501    0  0.00000000000E+00 -0.00000000000E+00 -0.48340197974E+03  0.48340197974E+03  0.25500000000E-02 0.  1.
    5000001    1    1    2    0    0 -0.34526817101E+03 -0.13628848331E+03 -0.20370890060E+03  0.46327742960E+03  0.18800000000E+03 0.  0.
   -5000001    1    1    2    0    0  0.34526817101E+03  0.13628848331E+03  0.13881446859E+03  0.43863209788E+03  0.18800000000E+03 0.  0.
<mgrwt>
<rscale>  0 0.89957185E+03</rscale>
<asrwt>0</asrwt>
<pdfrwt beam="1">  1        2 0.69057425E-01 0.89957185E+03</pdfrwt>
<pdfrwt beam="2">  1       -2 0.59786793E-01 0.89957185E+03</pdfrwt>
<totfact> 0.18277852E+02</totfact>
</mgrwt>
</event>
<event>
 4    1  0.6239849E-005  0.6246064E+03  0.7818608E-02  0.9855631E-01
          2   -1    0    0  501    0  0.00000000000E+00  0.00000000000E+00  0.15509193394E+04  0.15509193394E+04  0.25500000000E-02 0.  1.
         -2   -1    0    0    0  501 -0.00000000000E+00 -0.00000000000E+00 -0.62887403027E+02  0.62887403079E+02  0.25500000000E-02 0. -1.
    5000001    1    1    2    0    0 -0.20695739039E+03 -0.13904190626E+03  0.73102614319E+03  0.79492593062E+03  0.18800000000E+03 0.  0.
   -5000001    1    1    2    0    0  0.20695739039E+03  0.13904190626E+03  0.75700579318E+03  0.81888081187E+03  0.18800000000E+03 0.  0.
<mgrwt>
<rscale>  0 0.62460640E+03</rscale>
<asrwt>0</asrwt>
<pdfrwt beam="1">  1        2 0.22155991E+00 0.62460640E+03</pdfrwt>
<pdfrwt beam="2">  1       -2 0.89839146E-02 0.62460640E+03</pdfrwt>
<totfact> 0.11386533E+03</totfact>
</mgrwt>
</event>
<event>
 4    1  0.6239849E-005  0.5711381E+03  0.7818608E-02  0.9967163E-01
         -2   -1    0    0    0  501 -0.00000000000E+00  0.00000000000E+00  0.41029094040E+02  0.41029094119E+02  0.25500000000E-02 0. -1.
          2   -1    0    0  501    0  0.00000000000E+00 -0.00000000000E+00 -0.19876062400E+04  0.19876062400E+04  0.25500000000E-02 0.  1.
    5000001    1    1    2    0    0  0.52941567873E+02  0.20720305564E+03 -0.89630388506E+03  0.94044700555E+03  0.18800000000E+03 0.  0.
   -5000001    1    1    2    0    0 -0.52941567873E+02 -0.20720305564E+03 -0.10502732609E+04  0.10881883286E+04  0.18800000000E+03 0.  0.
<mgrwt>
<rscale>  0 0.57113810E+03</rscale>
<asrwt>0</asrwt>
<pdfrwt beam="1">  1        2 0.28394369E+00 0.57113810E+03</pdfrwt>
<pdfrwt beam="2">  1       -2 0.58613004E-02 0.57113810E+03</pdfrwt>
<totfact> 0.13483889E+03</totfact>
</mgrwt>
</event>
<event>
 4    1  0.6239849E-005  0.4557465E+03  0.7818608E-02  0.1026022E+00
         -2   -1    0    0    0  501 -0.00000000000E+00  0.00000000000E+00  0.23348983226E+02  0.23348983366E+02  0.25500000000E-02 0. -1.
          2   -1    0    0  501    0  0.00000000000E+00 -0.00000000000E+00 -0.22239178906E+04  0.22239178906E+04  0.25500000000E-02 0.  1.
    5000001    1    1    2    0    0 -0.39449052711E+02 -0.12202829731E+03 -0.11575958001E+04  0.11797538597E+04  0.18800000000E+03 0.  0.
   -5000001    1    1    2    0    0  0.39449052711E+02  0.12202829731E+03 -0.10429731073E+04  0.10675130143E+04  0.18800000000E+03 0.  0.
<mgrwt>
<rscale>  0 0.45574652E+03</rscale>
<asrwt>0</asrwt>
<pdfrwt beam="1">  1        2 0.31770242E+00 0.45574652E+03</pdfrwt>
<pdfrwt beam="2">  1       -2 0.33355705E-02 0.45574652E+03</pdfrwt>
<totfact> 0.24577833E+03</totfact>
</mgrwt>
</event>
<event>
 4    1  0.6239849E-005  0.5593887E+03  0.7818608E-02  0.9993439E-01
          2   -1    0    0  501    0  0.00000000000E+00  0.00000000000E+00  0.19315344236E+04  0.19315344236E+04  0.25500000000E-02 0.  1.
         -2   -1    0    0    0  501 -0.00000000000E+00 -0.00000000000E+00 -0.40500925118E+02  0.40500925198E+02  0.25500000000E-02 0. -1.
    5000001    1    1    2    0    0  0.17312257850E+03  0.10774665257E+03  0.10728280356E+04  0.11080996175E+04  0.18800000000E+03 0.  0.
   -5000001    1    1    2    0    0 -0.17312257850E+03 -0.10774665257E+03  0.81820546285E+03  0.86393573127E+03  0.18800000000E+03 0.  0.
<mgrwt>
<rscale>  0 0.55938871E+03</rscale>
<asrwt>0</asrwt>
<pdfrwt beam="1">  1        2 0.27593344E+00 0.55938871E+03</pdfrwt>
<pdfrwt beam="2">  1       -2 0.57858476E-02 0.55938871E+03</pdfrwt>
<totfact> 0.14687945E+03</totfact>
</mgrwt>
</event>
<event>
 4    1  0.6239849E-005  0.6480621E+03  0.7818608E-02  0.9810422E-01
         -2   -1    0    0    0  501 -0.00000000000E+00  0.00000000000E+00  0.18711515806E+03  0.18711515808E+03  0.25500000000E-02 0. -1.
          2   -1    0    0  501    0  0.00000000000E+00 -0.00000000000E+00 -0.56113095748E+03  0.56113095749E+03  0.25500000000E-02 0.  1.
    5000001    1    1    2    0    0 -0.16318678462E+03  0.93394643317E+02 -0.40083982216E+03  0.48100836698E+03  0.18800000000E+03 0.  0.
   -5000001    1    1    2    0    0  0.16318678462E+03 -0.93394643317E+02  0.26824022737E+02  0.26723774859E+03  0.18800000000E+03 0.  0.
<mgrwt>
<rscale>  0 0.64806206E+03</rscale>
<asrwt>0</asrwt>
<pdfrwt beam="1">  1        2 0.80161565E-01 0.64806206E+03</pdfrwt>
<pdfrwt beam="2">  1       -2 0.26730737E-01 0.64806206E+03</pdfrwt>
<totfact> 0.74784932E+02</totfact>
</mgrwt>
</event>
<event>
 4    1  0.6239849E-005  0.7492447E+03  0.7818608E-02  0.9636536E-01
          2   -1    0    0  501    0  0.00000000000E+00  0.00000000000E+00  0.15159991942E+04  0.15159991942E+04  0.25500000000E-02 0.  1.
         -2   -1    0    0    0  501 -0.00000000000E+00 -0.00000000000E+00 -0.92573875024E+02  0.92573875059E+02  0.25500000000E-02 0. -1.
    5000001    1    1    2    0    0 -0.20646079545E+02  0.32227300032E+03  0.65443467439E+03  0.75360128077E+03  0.18800000000E+03 0.  0.
   -5000001    1    1    2    0    0  0.20646079545E+02 -0.32227300032E+03  0.76899064475E+03  0.85497178845E+03  0.18800000000E+03 0.  0.
<mgrwt>
<rscale>  0 0.74924474E+03</rscale>
<asrwt>0</asrwt>
<pdfrwt beam="1">  1        2 0.21657131E+00 0.74924474E+03</pdfrwt>
<pdfrwt beam="2">  1       -2 0.13224840E-01 0.74924474E+03</pdfrwt>
<totfact> 0.62686953E+02</totfact>
</mgrwt>
</event>
<event>
 4    1  0.6239849E-005  0.6094512E+03  0.7818608E-02  0.9885989E-01
         -2   -1    0    0    0  501 -0.00000000000E+00  0.00000000000E+00  0.91004685698E+02  0.91004685733E+02  0.25500000000E-02 0. -1.
          2   -1    0    0  501    0  0.00000000000E+00 -0.00000000000E+00 -0.10203617567E+04  0.10203617567E+04  0.25500000000E-02 0.  1.
    5000001    1    1    2    0    0 -0.15208084141E+03 -0.18035207200E+03 -0.54328716946E+03  0.62141805631E+03  0.18800000000E+03 0.  0.
   -5000001    1    1    2    0    0  0.15208084141E+03  0.18035207200E+03 -0.38606990154E+03  0.48994838613E+03  0.18800000000E+03 0.  0.
<mgrwt>
<rscale>  0 0.60945123E+03</rscale>
<asrwt>0</asrwt>
<pdfrwt beam="1">  1        2 0.14576596E+00 0.60945123E+03</pdfrwt>
<pdfrwt beam="2">  1       -2 0.13000670E-01 0.60945123E+03</pdfrwt>
<totfact> 0.12217536E+03</totfact>
</mgrwt>
</event>
<event>
 4    1  0.6239849E-005  0.6825162E+03  0.7818608E-02  0.9747608E-01
         -2   -1    0    0    0  501 -0.00000000000E+00  0.00000000000E+00  0.27135811020E+03  0.27135811021E+03  0.25500000000E-02 0. -1.
          2   -1    0    0  501    0  0.00000000000E+00 -0.00000000000E+00 -0.42916389068E+03  0.42916389069E+03  0.25500000000E-02 0.  1.
    5000001    1    1    2    0    0 -0.94555486361E+01  0.17344196331E+03  0.15275388187E+03  0.29807594748E+03  0.18800000000E+03 0.  0.
   -5000001    1    1    2    0    0  0.94555486361E+01 -0.17344196331E+03 -0.31055966236E+03  0.40244605343E+03  0.18800000000E+03 0.  0.
<mgrwt>
<rscale>  0 0.68251623E+03</rscale>
<asrwt>0</asrwt>
<pdfrwt beam="1">  1        2 0.61309127E-01 0.68251623E+03</pdfrwt>
<pdfrwt beam="2">  1       -2 0.38765445E-01 0.68251623E+03</pdfrwt>
<totfact> 0.50561197E+02</totfact>
</mgrwt>
</event>
<event>
 4    1  0.6239849E-005  0.8881113E+03  0.7818608E-02  0.9440566E-01
          2   -1    0    0  501    0  0.00000000000E+00  0.00000000000E+00  0.10527307639E+04  0.10527307639E+04  0.25500000000E-02 0. -1.
         -2   -1    0    0    0  501 -0.00000000000E+00 -0.00000000000E+00 -0.18730849986E+03  0.18730849987E+03  0.25500000000E-02 0.  1.
    5000001    1    1    2    0    0 -0.19375303885E+03 -0.34857632389E+03  0.50653815951E+03  0.67154344661E+03  0.18800000000E+03 0.  0.
   -5000001    1    1    2    0    0  0.19375303885E+03  0.34857632389E+03  0.35888410451E+03  0.56849581715E+03  0.18800000000E+03 0.  0.
<mgrwt>
<rscale>  0 0.88811130E+03</rscale>
<asrwt>0</asrwt>
<pdfrwt beam="1">  1        2 0.15039011E+00 0.88811130E+03</pdfrwt>
<pdfrwt beam="2">  1       -2 0.26758357E-01 0.88811130E+03</pdfrwt>
<totfact> 0.33026418E+02</totfact>
</mgrwt>
</event>
<event>
 4    1  0.6239849E-005  0.1168185E+04  0.7818608E-02  0.9141169E-01
         -2   -1    0    0    0  501 -0.00000000000E+00  0.00000000000E+00  0.42362254845E+03  0.42362254846E+03  0.25500000000E-02 0. -1.
          2   -1    0    0  501    0  0.00000000000E+00 -0.00000000000E+00 -0.80534920436E+03  0.80534920436E+03  0.25500000000E-02 0.  1.
    5000001    1    1    2    0    0  0.52889964521E+03 -0.12219608464E+03 -0.79758430547E+02  0.57997596937E+03  0.18800000000E+03 0.  0.
   -5000001    1    1    2    0    0 -0.52889964521E+03  0.12219608464E+03 -0.30196822536E+03  0.64899578345E+03  0.18800000000E+03 0.  0.
<mgrwt>
<rscale>  0 0.11681851E+04</rscale>
<asrwt>0</asrwt>
<pdfrwt beam="1">  1        2 0.11504989E+00 0.11681851E+04</pdfrwt>
<pdfrwt beam="2">  1       -2 0.60517507E-01 0.11681851E+04</pdfrwt>
<totfact> 0.94829413E+01</totfact>
</mgrwt>
</event>
<event>
 4    1  0.6239849E-005  0.4063163E+03  0.7818608E-02  0.1041614E+00
         -2   -1    0    0    0  501 -0.00000000000E+00  0.00000000000E+00  0.14229026502E+02  0.14229026731E+02  0.25500000000E-02 0. -1.
          2   -1    0    0  501    0  0.00000000000E+00 -0.00000000000E+00 -0.29006367426E+04  0.29006367426E+04  0.25500000000E-02 0.  1.
    5000001    1    1    2    0    0 -0.65159322092E+02  0.37345750748E+02 -0.13212910935E+04  0.13367103636E+04  0.18800000000E+03 0.  0.
   -5000001    1    1    2    0    0  0.65159322092E+02 -0.37345750748E+02 -0.15651166226E+04  0.15781554057E+04  0.18800000000E+03 0.  0.
<mgrwt>
<rscale>  0 0.40631632E+03</rscale>
<asrwt>0</asrwt>
<pdfrwt beam="1">  1        2 0.41437630E+00 0.40631632E+03</pdfrwt>
<pdfrwt beam="2">  1       -2 0.20327199E-02 0.40631632E+03</pdfrwt>
<totfact> 0.23362357E+03</totfact>
</mgrwt>
</event>
<event>
 4    1  0.6239849E-005  0.1419840E+04  0.7818608E-02  0.8939581E-01
         -2   -1    0    0    0  501 -0.00000000000E+00  0.00000000000E+00  0.27259029007E+03  0.27259029009E+03  0.25500000000E-02 0. -1.
          2   -1    0    0  501    0  0.00000000000E+00 -0.00000000000E+00 -0.18488791365E+04  0.18488791365E+04  0.25500000000E-02 0.  1.
    5000001    1    1    2    0    0  0.32286904101E+03 -0.31584074934E+03 -0.19496793624E+02  0.48961609609E+03  0.18800000000E+03 0.  0.
   -5000001    1    1    2    0    0 -0.32286904101E+03  0.31584074934E+03 -0.15567920528E+04  0.16318533305E+04  0.18800000000E+03 0.  0.
<mgrwt>
<rscale>  0 0.14198401E+04</rscale>
<asrwt>0</asrwt>
<pdfrwt beam="1">  1        2 0.26412559E+00 0.14198401E+04</pdfrwt>
<pdfrwt beam="2">  1       -2 0.38941471E-01 0.14198401E+04</pdfrwt>
<totfact> 0.58211059E+01</totfact>
</mgrwt>
</event>
<event>
 4    1  0.6239849E-005  0.4605031E+03  0.7818608E-02  0.1024635E+00
         -2   -1    0    0    0  501 -0.00000000000E+00  0.00000000000E+00  0.96928745600E+02  0.96928745634E+02  0.25500000000E-02 0. -1.
          2   -1    0    0  501    0  0.00000000000E+00 -0.00000000000E+00 -0.54695621792E+03  0.54695621792E+03  0.25500000000E-02 0.  1.
    5000001    1    1    2    0    0  0.80910305780E+01  0.91518769827E+02 -0.90678054468E+02  0.22805187912E+03  0.18800000000E+03 0.  0.
   -5000001    1    1    2    0    0 -0.80910305780E+01 -0.91518769827E+02 -0.35934941785E+03  0.41583308444E+03  0.18800000000E+03 0.  0.
<mgrwt>
<rscale>  0 0.46050312E+03</rscale>
<asrwt>0</asrwt>
<pdfrwt beam="1">  1        2 0.78136601E-01 0.46050312E+03</pdfrwt>
<pdfrwt beam="2">  1       -2 0.13846964E-01 0.46050312E+03</pdfrwt>
<totfact> 0.24082895E+03</totfact>
</mgrwt>
</event>
<event>
 4    1  0.6239849E-005  0.9533941E+03  0.7818608E-02  0.9361192E-01
         -2   -1    0    0    0  501 -0.00000000000E+00  0.00000000000E+00  0.70050873034E+03  0.70050873034E+03  0.25500000000E-02 0. -1.
          2   -1    0    0  501    0  0.00000000000E+00 -0.00000000000E+00 -0.32439295352E+03  0.32439295353E+03  0.25500000000E-02 0.  1.
    5000001    1    1    2    0    0  0.42699779629E+03  0.57739909029E+02  0.27294285352E+03  0.54360170752E+03  0.18800000000E+03 0.  0.
   -5000001    1    1    2    0    0 -0.42699779629E+03 -0.57739909029E+02  0.10317292330E+03  0.48129997635E+03  0.18800000000E+03 0.  0.
<mgrwt>
<rscale>  0 0.95339414E+03</rscale>
<asrwt>0</asrwt>
<pdfrwt beam="1">  1        2 0.46341850E-01 0.95339414E+03</pdfrwt>
<pdfrwt beam="2">  1       -2 0.10007268E+00 0.95339414E+03</pdfrwt>
<totfact> 0.90245937E+01</totfact>
</mgrwt>
</event>
<event>
 4    1  0.6239849E-005  0.4109410E+03  0.7818608E-02  0.1040056E+00
          2   -1    0    0  501    0  0.00000000000E+00  0.00000000000E+00  0.12537249204E+04  0.12537249204E+04  0.25500000000E-02 0.  1.
         -2   -1    0    0    0  501 -0.00000000000E+00 -0.00000000000E+00 -0.33674156733E+02  0.33674156830E+02  0.25500000000E-02 0. -1.
    5000001    1    1    2    0    0 -0.57820545865E+02  0.52804180723E+02  0.69539840907E+03  0.72460640651E+03  0.18800000000E+03 0.  0.
   -5000001    1    1    2    0    0  0.57820545865E+02 -0.52804180723E+02  0.52465235455E+03  0.56279267067E+03  0.18800000000E+03 0.  0.
<mgrwt>
<rscale>  0 0.41094102E+03</rscale>
<asrwt>0</asrwt>
<pdfrwt beam="1">  1        2 0.17910350E+00 0.41094102E+03</pdfrwt>
<pdfrwt beam="2">  1       -2 0.48105954E-02 0.41094102E+03</pdfrwt>
<totfact> 0.43728888E+03</totfact>
</mgrwt>
</event>
<event>
 4    1  0.6239849E-005  0.5184148E+03  0.7818608E-02  0.1009081E+00
          2   -1    0    0  501    0  0.00000000000E+00  0.00000000000E+00  0.13545247270E+04  0.13545247270E+04  0.25500000000E-02 0.  1.
         -2   -1    0    0    0  501 -0.00000000000E+00 -0.00000000000E+00 -0.49602996722E+02  0.49602996788E+02  0.25500000000E-02 0. -1.
    5000001    1    1    2    0    0 -0.12944385290E+03 -0.53778523736E+01  0.98484444649E+03  0.10109635088E+04  0.18800000000E+03 0.  0.
   -5000001    1    1    2    0    0  0.12944385290E+03  0.53778523736E+01  0.32007728380E+03  0.39316421500E+03  0.18800000000E+03 0.  0.
<mgrwt>
<rscale>  0 0.51841484E+03</rscale>
<asrwt>0</asrwt>
<pdfrwt beam="1">  1        2 0.19350351E+00 0.51841484E+03</pdfrwt>
<pdfrwt beam="2">  1       -2 0.70861432E-02 0.51841484E+03</pdfrwt>
<totfact> 0.21132579E+03</totfact>
</mgrwt>
</event>
<event>
 4    1  0.6239849E-005  0.5133987E+03  0.7818608E-02  0.1010340E+00
          2   -1    0    0  501    0  0.00000000000E+00  0.00000000000E+00  0.22626401157E+04  0.22626401157E+04  0.25500000000E-02 0.  1.
         -2   -1    0    0    0  501 -0.00000000000E+00 -0.00000000000E+00 -0.29122860031E+02  0.29122860142E+02  0.25500000000E-02 0. -1.
    5000001    1    1    2    0    0 -0.16592163829E+03  0.26422938281E+02  0.90163777660E+03  0.93622798608E+03  0.18800000000E+03 0.  0.
   -5000001    1    1    2    0    0  0.16592163829E+03 -0.26422938281E+02  0.13318794791E+04  0.13555349898E+04  0.18800000000E+03 0.  0.
<mgrwt>
<rscale>  0 0.51339868E+03</rscale>
<asrwt>0</asrwt>
<pdfrwt beam="1">  1        2 0.32323438E+00 0.51339868E+03</pdfrwt>
<pdfrwt beam="2">  1       -2 0.41604076E-02 0.51339868E+03</pdfrwt>
<totfact> 0.16734249E+03</totfact>
</mgrwt>
</event>
<event>
 4    1  0.6239849E-005  0.7188888E+03  0.7818608E-02  0.9685464E-01
         -2   -1    0    0    0  501 -0.00000000000E+00  0.00000000000E+00  0.78667515974E+03  0.78667515975E+03  0.25500000000E-02 0. -1.
          2   -1    0    0  501    0  0.00000000000E+00 -0.00000000000E+00 -0.16423588537E+03  0.16423588539E+03  0.25500000000E-02 0.  1.
    5000001    1    1    2    0    0  0.29859437043E+03  0.21928697631E+02  0.22532402755E+03  0.41923070406E+03  0.18800000000E+03 0.  0.
   -5000001    1    1    2    0    0 -0.29859437043E+03 -0.21928697631E+02  0.39711524682E+03  0.53168034108E+03  0.18800000000E+03 0.  0.
<mgrwt>
<rscale>  0 0.71888884E+03</rscale>
<asrwt>0</asrwt>
<pdfrwt beam="1">  1        2 0.23462270E-01 0.71888884E+03</pdfrwt>
<pdfrwt beam="2">  1       -2 0.11238216E+00 0.71888884E+03</pdfrwt>
<totfact> 0.14856225E+02</totfact>
</mgrwt>
</event>
<event>
 4    1  0.6239849E-005  0.5907646E+03  0.7818608E-02  0.9924754E-01
         -2   -1    0    0    0  501 -0.00000000000E+00  0.00000000000E+00  0.26490698010E+03  0.26490698011E+03  0.25500000000E-02 0. -1.
          2   -1    0    0  501    0  0.00000000000E+00 -0.00000000000E+00 -0.32936356485E+03  0.32936356486E+03  0.25500000000E-02 0.  1.
    5000001    1    1    2    0    0 -0.60493993576E+02  0.21729107497E+03  0.83553555340E-01  0.29363062085E+03  0.18800000000E+03 0.  0.
   -5000001    1    1    2    0    0  0.60493993576E+02 -0.21729107497E+03 -0.64540138314E+02  0.30063992412E+03  0.18800000000E+03 0.  0.
<mgrwt>
<rscale>  0 0.59076461E+03</rscale>
<asrwt>0</asrwt>
<pdfrwt beam="1">  1        2 0.47051938E-01 0.59076461E+03</pdfrwt>
<pdfrwt beam="2">  1       -2 0.37843854E-01 0.59076461E+03</pdfrwt>
<totfact> 0.71185884E+02</totfact>
</mgrwt>
</event>
<event>
 4    1  0.6239849E-005  0.4934890E+03  0.7818608E-02  0.1015492E+00
         -2   -1    0    0    0  501 -0.00000000000E+00  0.00000000000E+00  0.23143965754E+03  0.23143965756E+03  0.25500000000E-02 0. -1.
          2   -1    0    0  501    0  0.00000000000E+00 -0.00000000000E+00 -0.26306139093E+03  0.26306139094E+03  0.25500000000E-02 0.  1.
    5000001    1    1    2    0    0 -0.85791112299E+02 -0.13399757706E+03 -0.30787174365E+02  0.24820821040E+03  0.18800000000E+03 0.  0.
   -5000001    1    1    2    0    0  0.85791112299E+02  0.13399757706E+03 -0.83455902205E+00  0.24629283809E+03  0.18800000000E+03 0.  0.
<mgrwt>
<rscale>  0 0.49348896E+03</rscale>
<asrwt>0</asrwt>
<pdfrwt beam="1">  1        2 0.37580199E-01 0.49348896E+03</pdfrwt>
<pdfrwt beam="2">  1       -2 0.33062808E-01 0.49348896E+03</pdfrwt>
<totfact> 0.11783258E+03</totfact>
</mgrwt>
</event>
<event>
 4    1  0.6239849E-005  0.5641580E+03  0.7818608E-02  0.9982690E-01
          2   -1    0    0  501    0  0.00000000000E+00  0.00000000000E+00  0.18568138984E+04  0.18568138984E+04  0.25500000000E-02 0. -1.
         -2   -1    0    0    0  501 -0.00000000000E+00 -0.00000000000E+00 -0.42852194724E+02  0.42852194800E+02  0.25500000000E-02 0.  1.
    5000001    1    1    2    0    0  0.19319319567E+03  0.65998049686E+02  0.10768589095E+04  0.11120469704E+04  0.18800000000E+03 0.  0.
   -5000001    1    1    2    0    0 -0.19319319567E+03 -0.65998049686E+02  0.73710279418E+03  0.78761912281E+03  0.18800000000E+03 0.  0.
<mgrwt>
<rscale>  0 0.56415796E+03</rscale>
<asrwt>0</asrwt>
<pdfrwt beam="1">  1        2 0.26525905E+00 0.56415796E+03</pdfrwt>
<pdfrwt beam="2">  1       -2 0.61217438E-02 0.56415796E+03</pdfrwt>
<totfact> 0.14657643E+03</totfact>
</mgrwt>
</event>
<event>
 4    1  0.6239849E-005  0.5745953E+03  0.7818608E-02  0.9959561E-01
         -2   -1    0    0    0  501 -0.00000000000E+00  0.00000000000E+00  0.16928496952E+03  0.16928496954E+03  0.25500000000E-02 0. -1.
          2   -1    0    0  501    0  0.00000000000E+00 -0.00000000000E+00 -0.48757977979E+03  0.48757977980E+03  0.25500000000E-02 0.  1.
    5000001    1    1    2    0    0  0.17329930230E+03 -0.12848136378E+03 -0.12987179433E+03  0.31424638738E+03  0.18800000000E+03 0.  0.
   -5000001    1    1    2    0    0 -0.17329930230E+03  0.12848136378E+03 -0.18842301594E+03  0.34261836196E+03  0.18800000000E+03 0.  0.
<mgrwt>
<rscale>  0 0.57459526E+03</rscale>
<asrwt>0</asrwt>
<pdfrwt beam="1">  1        2 0.69654254E-01 0.57459526E+03</pdfrwt>
<pdfrwt beam="2">  1       -2 0.24183567E-01 0.57459526E+03</pdfrwt>
<totfact> 0.10533611E+03</totfact>
</mgrwt>
</event>
<event>
 4    1  0.6239849E-005  0.5172373E+03  0.7818608E-02  0.1009375E+00
          2   -1    0    0  501    0  0.00000000000E+00  0.00000000000E+00  0.73521025817E+03  0.73521025817E+03  0.25500000000E-02 0.  1.
         -2   -1    0    0    0  501 -0.00000000000E+00 -0.00000000000E+00 -0.90972077998E+02  0.90972078034E+02  0.25500000000E-02 0. -1.
    5000001    1    1    2    0    0  0.17457040809E+01  0.17131947299E+03  0.24743457131E+03  0.35485388034E+03  0.18800000000E+03 0.  0.
   -5000001    1    1    2    0    0 -0.17457040809E+01 -0.17131947299E+03  0.39680360886E+03  0.47132845587E+03  0.18800000000E+03 0.  0.
<mgrwt>
<rscale>  0 0.51723730E+03</rscale>
<asrwt>0</asrwt>
<pdfrwt beam="1">  1        2 0.10503003E+00 0.51723730E+03</pdfrwt>
<pdfrwt beam="2">  1       -2 0.12996012E-01 0.51723730E+03</pdfrwt>
<totfact> 0.18849547E+03</totfact>
</mgrwt>
</event>
<event>
 4    1  0.6239849E-005  0.5960375E+03  0.7818608E-02  0.9913661E-01
         -2   -1    0    0    0  501 -0.00000000000E+00  0.00000000000E+00  0.78060605865E+02  0.78060605907E+02  0.25500000000E-02 0. -1.
          2   -1    0    0  501    0  0.00000000000E+00 -0.00000000000E+00 -0.11377720422E+04  0.11377720422E+04  0.25500000000E-02 0.  1.
    5000001    1    1    2    0    0  0.16052283605E+03  0.12452910930E+03 -0.30458195331E+03  0.41156924841E+03  0.18800000000E+03 0.  0.
   -5000001    1    1    2    0    0 -0.16052283605E+03 -0.12452910930E+03 -0.75512948299E+03  0.80426339966E+03  0.18800000000E+03 0.  0.
<mgrwt>
<rscale>  0 0.59603750E+03</rscale>
<asrwt>0</asrwt>
<pdfrwt beam="1">  1        2 0.16253885E+00 0.59603750E+03</pdfrwt>
<pdfrwt beam="2">  1       -2 0.11151516E-01 0.59603750E+03</pdfrwt>
<totfact> 0.13424226E+03</totfact>
</mgrwt>
</event>
<event>
 4    1  0.6239849E-005  0.5047670E+03  0.7818608E-02  0.1012542E+00
         -2   -1    0    0    0  501 -0.00000000000E+00  0.00000000000E+00  0.18927306629E+02  0.18927306801E+02  0.25500000000E-02 0. -1.
          2   -1    0    0  501    0  0.00000000000E+00 -0.00000000000E+00 -0.33653715833E+04  0.33653715833E+04  0.25500000000E-02 0.  1.
    5000001    1    1    2    0    0  0.93075592623E+02 -0.58214967065E+01 -0.73321641820E+03  0.76265803063E+03  0.18800000000E+03 0.  0.
   -5000001    1    1    2    0    0 -0.93075592623E+02  0.58214967065E+01 -0.26132278584E+04  0.26216408594E+04  0.18800000000E+03 0.  0.
<mgrwt>
<rscale>  0 0.50476696E+03</rscale>
<asrwt>0</asrwt>
<pdfrwt beam="1">  1        2 0.48076699E+00 0.50476696E+03</pdfrwt>
<pdfrwt beam="2">  1       -2 0.27039031E-02 0.50476696E+03</pdfrwt>
<totfact> 0.83657771E+02</totfact>
</mgrwt>
</event>
<event>
 4    1  0.6239849E-005  0.7503113E+03  0.7818608E-02  0.9634862E-01
         -2   -1    0    0    0  501 -0.00000000000E+00  0.00000000000E+00  0.61546536691E+02  0.61546536744E+02  0.25500000000E-02 0. -1.
          2   -1    0    0  501    0  0.00000000000E+00 -0.00000000000E+00 -0.22867535709E+04  0.22867535709E+04  0.25500000000E-02 0.  1.
    5000001    1    1    2    0    0  0.80383917257E+02  0.29592850636E+03 -0.77898572596E+03  0.85801982278E+03  0.18800000000E+03 0.  0.
   -5000001    1    1    2    0    0 -0.80383917257E+02 -0.29592850636E+03 -0.14462213083E+04  0.14902802849E+04  0.18800000000E+03 0.  0.
<mgrwt>
<rscale>  0 0.75031130E+03</rscale>
<asrwt>0</asrwt>
<pdfrwt beam="1">  1        2 0.32667903E+00 0.75031130E+03</pdfrwt>
<pdfrwt beam="2">  1       -2 0.87923638E-02 0.75031130E+03</pdfrwt>
<totfact> 0.49500839E+02</totfact>
</mgrwt>
</event>
<event>
 4    1  0.6239849E-005  0.5389002E+03  0.7818608E-02  0.1004096E+00
          2   -1    0    0  501    0  0.00000000000E+00  0.00000000000E+00  0.17519362939E+04  0.17519362939E+04  0.25500000000E-02 0.  1.
         -2   -1    0    0    0  501 -0.00000000000E+00 -0.00000000000E+00 -0.41441781034E+02  0.41441781112E+02  0.25500000000E-02 0. -1.
    5000001    1    1    2    0    0  0.11272191679E+03  0.12827676483E+03  0.55577417810E+03  0.61105654072E+03  0.18800000000E+03 0.  0.
   -5000001    1    1    2    0    0 -0.11272191679E+03 -0.12827676483E+03  0.11547203348E+04  0.11823215343E+04  0.18800000000E+03 0.  0.
<mgrwt>
<rscale>  0 0.53890021E+03</rscale>
<asrwt>0</asrwt>
<pdfrwt beam="1">  1        2 0.25027657E+00 0.53890021E+03</pdfrwt>
<pdfrwt beam="2">  1       -2 0.59202556E-02 0.53890021E+03</pdfrwt>
<totfact> 0.17459820E+03</totfact>
</mgrwt>
</event>
<event>
 4    1  0.6239849E-005  0.4696326E+03  0.7818608E-02  0.1022024E+00
          2   -1    0    0  501    0  0.00000000000E+00  0.00000000000E+00  0.36871398505E+03  0.36871398505E+03  0.25500000000E-02 0.  1.
         -2   -1    0    0    0  501 -0.00000000000E+00 -0.00000000000E+00 -0.14954328604E+03  0.14954328606E+03  0.25500000000E-02 0. -1.
    5000001    1    1    2    0    0 -0.23371916621E+00  0.10684051840E+03  0.85664407125E+01  0.21640779769E+03  0.18800000000E+03 0.  0.
   -5000001    1    1    2    0    0  0.23371916621E+00 -0.10684051840E+03  0.21060425829E+03  0.30184947342E+03  0.18800000000E+03 0.  0.
<mgrwt>
<rscale>  0 0.46963263E+03</rscale>
<asrwt>0</asrwt>
<pdfrwt beam="1">  1        2 0.52673426E-01 0.46963263E+03</pdfrwt>
<pdfrwt beam="2">  1       -2 0.21363327E-01 0.46963263E+03</pdfrwt>
<totfact> 0.17890331E+03</totfact>
</mgrwt>
</event>
<event>
 4    1  0.6239849E-005  0.4779675E+03  0.7818608E-02  0.1019695E+00
         -2   -1    0    0    0  501 -0.00000000000E+00  0.00000000000E+00  0.34532036732E+02  0.34532036826E+02  0.25500000000E-02 0. -1.
          2   -1    0    0  501    0  0.00000000000E+00 -0.00000000000E+00 -0.16539199456E+04  0.16539199456E+04  0.25500000000E-02 0.  1.
    5000001    1    1    2    0    0 -0.88386937076E+02  0.11486765292E+03 -0.71215441503E+03  0.75067618796E+03  0.18800000000E+03 0.  0.
   -5000001    1    1    2    0    0  0.88386937076E+02 -0.11486765292E+03 -0.90723349381E+03  0.93777579443E+03  0.18800000000E+03 0.  0.
<mgrwt>
<rscale>  0 0.47796746E+03</rscale>
<asrwt>0</asrwt>
<pdfrwt beam="1">  1        2 0.23627423E+00 0.47796746E+03</pdfrwt>
<pdfrwt beam="2">  1       -2 0.49331491E-02 0.47796746E+03</pdfrwt>
<totfact> 0.26017739E+03</totfact>
</mgrwt>
</event>
<event>
 4    1  0.6239849E-005  0.8385794E+03  0.7818608E-02  0.9505795E-01
          2   -1    0    0  501    0  0.00000000000E+00  0.00000000000E+00  0.16952242095E+04  0.16952242095E+04  0.25500000000E-02 0.  1.
         -2   -1    0    0    0  501 -0.00000000000E+00 -0.00000000000E+00 -0.10370537938E+03  0.10370537941E+03  0.25500000000E-02 0. -1.
    5000001    1    1    2    0    0  0.27333571493E+03 -0.19872370394E+03  0.44815354670E+03  0.59193675759E+03  0.18800000000E+03 0.  0.
   -5000001    1    1    2    0    0 -0.27333571493E+03  0.19872370394E+03  0.11433652834E+04  0.12069928313E+04  0.18800000000E+03 0.  0.
<mgrwt>
<rscale>  0 0.83857944E+03</rscale>
<asrwt>0</asrwt>
<pdfrwt beam="1">  1        2 0.24217487E+00 0.83857944E+03</pdfrwt>
<pdfrwt beam="2">  1       -2 0.14815056E-01 0.83857944E+03</pdfrwt>
<totfact> 0.41617069E+02</totfact>
</mgrwt>
</event>
<event>
 4    1  0.6239849E-005  0.5557011E+03  0.7818608E-02  0.1000183E+00
         -2   -1    0    0    0  501 -0.00000000000E+00  0.00000000000E+00  0.46600889872E+02  0.46600889942E+02  0.25500000000E-02 0. -1.
          2   -1    0    0  501    0  0.00000000000E+00 -0.00000000000E+00 -0.16566404069E+04  0.16566404069E+04  0.25500000000E-02 0.  1.
    5000001    1    1    2    0    0 -0.75111381140E+02  0.17339248997E+03 -0.56464931909E+03  0.62440333816E+03  0.18800000000E+03 0.  0.
   -5000001    1    1    2    0    0  0.75111381140E+02 -0.17339248997E+03 -0.10453901979E+04  0.10788379587E+04  0.18800000000E+03 0.  0.
<mgrwt>
<rscale>  0 0.55570106E+03</rscale>
<asrwt>0</asrwt>
<pdfrwt beam="1">  1        2 0.23666288E+00 0.55570106E+03</pdfrwt>
<pdfrwt beam="2">  1       -2 0.66572710E-02 0.55570106E+03</pdfrwt>
<totfact> 0.16226631E+03</totfact>
</mgrwt>
</event>
<event>
 4    1  0.6239849E-005  0.4095878E+03  0.7818608E-02  0.1040509E+00
         -2   -1    0    0    0  501 -0.00000000000E+00  0.00000000000E+00  0.71915004704E+03  0.71915004705E+03  0.25500000000E-02 0. -1.
          2   -1    0    0  501    0  0.00000000000E+00 -0.00000000000E+00 -0.58319592152E+02  0.58319592208E+02  0.25500000000E-02 0.  1.
    5000001    1    1    2    0    0 -0.34192582621E+02  0.72936539172E+02  0.31071933076E+03  0.37199378215E+03  0.18800000000E+03 0.  0.
   -5000001    1    1    2    0    0  0.34192582621E+02 -0.72936539172E+02  0.35011112413E+03  0.40547585710E+03  0.18800000000E+03 0.  0.
<mgrwt>
<rscale>  0 0.40958778E+03</rscale>
<asrwt>0</asrwt>
<pdfrwt beam="1">  1        2 0.83313707E-02 0.40958778E+03</pdfrwt>
<pdfrwt beam="2">  1       -2 0.10273572E+00 0.40958778E+03</pdfrwt>
<totfact> 0.65454948E+02</totfact>
</mgrwt>
</event>
<event>
 4    1  0.6239849E-005  0.5596451E+03  0.7818608E-02  0.9992858E-01
          2   -1    0    0  501    0  0.00000000000E+00  0.00000000000E+00  0.96551444405E+03  0.96551444406E+03  0.25500000000E-02 0.  1.
         -2   -1    0    0    0  501 -0.00000000000E+00 -0.00000000000E+00 -0.81097357024E+02  0.81097357064E+02  0.25500000000E-02 0. -1.
    5000001    1    1    2    0    0  0.17455702996E+03 -0.52478808310E+02  0.62670363773E+03  0.67920956381E+03  0.18800000000E+03 0.  0.
   -5000001    1    1    2    0    0 -0.17455702996E+03  0.52478808310E+02  0.25771344930E+03  0.36740223731E+03  0.18800000000E+03 0.  0.
<mgrwt>
<rscale>  0 0.55964514E+03</rscale>
<asrwt>0</asrwt>
<pdfrwt beam="1">  1        2 0.13793063E+00 0.55964514E+03</pdfrwt>
<pdfrwt beam="2">  1       -2 0.11585338E-01 0.55964514E+03</pdfrwt>
<totfact> 0.15974288E+03</totfact>
</mgrwt>
</event>
<event>
 4    1  0.6239849E-005  0.1150908E+04  0.7818608E-02  0.9156946E-01
         -2   -1    0    0    0  501 -0.00000000000E+00  0.00000000000E+00  0.38983030465E+03  0.38983030466E+03  0.25500000000E-02 0. -1.
          2   -1    0    0  501    0  0.00000000000E+00 -0.00000000000E+00 -0.84946574586E+03  0.84946574586E+03  0.25500000000E-02 0.  1.
    5000001    1    1    2    0    0 -0.34118914691E+03  0.42169848126E+03 -0.27240025713E+03  0.63544121927E+03  0.18800000000E+03 0.  0.
   -5000001    1    1    2    0    0  0.34118914691E+03 -0.42169848126E+03 -0.18723518408E+03  0.60385483125E+03  0.18800000000E+03 0.  0.
<mgrwt>
<rscale>  0 0.11509083E+04</rscale>
<asrwt>0</asrwt>
<pdfrwt beam="1">  1        2 0.12135225E+00 0.11509083E+04</pdfrwt>
<pdfrwt beam="2">  1       -2 0.55690044E-01 0.11509083E+04</pdfrwt>
<totfact> 0.10539972E+02</totfact>
</mgrwt>
</event>
<event>
 4    1  0.6239849E-005  0.4489746E+03  0.7818608E-02  0.1028028E+00
         -2   -1    0    0    0  501 -0.00000000000E+00  0.00000000000E+00  0.19338325752E+02  0.19338325920E+02  0.25500000000E-02 0. -1.
          2   -1    0    0  501    0  0.00000000000E+00 -0.00000000000E+00 -0.26059411021E+04  0.26059411021E+04  0.25500000000E-02 0.  1.
    5000001    1    1    2    0    0  0.11721315717E+03 -0.31729702734E+02 -0.13953929170E+04  0.14132271902E+04  0.18800000000E+03 0.  0.
   -5000001    1    1    2    0    0 -0.11721315717E+03  0.31729702734E+02 -0.11912098593E+04  0.12120522378E+04  0.18800000000E+03 0.  0.
<mgrwt>
<rscale>  0 0.44897456E+03</rscale>
<asrwt>0</asrwt>
<pdfrwt beam="1">  1        2 0.37227708E+00 0.44897456E+03</pdfrwt>
<pdfrwt beam="2">  1       -2 0.27626196E-02 0.44897456E+03</pdfrwt>
<totfact> 0.20955310E+03</totfact>
</mgrwt>
</event>
<event>
 4    1  0.6239849E-005  0.5906969E+03  0.7818608E-02  0.9924897E-01
         -2   -1    0    0    0  501 -0.00000000000E+00  0.00000000000E+00  0.48450311642E+02  0.48450311709E+02  0.25500000000E-02 0. -1.
          2   -1    0    0  501    0  0.00000000000E+00 -0.00000000000E+00 -0.18004159375E+04  0.18004159375E+04  0.25500000000E-02 0.  1.
    5000001    1    1    2    0    0 -0.17119978813E+03 -0.15025671752E+03 -0.87437245636E+03  0.92290716817E+03  0.18800000000E+03 0.  0.
   -5000001    1    1    2    0    0  0.17119978813E+03  0.15025671752E+03 -0.87759316946E+03  0.92595908101E+03  0.18800000000E+03 0.  0.
<mgrwt>
<rscale>  0 0.59069692E+03</rscale>
<asrwt>0</asrwt>
<pdfrwt beam="1">  1        2 0.25720223E+00 0.59069692E+03</pdfrwt>
<pdfrwt beam="2">  1       -2 0.69214742E-02 0.59069692E+03</pdfrwt>
<totfact> 0.12885746E+03</totfact>
</mgrwt>
</event>
<event>
 4    1  0.6239849E-005  0.5632292E+03  0.7818608E-02  0.9984774E-01
         -2   -1    0    0    0  501 -0.00000000000E+00  0.00000000000E+00  0.25247348238E+03  0.25247348240E+03  0.25500000000E-02 0. -1.
          2   -1    0    0  501    0  0.00000000000E+00 -0.00000000000E+00 -0.31411920886E+03  0.31411920887E+03  0.25500000000E-02 0.  1.
    5000001    1    1    2    0    0  0.15466446135E+03 -0.14153240430E+03 -0.34044091554E+02  0.28364681779E+03  0.18800000000E+03 0.  0.
   -5000001    1    1    2    0    0 -0.15466446135E+03  0.14153240430E+03 -0.27601634924E+02  0.28294587348E+03  0.18800000000E+03 0.  0.
<mgrwt>
<rscale>  0 0.56322916E+03</rscale>
<asrwt>0</asrwt>
<pdfrwt beam="1">  1        2 0.44874172E-01 0.56322916E+03</pdfrwt>
<pdfrwt beam="2">  1       -2 0.36067641E-01 0.56322916E+03</pdfrwt>
<totfact> 0.82245548E+02</totfact>
</mgrwt>
</event>
<event>
 4    1  0.6239849E-005  0.4235028E+03  0.7818608E-02  0.1035932E+00
          2   -1    0    0  501    0  0.00000000000E+00  0.00000000000E+00  0.87726367475E+03  0.87726367476E+03  0.25500000000E-02 0.  1.
         -2   -1    0    0    0  501 -0.00000000000E+00 -0.00000000000E+00 -0.51111937211E+02  0.51111937275E+02  0.25500000000E-02 0. -1.
    5000001    1    1    2    0    0 -0.59159614295E+02  0.69964317190E+02  0.48577353034E+03  0.52888069394E+03  0.18800000000E+03 0.  0.
   -5000001    1    1    2    0    0  0.59159614295E+02 -0.69964317190E+02  0.34037820721E+03  0.39949491809E+03  0.18800000000E+03 0.  0.
<mgrwt>
<rscale>  0 0.42350276E+03</rscale>
<asrwt>0</asrwt>
<pdfrwt beam="1">  1        2 0.12532338E+00 0.42350276E+03</pdfrwt>
<pdfrwt beam="2">  1       -2 0.73017052E-02 0.42350276E+03</pdfrwt>
<totfact> 0.38056235E+03</totfact>
</mgrwt>
</event>
<event>
 4    1  0.6239849E-005  0.5007134E+03  0.7818608E-02  0.1013593E+00
         -2   -1    0    0    0  501 -0.00000000000E+00  0.00000000000E+00  0.58487067999E+02  0.58487068055E+02  0.25500000000E-02 0. -1.
          2   -1    0    0  501    0  0.00000000000E+00 -0.00000000000E+00 -0.10716639123E+04  0.10716639123E+04  0.25500000000E-02 0.  1.
    5000001    1    1    2    0    0 -0.84920483967E+02 -0.12398737115E+03 -0.35102779503E+03  0.42561587105E+03  0.18800000000E+03 0.  0.
   -5000001    1    1    2    0    0  0.84920483967E+02  0.12398737115E+03 -0.66214904923E+03  0.70453510927E+03  0.18800000000E+03 0.  0.
<mgrwt>
<rscale>  0 0.50071341E+03</rscale>
<asrwt>0</asrwt>
<pdfrwt beam="1">  1        2 0.15309483E+00 0.50071341E+03</pdfrwt>
<pdfrwt beam="2">  1       -2 0.83552961E-02 0.50071341E+03</pdfrwt>
<totfact> 0.23389408E+03</totfact>
</mgrwt>
</event>
<event>
 4    1  0.6239849E-005  0.4848217E+03  0.7818608E-02  0.1017818E+00
          2   -1    0    0  501    0  0.00000000000E+00  0.00000000000E+00  0.20433958422E+04  0.20433958422E+04  0.25500000000E-02 0.  1.
         -2   -1    0    0    0  501 -0.00000000000E+00 -0.00000000000E+00 -0.28757531558E+02  0.28757531671E+02  0.25500000000E-02 0. -1.
    5000001    1    1    2    0    0 -0.12200036795E+03  0.91942468662E+02  0.10459072957E+04  0.10735937679E+04  0.18800000000E+03 0.  0.
   -5000001    1    1    2    0    0  0.12200036795E+03 -0.91942468662E+02  0.96873101495E+03  0.99855960596E+03  0.18800000000E+03 0.  0.
<mgrwt>
<rscale>  0 0.48482170E+03</rscale>
<asrwt>0</asrwt>
<pdfrwt beam="1">  1        2 0.29191383E+00 0.48482170E+03</pdfrwt>
<pdfrwt beam="2">  1       -2 0.41082168E-02 0.48482170E+03</pdfrwt>
<totfact> 0.21990297E+03</totfact>
</mgrwt>
</event>
<event>
 4    1  0.6239849E-005  0.6428574E+03  0.7818608E-02  0.9820275E-01
         -2   -1    0    0    0  501 -0.00000000000E+00  0.00000000000E+00  0.10220948946E+03  0.10220948949E+03  0.25500000000E-02 0. -1.
          2   -1    0    0  501    0  0.00000000000E+00 -0.00000000000E+00 -0.10108298337E+04  0.10108298337E+04  0.25500000000E-02 0.  1.
    5000001    1    1    2    0    0  0.14607272763E+03  0.21570765476E+03 -0.47208267292E+03  0.57102809401E+03  0.18800000000E+03 0.  0.
   -5000001    1    1    2    0    0 -0.14607272763E+03 -0.21570765476E+03 -0.43653767136E+03  0.54201122921E+03  0.18800000000E+03 0.  0.
<mgrwt>
<rscale>  0 0.64285738E+03</rscale>
<asrwt>0</asrwt>
<pdfrwt beam="1">  1        2 0.14440426E+00 0.64285738E+03</pdfrwt>
<pdfrwt beam="2">  1       -2 0.14601356E-01 0.64285738E+03</pdfrwt>
<totfact> 0.10189762E+03</totfact>
</mgrwt>
</event>
<event>
 4    1  0.6239849E-005  0.5326445E+03  0.7818608E-02  0.1005593E+00
          2   -1    0    0  501    0  0.00000000000E+00  0.00000000000E+00  0.17245295451E+04  0.17245295451E+04  0.25500000000E-02 0.  1.
         -2   -1    0    0    0  501 -0.00000000000E+00 -0.00000000000E+00 -0.41128630006E+02  0.41128630085E+02  0.25500000000E-02 0. -1.
    5000001    1    1    2    0    0  0.13452290199E+03  0.57424173510E+02  0.12365704471E+04  0.12593031475E+04  0.18800000000E+03 0.  0.
   -5000001    1    1    2    0    0 -0.13452290199E+03 -0.57424173510E+02  0.44683046806E+03  0.50635502767E+03  0.18800000000E+03 0.  0.
<mgrwt>
<rscale>  0 0.53264449E+03</rscale>
<asrwt>0</asrwt>
<pdfrwt beam="1">  1        2 0.24636141E+00 0.53264449E+03</pdfrwt>
<pdfrwt beam="2">  1       -2 0.58755174E-02 0.53264449E+03</pdfrwt>
<totfact> 0.18243924E+03</totfact>
</mgrwt>
</event>
<event>
 4    1  0.6239849E-005  0.6844158E+03  0.7818608E-02  0.9744261E-01
         -2   -1    0    0    0  501 -0.00000000000E+00  0.00000000000E+00  0.48205909577E+03  0.48205909577E+03  0.25500000000E-02 0. -1.
          2   -1    0    0  501    0  0.00000000000E+00 -0.00000000000E+00 -0.24292923882E+03  0.24292923883E+03  0.25500000000E-02 0.  1.
    5000001    1    1    2    0    0 -0.18665116263E+03 -0.21282592521E+03  0.16231471688E+03  0.37659474009E+03  0.18800000000E+03 0.  0.
   -5000001    1    1    2    0    0  0.18665116263E+03  0.21282592521E+03  0.76815140069E+02  0.34839359451E+03  0.18800000000E+03 0.  0.
<mgrwt>
<rscale>  0 0.68441581E+03</rscale>
<asrwt>0</asrwt>
<pdfrwt beam="1">  1        2 0.34704178E-01 0.68441581E+03</pdfrwt>
<pdfrwt beam="2">  1       -2 0.68865584E-01 0.68441581E+03</pdfrwt>
<totfact> 0.29362232E+02</totfact>
</mgrwt>
</event>
<event>
 4    1  0.6239849E-005  0.7913090E+03  0.7818608E-02  0.9572683E-01
         -2   -1    0    0    0  501 -0.00000000000E+00  0.00000000000E+00  0.11213168073E+03  0.11213168076E+03  0.25500000000E-02 0. -1.
          2   -1    0    0  501    0  0.00000000000E+00 -0.00000000000E+00 -0.13960593821E+04  0.13960593821E+04  0.25500000000E-02 0.  1.
    5000001    1    1    2    0    0 -0.19147752548E+03  0.28436790480E+03 -0.52650486992E+03  0.65580494516E+03  0.18800000000E+03 0.  0.
   -5000001    1    1    2    0    0  0.19147752548E+03 -0.28436790480E+03 -0.75742283143E+03  0.85238611768E+03  0.18800000000E+03 0.  0.
<mgrwt>
<rscale>  0 0.79130900E+03</rscale>
<asrwt>0</asrwt>
<pdfrwt beam="1">  1        2 0.19943704E+00 0.79130900E+03</pdfrwt>
<pdfrwt beam="2">  1       -2 0.16018812E-01 0.79130900E+03</pdfrwt>
<totfact> 0.52418671E+02</totfact>
</mgrwt>
</event>
<event>
 4    1  0.6239849E-005  0.8563755E+03  0.7818608E-02  0.9481820E-01
         -2   -1    0    0    0  501 -0.00000000000E+00  0.00000000000E+00  0.14955224478E+03  0.14955224481E+03  0.25500000000E-02 0. -1.
          2   -1    0    0  501    0  0.00000000000E+00 -0.00000000000E+00 -0.12259579532E+04  0.12259579532E+04  0.25500000000E-02 0.  1.
    5000001    1    1    2    0    0 -0.33543019825E+03 -0.18136963634E+03 -0.45642218559E+03  0.62375762471E+03  0.18800000000E+03 0.  0.
   -5000001    1    1    2    0    0  0.33543019825E+03  0.18136963634E+03 -0.61998352281E+03  0.75175257329E+03  0.18800000000E+03 0.  0.
<mgrwt>
<rscale>  0 0.85637553E+03</rscale>
<asrwt>0</asrwt>
<pdfrwt beam="1">  1        2 0.17513685E+00 0.85637553E+03</pdfrwt>
<pdfrwt beam="2">  1       -2 0.21364607E-01 0.85637553E+03</pdfrwt>
<totfact> 0.39309536E+02</totfact>
</mgrwt>
</event>
<event>
 4    1  0.6239849E-005  0.9425083E+03  0.7818608E-02  0.9373950E-01
          2   -1    0    0  501    0  0.00000000000E+00  0.00000000000E+00  0.19257592132E+04  0.19257592132E+04  0.25500000000E-02 0.  1.
         -2   -1    0    0    0  501 -0.00000000000E+00 -0.00000000000E+00 -0.11532100511E+03  0.11532100513E+03  0.25500000000E-02 0. -1.
    5000001    1    1    2    0    0  0.42941577049E+03  0.48316195511E+02  0.90081843921E+03  0.10166367193E+04  0.18800000000E+03 0.  0.
   -5000001    1    1    2    0    0 -0.42941577049E+03 -0.48316195511E+02  0.90961976891E+03  0.10244434990E+04  0.18800000000E+03 0.  0.
<mgrwt>
<rscale>  0 0.94250833E+03</rscale>
<asrwt>0</asrwt>
<pdfrwt beam="1">  1        2 0.27510844E+00 0.94250833E+03</pdfrwt>
<pdfrwt beam="2">  1       -2 0.16474430E-01 0.94250833E+03</pdfrwt>
<totfact> 0.26304659E+02</totfact>
</mgrwt>
</event>
<event>
 4    1  0.6239849E-005  0.4009995E+03  0.7818608E-02  0.1043434E+00
         -2   -1    0    0    0  501 -0.00000000000E+00  0.00000000000E+00  0.26642554547E+03  0.26642554548E+03  0.25500000000E-02 0. -1.
          2   -1    0    0  501    0  0.00000000000E+00 -0.00000000000E+00 -0.15088695900E+03  0.15088695902E+03  0.25500000000E-02 0.  1.
    5000001    1    1    2    0    0 -0.37424915389E+02  0.29139690414E+02  0.46395528011E+01  0.19394656816E+03  0.18800000000E+03 0.  0.
   -5000001    1    1    2    0    0  0.37424915389E+02 -0.29139690414E+02  0.11089903367E+03  0.22336593634E+03  0.18800000000E+03 0.  0.
<mgrwt>
<rscale>  0 0.40099945E+03</rscale>
<asrwt>0</asrwt>
<pdfrwt beam="1">  1        2 0.21555280E-01 0.40099945E+03</pdfrwt>
<pdfrwt beam="2">  1       -2 0.38060792E-01 0.40099945E+03</pdfrwt>
<totfact> 0.16823661E+03</totfact>
</mgrwt>
</event>
<event>
 4    1  0.6239849E-005  0.6335493E+03  0.7818608E-02  0.9838147E-01
         -2   -1    0    0    0  501 -0.00000000000E+00  0.00000000000E+00  0.10983937944E+03  0.10983937947E+03  0.25500000000E-02 0.  1.
          2   -1    0    0  501    0  0.00000000000E+00 -0.00000000000E+00 -0.91357187408E+03  0.91357187409E+03  0.25500000000E-02 0. -1.
    5000001    1    1    2    0    0  0.19670589394E+03  0.72098079074E+02 -0.16716121020E+03  0.32738083620E+03  0.18800000000E+03 0.  0.
   -5000001    1    1    2    0    0 -0.19670589394E+03 -0.72098079074E+02 -0.63657128443E+03  0.69603041735E+03  0.18800000000E+03 0.  0.
<mgrwt>
<rscale>  0 0.63354926E+03</rscale>
<asrwt>0</asrwt>
<pdfrwt beam="1">  1        2 0.13051026E+00 0.63354926E+03</pdfrwt>
<pdfrwt beam="2">  1       -2 0.15691340E-01 0.63354926E+03</pdfrwt>
<totfact> 0.10379269E+03</totfact>
</mgrwt>
</event>
<event>
 4    1  0.6239849E-005  0.7193861E+03  0.7818608E-02  0.9684642E-01
          2   -1    0    0  501    0  0.00000000000E+00  0.00000000000E+00  0.21450764083E+04  0.21450764083E+04  0.25500000000E-02 0.  1.
         -2   -1    0    0    0  501 -0.00000000000E+00 -0.00000000000E+00 -0.60314441186E+02  0.60314441240E+02  0.25500000000E-02 0. -1.
    5000001    1    1    2    0    0  0.16342823392E+03 -0.25927495240E+03  0.10112987394E+04  0.10733132948E+04  0.18800000000E+03 0.  0.
   -5000001    1    1    2    0    0 -0.16342823392E+03  0.25927495240E+03  0.10734632277E+04  0.11320775547E+04  0.18800000000E+03 0.  0.
<mgrwt>
<rscale>  0 0.71938609E+03</rscale>
<asrwt>0</asrwt>
<pdfrwt beam="1">  1        2 0.30643949E+00 0.71938609E+03</pdfrwt>
<pdfrwt beam="2">  1       -2 0.86163486E-02 0.71938609E+03</pdfrwt>
<totfact> 0.60474672E+02</totfact>
</mgrwt>
</event>
<event>
 4    1  0.6239849E-005  0.6211864E+03  0.7818608E-02  0.9862400E-01
          2   -1    0    0  501    0  0.00000000000E+00  0.00000000000E+00  0.20224465884E+04  0.20224465884E+04  0.25500000000E-02 0.  1.
         -2   -1    0    0    0  501 -0.00000000000E+00 -0.00000000000E+00 -0.47698732975E+02  0.47698733043E+02  0.25500000000E-02 0. -1.
    5000001    1    1    2    0    0  0.13857064615E+03  0.17785277807E+03  0.64930795948E+03  0.71258561653E+03  0.18800000000E+03 0.  0.
   -5000001    1    1    2    0    0 -0.13857064615E+03 -0.17785277807E+03  0.13254398959E+04  0.13575597049E+04  0.18800000000E+03 0.  0.
<mgrwt>
<rscale>  0 0.62118641E+03</rscale>
<asrwt>0</asrwt>
<pdfrwt beam="1">  1        2 0.28892091E+00 0.62118641E+03</pdfrwt>
<pdfrwt beam="2">  1       -2 0.68141056E-02 0.62118641E+03</pdfrwt>
<totfact> 0.10195729E+03</totfact>
</mgrwt>
</event>
<event>
 4    1  0.6239849E-005  0.7159983E+03  0.7818608E-02  0.9690257E-01
          2   -1    0    0  501    0  0.00000000000E+00  0.00000000000E+00  0.27686454509E+04  0.27686454509E+04  0.25500000000E-02 0.  1.
         -2   -1    0    0    0  501 -0.00000000000E+00 -0.00000000000E+00 -0.46291015293E+02  0.46291015364E+02  0.25500000000E-02 0. -1.
    5000001    1    1    2    0    0 -0.28395327494E+03 -0.10703640670E+03  0.12547251090E+04  0.13045172877E+04  0.18800000000E+03 0.  0.
   -5000001    1    1    2    0    0  0.28395327494E+03  0.10703640670E+03  0.14676293266E+04  0.15104191785E+04  0.18800000000E+03 0.  0.
<mgrwt>
<rscale>  0 0.71599835E+03</rscale>
<asrwt>0</asrwt>
<pdfrwt beam="1">  1        2 0.39552070E+00 0.71599835E+03</pdfrwt>
<pdfrwt beam="2">  1       -2 0.66130034E-02 0.71599835E+03</pdfrwt>
<totfact> 0.43991142E+02</totfact>
</mgrwt>
</event>
<event>
 4    1  0.6239849E-005  0.5453174E+03  0.7818608E-02  0.1002584E+00
         -2   -1    0    0    0  501 -0.00000000000E+00  0.00000000000E+00  0.14467141954E+03  0.14467141956E+03  0.25500000000E-02 0. -1.
          2   -1    0    0  501    0  0.00000000000E+00 -0.00000000000E+00 -0.51387328951E+03  0.51387328952E+03  0.25500000000E-02 0.  1.
    5000001    1    1    2    0    0  0.70190455810E+02 -0.15672997856E+03 -0.66846923292E+02  0.26325557434E+03  0.18800000000E+03 0.  0.
   -5000001    1    1    2    0    0 -0.70190455810E+02  0.15672997856E+03 -0.30235494668E+03  0.39528913474E+03  0.18800000000E+03 0.  0.
<mgrwt>
<rscale>  0 0.54531744E+03</rscale>
<asrwt>0</asrwt>
<pdfrwt beam="1">  1        2 0.73410469E-01 0.54531744E+03</pdfrwt>
<pdfrwt beam="2">  1       -2 0.20667346E-01 0.54531744E+03</pdfrwt>
<totfact> 0.13097267E+03</totfact>
</mgrwt>
</event>
<event>
 4    1  0.6239849E-005  0.9766482E+03  0.7818608E-02  0.9334534E-01
          2   -1    0    0  501    0  0.00000000000E+00  0.00000000000E+00  0.26222170204E+04  0.26222170204E+04  0.25500000000E-02 0.  1.
         -2   -1    0    0    0  501 -0.00000000000E+00 -0.00000000000E+00 -0.90938469556E+02  0.90938469592E+02  0.25500000000E-02 0. -1.
    5000001    1    1    2    0    0 -0.27217698934E+00  0.44688743408E+03  0.11034645568E+04  0.12052744422E+04  0.18800000000E+03 0.  0.
   -5000001    1    1    2    0    0  0.27217698934E+00 -0.44688743408E+03  0.14278139940E+04  0.15078810478E+04  0.18800000000E+03 0.  0.
<mgrwt>
<rscale>  0 0.97664815E+03</rscale>
<asrwt>0</asrwt>
<pdfrwt beam="1">  1        2 0.37460245E+00 0.97664815E+03</pdfrwt>
<pdfrwt beam="2">  1       -2 0.12991209E-01 0.97664815E+03</pdfrwt>
<totfact> 0.17186680E+02</totfact>
</mgrwt>
</event>
<event>
 4    1  0.6239849E-005  0.5465492E+03  0.7818608E-02  0.1002296E+00
          2   -1    0    0  501    0  0.00000000000E+00  0.00000000000E+00  0.99162540990E+03  0.99162540990E+03  0.25500000000E-02 0.  1.
         -2   -1    0    0    0  501 -0.00000000000E+00 -0.00000000000E+00 -0.75309686346E+02  0.75309686389E+02  0.25500000000E-02 0. -1.
    5000001    1    1    2    0    0 -0.94214156223E+02 -0.36276949250E+02  0.79141039876E+03  0.81967477913E+03  0.18800000000E+03 0.  0.
   -5000001    1    1    2    0    0  0.94214156223E+02  0.36276949250E+02  0.12490532479E+03  0.24726031716E+03  0.18800000000E+03 0.  0.
<mgrwt>
<rscale>  0 0.54654917E+03</rscale>
<asrwt>0</asrwt>
<pdfrwt beam="1">  1        2 0.14166077E+00 0.54654917E+03</pdfrwt>
<pdfrwt beam="2">  1       -2 0.10758527E-01 0.54654917E+03</pdfrwt>
<totfact> 0.17376019E+03</totfact>
</mgrwt>
</event>
<event>
 4    1  0.6239849E-005  0.5271843E+03  0.7818608E-02  0.1006917E+00
         -2   -1    0    0    0  501 -0.00000000000E+00  0.00000000000E+00  0.55077352058E+03  0.55077352058E+03  0.25500000000E-02 0. -1.
          2   -1    0    0  501    0  0.00000000000E+00 -0.00000000000E+00 -0.12615134004E+03  0.12615134006E+03  0.25500000000E-02 0.  1.
    5000001    1    1    2    0    0  0.34187394745E+02 -0.16995762076E+03  0.29435347568E+03  0.38992606922E+03  0.18800000000E+03 0.  0.
   -5000001    1    1    2    0    0 -0.34187394745E+02  0.16995762076E+03  0.13026870486E+03  0.28699879142E+03  0.18800000000E+03 0.  0.
<mgrwt>
<rscale>  0 0.52718429E+03</rscale>
<asrwt>0</asrwt>
<pdfrwt beam="1">  1        2 0.18021620E-01 0.52718429E+03</pdfrwt>
<pdfrwt beam="2">  1       -2 0.78681931E-01 0.52718429E+03</pdfrwt>
<totfact> 0.46548399E+02</totfact>
</mgrwt>
</event>
<event>
 4    1  0.6239849E-005  0.6738316E+03  0.7818608E-02  0.9763061E-01
         -2   -1    0    0    0  501 -0.00000000000E+00  0.00000000000E+00  0.56162441293E+02  0.56162441351E+02  0.25500000000E-02 0. -1.
          2   -1    0    0  501    0  0.00000000000E+00 -0.00000000000E+00 -0.20211417528E+04  0.20211417528E+04  0.25500000000E-02 0.  1.
    5000001    1    1    2    0    0  0.64425397989E+02 -0.10730045929E+03 -0.17532217559E+04  0.17677088408E+04  0.18800000000E+03 0.  0.
   -5000001    1    1    2    0    0 -0.64425397989E+02  0.10730045929E+03 -0.21175755564E+03  0.30959535339E+03  0.18800000000E+03 0.  0.
<mgrwt>
<rscale>  0 0.67383160E+03</rscale>
<asrwt>0</asrwt>
<pdfrwt beam="1">  1        2 0.28873449E+00 0.67383160E+03</pdfrwt>
<pdfrwt beam="2">  1       -2 0.80232072E-02 0.67383160E+03</pdfrwt>
<totfact> 0.78535338E+02</totfact>
</mgrwt>
</event>
<event>
 4    1  0.6239849E-005  0.1927018E+04  0.7818608E-02  0.8641524E-01
         -2   -1    0    0    0  501 -0.00000000000E+00  0.00000000000E+00  0.65212796532E+03  0.65212796532E+03  0.25500000000E-02 0. -1.
          2   -1    0    0  501    0  0.00000000000E+00 -0.00000000000E+00 -0.14235692797E+04  0.14235692797E+04  0.25500000000E-02 0.  1.
    5000001    1    1    2    0    0 -0.56368364445E+03  0.64665195192E+03  0.41228868046E+02  0.87917109683E+03  0.18800000000E+03 0.  0.
   -5000001    1    1    2    0    0  0.56368364445E+03 -0.64665195192E+03 -0.81267018247E+03  0.11965261482E+04  0.18800000000E+03 0.  0.
<mgrwt>
<rscale>  0 0.19270177E+04</rscale>
<asrwt>0</asrwt>
<pdfrwt beam="1">  1        2 0.20336704E+00 0.19270177E+04</pdfrwt>
<pdfrwt beam="2">  1       -2 0.93161139E-01 0.19270177E+04</pdfrwt>
<totfact> 0.14702645E+01</totfact>
</mgrwt>
</event>
<event>
 4    1  0.6239849E-005  0.7595990E+03  0.7818608E-02  0.9620410E-01
          2   -1    0    0  501    0  0.00000000000E+00  0.00000000000E+00  0.11834166906E+04  0.11834166906E+04  0.25500000000E-02 0.  1.
         -2   -1    0    0    0  501 -0.00000000000E+00 -0.00000000000E+00 -0.12189085768E+03  0.12189085770E+03  0.25500000000E-02 0. -1.
    5000001    1    1    2    0    0 -0.59487571245E+02  0.12508945770E+03  0.10454782438E+04  0.10712398899E+04  0.18800000000E+03 0.  0.
   -5000001    1    1    2    0    0  0.59487571245E+02 -0.12508945770E+03  0.16047589101E+02  0.23406765833E+03  0.18800000000E+03 0.  0.
<mgrwt>
<rscale>  0 0.75959904E+03</rscale>
<asrwt>0</asrwt>
<pdfrwt beam="1">  1        2 0.16905955E+00 0.75959904E+03</pdfrwt>
<pdfrwt beam="2">  1       -2 0.17412978E-01 0.75959904E+03</pdfrwt>
<totfact> 0.59596775E+02</totfact>
</mgrwt>
</event>
<event>
 4    1  0.6239849E-005  0.1242089E+04  0.7818608E-02  0.9076793E-01
          2   -1    0    0  501    0  0.00000000000E+00  0.00000000000E+00  0.95363088300E+03  0.95363088300E+03  0.25500000000E-02 0.  1.
         -2   -1    0    0    0  501 -0.00000000000E+00 -0.00000000000E+00 -0.40445020719E+03  0.40445020720E+03  0.25500000000E-02 0. -1.
    5000001    1    1    2    0    0 -0.37031597974E+02  0.35189108757E+03  0.79340519392E+03  0.88883883720E+03  0.18800000000E+03 0.  0.
   -5000001    1    1    2    0    0  0.37031597974E+02 -0.35189108757E+03 -0.24422451811E+03  0.46924225301E+03  0.18800000000E+03 0.  0.
<mgrwt>
<rscale>  0 0.12420889E+04</rscale>
<asrwt>0</asrwt>
<pdfrwt beam="1">  1        2 0.13623298E+00 0.12420889E+04</pdfrwt>
<pdfrwt beam="2">  1       -2 0.57778600E-01 0.12420889E+04</pdfrwt>
<totfact> 0.82927668E+01</totfact>
</mgrwt>
</event>
<event>
 4    1  0.6239849E-005  0.4733136E+03  0.7818608E-02  0.1020989E+00
         -2   -1    0    0    0  501 -0.00000000000E+00  0.00000000000E+00  0.96433458287E+02  0.96433458321E+02  0.25500000000E-02 0. -1.
          2   -1    0    0  501    0  0.00000000000E+00 -0.00000000000E+00 -0.58077808435E+03  0.58077808435E+03  0.25500000000E-02 0.  1.
    5000001    1    1    2    0    0 -0.96888248239E+02  0.10590827738E+03 -0.23122483597E+03  0.33077608837E+03  0.18800000000E+03 0.  0.
   -5000001    1    1    2    0    0  0.96888248239E+02 -0.10590827738E+03 -0.25311979009E+03  0.34643545431E+03  0.18800000000E+03 0.  0.
<mgrwt>
<rscale>  0 0.47331359E+03</rscale>
<asrwt>0</asrwt>
<pdfrwt beam="1">  1        2 0.82968296E-01 0.47331359E+03</pdfrwt>
<pdfrwt beam="2">  1       -2 0.13776209E-01 0.47331359E+03</pdfrwt>
<totfact> 0.22671986E+03</totfact>
</mgrwt>
</event>
<event>
 4    1  0.6239849E-005  0.8251318E+03  0.7818608E-02  0.9524336E-01
         -2   -1    0    0    0  501 -0.00000000000E+00  0.00000000000E+00  0.31677726688E+03  0.31677726689E+03  0.25500000000E-02 0. -1.
          2   -1    0    0  501    0  0.00000000000E+00 -0.00000000000E+00 -0.53731958065E+03  0.53731958065E+03  0.25500000000E-02 0.  1.
    5000001    1    1    2    0    0  0.70108758776E+02 -0.35699497603E+03 -0.16208816661E+03  0.44042845585E+03  0.18800000000E+03 0.  0.
   -5000001    1    1    2    0    0 -0.70108758776E+02  0.35699497603E+03 -0.58454147154E+02  0.41366839169E+03  0.18800000000E+03 0.  0.
<mgrwt>
<rscale>  0 0.82513182E+03</rscale>
<asrwt>0</asrwt>
<pdfrwt beam="1">  1        2 0.76759940E-01 0.82513182E+03</pdfrwt>
<pdfrwt beam="2">  1       -2 0.45253895E-01 0.82513182E+03</pdfrwt>
<totfact> 0.28748961E+02</totfact>
</mgrwt>
</event>
<event>
 4    1  0.6239849E-005  0.5426389E+03  0.7818608E-02  0.1003212E+00
          2   -1    0    0  501    0  0.00000000000E+00  0.00000000000E+00  0.19964861111E+04  0.19964861111E+04  0.25500000000E-02 0.  1.
         -2   -1    0    0    0  501 -0.00000000000E+00 -0.00000000000E+00 -0.36871909128E+02  0.36871909217E+02  0.25500000000E-02 0. -1.
    5000001    1    1    2    0    0  0.14058068831E+03  0.13305064091E+03  0.87350036096E+03  0.91422769787E+03  0.18800000000E+03 0.  0.
   -5000001    1    1    2    0    0 -0.14058068831E+03 -0.13305064091E+03  0.10861138411E+04  0.11191303225E+04  0.18800000000E+03 0.  0.
<mgrwt>
<rscale>  0 0.54263894E+03</rscale>
<asrwt>0</asrwt>
<pdfrwt beam="1">  1        2 0.28521230E+00 0.54263894E+03</pdfrwt>
<pdfrwt beam="2">  1       -2 0.52674156E-02 0.54263894E+03</pdfrwt>
<totfact> 0.15783991E+03</totfact>
</mgrwt>
</event>
<event>
 4    1  0.6239849E-005  0.5294177E+03  0.7818608E-02  0.1006373E+00
         -2   -1    0    0    0  501 -0.00000000000E+00  0.00000000000E+00  0.10814371369E+04  0.10814371369E+04  0.25500000000E-02 0. -1.
          2   -1    0    0  501    0  0.00000000000E+00 -0.00000000000E+00 -0.64794135933E+02  0.64794135984E+02  0.25500000000E-02 0.  1.
    5000001    1    1    2    0    0 -0.18075967082E+01  0.14728225092E+03  0.75547697707E+03  0.79232871444E+03  0.18800000000E+03 0.  0.
   -5000001    1    1    2    0    0  0.18075967082E+01 -0.14728225092E+03  0.26116602392E+03  0.35390255847E+03  0.18800000000E+03 0.  0.
<mgrwt>
<rscale>  0 0.52941774E+03</rscale>
<asrwt>0</asrwt>
<pdfrwt beam="1">  1        2 0.92563052E-02 0.52941774E+03</pdfrwt>
<pdfrwt beam="2">  1       -2 0.15449102E+00 0.52941774E+03</pdfrwt>
<totfact> 0.20681754E+02</totfact>
</mgrwt>
</event>
<event>
 4    1  0.6239849E-005  0.6969993E+03  0.7818608E-02  0.9722378E-01
          2   -1    0    0  501    0  0.00000000000E+00  0.00000000000E+00  0.14122733494E+04  0.14122733494E+04  0.25500000000E-02 0.  1.
         -2   -1    0    0    0  501 -0.00000000000E+00 -0.00000000000E+00 -0.85997525069E+02  0.85997525107E+02  0.25500000000E-02 0. -1.
    5000001    1    1    2    0    0 -0.24540130054E+02 -0.22285493990E+03  0.10700971333E+04  0.11093774907E+04  0.18800000000E+03 0.  0.
   -5000001    1    1    2    0    0  0.24540130054E+02  0.22285493990E+03  0.25617869106E+03  0.38889338382E+03  0.18800000000E+03 0.  0.
<mgrwt>
<rscale>  0 0.69699932E+03</rscale>
<asrwt>0</asrwt>
<pdfrwt beam="1">  1        2 0.20175333E+00 0.69699932E+03</pdfrwt>
<pdfrwt beam="2">  1       -2 0.12285361E-01 0.69699932E+03</pdfrwt>
<totfact> 0.80568480E+02</totfact>
</mgrwt>
</event>
<event>
 4    1  0.6239849E-005  0.5565500E+03  0.7818608E-02  0.9999891E-01
         -2   -1    0    0    0  501 -0.00000000000E+00  0.00000000000E+00  0.56909741652E+03  0.56909741652E+03  0.25500000000E-02 0. -1.
          2   -1    0    0  501    0  0.00000000000E+00 -0.00000000000E+00 -0.13606979349E+03  0.13606979351E+03  0.25500000000E-02 0.  1.
    5000001    1    1    2    0    0  0.23648062458E+01  0.12770489489E+03  0.13081660429E+02  0.22766041010E+03  0.18800000000E+03 0.  0.
   -5000001    1    1    2    0    0 -0.23648062458E+01 -0.12770489489E+03  0.41994596260E+03  0.47750679994E+03  0.18800000000E+03 0.  0.
<mgrwt>
<rscale>  0 0.55654997E+03</rscale>
<asrwt>0</asrwt>
<pdfrwt beam="1">  1        2 0.19438542E-01 0.55654997E+03</pdfrwt>
<pdfrwt beam="2">  1       -2 0.81299631E-01 0.55654997E+03</pdfrwt>
<totfact> 0.39560324E+02</totfact>
</mgrwt>
</event>
<event>
 4    1  0.6239849E-005  0.7897031E+03  0.7818608E-02  0.9575042E-01
          2   -1    0    0  501    0  0.00000000000E+00  0.00000000000E+00  0.10628435480E+03  0.10628435483E+03  0.25500000000E-02 0.  1.
         -2   -1    0    0    0  501 -0.00000000000E+00 -0.00000000000E+00 -0.14668927585E+04  0.14668927585E+04  0.25500000000E-02 0. -1.
    5000001    1    1    2    0    0  0.26382754934E+03  0.56027424543E+02 -0.11159336255E+04  0.11633554507E+04  0.18800000000E+03 0.  0.
   -5000001    1    1    2    0    0 -0.26382754934E+03 -0.56027424543E+02 -0.24467477819E+03  0.40982166264E+03  0.18800000000E+03 0.  0.
<mgrwt>
<rscale>  0 0.78970311E+03</rscale>
<asrwt>0</asrwt>
<pdfrwt beam="1">  1        2 0.15183480E-01 0.78970311E+03</pdfrwt>
<pdfrwt beam="2">  1       -2 0.20955610E+00 0.78970311E+03</pdfrwt>
<totfact> 0.46308356E+01</totfact>
</mgrwt>
</event>
<event>
 4    1  0.6239849E-005  0.8984048E+03  0.7818608E-02  0.9427578E-01
          2   -1    0    0  501    0  0.00000000000E+00  0.00000000000E+00  0.40212734965E+04  0.40212734965E+04  0.25500000000E-02 0.  1.
         -2   -1    0    0    0  501 -0.00000000000E+00 -0.00000000000E+00 -0.50178832326E+02  0.50178832391E+02  0.25500000000E-02 0. -1.
    5000001    1    1    2    0    0 -0.38421941519E+03 -0.26651430419E+02  0.13757802736E+04  0.14409893196E+04  0.18800000000E+03 0.  0.
   -5000001    1    1    2    0    0  0.38421941519E+03  0.26651430419E+02  0.25953143905E+04  0.26304630093E+04  0.18800000000E+03 0.  0.
<mgrwt>
<rscale>  0 0.89840483E+03</rscale>
<asrwt>0</asrwt>
<pdfrwt beam="1">  1        2 0.57446767E+00 0.89840483E+03</pdfrwt>
<pdfrwt beam="2">  1       -2 0.71684043E-02 0.89840483E+03</pdfrwt>
<totfact> 0.68764271E+01</totfact>
</mgrwt>
</event>
<event>
 4    1  0.6239849E-005  0.4476099E+03  0.7818608E-02  0.1028437E+00
          2   -1    0    0  501    0  0.00000000000E+00  0.00000000000E+00  0.37071853933E+03  0.37071853934E+03  0.25500000000E-02 0.  1.
         -2   -1    0    0    0  501 -0.00000000000E+00 -0.00000000000E+00 -0.13511237984E+03  0.13511237987E+03  0.25500000000E-02 0. -1.
    5000001    1    1    2    0    0  0.71101886161E+02  0.97880208811E+02  0.12958244124E+03  0.25840205605E+03  0.18800000000E+03 0.  0.
   -5000001    1    1    2    0    0 -0.71101886161E+02 -0.97880208811E+02  0.10602371825E+03  0.24742886316E+03  0.18800000000E+03 0.  0.
<mgrwt>
<rscale>  0 0.44760994E+03</rscale>
<asrwt>0</asrwt>
<pdfrwt beam="1">  1        2 0.52959791E-01 0.44760994E+03</pdfrwt>
<pdfrwt beam="2">  1       -2 0.19301769E-01 0.44760994E+03</pdfrwt>
<totfact> 0.21198572E+03</totfact>
</mgrwt>
</event>
<event>
 4    1  0.6239849E-005  0.6043365E+03  0.7818608E-02  0.9896450E-01
          2   -1    0    0  501    0  0.00000000000E+00  0.00000000000E+00  0.10365687127E+03  0.10365687130E+03  0.25500000000E-02 0.  1.
         -2   -1    0    0    0  501 -0.00000000000E+00 -0.00000000000E+00 -0.88084519806E+03  0.88084519807E+03  0.25500000000E-02 0. -1.
    5000001    1    1    2    0    0  0.19555755851E+03 -0.12864700050E+03 -0.33289908829E+03  0.44828407557E+03  0.18800000000E+03 0.  0.
   -5000001    1    1    2    0    0 -0.19555755851E+03  0.12864700050E+03 -0.44428923850E+03  0.53621799380E+03  0.18800000000E+03 0.  0.
<mgrwt>
<rscale>  0 0.60433652E+03</rscale>
<asrwt>0</asrwt>
<pdfrwt beam="1">  1        2 0.14808125E-01 0.60433652E+03</pdfrwt>
<pdfrwt beam="2">  1       -2 0.12583502E+00 0.60433652E+03</pdfrwt>
<totfact> 0.19468026E+02</totfact>
</mgrwt>
</event>
<event>
 4    1  0.6239849E-005  0.6332663E+03  0.7818608E-02  0.9838696E-01
         -2   -1    0    0    0  501 -0.00000000000E+00  0.00000000000E+00  0.19166232748E+03  0.19166232749E+03  0.25500000000E-02 0.  1.
          2   -1    0    0  501    0  0.00000000000E+00 -0.00000000000E+00 -0.52308948963E+03  0.52308948964E+03  0.25500000000E-02 0. -1.
    5000001    1    1    2    0    0  0.18287458863E+03  0.14763766138E+03 -0.54709359129E+02  0.30590375643E+03  0.18800000000E+03 0.  0.
   -5000001    1    1    2    0    0 -0.18287458863E+03 -0.14763766138E+03 -0.27671780303E+03  0.40884806070E+03  0.18800000000E+03 0.  0.
<mgrwt>
<rscale>  0 0.63326629E+03</rscale>
<asrwt>0</asrwt>
<pdfrwt beam="1">  1        2 0.74727069E-01 0.63326629E+03</pdfrwt>
<pdfrwt beam="2">  1       -2 0.27380333E-01 0.63326629E+03</pdfrwt>
<totfact> 0.77659985E+02</totfact>
</mgrwt>
</event>
<event>
 4    1  0.6239849E-005  0.5025520E+03  0.7818608E-02  0.1013115E+00
          2   -1    0    0  501    0  0.00000000000E+00  0.00000000000E+00  0.18541595468E+03  0.18541595470E+03  0.25500000000E-02 0.  1.
         -2   -1    0    0    0  501 -0.00000000000E+00 -0.00000000000E+00 -0.34052959378E+03  0.34052959379E+03  0.25500000000E-02 0. -1.
    5000001    1    1    2    0    0 -0.50824504050E+02  0.11661438980E+03 -0.19033958661E+03  0.29623504916E+03  0.18800000000E+03 0.  0.
   -5000001    1    1    2    0    0  0.50824504050E+02 -0.11661438980E+03  0.35225947516E+02  0.22971049932E+03  0.18800000000E+03 0.  0.
<mgrwt>
<rscale>  0 0.50255197E+03</rscale>
<asrwt>0</asrwt>
<pdfrwt beam="1">  1        2 0.26487994E-01 0.50255197E+03</pdfrwt>
<pdfrwt beam="2">  1       -2 0.48647085E-01 0.50255197E+03</pdfrwt>
<totfact> 0.82391661E+02</totfact>
</mgrwt>
</event>
<event>
 4    1  0.6239849E-005  0.4569159E+03  0.7818608E-02  0.1025680E+00
          2   -1    0    0  501    0  0.00000000000E+00  0.00000000000E+00  0.50564711959E+03  0.50564711960E+03  0.25500000000E-02 0.  1.
         -2   -1    0    0    0  501 -0.00000000000E+00 -0.00000000000E+00 -0.10322027228E+03  0.10322027232E+03  0.25500000000E-02 0. -1.
    5000001    1    1    2    0    0 -0.10509245880E+03 -0.71563966458E+02  0.16638268670E+03  0.28141255236E+03  0.18800000000E+03 0.  0.
   -5000001    1    1    2    0    0  0.10509245880E+03  0.71563966458E+02  0.23604416061E+03  0.32745483956E+03  0.18800000000E+03 0.  0.
<mgrwt>
<rscale>  0 0.45691589E+03</rscale>
<asrwt>0</asrwt>
<pdfrwt beam="1">  1        2 0.72235303E-01 0.45691589E+03</pdfrwt>
<pdfrwt beam="2">  1       -2 0.14745753E-01 0.45691589E+03</pdfrwt>
<totfact> 0.23712635E+03</totfact>
</mgrwt>
</event>
<event>
 4    1  0.6239849E-005  0.5684976E+03  0.7818608E-02  0.9973009E-01
         -2   -1    0    0    0  501 -0.00000000000E+00  0.00000000000E+00  0.70772706849E+02  0.70772706895E+02  0.25500000000E-02 0. -1.
          2   -1    0    0  501    0  0.00000000000E+00 -0.00000000000E+00 -0.11416461510E+04  0.11416461510E+04  0.25500000000E-02 0.  1.
    5000001    1    1    2    0    0  0.28441138625E+02 -0.19801018608E+03 -0.37818986503E+03  0.46732056040E+03  0.18800000000E+03 0.  0.
   -5000001    1    1    2    0    0 -0.28441138625E+02  0.19801018608E+03 -0.69268357913E+03  0.74509829751E+03  0.18800000000E+03 0.  0.
<mgrwt>
<rscale>  0 0.56849763E+03</rscale>
<asrwt>0</asrwt>
<pdfrwt beam="1">  1        2 0.16309230E+00 0.56849763E+03</pdfrwt>
<pdfrwt beam="2">  1       -2 0.10110387E-01 0.56849763E+03</pdfrwt>
<totfact> 0.15675427E+03</totfact>
</mgrwt>
</event>
<event>
 4    1  0.6239849E-005  0.4288390E+03  0.7818608E-02  0.1034227E+00
         -2   -1    0    0    0  501 -0.00000000000E+00  0.00000000000E+00  0.32159300125E+03  0.32159300126E+03  0.25500000000E-02 0. -1.
          2   -1    0    0  501    0  0.00000000000E+00 -0.00000000000E+00 -0.14296247600E+03  0.14296247602E+03  0.25500000000E-02 0.  1.
    5000001    1    1    2    0    0 -0.95430981819E+02 -0.28294839931E+02  0.60165771077E+02  0.22106919792E+03  0.18800000000E+03 0.  0.
   -5000001    1    1    2    0    0  0.95430981819E+02  0.28294839931E+02  0.11846475417E+03  0.24348627936E+03  0.18800000000E+03 0.  0.
<mgrwt>
<rscale>  0 0.42883905E+03</rscale>
<asrwt>0</asrwt>
<pdfrwt beam="1">  1        2 0.20423211E-01 0.42883905E+03</pdfrwt>
<pdfrwt beam="2">  1       -2 0.45941857E-01 0.42883905E+03</pdfrwt>
<totfact> 0.12427761E+03</totfact>
</mgrwt>
</event>
<event>
 4    1  0.6239849E-005  0.6805269E+03  0.7818608E-02  0.9751126E-01
         -2   -1    0    0    0  501 -0.00000000000E+00  0.00000000000E+00  0.29683770518E+03  0.29683770519E+03  0.25500000000E-02 0. -1.
          2   -1    0    0  501    0  0.00000000000E+00 -0.00000000000E+00 -0.39004218321E+03  0.39004218322E+03  0.25500000000E-02 0.  1.
    5000001    1    1    2    0    0  0.23806317285E+03  0.15283922564E+03 -0.26382165018E+02  0.34069623097E+03  0.18800000000E+03 0.  0.
   -5000001    1    1    2    0    0 -0.23806317285E+03 -0.15283922564E+03 -0.66822313008E+02  0.34618365744E+03  0.18800000000E+03 0.  0.
<mgrwt>
<rscale>  0 0.68052693E+03</rscale>
<asrwt>0</asrwt>
<pdfrwt beam="1">  1        2 0.55720311E-01 0.68052693E+03</pdfrwt>
<pdfrwt beam="2">  1       -2 0.42405387E-01 0.68052693E+03</pdfrwt>
<totfact> 0.47228992E+02</totfact>
</mgrwt>
</event>
<event>
 4    1  0.6239849E-005  0.4176567E+03  0.7818608E-02  0.1037832E+00
          2   -1    0    0  501    0  0.00000000000E+00  0.00000000000E+00  0.24896172670E+03  0.24896172671E+03  0.25500000000E-02 0.  1.
         -2   -1    0    0    0  501 -0.00000000000E+00 -0.00000000000E+00 -0.17516458365E+03  0.17516458366E+03  0.25500000000E-02 0. -1.
    5000001    1    1    2    0    0 -0.67091213026E+02  0.51322087191E+02  0.71036112497E+02  0.21800302011E+03  0.18800000000E+03 0.  0.
   -5000001    1    1    2    0    0  0.67091213026E+02 -0.51322087191E+02  0.27610305532E+01  0.20612329026E+03  0.18800000000E+03 0.  0.
<mgrwt>
<rscale>  0 0.41765669E+03</rscale>
<asrwt>0</asrwt>
<pdfrwt beam="1">  1        2 0.35565960E-01 0.41765669E+03</pdfrwt>
<pdfrwt beam="2">  1       -2 0.25023512E-01 0.41765669E+03</pdfrwt>
<totfact> 0.20788195E+03</totfact>
</mgrwt>
</event>
<event>
 4    1  0.6239849E-005  0.5588803E+03  0.7818608E-02  0.9994591E-01
         -2   -1    0    0    0  501 -0.00000000000E+00  0.00000000000E+00  0.79407030882E+02  0.79407030923E+02  0.25500000000E-02 0. -1.
          2   -1    0    0  501    0  0.00000000000E+00 -0.00000000000E+00 -0.98337375969E+03  0.98337375970E+03  0.25500000000E-02 0.  1.
    5000001    1    1    2    0    0 -0.44746199668E+01 -0.19517138618E+03 -0.32257643369E+03  0.42132107445E+03  0.18800000000E+03 0.  0.
   -5000001    1    1    2    0    0  0.44746199668E+01  0.19517138618E+03 -0.58139029512E+03  0.64145971617E+03  0.18800000000E+03 0.  0.
<mgrwt>
<rscale>  0 0.55888028E+03</rscale>
<asrwt>0</asrwt>
<pdfrwt beam="1">  1        2 0.14048196E+00 0.55888028E+03</pdfrwt>
<pdfrwt beam="2">  1       -2 0.11343862E-01 0.55888028E+03</pdfrwt>
<totfact> 0.16121158E+03</totfact>
</mgrwt>
</event>
<event>
 4    1  0.6239849E-005  0.7103010E+03  0.7818608E-02  0.9699776E-01
          2   -1    0    0  501    0  0.00000000000E+00  0.00000000000E+00  0.11941805219E+03  0.11941805222E+03  0.25500000000E-02 0.  1.
         -2   -1    0    0    0  501 -0.00000000000E+00 -0.00000000000E+00 -0.10562212198E+04  0.10562212198E+04  0.25500000000E-02 0. -1.
    5000001    1    1    2    0    0  0.24458791691E+02  0.29154561318E+03 -0.34915417323E+03  0.49279784267E+03  0.18800000000E+03 0.  0.
   -5000001    1    1    2    0    0 -0.24458791691E+02 -0.29154561318E+03 -0.58764899438E+03  0.68284142937E+03  0.18800000000E+03 0.  0.
<mgrwt>
<rscale>  0 0.71030101E+03</rscale>
<asrwt>0</asrwt>
<pdfrwt beam="1">  1        2 0.17059722E-01 0.71030101E+03</pdfrwt>
<pdfrwt beam="2">  1       -2 0.15088874E+00 0.71030101E+03</pdfrwt>
<totfact> 0.10255558E+02</totfact>
</mgrwt>
</event>
<event>
 4    1  0.6239849E-005  0.8485294E+03  0.7818608E-02  0.9492313E-01
         -2   -1    0    0    0  501 -0.00000000000E+00  0.00000000000E+00  0.21376718560E+03  0.21376718561E+03  0.25500000000E-02 0. -1.
          2   -1    0    0  501    0  0.00000000000E+00 -0.00000000000E+00 -0.84204001131E+03  0.84204001131E+03  0.25500000000E-02 0.  1.
    5000001    1    1    2    0    0 -0.36957660015E+03 -0.36463498481E+02 -0.41628915941E+03  0.58869101772E+03  0.18800000000E+03 0.  0.
   -5000001    1    1    2    0    0  0.36957660015E+03  0.36463498481E+02 -0.21198366629E+03  0.46711617920E+03  0.18800000000E+03 0.  0.
<mgrwt>
<rscale>  0 0.84852937E+03</rscale>
<asrwt>0</asrwt>
<pdfrwt beam="1">  1        2 0.12029143E+00 0.84852937E+03</pdfrwt>
<pdfrwt beam="2">  1       -2 0.30538170E-01 0.84852937E+03</pdfrwt>
<totfact> 0.35308042E+02</totfact>
</mgrwt>
</event>
<event>
 4    1  0.6239849E-005  0.4968449E+03  0.7818608E-02  0.1014606E+00
         -2   -1    0    0    0  501 -0.00000000000E+00  0.00000000000E+00  0.13289254651E+03  0.13289254654E+03  0.25500000000E-02 0. -1.
          2   -1    0    0  501    0  0.00000000000E+00 -0.00000000000E+00 -0.46438814395E+03  0.46438814396E+03  0.25500000000E-02 0.  1.
    5000001    1    1    2    0    0  0.30347821319E+02 -0.15205430146E+03 -0.22375338444E+03  0.33083391286E+03  0.18800000000E+03 0.  0.
   -5000001    1    1    2    0    0 -0.30347821319E+02  0.15205430146E+03 -0.10774221300E+03  0.26644677764E+03  0.18800000000E+03 0.  0.
<mgrwt>
<rscale>  0 0.49684494E+03</rscale>
<asrwt>0</asrwt>
<pdfrwt beam="1">  1        2 0.66341163E-01 0.49684494E+03</pdfrwt>
<pdfrwt beam="2">  1       -2 0.18984650E-01 0.49684494E+03</pdfrwt>
<totfact> 0.17012330E+03</totfact>
</mgrwt>
</event>
<event>
 4    1  0.6239849E-005  0.1089448E+04  0.7818608E-02  0.9215538E-01
          2   -1    0    0  501    0  0.00000000000E+00  0.00000000000E+00  0.27576575858E+04  0.27576575858E+04  0.25500000000E-02 0.  1.
         -2   -1    0    0    0  501 -0.00000000000E+00 -0.00000000000E+00 -0.10760004796E+03  0.10760004799E+03  0.25500000000E-02 0. -1.
    5000001    1    1    2    0    0 -0.24408765757E+03 -0.44694454988E+03  0.14438712398E+04  0.15425454199E+04  0.18800000000E+03 0.  0.
   -5000001    1    1    2    0    0  0.24408765757E+03  0.44694454988E+03  0.12061862980E+04  0.13227122139E+04  0.18800000000E+03 0.  0.
<mgrwt>
<rscale>  0 0.10894477E+04</rscale>
<asrwt>0</asrwt>
<pdfrwt beam="1">  1        2 0.39395105E+00 0.10894477E+04</pdfrwt>
<pdfrwt beam="2">  1       -2 0.15371437E-01 0.10894477E+04</pdfrwt>
<totfact> 0.10859261E+02</totfact>
</mgrwt>
</event>
<event>
 4    1  0.6239849E-005  0.1157789E+04  0.7818608E-02  0.9150628E-01
          2   -1    0    0  501    0  0.00000000000E+00  0.00000000000E+00  0.39438862537E+03  0.39438862538E+03  0.25500000000E-02 0.  1.
         -2   -1    0    0    0  501 -0.00000000000E+00 -0.00000000000E+00 -0.84971731782E+03  0.84971731782E+03  0.25500000000E-02 0. -1.
    5000001    1    1    2    0    0 -0.40405207944E+03  0.15349000747E+03  0.13348400204E+03  0.48987676419E+03  0.18800000000E+03 0.  0.
   -5000001    1    1    2    0    0  0.40405207944E+03 -0.15349000747E+03 -0.58881269449E+03  0.75422917902E+03  0.18800000000E+03 0.  0.
<mgrwt>
<rscale>  0 0.11577890E+04</rscale>
<asrwt>0</asrwt>
<pdfrwt beam="1">  1        2 0.56341232E-01 0.11577890E+04</pdfrwt>
<pdfrwt beam="2">  1       -2 0.12138819E+00 0.11577890E+04</pdfrwt>
<totfact> 0.44880684E+01</totfact>
</mgrwt>
</event>
<event>
 4    1  0.6239849E-005  0.6247440E+03  0.7818608E-02  0.9855360E-01
          2   -1    0    0  501    0  0.00000000000E+00  0.00000000000E+00  0.91973426749E+03  0.91973426749E+03  0.25500000000E-02 0.  1.
         -2   -1    0    0    0  501 -0.00000000000E+00 -0.00000000000E+00 -0.10609179486E+03  0.10609179489E+03  0.25500000000E-02 0. -1.
    5000001    1    1    2    0    0  0.58226428102E+02 -0.23040260280E+03  0.53140287355E+03  0.61172599284E+03  0.18800000000E+03 0.  0.
   -5000001    1    1    2    0    0 -0.58226428102E+02  0.23040260280E+03  0.28223959908E+03  0.41410006954E+03  0.18800000000E+03 0.  0.
<mgrwt>
<rscale>  0 0.62474398E+03</rscale>
<asrwt>0</asrwt>
<pdfrwt beam="1">  1        2 0.13139061E+00 0.62474398E+03</pdfrwt>
<pdfrwt beam="2">  1       -2 0.15155970E-01 0.62474398E+03</pdfrwt>
<totfact> 0.10909156E+03</totfact>
</mgrwt>
</event>
<event>
 4    1  0.6239849E-005  0.9258862E+03  0.7818608E-02  0.9393789E-01
          2   -1    0    0  501    0  0.00000000000E+00  0.00000000000E+00  0.62445272434E+03  0.62445272435E+03  0.25500000000E-02 0.  1.
         -2   -1    0    0    0  501 -0.00000000000E+00 -0.00000000000E+00 -0.34320664399E+03  0.34320664400E+03  0.25500000000E-02 0. -1.
    5000001    1    1    2    0    0  0.67703025337E+02 -0.33669729966E+03  0.39879770864E+03  0.55886705365E+03  0.18800000000E+03 0.  0.
   -5000001    1    1    2    0    0 -0.67703025337E+02  0.33669729966E+03 -0.11755162828E+03  0.40879231469E+03  0.18800000000E+03 0.  0.
<mgrwt>
<rscale>  0 0.92588622E+03</rscale>
<asrwt>0</asrwt>
<pdfrwt beam="1">  1        2 0.89207532E-01 0.92588622E+03</pdfrwt>
<pdfrwt beam="2">  1       -2 0.49029521E-01 0.92588622E+03</pdfrwt>
<totfact> 0.20406607E+02</totfact>
</mgrwt>
</event>
<event>
 4    1  0.6239849E-005  0.6689436E+03  0.7818608E-02  0.9771868E-01
         -2   -1    0    0    0  501 -0.00000000000E+00  0.00000000000E+00  0.10718406446E+03  0.10718406449E+03  0.25500000000E-02 0. -1.
          2   -1    0    0  501    0  0.00000000000E+00 -0.00000000000E+00 -0.10437313864E+04  0.10437313864E+04  0.25500000000E-02 0.  1.
    5000001    1    1    2    0    0  0.31959166178E+02 -0.27478344610E+03 -0.46862486604E+03  0.57574351549E+03  0.18800000000E+03 0.  0.
   -5000001    1    1    2    0    0 -0.31959166178E+02  0.27478344610E+03 -0.46792245592E+03  0.57517193544E+03  0.18800000000E+03 0.  0.
<mgrwt>
<rscale>  0 0.66894356E+03</rscale>
<asrwt>0</asrwt>
<pdfrwt beam="1">  1        2 0.14910448E+00 0.66894356E+03</pdfrwt>
<pdfrwt beam="2">  1       -2 0.15312010E-01 0.66894356E+03</pdfrwt>
<totfact> 0.89785228E+02</totfact>
</mgrwt>
</event>
<event>
 4    1  0.6239849E-005  0.4160082E+03  0.7818608E-02  0.1038373E+00
         -2   -1    0    0    0  501 -0.00000000000E+00  0.00000000000E+00  0.61821251197E+02  0.61821251250E+02  0.25500000000E-02 0. -1.
          2   -1    0    0  501    0  0.00000000000E+00 -0.00000000000E+00 -0.69985151866E+03  0.69985151867E+03  0.25500000000E-02 0.  1.
    5000001    1    1    2    0    0  0.87501771190E+02 -0.32457479560E+01 -0.34822955232E+03  0.40530842078E+03  0.18800000000E+03 0.  0.
   -5000001    1    1    2    0    0 -0.87501771190E+02  0.32457479560E+01 -0.28980071514E+03  0.35636434914E+03  0.18800000000E+03 0.  0.
<mgrwt>
<rscale>  0 0.41600816E+03</rscale>
<asrwt>0</asrwt>
<pdfrwt beam="1">  1        2 0.99978784E-01 0.41600816E+03</pdfrwt>
<pdfrwt beam="2">  1       -2 0.88316077E-02 0.41600816E+03</pdfrwt>
<totfact> 0.37385689E+03</totfact>
</mgrwt>
</event>
<event>
 4    1  0.6239849E-005  0.6433553E+03  0.7818608E-02  0.9819328E-01
         -2   -1    0    0    0  501 -0.00000000000E+00  0.00000000000E+00  0.19992182826E+03  0.19992182828E+03  0.25500000000E-02 0. -1.
          2   -1    0    0  501    0  0.00000000000E+00 -0.00000000000E+00 -0.51758485221E+03  0.51758485222E+03  0.25500000000E-02 0.  1.
    5000001    1    1    2    0    0  0.24142187562E+03  0.90367924045E+02 -0.20456557671E+03  0.37900126504E+03  0.18800000000E+03 0.  0.
   -5000001    1    1    2    0    0 -0.24142187562E+03 -0.90367924045E+02 -0.11309744724E+03  0.33850541546E+03  0.18800000000E+03 0.  0.
<mgrwt>
<rscale>  0 0.64335530E+03</rscale>
<asrwt>0</asrwt>
<pdfrwt beam="1">  1        2 0.73940693E-01 0.64335530E+03</pdfrwt>
<pdfrwt beam="2">  1       -2 0.28560261E-01 0.64335530E+03</pdfrwt>
<totfact> 0.72757020E+02</totfact>
</mgrwt>
</event>
<event>
 4    1  0.6239849E-005  0.5778174E+03  0.7818608E-02  0.9952528E-01
          2   -1    0    0  501    0  0.00000000000E+00  0.00000000000E+00  0.11904086922E+04  0.11904086922E+04  0.25500000000E-02 0.  1.
         -2   -1    0    0    0  501 -0.00000000000E+00 -0.00000000000E+00 -0.70117289728E+02  0.70117289774E+02  0.25500000000E-02 0. -1.
    5000001    1    1    2    0    0 -0.21434155815E+03  0.43954895280E+02  0.59463146411E+03  0.66091218363E+03  0.18800000000E+03 0.  0.
   -5000001    1    1    2    0    0  0.21434155815E+03 -0.43954895280E+02  0.52565993839E+03  0.59961379837E+03  0.18800000000E+03 0.  0.
<mgrwt>
<rscale>  0 0.57781738E+03</rscale>
<asrwt>0</asrwt>
<pdfrwt beam="1">  1        2 0.17005838E+00 0.57781738E+03</pdfrwt>
<pdfrwt beam="2">  1       -2 0.10016756E-01 0.57781738E+03</pdfrwt>
<totfact> 0.14930402E+03</totfact>
</mgrwt>
</event>
<event>
 4    1  0.6239849E-005  0.4315992E+03  0.7818608E-02  0.1033356E+00
         -2   -1    0    0    0  501 -0.00000000000E+00  0.00000000000E+00  0.20181167788E+02  0.20181167949E+02  0.25500000000E-02 0. -1.
          2   -1    0    0  501    0  0.00000000000E+00 -0.00000000000E+00 -0.23075707188E+04  0.23075707188E+04  0.25500000000E-02 0.  1.
    5000001    1    1    2    0    0  0.38772417057E+02  0.89782500800E+02 -0.13635195844E+04  0.13798890734E+04  0.18800000000E+03 0.  0.
   -5000001    1    1    2    0    0 -0.38772417057E+02 -0.89782500800E+02 -0.92386996661E+03  0.94786281338E+03  0.18800000000E+03 0.  0.
<mgrwt>
<rscale>  0 0.43159922E+03</rscale>
<asrwt>0</asrwt>
<pdfrwt beam="1">  1        2 0.32965279E+00 0.43159922E+03</pdfrwt>
<pdfrwt beam="2">  1       -2 0.28830254E-02 0.43159922E+03</pdfrwt>
<totfact> 0.27852081E+03</totfact>
</mgrwt>
</event>
<event>
 4    1  0.6239849E-005  0.5291157E+03  0.7818608E-02  0.1006447E+00
         -2   -1    0    0    0  501 -0.00000000000E+00  0.00000000000E+00  0.20683572587E+03  0.20683572589E+03  0.25500000000E-02 0. -1.
          2   -1    0    0  501    0  0.00000000000E+00 -0.00000000000E+00 -0.33838868370E+03  0.33838868371E+03  0.25500000000E-02 0.  1.
    5000001    1    1    2    0    0  0.11800839892E+03 -0.14223539966E+03 -0.88585825607E+02  0.27811569469E+03  0.18800000000E+03 0.  0.
   -5000001    1    1    2    0    0 -0.11800839892E+03  0.14223539966E+03 -0.42967132221E+02  0.26710871492E+03  0.18800000000E+03 0.  0.
<mgrwt>
<rscale>  0 0.52911575E+03</rscale>
<asrwt>0</asrwt>
<pdfrwt beam="1">  1        2 0.48341240E-01 0.52911575E+03</pdfrwt>
<pdfrwt beam="2">  1       -2 0.29547961E-01 0.52911575E+03</pdfrwt>
<totfact> 0.11003097E+03</totfact>
</mgrwt>
</event>
<event>
 4    1  0.6239849E-005  0.9868183E+03  0.7818608E-02  0.9323122E-01
          2   -1    0    0  501    0  0.00000000000E+00  0.00000000000E+00  0.44960248652E+03  0.44960248653E+03  0.25500000000E-02 0.  1.
         -2   -1    0    0    0  501 -0.00000000000E+00 -0.00000000000E+00 -0.54148406211E+03  0.54148406212E+03  0.25500000000E-02 0. -1.
    5000001    1    1    2    0    0  0.42916857421E+03 -0.12226330697E+03 -0.14108490292E+03  0.50436388764E+03  0.18800000000E+03 0.  0.
   -5000001    1    1    2    0    0 -0.42916857421E+03  0.12226330697E+03  0.49203327327E+02  0.48672266101E+03  0.18800000000E+03 0.  0.
<mgrwt>
<rscale>  0 0.98681828E+03</rscale>
<asrwt>0</asrwt>
<pdfrwt beam="1">  1        2 0.64228927E-01 0.98681828E+03</pdfrwt>
<pdfrwt beam="2">  1       -2 0.77354866E-01 0.98681828E+03</pdfrwt>
<totfact> 0.11298683E+02</totfact>
</mgrwt>
</event>
<event>
 4    1  0.6239849E-005  0.6297442E+03  0.7818608E-02  0.9845548E-01
         -2   -1    0    0    0  501 -0.00000000000E+00  0.00000000000E+00  0.16603749736E+03  0.16603749738E+03  0.25500000000E-02 0. -1.
          2   -1    0    0  501    0  0.00000000000E+00 -0.00000000000E+00 -0.59712070411E+03  0.59712070412E+03  0.25500000000E-02 0.  1.
    5000001    1    1    2    0    0  0.15544550431E+03  0.95602045400E+02 -0.42717374681E+03  0.50112320427E+03  0.18800000000E+03 0.  0.
   -5000001    1    1    2    0    0 -0.15544550431E+03 -0.95602045400E+02 -0.39094599447E+01  0.26203499723E+03  0.18800000000E+03 0.  0.
<mgrwt>
<rscale>  0 0.62974416E+03</rscale>
<asrwt>0</asrwt>
<pdfrwt beam="1">  1        2 0.85302957E-01 0.62974416E+03</pdfrwt>
<pdfrwt beam="2">  1       -2 0.23719643E-01 0.62974416E+03</pdfrwt>
<totfact> 0.86253287E+02</totfact>
</mgrwt>
</event>
<event>
 4    1  0.6239849E-005  0.5596200E+03  0.7818608E-02  0.9992915E-01
         -2   -1    0    0    0  501 -0.00000000000E+00  0.00000000000E+00  0.91102363783E+02  0.91102363819E+02  0.25500000000E-02 0. -1.
          2   -1    0    0  501    0  0.00000000000E+00 -0.00000000000E+00 -0.85940284777E+03  0.85940284777E+03  0.25500000000E-02 0.  1.
    5000001    1    1    2    0    0  0.22310736416E+02 -0.20438992453E+03 -0.42833107743E+03  0.51096430610E+03  0.18800000000E+03 0.  0.
   -5000001    1    1    2    0    0 -0.22310736416E+02  0.20438992453E+03 -0.33996940655E+03  0.43954090549E+03  0.18800000000E+03 0.  0.
<mgrwt>
<rscale>  0 0.55961998E+03</rscale>
<asrwt>0</asrwt>
<pdfrwt beam="1">  1        2 0.12277183E+00 0.55961998E+03</pdfrwt>
<pdfrwt beam="2">  1       -2 0.13014624E-01 0.55961998E+03</pdfrwt>
<totfact> 0.15418615E+03</totfact>
</mgrwt>
</event>
<event>
 4    1  0.6239849E-005  0.4958002E+03  0.7818608E-02  0.1014881E+00
          2   -1    0    0  501    0  0.00000000000E+00  0.00000000000E+00  0.14505063867E+04  0.14505063868E+04  0.25500000000E-02 0.  1.
         -2   -1    0    0    0  501 -0.00000000000E+00 -0.00000000000E+00 -0.42367586286E+02  0.42367586362E+02  0.25500000000E-02 0. -1.
    5000001    1    1    2    0    0 -0.14191099913E+03  0.17767613290E+02  0.93051949316E+03  0.96003382592E+03  0.18800000000E+03 0.  0.
   -5000001    1    1    2    0    0  0.14191099913E+03 -0.17767613290E+02  0.47761930730E+03  0.53284014719E+03  0.18800000000E+03 0.  0.
<mgrwt>
<rscale>  0 0.49580018E+03</rscale>
<asrwt>0</asrwt>
<pdfrwt beam="1">  1        2 0.20721513E+00 0.49580018E+03</pdfrwt>
<pdfrwt beam="2">  1       -2 0.60525142E-02 0.49580018E+03</pdfrwt>
<totfact> 0.24091257E+03</totfact>
</mgrwt>
</event>
<event>
 4    1  0.6239849E-005  0.7960713E+03  0.7818608E-02  0.9565721E-01
          2   -1    0    0  501    0  0.00000000000E+00  0.00000000000E+00  0.34054929854E+03  0.34054929855E+03  0.25500000000E-02 0.  1.
         -2   -1    0    0    0  501 -0.00000000000E+00 -0.00000000000E+00 -0.46522595349E+03  0.46522595350E+03  0.25500000000E-02 0. -1.
    5000001    1    1    2    0    0  0.19334114730E+03 -0.15932228163E+03 -0.31094167530E+03  0.44135372900E+03  0.18800000000E+03 0.  0.
   -5000001    1    1    2    0    0 -0.19334114730E+03  0.15932228163E+03  0.18626502034E+03  0.36442152306E+03  0.18800000000E+03 0.  0.
<mgrwt>
<rscale>  0 0.79607128E+03</rscale>
<asrwt>0</asrwt>
<pdfrwt beam="1">  1        2 0.48649900E-01 0.79607128E+03</pdfrwt>
<pdfrwt beam="2">  1       -2 0.66460850E-01 0.79607128E+03</pdfrwt>
<totfact> 0.21704491E+02</totfact>
</mgrwt>
</event>
<event>
 4    1  0.6239849E-005  0.9318454E+03  0.7818608E-02  0.9386626E-01
          2   -1    0    0  501    0  0.00000000000E+00  0.00000000000E+00  0.10540350262E+04  0.10540350262E+04  0.25500000000E-02 0.  1.
         -2   -1    0    0    0  501 -0.00000000000E+00 -0.00000000000E+00 -0.20595518335E+03  0.20595518336E+03  0.25500000000E-02 0. -1.
    5000001    1    1    2    0    0  0.36421459877E+03  0.18852112421E+03  0.58142106304E+03  0.73592590712E+03  0.18800000000E+03 0.  0.
   -5000001    1    1    2    0    0 -0.36421459877E+03 -0.18852112421E+03  0.26665877978E+03  0.52406430241E+03  0.18800000000E+03 0.  0.
<mgrwt>
<rscale>  0 0.93184543E+03</rscale>
<asrwt>0</asrwt>
<pdfrwt beam="1">  1        2 0.15057643E+00 0.93184543E+03</pdfrwt>
<pdfrwt beam="2">  1       -2 0.29422170E-01 0.93184543E+03</pdfrwt>
<totfact> 0.27628303E+02</totfact>
</mgrwt>
</event>
<event>
 4    1  0.6239849E-005  0.7470259E+03  0.7818608E-02  0.9640028E-01
          2   -1    0    0  501    0  0.00000000000E+00  0.00000000000E+00  0.11230242531E+04  0.11230242531E+04  0.25500000000E-02 0.  1.
         -2   -1    0    0    0  501 -0.00000000000E+00 -0.00000000000E+00 -0.12422877818E+03  0.12422877821E+03  0.25500000000E-02 0. -1.
    5000001    1    1    2    0    0  0.25918943564E+02 -0.31014539955E+03  0.35668660564E+03  0.50934398508E+03  0.18800000000E+03 0.  0.
   -5000001    1    1    2    0    0 -0.25918943564E+02  0.31014539955E+03  0.64210886926E+03  0.73790904621E+03  0.18800000000E+03 0.  0.
<mgrwt>
<rscale>  0 0.74702592E+03</rscale>
<asrwt>0</asrwt>
<pdfrwt beam="1">  1        2 0.16043204E+00 0.74702592E+03</pdfrwt>
<pdfrwt beam="2">  1       -2 0.17746968E-01 0.74702592E+03</pdfrwt>
<totfact> 0.62506872E+02</totfact>
</mgrwt>
</event>
<event>
 4    1  0.6239849E-005  0.7467796E+03  0.7818608E-02  0.9640416E-01
         -2   -1    0    0    0  501 -0.00000000000E+00  0.00000000000E+00  0.69407395933E+02  0.69407395980E+02  0.25500000000E-02 0. -1.
          2   -1    0    0  501    0  0.00000000000E+00 -0.00000000000E+00 -0.20087190006E+04  0.20087190006E+04  0.25500000000E-02 0.  1.
    5000001    1    1    2    0    0  0.15431784537E+03 -0.24544996887E+03 -0.57595067213E+03  0.67165680325E+03  0.18800000000E+03 0.  0.
   -5000001    1    1    2    0    0 -0.15431784537E+03  0.24544996887E+03 -0.13633609325E+04  0.14064695933E+04  0.18800000000E+03 0.  0.
<mgrwt>
<rscale>  0 0.74677963E+03</rscale>
<asrwt>0</asrwt>
<pdfrwt beam="1">  1        2 0.28695982E+00 0.74677963E+03</pdfrwt>
<pdfrwt beam="2">  1       -2 0.99153435E-02 0.74677963E+03</pdfrwt>
<totfact> 0.56381152E+02</totfact>
</mgrwt>
</event>
<event>
 4    1  0.6239849E-005  0.5334120E+03  0.7818608E-02  0.1005408E+00
          2   -1    0    0  501    0  0.00000000000E+00  0.00000000000E+00  0.11036896001E+04  0.11036896001E+04  0.25500000000E-02 0.  1.
         -2   -1    0    0    0  501 -0.00000000000E+00 -0.00000000000E+00 -0.64449366984E+02  0.64449367034E+02  0.25500000000E-02 0. -1.
    5000001    1    1    2    0    0 -0.94378882089E+02  0.12970307653E+03  0.73924622101E+03  0.77946086285E+03  0.18800000000E+03 0.  0.
   -5000001    1    1    2    0    0  0.94378882089E+02 -0.12970307653E+03  0.29999401209E+03  0.38867810427E+03  0.18800000000E+03 0.  0.
<mgrwt>
<rscale>  0 0.53341202E+03</rscale>
<asrwt>0</asrwt>
<pdfrwt beam="1">  1        2 0.15766995E+00 0.53341202E+03</pdfrwt>
<pdfrwt beam="2">  1       -2 0.92070519E-02 0.53341202E+03</pdfrwt>
<totfact> 0.19180246E+03</totfact>
</mgrwt>
</event>
<event>
 4    1  0.6239849E-005  0.4819049E+03  0.7818608E-02  0.1018613E+00
          2   -1    0    0  501    0  0.00000000000E+00  0.00000000000E+00  0.37231999943E+03  0.37231999944E+03  0.25500000000E-02 0.  1.
         -2   -1    0    0    0  501 -0.00000000000E+00 -0.00000000000E+00 -0.15593599915E+03  0.15593599917E+03  0.25500000000E-02 0. -1.
    5000001    1    1    2    0    0 -0.14309774430E+03  0.15089403547E+01  0.56370827612E+02  0.24290103238E+03  0.18800000000E+03 0.  0.
   -5000001    1    1    2    0    0  0.14309774430E+03 -0.15089403547E+01  0.16001317267E+03  0.28535496623E+03  0.18800000000E+03 0.  0.
<mgrwt>
<rscale>  0 0.48190493E+03</rscale>
<asrwt>0</asrwt>
<pdfrwt beam="1">  1        2 0.53188571E-01 0.48190493E+03</pdfrwt>
<pdfrwt beam="2">  1       -2 0.22276571E-01 0.48190493E+03</pdfrwt>
<totfact> 0.16450626E+03</totfact>
</mgrwt>
</event>
<event>
 4    1  0.6239849E-005  0.6272960E+03  0.7818608E-02  0.9850340E-01
          2   -1    0    0  501    0  0.00000000000E+00  0.00000000000E+00  0.19393945204E+03  0.19393945206E+03  0.25500000000E-02 0.  1.
         -2   -1    0    0    0  501 -0.00000000000E+00 -0.00000000000E+00 -0.50724622246E+03  0.50724622247E+03  0.25500000000E-02 0. -1.
    5000001    1    1    2    0    0 -0.18462651865E+03  0.16441686039E+03 -0.10778662926E+03  0.32875798518E+03  0.18800000000E+03 0.  0.
   -5000001    1    1    2    0    0  0.18462651865E+03 -0.16441686039E+03 -0.20552014116E+03  0.37242768935E+03  0.18800000000E+03 0.  0.
<mgrwt>
<rscale>  0 0.62729596E+03</rscale>
<asrwt>0</asrwt>
<pdfrwt beam="1">  1        2 0.27705636E-01 0.62729596E+03</pdfrwt>
<pdfrwt beam="2">  1       -2 0.72463745E-01 0.62729596E+03</pdfrwt>
<totfact> 0.33894181E+02</totfact>
</mgrwt>
</event>
<event>
 4    1  0.6239849E-005  0.6187022E+03  0.7818608E-02  0.9867347E-01
          2   -1    0    0  501    0  0.00000000000E+00  0.00000000000E+00  0.59835996880E+03  0.59835996880E+03  0.25500000000E-02 0.  1.
         -2   -1    0    0    0  501 -0.00000000000E+00 -0.00000000000E+00 -0.15993399807E+03  0.15993399810E+03  0.25500000000E-02 0. -1.
    5000001    1    1    2    0    0 -0.22176293727E+03 -0.67644328042E+02  0.31877942875E+03  0.43671372735E+03  0.18800000000E+03 0.  0.
   -5000001    1    1    2    0    0  0.22176293727E+03  0.67644328042E+02  0.11964654197E+03  0.32158023955E+03  0.18800000000E+03 0.  0.
<mgrwt>
<rscale>  0 0.61870220E+03</rscale>
<asrwt>0</asrwt>
<pdfrwt beam="1">  1        2 0.85479996E-01 0.61870220E+03</pdfrwt>
<pdfrwt beam="2">  1       -2 0.22847714E-01 0.61870220E+03</pdfrwt>
<totfact> 0.91987759E+02</totfact>
</mgrwt>
</event>
<event>
 4    1  0.6239849E-005  0.6189967E+03  0.7818608E-02  0.9866759E-01
          2   -1    0    0  501    0  0.00000000000E+00  0.00000000000E+00  0.44692410159E+03  0.44692410159E+03  0.25500000000E-02 0.  1.
         -2   -1    0    0    0  501 -0.00000000000E+00 -0.00000000000E+00 -0.21432997677E+03  0.21432997679E+03  0.25500000000E-02 0. -1.
    5000001    1    1    2    0    0  0.41041290437E+02  0.21269792079E+03 -0.79183320408E+01  0.28693464937E+03  0.18800000000E+03 0.  0.
   -5000001    1    1    2    0    0 -0.41041290437E+02 -0.21269792079E+03  0.24051245686E+03  0.37431942901E+03  0.18800000000E+03 0.  0.
<mgrwt>
<rscale>  0 0.61899671E+03</rscale>
<asrwt>0</asrwt>
<pdfrwt beam="1">  1        2 0.63846299E-01 0.61899671E+03</pdfrwt>
<pdfrwt beam="2">  1       -2 0.30618568E-01 0.61899671E+03</pdfrwt>
<totfact> 0.75612828E+02</totfact>
</mgrwt>
</event>
<event>
 4    1  0.6239849E-005  0.5127425E+03  0.7818608E-02  0.1010505E+00
          2   -1    0    0  501    0  0.00000000000E+00  0.00000000000E+00  0.57654273152E+03  0.57654273153E+03  0.25500000000E-02 0.  1.
         -2   -1    0    0    0  501 -0.00000000000E+00 -0.00000000000E+00 -0.11400058748E+03  0.11400058751E+03  0.25500000000E-02 0. -1.
    5000001    1    1    2    0    0 -0.10549545603E+03  0.11666184637E+03  0.13010286265E+03  0.27750681525E+03  0.18800000000E+03 0.  0.
   -5000001    1    1    2    0    0  0.10549545603E+03 -0.11666184637E+03  0.33243928139E+03  0.41303650378E+03  0.18800000000E+03 0.  0.
<mgrwt>
<rscale>  0 0.51274247E+03</rscale>
<asrwt>0</asrwt>
<pdfrwt beam="1">  1        2 0.82363246E-01 0.51274247E+03</pdfrwt>
<pdfrwt beam="2">  1       -2 0.16285799E-01 0.51274247E+03</pdfrwt>
<totfact> 0.17279492E+03</totfact>
</mgrwt>
</event>
<event>
 4    1  0.6239849E-005  0.4506422E+03  0.7818608E-02  0.1027531E+00
         -2   -1    0    0    0  501 -0.00000000000E+00  0.00000000000E+00  0.96264963302E+02  0.96264963336E+02  0.25500000000E-02 0. -1.
          2   -1    0    0  501    0  0.00000000000E+00 -0.00000000000E+00 -0.52739446813E+03  0.52739446813E+03  0.25500000000E-02 0.  1.
    5000001    1    1    2    0    0  0.80548697548E+02 -0.93865891208E+02 -0.19998636080E+03  0.30106052999E+03  0.18800000000E+03 0.  0.
   -5000001    1    1    2    0    0 -0.80548697548E+02  0.93865891208E+02 -0.23114314402E+03  0.32259890148E+03  0.18800000000E+03 0.  0.
<mgrwt>
<rscale>  0 0.45064225E+03</rscale>
<asrwt>0</asrwt>
<pdfrwt beam="1">  1        2 0.75342065E-01 0.45064225E+03</pdfrwt>
<pdfrwt beam="2">  1       -2 0.13752138E-01 0.45064225E+03</pdfrwt>
<totfact> 0.25386729E+03</totfact>
</mgrwt>
</event>
<event>
 4    1  0.6239849E-005  0.7050273E+03  0.7818608E-02  0.9708673E-01
         -2   -1    0    0    0  501 -0.00000000000E+00  0.00000000000E+00  0.16647945796E+03  0.16647945798E+03  0.25500000000E-02 0. -1.
          2   -1    0    0  501    0  0.00000000000E+00 -0.00000000000E+00 -0.74643360458E+03  0.74643360458E+03  0.25500000000E-02 0.  1.
    5000001    1    1    2    0    0  0.21023823358E+03  0.18399198779E+03 -0.15498377220E+03  0.37069817382E+03  0.18800000000E+03 0.  0.
   -5000001    1    1    2    0    0 -0.21023823358E+03 -0.18399198779E+03 -0.42497037442E+03  0.54221488874E+03  0.18800000000E+03 0.  0.
<mgrwt>
<rscale>  0 0.70502727E+03</rscale>
<asrwt>0</asrwt>
<pdfrwt beam="1">  1        2 0.10663337E+00 0.70502727E+03</pdfrwt>
<pdfrwt beam="2">  1       -2 0.23782780E-01 0.70502727E+03</pdfrwt>
<totfact> 0.65369636E+02</totfact>
</mgrwt>
</event>
<event>
 4    1  0.6239849E-005  0.6913439E+03  0.7818608E-02  0.9732151E-01
         -2   -1    0    0    0  501 -0.00000000000E+00  0.00000000000E+00  0.73188239137E+02  0.73188239181E+02  0.25500000000E-02 0. -1.
          2   -1    0    0  501    0  0.00000000000E+00 -0.00000000000E+00 -0.16326268118E+04  0.16326268118E+04  0.25500000000E-02 0.  1.
    5000001    1    1    2    0    0  0.57027048668E+02  0.27086113666E+03 -0.99378926812E+03  0.10486081008E+04  0.18800000000E+03 0.  0.
   -5000001    1    1    2    0    0 -0.57027048668E+02 -0.27086113666E+03 -0.56564930451E+03  0.65720695015E+03  0.18800000000E+03 0.  0.
<mgrwt>
<rscale>  0 0.69134386E+03</rscale>
<asrwt>0</asrwt>
<pdfrwt beam="1">  1        2 0.23323238E+00 0.69134386E+03</pdfrwt>
<pdfrwt beam="2">  1       -2 0.10455464E-01 0.69134386E+03</pdfrwt>
<totfact> 0.80573942E+02</totfact>
</mgrwt>
</event>
<event>
 4    1  0.6239849E-005  0.7357446E+03  0.7818608E-02  0.9657984E-01
         -2   -1    0    0    0  501 -0.00000000000E+00  0.00000000000E+00  0.20412797856E+03  0.20412797857E+03  0.25500000000E-02 0. -1.
          2   -1    0    0  501    0  0.00000000000E+00 -0.00000000000E+00 -0.66296664047E+03  0.66296664048E+03  0.25500000000E-02 0.  1.
    5000001    1    1    2    0    0  0.28594635756E+03 -0.13218971359E+03 -0.26162137945E+03  0.45058760076E+03  0.18800000000E+03 0.  0.
   -5000001    1    1    2    0    0 -0.28594635756E+03  0.13218971359E+03 -0.19721728247E+03  0.41650701829E+03  0.18800000000E+03 0.  0.
<mgrwt>
<rscale>  0 0.73574463E+03</rscale>
<asrwt>0</asrwt>
<pdfrwt beam="1">  1        2 0.94709519E-01 0.73574463E+03</pdfrwt>
<pdfrwt beam="2">  1       -2 0.29161140E-01 0.73574463E+03</pdfrwt>
<totfact> 0.52204858E+02</totfact>
</mgrwt>
</event>
<event>
 4    1  0.6239849E-005  0.1145352E+04  0.7818608E-02  0.9162082E-01
          2   -1    0    0  501    0  0.00000000000E+00  0.00000000000E+00  0.59185086776E+03  0.59185086777E+03  0.25500000000E-02 0.  1.
         -2   -1    0    0    0  501 -0.00000000000E+00 -0.00000000000E+00 -0.55412227226E+03  0.55412227227E+03  0.25500000000E-02 0. -1.
    5000001    1    1    2    0    0  0.19269807694E+03  0.45437504396E+03 -0.20267060691E+03  0.56569303013E+03  0.18800000000E+03 0.  0.
   -5000001    1    1    2    0    0 -0.19269807694E+03 -0.45437504396E+03  0.24039920241E+03  0.58028010991E+03  0.18800000000E+03 0.  0.
<mgrwt>
<rscale>  0 0.11453519E+04</rscale>
<asrwt>0</asrwt>
<pdfrwt beam="1">  1        2 0.84550124E-01 0.11453519E+04</pdfrwt>
<pdfrwt beam="2">  1       -2 0.79160325E-01 0.11453519E+04</pdfrwt>
<totfact> 0.77392163E+01</totfact>
</mgrwt>
</event>
<event>
 4    1  0.6239849E-005  0.8571418E+03  0.7818608E-02  0.9480801E-01
          2   -1    0    0  501    0  0.00000000000E+00  0.00000000000E+00  0.22725200477E+04  0.22725200477E+04  0.25500000000E-02 0.  1.
         -2   -1    0    0    0  501 -0.00000000000E+00 -0.00000000000E+00 -0.80823490415E+02  0.80823490455E+02  0.25500000000E-02 0. -1.
    5000001    1    1    2    0    0  0.50154085760E+02 -0.38169605446E+03  0.11261358007E+04  0.12048788951E+04  0.18800000000E+03 0.  0.
   -5000001    1    1    2    0    0 -0.50154085760E+02  0.38169605446E+03  0.10655607566E+04  0.11484646431E+04  0.18800000000E+03 0.  0.
<mgrwt>
<rscale>  0 0.85714177E+03</rscale>
<asrwt>0</asrwt>
<pdfrwt beam="1">  1        2 0.32464573E+00 0.85714177E+03</pdfrwt>
<pdfrwt beam="2">  1       -2 0.11546213E-01 0.85714177E+03</pdfrwt>
<totfact> 0.32024373E+02</totfact>
</mgrwt>
</event>
<event>
 4    1  0.6239849E-005  0.1151812E+04  0.7818608E-02  0.9156113E-01
          2   -1    0    0  501    0  0.00000000000E+00  0.00000000000E+00  0.12456602011E+04  0.12456602011E+04  0.25500000000E-02 0.  1.
         -2   -1    0    0    0  501 -0.00000000000E+00 -0.00000000000E+00 -0.26625880740E+03  0.26625880741E+03  0.25500000000E-02 0. -1.
    5000001    1    1    2    0    0 -0.45518345681E+03  0.28745518746E+03  0.59554188664E+03  0.82452204512E+03  0.18800000000E+03 0.  0.
   -5000001    1    1    2    0    0  0.45518345681E+03 -0.28745518746E+03  0.38385950709E+03  0.68739696343E+03  0.18800000000E+03 0.  0.
<mgrwt>
<rscale>  0 0.11518125E+04</rscale>
<asrwt>0</asrwt>
<pdfrwt beam="1">  1        2 0.17795146E+00 0.11518125E+04</pdfrwt>
<pdfrwt beam="2">  1       -2 0.38036972E-01 0.11518125E+04</pdfrwt>
<totfact> 0.12987157E+02</totfact>
</mgrwt>
</event>
<event>
 4    1  0.6239849E-005  0.5136896E+03  0.7818608E-02  0.1010266E+00
          2   -1    0    0  501    0  0.00000000000E+00  0.00000000000E+00  0.10862617695E+04  0.10862617695E+04  0.25500000000E-02 0.  1.
         -2   -1    0    0    0  501 -0.00000000000E+00 -0.00000000000E+00 -0.60730526059E+02  0.60730526112E+02  0.25500000000E-02 0. -1.
    5000001    1    1    2    0    0  0.16781355822E+03 -0.49622517235E+02  0.51006378442E+03  0.57108042228E+03  0.18800000000E+03 0.  0.
   -5000001    1    1    2    0    0 -0.16781355822E+03  0.49622517235E+02  0.51546745906E+03  0.57591187337E+03  0.18800000000E+03 0.  0.
<mgrwt>
<rscale>  0 0.51368959E+03</rscale>
<asrwt>0</asrwt>
<pdfrwt beam="1">  1        2 0.15518024E+00 0.51368959E+03</pdfrwt>
<pdfrwt beam="2">  1       -2 0.86757899E-02 0.51368959E+03</pdfrwt>
<totfact> 0.21597224E+03</totfact>
</mgrwt>
</event>
<event>
 4    1  0.6239849E-005  0.4012816E+03  0.7818608E-02  0.1043337E+00
         -2   -1    0    0    0  501 -0.00000000000E+00  0.00000000000E+00  0.46182243863E+02  0.46182243933E+02  0.25500000000E-02 0. -1.
          2   -1    0    0  501    0  0.00000000000E+00 -0.00000000000E+00 -0.87169285774E+03  0.87169285774E+03  0.25500000000E-02 0.  1.
    5000001    1    1    2    0    0 -0.66609514817E+02  0.85816048588E+01 -0.36687902975E+03  0.41767773926E+03  0.18800000000E+03 0.  0.
   -5000001    1    1    2    0    0  0.66609514817E+02 -0.85816048588E+01 -0.45863158413E+03  0.50019736241E+03  0.18800000000E+03 0.  0.
<mgrwt>
<rscale>  0 0.40128161E+03</rscale>
<asrwt>0</asrwt>
<pdfrwt beam="1">  1        2 0.12452754E+00 0.40128161E+03</pdfrwt>
<pdfrwt beam="2">  1       -2 0.65974640E-02 0.40128161E+03</pdfrwt>
<totfact> 0.44943834E+03</totfact>
</mgrwt>
</event>
<event>
 4    1  0.6239849E-005  0.8927878E+03  0.7818608E-02  0.9434642E-01
          2   -1    0    0  501    0  0.00000000000E+00  0.00000000000E+00  0.10668571578E+04  0.10668571578E+04  0.25500000000E-02 0.  1.
         -2   -1    0    0    0  501 -0.00000000000E+00 -0.00000000000E+00 -0.18677994065E+03  0.18677994066E+03  0.25500000000E-02 0. -1.
    5000001    1    1    2    0    0 -0.36955747262E+03  0.15889135423E+03  0.37562459438E+03  0.58159867944E+03  0.18800000000E+03 0.  0.
   -5000001    1    1    2    0    0  0.36955747262E+03 -0.15889135423E+03  0.50445262276E+03  0.67203841902E+03  0.18800000000E+03 0.  0.
<mgrwt>
<rscale>  0 0.89278781E+03</rscale>
<asrwt>0</asrwt>
<pdfrwt beam="1">  1        2 0.15240817E+00 0.89278781E+03</pdfrwt>
<pdfrwt beam="2">  1       -2 0.26682848E-01 0.89278781E+03</pdfrwt>
<totfact> 0.32548973E+02</totfact>
</mgrwt>
</event>
<event>
 4    1  0.6239849E-005  0.4346820E+03  0.7818608E-02  0.1032391E+00
         -2   -1    0    0    0  501 -0.00000000000E+00  0.00000000000E+00  0.13542884994E+03  0.13542884996E+03  0.25500000000E-02 0. -1.
          2   -1    0    0  501    0  0.00000000000E+00 -0.00000000000E+00 -0.34879652857E+03  0.34879652857E+03  0.25500000000E-02 0.  1.
    5000001    1    1    2    0    0 -0.39509677242E+02  0.98596355451E+02 -0.79151342559E+02  0.22998084906E+03  0.18800000000E+03 0.  0.
   -5000001    1    1    2    0    0  0.39509677242E+02 -0.98596355451E+02 -0.13421633607E+03  0.25424452948E+03  0.18800000000E+03 0.  0.
<mgrwt>
<rscale>  0 0.43468201E+03</rscale>
<asrwt>0</asrwt>
<pdfrwt beam="1">  1        2 0.49828075E-01 0.43468201E+03</pdfrwt>
<pdfrwt beam="2">  1       -2 0.19346979E-01 0.43468201E+03</pdfrwt>
<totfact> 0.22564477E+03</totfact>
</mgrwt>
</event>
<event>
 4    1  0.6239849E-005  0.1493899E+04  0.7818608E-02  0.8888520E-01
          2   -1    0    0  501    0  0.00000000000E+00  0.00000000000E+00  0.95276958826E+03  0.95276958826E+03  0.25500000000E-02 0.  1.
         -2   -1    0    0    0  501 -0.00000000000E+00 -0.00000000000E+00 -0.58559116787E+03  0.58559116787E+03  0.25500000000E-02 0. -1.
    5000001    1    1    2    0    0 -0.55569492781E+03  0.43150980873E+03  0.35464103219E+03  0.81000730215E+03  0.18800000000E+03 0.  0.
   -5000001    1    1    2    0    0  0.55569492781E+03 -0.43150980873E+03  0.12537388198E+02  0.72835345398E+03  0.18800000000E+03 0.  0.
<mgrwt>
<rscale>  0 0.14938989E+04</rscale>
<asrwt>0</asrwt>
<pdfrwt beam="1">  1        2 0.13610994E+00 0.14938989E+04</pdfrwt>
<pdfrwt beam="2">  1       -2 0.83655881E-01 0.14938989E+04</pdfrwt>
<totfact> 0.36389686E+01</totfact>
</mgrwt>
</event>
<event>
 4    1  0.6239849E-005  0.4597384E+03  0.7818608E-02  0.1024857E+00
          2   -1    0    0  501    0  0.00000000000E+00  0.00000000000E+00  0.35624903972E+02  0.35624904064E+02  0.25500000000E-02 0.  1.
         -2   -1    0    0    0  501 -0.00000000000E+00 -0.00000000000E+00 -0.14832281439E+04  0.14832281439E+04  0.25500000000E-02 0. -1.
    5000001    1    1    2    0    0 -0.99722429636E+02 -0.58444075874E+02 -0.51134340559E+03  0.55693478202E+03  0.18800000000E+03 0.  0.
   -5000001    1    1    2    0    0  0.99722429636E+02  0.58444075874E+02 -0.93625983433E+03  0.96191826595E+03  0.18800000000E+03 0.  0.
<mgrwt>
<rscale>  0 0.45973845E+03</rscale>
<asrwt>0</asrwt>
<pdfrwt beam="1">  1        2 0.50892729E-02 0.45973845E+03</pdfrwt>
<pdfrwt beam="2">  1       -2 0.21188970E+00 0.45973845E+03</pdfrwt>
<totfact> 0.18563191E+02</totfact>
</mgrwt>
</event>
<event>
 4    1  0.6239849E-005  0.4509185E+03  0.7818608E-02  0.1027448E+00
         -2   -1    0    0    0  501 -0.00000000000E+00  0.00000000000E+00  0.33076361858E+02  0.33076361956E+02  0.25500000000E-02 0. -1.
          2   -1    0    0  501    0  0.00000000000E+00 -0.00000000000E+00 -0.15368039531E+04  0.15368039531E+04  0.25500000000E-02 0.  1.
    5000001    1    1    2    0    0  0.18665727626E+02  0.11520226250E+03 -0.60139488533E+03  0.64081181229E+03  0.18800000000E+03 0.  0.
   -5000001    1    1    2    0    0 -0.18665727626E+02 -0.11520226250E+03 -0.90233270589E+03  0.92906850274E+03  0.18800000000E+03 0.  0.
<mgrwt>
<rscale>  0 0.45091855E+03</rscale>
<asrwt>0</asrwt>
<pdfrwt beam="1">  1        2 0.21954338E+00 0.45091855E+03</pdfrwt>
<pdfrwt beam="2">  1       -2 0.47251955E-02 0.45091855E+03</pdfrwt>
<totfact> 0.31908654E+03</totfact>
</mgrwt>
</event>
<event>
 4    1  0.6239849E-005  0.4796082E+03  0.7818608E-02  0.1019243E+00
          2   -1    0    0  501    0  0.00000000000E+00  0.00000000000E+00  0.30906575113E+03  0.30906575114E+03  0.25500000000E-02 0.  1.
         -2   -1    0    0    0  501 -0.00000000000E+00 -0.00000000000E+00 -0.18606402146E+03  0.18606402148E+03  0.25500000000E-02 0. -1.
    5000001    1    1    2    0    0  0.13681338778E+03  0.48843570978E+02  0.27914637057E+02  0.23922128765E+03  0.18800000000E+03 0.  0.
   -5000001    1    1    2    0    0 -0.13681338778E+03 -0.48843570978E+02  0.95087092615E+02  0.25590848498E+03  0.18800000000E+03 0.  0.
<mgrwt>
<rscale>  0 0.47960824E+03</rscale>
<asrwt>0</asrwt>
<pdfrwt beam="1">  1        2 0.44152250E-01 0.47960824E+03</pdfrwt>
<pdfrwt beam="2">  1       -2 0.26580574E-01 0.47960824E+03</pdfrwt>
<totfact> 0.14734353E+03</totfact>
</mgrwt>
</event>
<event>
 4    1  0.6239849E-005  0.7843694E+03  0.7818608E-02  0.9582921E-01
         -2   -1    0    0    0  501 -0.00000000000E+00  0.00000000000E+00  0.36356672750E+03  0.36356672751E+03  0.25500000000E-02 0. -1.
          2   -1    0    0  501    0  0.00000000000E+00 -0.00000000000E+00 -0.42305535901E+03  0.42305535902E+03  0.25500000000E-02 0.  1.
    5000001    1    1    2    0    0 -0.21941409702E+03 -0.70249740936E+02  0.22669942996E+03  0.37391737539E+03  0.18800000000E+03 0.  0.
   -5000001    1    1    2    0    0  0.21941409702E+03  0.70249740936E+02 -0.28618806147E+03  0.41270471114E+03  0.18800000000E+03 0.  0.
<mgrwt>
<rscale>  0 0.78436943E+03</rscale>
<asrwt>0</asrwt>
<pdfrwt beam="1">  1        2 0.60436480E-01 0.78436943E+03</pdfrwt>
<pdfrwt beam="2">  1       -2 0.51938104E-01 0.78436943E+03</pdfrwt>
<totfact> 0.28617352E+02</totfact>
</mgrwt>
</event>
<event>
 4    1  0.6239849E-005  0.7435720E+03  0.7818608E-02  0.9645489E-01
         -2   -1    0    0    0  501 -0.00000000000E+00  0.00000000000E+00  0.39104063528E+02  0.39104063611E+02  0.25500000000E-02 0. -1.
          2   -1    0    0  501    0  0.00000000000E+00 -0.00000000000E+00 -0.35347949080E+04  0.35347949080E+04  0.25500000000E-02 0.  1.
    5000001    1    1    2    0    0 -0.24816629375E+03  0.19562172134E+03 -0.14834292885E+04  0.15283196071E+04  0.18800000000E+03 0.  0.
   -5000001    1    1    2    0    0  0.24816629375E+03 -0.19562172134E+03 -0.20122615560E+04  0.20455793646E+04  0.18800000000E+03 0.  0.
<mgrwt>
<rscale>  0 0.74357204E+03</rscale>
<asrwt>0</asrwt>
<pdfrwt beam="1">  1        2 0.50497050E+00 0.74357204E+03</pdfrwt>
<pdfrwt beam="2">  1       -2 0.55862970E-02 0.74357204E+03</pdfrwt>
<totfact> 0.21221978E+02</totfact>
</mgrwt>
</event>
<event>
 4    1  0.6239849E-005  0.4731230E+03  0.7818608E-02  0.1021042E+00
         -2   -1    0    0    0  501 -0.00000000000E+00  0.00000000000E+00  0.17809574293E+02  0.17809574476E+02  0.25500000000E-02 0. -1.
          2   -1    0    0  501    0  0.00000000000E+00 -0.00000000000E+00 -0.31422053894E+04  0.31422053894E+04  0.25500000000E-02 0.  1.
    5000001    1    1    2    0    0  0.13692007755E+03 -0.36493533644E+02 -0.17171829508E+04  0.17332455602E+04  0.18800000000E+03 0.  0.
   -5000001    1    1    2    0    0 -0.13692007755E+03  0.36493533644E+02 -0.14072128644E+04  0.14267694037E+04  0.18800000000E+03 0.  0.
<mgrwt>
<rscale>  0 0.47312299E+03</rscale>
<asrwt>0</asrwt>
<pdfrwt beam="1">  1        2 0.44888613E+00 0.47312299E+03</pdfrwt>
<pdfrwt beam="2">  1       -2 0.25442269E-02 0.47312299E+03</pdfrwt>
<totfact> 0.12289524E+03</totfact>
</mgrwt>
</event>
<event>
 4    1  0.6239849E-005  0.6175980E+03  0.7818608E-02  0.9869554E-01
         -2   -1    0    0    0  501 -0.00000000000E+00  0.00000000000E+00  0.16725647975E+03  0.16725647977E+03  0.25500000000E-02 0. -1.
          2   -1    0    0  501    0  0.00000000000E+00 -0.00000000000E+00 -0.57012332549E+03  0.57012332549E+03  0.25500000000E-02 0.  1.
    5000001    1    1    2    0    0  0.16862521367E+03  0.35923389118E+02 -0.40922106452E+03  0.48221450851E+03  0.18800000000E+03 0.  0.
   -5000001    1    1    2    0    0 -0.16862521367E+03 -0.35923389118E+02  0.63542187836E+01  0.25516529675E+03  0.18800000000E+03 0.  0.
<mgrwt>
<rscale>  0 0.61759799E+03</rscale>
<asrwt>0</asrwt>
<pdfrwt beam="1">  1        2 0.81446188E-01 0.61759799E+03</pdfrwt>
<pdfrwt beam="2">  1       -2 0.23893783E-01 0.61759799E+03</pdfrwt>
<totfact> 0.89893598E+02</totfact>
</mgrwt>
</event>
<event>
 4    1  0.6239849E-005  0.4985012E+03  0.7818608E-02  0.1014171E+00
         -2   -1    0    0    0  501 -0.00000000000E+00  0.00000000000E+00  0.45498584334E+02  0.45498584405E+02  0.25500000000E-02 0.  1.
          2   -1    0    0  501    0  0.00000000000E+00 -0.00000000000E+00 -0.13654462555E+04  0.13654462555E+04  0.25500000000E-02 0. -1.
    5000001    1    1    2    0    0 -0.64561189498E+02 -0.14843801754E+03 -0.59181649427E+03  0.64171080335E+03  0.18800000000E+03 0.  0.
   -5000001    1    1    2    0    0  0.64561189498E+02  0.14843801754E+03 -0.72813117694E+03  0.76923403660E+03  0.18800000000E+03 0.  0.
<mgrwt>
<rscale>  0 0.49850124E+03</rscale>
<asrwt>0</asrwt>
<pdfrwt beam="1">  1        2 0.19506372E+00 0.49850124E+03</pdfrwt>
<pdfrwt beam="2">  1       -2 0.64997986E-02 0.49850124E+03</pdfrwt>
<totfact> 0.23890431E+03</totfact>
</mgrwt>
</event>
<event>
 4    1  0.6239849E-005  0.4901275E+03  0.7818608E-02  0.1016388E+00
         -2   -1    0    0    0  501 -0.00000000000E+00  0.00000000000E+00  0.48619349360E+02  0.48619349427E+02  0.25500000000E-02 0. -1.
          2   -1    0    0  501    0  0.00000000000E+00 -0.00000000000E+00 -0.12352333164E+04  0.12352333164E+04  0.25500000000E-02 0.  1.
    5000001    1    1    2    0    0 -0.10014170996E+03 -0.11983927760E+03 -0.54627200790E+03  0.59845377528E+03  0.18800000000E+03 0.  0.
   -5000001    1    1    2    0    0  0.10014170996E+03  0.11983927760E+03 -0.64034195909E+03  0.68539889050E+03  0.18800000000E+03 0.  0.
<mgrwt>
<rscale>  0 0.49012749E+03</rscale>
<asrwt>0</asrwt>
<pdfrwt beam="1">  1        2 0.17646188E+00 0.49012749E+03</pdfrwt>
<pdfrwt beam="2">  1       -2 0.69456221E-02 0.49012749E+03</pdfrwt>
<totfact> 0.25315124E+03</totfact>
</mgrwt>
</event>
<event>
 4    1  0.6239849E-005  0.6780287E+03  0.7818608E-02  0.9755562E-01
         -2   -1    0    0    0  501 -0.00000000000E+00  0.00000000000E+00  0.48716463316E+03  0.48716463317E+03  0.25500000000E-02 0. -1.
          2   -1    0    0  501    0  0.00000000000E+00 -0.00000000000E+00 -0.23591767193E+03  0.23591767194E+03  0.25500000000E-02 0.  1.
    5000001    1    1    2    0    0  0.12380150740E+03  0.20372500029E+03  0.28649832242E+03  0.41743978935E+03  0.18800000000E+03 0.  0.
   -5000001    1    1    2    0    0 -0.12380150740E+03 -0.20372500029E+03 -0.35251361182E+02  0.30564251577E+03  0.18800000000E+03 0.  0.
<mgrwt>
<rscale>  0 0.67802875E+03</rscale>
<asrwt>0</asrwt>
<pdfrwt beam="1">  1        2 0.33702524E-01 0.67802875E+03</pdfrwt>
<pdfrwt beam="2">  1       -2 0.69594948E-01 0.67802875E+03</pdfrwt>
<totfact> 0.29657849E+02</totfact>
</mgrwt>
</event>
<event>
 4    1  0.6239849E-005  0.7407962E+03  0.7818608E-02  0.9649901E-01
          2   -1    0    0  501    0  0.00000000000E+00  0.00000000000E+00  0.75626794146E+03  0.75626794146E+03  0.25500000000E-02 0.  1.
         -2   -1    0    0    0  501 -0.00000000000E+00 -0.00000000000E+00 -0.18141026342E+03  0.18141026344E+03  0.25500000000E-02 0. -1.
    5000001    1    1    2    0    0 -0.16539990616E+03 -0.16458773280E+03  0.56301976286E+03  0.63779424905E+03  0.18800000000E+03 0.  0.
   -5000001    1    1    2    0    0  0.16539990616E+03  0.16458773280E+03  0.11837915169E+02  0.29988395586E+03  0.18800000000E+03 0.  0.
<mgrwt>
<rscale>  0 0.74079624E+03</rscale>
<asrwt>0</asrwt>
<pdfrwt beam="1">  1        2 0.10803828E+00 0.74079624E+03</pdfrwt>
<pdfrwt beam="2">  1       -2 0.25915752E-01 0.74079624E+03</pdfrwt>
<totfact> 0.55033273E+02</totfact>
</mgrwt>
</event>
<event>
 4    1  0.6239849E-005  0.6178358E+03  0.7818608E-02  0.9869078E-01
         -2   -1    0    0    0  501 -0.00000000000E+00  0.00000000000E+00  0.90821476671E+02  0.90821476706E+02  0.25500000000E-02 0. -1.
          2   -1    0    0  501    0  0.00000000000E+00 -0.00000000000E+00 -0.10507457431E+04  0.10507457431E+04  0.25500000000E-02 0.  1.
    5000001    1    1    2    0    0  0.13624846657E+03 -0.19622331209E+03 -0.58148487632E+03  0.65615234072E+03  0.18800000000E+03 0.  0.
   -5000001    1    1    2    0    0 -0.13624846657E+03  0.19622331209E+03 -0.37843939011E+03  0.48541487908E+03  0.18800000000E+03 0.  0.
<mgrwt>
<rscale>  0 0.61783584E+03</rscale>
<asrwt>0</asrwt>
<pdfrwt beam="1">  1        2 0.15010653E+00 0.61783584E+03</pdfrwt>
<pdfrwt beam="2">  1       -2 0.12974497E-01 0.61783584E+03</pdfrwt>
<totfact> 0.11752787E+03</totfact>
</mgrwt>
</event>
<event>
 4    1  0.6239849E-005  0.9410504E+03  0.7818608E-02  0.9375673E-01
          2   -1    0    0  501    0  0.00000000000E+00  0.00000000000E+00  0.14950897566E+03  0.14950897568E+03  0.25500000000E-02 0.  1.
         -2   -1    0    0    0  501 -0.00000000000E+00 -0.00000000000E+00 -0.14808070627E+04  0.14808070627E+04  0.25500000000E-02 0. -1.
    5000001    1    1    2    0    0 -0.31906517339E+03  0.28776905250E+03 -0.59999117895E+03  0.76154253149E+03  0.18800000000E+03 0.  0.
   -5000001    1    1    2    0    0  0.31906517339E+03 -0.28776905250E+03 -0.73130690808E+03  0.86877350687E+03  0.18800000000E+03 0.  0.
<mgrwt>
<rscale>  0 0.94105036E+03</rscale>
<asrwt>0</asrwt>
<pdfrwt beam="1">  1        2 0.21358426E-01 0.94105036E+03</pdfrwt>
<pdfrwt beam="2">  1       -2 0.21154386E+00 0.94105036E+03</pdfrwt>
<totfact> 0.29633183E+01</totfact>
</mgrwt>
</event>
<event>
 4    1  0.6239849E-005  0.7230010E+03  0.7818608E-02  0.9678686E-01
          2   -1    0    0  501    0  0.00000000000E+00  0.00000000000E+00  0.19819396877E+04  0.19819396877E+04  0.25500000000E-02 0.  1.
         -2   -1    0    0    0  501 -0.00000000000E+00 -0.00000000000E+00 -0.65936725359E+02  0.65936725409E+02  0.25500000000E-02 0. -1.
    5000001    1    1    2    0    0  0.16385183305E+03  0.10360774652E+03  0.16387171474E+04  0.16608190381E+04  0.18800000000E+03 0.  0.
   -5000001    1    1    2    0    0 -0.16385183305E+03 -0.10360774652E+03  0.27728581494E+03  0.38705737494E+03  0.18800000000E+03 0.  0.
<mgrwt>
<rscale>  0 0.72300100E+03</rscale>
<asrwt>0</asrwt>
<pdfrwt beam="1">  1        2 0.28313427E+00 0.72300100E+03</pdfrwt>
<pdfrwt beam="2">  1       -2 0.94195312E-02 0.72300100E+03</pdfrwt>
<totfact> 0.63309532E+02</totfact>
</mgrwt>
</event>
<event>
 4    1  0.6239849E-005  0.5797922E+03  0.7818608E-02  0.9948241E-01
         -2   -1    0    0    0  501 -0.00000000000E+00  0.00000000000E+00  0.80244368042E+02  0.80244368082E+02  0.25500000000E-02 0. -1.
          2   -1    0    0  501    0  0.00000000000E+00 -0.00000000000E+00 -0.10472976410E+04  0.10472976410E+04  0.25500000000E-02 0.  1.
    5000001    1    1    2    0    0  0.51059416200E+02 -0.21323357579E+03 -0.43509861764E+03  0.52223598966E+03  0.18800000000E+03 0.  0.
   -5000001    1    1    2    0    0 -0.51059416200E+02  0.21323357579E+03 -0.53195465528E+03  0.60530601939E+03  0.18800000000E+03 0.  0.
<mgrwt>
<rscale>  0 0.57979216E+03</rscale>
<asrwt>0</asrwt>
<pdfrwt beam="1">  1        2 0.14961394E+00 0.57979216E+03</pdfrwt>
<pdfrwt beam="2">  1       -2 0.11463482E-01 0.57979216E+03</pdfrwt>
<totfact> 0.14494583E+03</totfact>
</mgrwt>
</event>
<event>
 4    1  0.6239849E-005  0.1151156E+04  0.7818608E-02  0.9156717E-01
          2   -1    0    0  501    0  0.00000000000E+00  0.00000000000E+00  0.19240370323E+04  0.19240370323E+04  0.25500000000E-02 0.  1.
         -2   -1    0    0    0  501 -0.00000000000E+00 -0.00000000000E+00 -0.17218499238E+03  0.17218499240E+03  0.25500000000E-02 0. -1.
    5000001    1    1    2    0    0 -0.14254429714E+03  0.31528475692E+03  0.11150230311E+03  0.40926778299E+03  0.18800000000E+03 0.  0.
   -5000001    1    1    2    0    0  0.14254429714E+03 -0.31528475692E+03  0.16403497368E+04  0.16869542417E+04  0.18800000000E+03 0.  0.
<mgrwt>
<rscale>  0 0.11511565E+04</rscale>
<asrwt>0</asrwt>
<pdfrwt beam="1">  1        2 0.27486242E+00 0.11511565E+04</pdfrwt>
<pdfrwt beam="2">  1       -2 0.24597858E-01 0.11511565E+04</pdfrwt>
<totfact> 0.12841405E+02</totfact>
</mgrwt>
</event>
<event>
 4    1  0.6239849E-005  0.4867100E+03  0.7818608E-02  0.1017307E+00
          2   -1    0    0  501    0  0.00000000000E+00  0.00000000000E+00  0.22492789610E+04  0.22492789610E+04  0.25500000000E-02 0.  1.
         -2   -1    0    0    0  501 -0.00000000000E+00 -0.00000000000E+00 -0.26329172164E+02  0.26329172287E+02  0.25500000000E-02 0. -1.
    5000001    1    1    2    0    0  0.11423429301E+03 -0.74137997822E+02  0.14528733615E+04  0.14713024574E+04  0.18800000000E+03 0.  0.
   -5000001    1    1    2    0    0 -0.11423429301E+03  0.74137997822E+02  0.77007642727E+03  0.80430567588E+03  0.18800000000E+03 0.  0.
<mgrwt>
<rscale>  0 0.48670999E+03</rscale>
<asrwt>0</asrwt>
<pdfrwt beam="1">  1        2 0.32132562E+00 0.48670999E+03</pdfrwt>
<pdfrwt beam="2">  1       -2 0.37613097E-02 0.48670999E+03</pdfrwt>
<totfact> 0.19855904E+03</totfact>
</mgrwt>
</event>
<event>
 4    1  0.6239849E-005  0.1948870E+04  0.7818608E-02  0.8630906E-01
         -2   -1    0    0    0  501 -0.00000000000E+00  0.00000000000E+00  0.12133728034E+04  0.12133728034E+04  0.25500000000E-02 0. -1.
          2   -1    0    0  501    0  0.00000000000E+00 -0.00000000000E+00 -0.78254914916E+03  0.78254914917E+03  0.25500000000E-02 0.  1.
    5000001    1    1    2    0    0  0.86109599445E+03  0.12669427858E+03  0.62074754186E+03  0.10854534825E+04  0.18800000000E+03 0.  0.
   -5000001    1    1    2    0    0 -0.86109599445E+03 -0.12669427858E+03 -0.18992388766E+03  0.91046847006E+03  0.18800000000E+03 0.  0.
<mgrwt>
<rscale>  0 0.19488703E+04</rscale>
<asrwt>0</asrwt>
<pdfrwt beam="1">  1        2 0.11179274E+00 0.19488703E+04</pdfrwt>
<pdfrwt beam="2">  1       -2 0.17333897E+00 0.19488703E+04</pdfrwt>
<totfact> 0.73863308E+00</totfact>
</mgrwt>
</event>
<event>
 4    1  0.6239849E-005  0.6947673E+03  0.7818608E-02  0.9726223E-01
          2   -1    0    0  501    0  0.00000000000E+00  0.00000000000E+00  0.19812894313E+04  0.19812894313E+04  0.25500000000E-02 0. -1.
         -2   -1    0    0    0  501 -0.00000000000E+00 -0.00000000000E+00 -0.60907509882E+02  0.60907509935E+02  0.25500000000E-02 0.  1.
    5000001    1    1    2    0    0  0.20688301831E+03  0.16023768487E+03  0.57858175537E+03  0.66225187548E+03  0.18800000000E+03 0.  0.
   -5000001    1    1    2    0    0 -0.20688301831E+03 -0.16023768487E+03  0.13418001660E+04  0.13799450657E+04  0.18800000000E+03 0.  0.
<mgrwt>
<rscale>  0 0.69476732E+03</rscale>
<asrwt>0</asrwt>
<pdfrwt beam="1">  1        2 0.28304139E+00 0.69476732E+03</pdfrwt>
<pdfrwt beam="2">  1       -2 0.87010716E-02 0.69476732E+03</pdfrwt>
<totfact> 0.72135892E+02</totfact>
</mgrwt>
</event>
<event>
 4    1  0.6239849E-005  0.6850141E+03  0.7818608E-02  0.9743209E-01
          2   -1    0    0  501    0  0.00000000000E+00  0.00000000000E+00  0.19171566402E+04  0.19171566402E+04  0.25500000000E-02 0.  1.
         -2   -1    0    0    0  501 -0.00000000000E+00 -0.00000000000E+00 -0.61190144721E+02  0.61190144774E+02  0.25500000000E-02 0. -1.
    5000001    1    1    2    0    0 -0.16020720307E+03  0.23636162504E+03  0.98814369135E+03  0.10456123184E+04  0.18800000000E+03 0.  0.
   -5000001    1    1    2    0    0  0.16020720307E+03 -0.23636162504E+03  0.86782280412E+03  0.93273446654E+03  0.18800000000E+03 0.  0.
<mgrwt>
<rscale>  0 0.68501414E+03</rscale>
<asrwt>0</asrwt>
<pdfrwt beam="1">  1        2 0.27387949E+00 0.68501414E+03</pdfrwt>
<pdfrwt beam="2">  1       -2 0.87414503E-02 0.68501414E+03</pdfrwt>
<totfact> 0.77186937E+02</totfact>
</mgrwt>
</event>
<event>
 4    1  0.6239849E-005  0.7963197E+03  0.7818608E-02  0.9565360E-01
          2   -1    0    0  501    0  0.00000000000E+00  0.00000000000E+00  0.23055882988E+03  0.23055882989E+03  0.25500000000E-02 0.  1.
         -2   -1    0    0    0  501 -0.00000000000E+00 -0.00000000000E+00 -0.68759572643E+03  0.68759572643E+03  0.25500000000E-02 0. -1.
    5000001    1    1    2    0    0  0.91400342824E+02  0.13944567704E+03 -0.58462137189E+03  0.63633738534E+03  0.18800000000E+03 0.  0.
   -5000001    1    1    2    0    0 -0.91400342824E+02 -0.13944567704E+03  0.12758447534E+03  0.28181717098E+03  0.18800000000E+03 0.  0.
<mgrwt>
<rscale>  0 0.79631970E+03</rscale>
<asrwt>0</asrwt>
<pdfrwt beam="1">  1        2 0.32936976E-01 0.79631970E+03</pdfrwt>
<pdfrwt beam="2">  1       -2 0.98227960E-01 0.79631970E+03</pdfrwt>
<totfact> 0.13900892E+02</totfact>
</mgrwt>
</event>
<event>
 4    1  0.6239849E-005  0.4689140E+03  0.7818608E-02  0.1022227E+00
         -2   -1    0    0    0  501 -0.00000000000E+00  0.00000000000E+00  0.47630110064E+02  0.47630110132E+02  0.25500000000E-02 0.  1.
          2   -1    0    0  501    0  0.00000000000E+00 -0.00000000000E+00 -0.11541034684E+04  0.11541034684E+04  0.25500000000E-02 0. -1.
    5000001    1    1    2    0    0  0.56152087576E+02  0.12762641804E+03 -0.58804890209E+03  0.63291948206E+03  0.18800000000E+03 0.  0.
   -5000001    1    1    2    0    0 -0.56152087576E+02 -0.12762641804E+03 -0.51842445627E+03  0.56881409651E+03  0.18800000000E+03 0.  0.
<mgrwt>
<rscale>  0 0.46891396E+03</rscale>
<asrwt>0</asrwt>
<pdfrwt beam="1">  1        2 0.16487191E+00 0.46891396E+03</pdfrwt>
<pdfrwt beam="2">  1       -2 0.68043022E-02 0.46891396E+03</pdfrwt>
<totfact> 0.29013260E+03</totfact>
</mgrwt>
</event>
<event>
 4    1  0.6239849E-005  0.6529880E+03  0.7818608E-02  0.9801188E-01
         -2   -1    0    0    0  501 -0.00000000000E+00  0.00000000000E+00  0.12131089463E+03  0.12131089466E+03  0.25500000000E-02 0. -1.
          2   -1    0    0  501    0  0.00000000000E+00 -0.00000000000E+00 -0.87872026635E+03  0.87872026636E+03  0.25500000000E-02 0.  1.
    5000001    1    1    2    0    0  0.45045002210E+02 -0.26310591919E+03 -0.37755381874E+03  0.49914393013E+03  0.18800000000E+03 0.  0.
   -5000001    1    1    2    0    0 -0.45045002210E+02  0.26310591919E+03 -0.37985555298E+03  0.50088723089E+03  0.18800000000E+03 0.  0.
<mgrwt>
<rscale>  0 0.65298803E+03</rscale>
<asrwt>0</asrwt>
<pdfrwt beam="1">  1        2 0.12553146E+00 0.65298803E+03</pdfrwt>
<pdfrwt beam="2">  1       -2 0.17330128E-01 0.65298803E+03</pdfrwt>
<totfact> 0.92276348E+02</totfact>
</mgrwt>
</event>
<event>
 4    1  0.6239849E-005  0.4584200E+03  0.7818608E-02  0.1025240E+00
          2   -1    0    0  501    0  0.00000000000E+00  0.00000000000E+00  0.10533146818E+04  0.10533146818E+04  0.25500000000E-02 0.  1.
         -2   -1    0    0    0  501 -0.00000000000E+00 -0.00000000000E+00 -0.49877987901E+02  0.49877987966E+02  0.25500000000E-02 0. -1.
    5000001    1    1    2    0    0 -0.11209773933E+03 -0.65328145817E+02  0.45608673685E+03  0.51009095398E+03  0.18800000000E+03 0.  0.
   -5000001    1    1    2    0    0  0.11209773933E+03  0.65328145817E+02  0.54734995709E+03  0.59310171583E+03  0.18800000000E+03 0.  0.
<mgrwt>
<rscale>  0 0.45841997E+03</rscale>
<asrwt>0</asrwt>
<pdfrwt beam="1">  1        2 0.15047352E+00 0.45841997E+03</pdfrwt>
<pdfrwt beam="2">  1       -2 0.71254270E-02 0.45841997E+03</pdfrwt>
<totfact> 0.30840777E+03</totfact>
</mgrwt>
</event>
<event>
 4    1  0.6239849E-005  0.7973819E+03  0.7818608E-02  0.9563814E-01
          2   -1    0    0  501    0  0.00000000000E+00  0.00000000000E+00  0.16371599735E+04  0.16371599735E+04  0.25500000000E-02 0.  1.
         -2   -1    0    0    0  501 -0.00000000000E+00 -0.00000000000E+00 -0.97091599101E+02  0.97091599134E+02  0.25500000000E-02 0. -1.
    5000001    1    1    2    0    0 -0.25504192545E+03 -0.23595934094E+03  0.88690083375E+03  0.97090693850E+03  0.18800000000E+03 0.  0.
   -5000001    1    1    2    0    0  0.25504192545E+03  0.23595934094E+03  0.65316754066E+03  0.76334463415E+03  0.18800000000E+03 0.  0.
<mgrwt>
<rscale>  0 0.79738192E+03</rscale>
<asrwt>0</asrwt>
<pdfrwt beam="1">  1        2 0.23387998E+00 0.79738192E+03</pdfrwt>
<pdfrwt beam="2">  1       -2 0.13870230E-01 0.79738192E+03</pdfrwt>
<totfact> 0.49939277E+02</totfact>
</mgrwt>
</event>
<event>
 4    1  0.6239849E-005  0.7331605E+03  0.7818608E-02  0.9662146E-01
          2   -1    0    0  501    0  0.00000000000E+00  0.00000000000E+00  0.13704841689E+04  0.13704841689E+04  0.25500000000E-02 0.  1.
         -2   -1    0    0    0  501 -0.00000000000E+00 -0.00000000000E+00 -0.98053739509E+02  0.98053739542E+02  0.25500000000E-02 0. -1.
    5000001    1    1    2    0    0  0.29849554905E+03 -0.28528768718E+02  0.44489117952E+03  0.56849419088E+03  0.18800000000E+03 0.  0.
   -5000001    1    1    2    0    0 -0.29849554905E+03  0.28528768718E+02  0.82753924988E+03  0.90004371757E+03  0.18800000000E+03 0.  0.
<mgrwt>
<rscale>  0 0.73316055E+03</rscale>
<asrwt>0</asrwt>
<pdfrwt beam="1">  1        2 0.19578345E+00 0.73316055E+03</pdfrwt>
<pdfrwt beam="2">  1       -2 0.14007677E-01 0.73316055E+03</pdfrwt>
<totfact> 0.68063697E+02</totfact>
</mgrwt>
</event>
<event>
 4    1  0.6239849E-005  0.4606193E+03  0.7818608E-02  0.1024602E+00
          2   -1    0    0  501    0  0.00000000000E+00  0.00000000000E+00  0.14660891899E+04  0.14660891899E+04  0.25500000000E-02 0.  1.
         -2   -1    0    0    0  501 -0.00000000000E+00 -0.00000000000E+00 -0.36179603851E+02  0.36179603941E+02  0.25500000000E-02 0. -1.
    5000001    1    1    2    0    0 -0.95619598999E+02 -0.43664701254E+02  0.98089107187E+03  0.10042614245E+04  0.18800000000E+03 0.  0.
   -5000001    1    1    2    0    0  0.95619598999E+02  0.43664701254E+02  0.44901851414E+03  0.49800736931E+03  0.18800000000E+03 0.  0.
<mgrwt>
<rscale>  0 0.46061926E+03</rscale>
<asrwt>0</asrwt>
<pdfrwt beam="1">  1        2 0.20944125E+00 0.46061926E+03</pdfrwt>
<pdfrwt beam="2">  1       -2 0.51685163E-02 0.46061926E+03</pdfrwt>
<totfact> 0.30223814E+03</totfact>
</mgrwt>
</event>
<event>
 4    1  0.6239849E-005  0.5875331E+03  0.7818608E-02  0.9931614E-01
          2   -1    0    0  501    0  0.00000000000E+00  0.00000000000E+00  0.12285820546E+04  0.12285820547E+04  0.25500000000E-02 0.  1.
         -2   -1    0    0    0  501 -0.00000000000E+00 -0.00000000000E+00 -0.70242597541E+02  0.70242597588E+02  0.25500000000E-02 0. -1.
    5000001    1    1    2    0    0  0.15553655682E+03  0.15743533135E+03  0.48086974785E+03  0.56174479834E+03  0.18800000000E+03 0.  0.
   -5000001    1    1    2    0    0 -0.15553655682E+03 -0.15743533135E+03  0.67746970925E+03  0.73707985389E+03  0.18800000000E+03 0.  0.
<mgrwt>
<rscale>  0 0.58753313E+03</rscale>
<asrwt>0</asrwt>
<pdfrwt beam="1">  1        2 0.17551172E+00 0.58753313E+03</pdfrwt>
<pdfrwt beam="2">  1       -2 0.10034657E-01 0.58753313E+03</pdfrwt>
<totfact> 0.14171301E+03</totfact>
</mgrwt>
</event>
<event>
 4    1  0.6239849E-005  0.8888392E+03  0.7818608E-02  0.9439642E-01
         -2   -1    0    0    0  501 -0.00000000000E+00  0.00000000000E+00  0.12916292219E+03  0.12916292221E+03  0.25500000000E-02 0. -1.
          2   -1    0    0  501    0  0.00000000000E+00 -0.00000000000E+00 -0.15291445001E+04  0.15291445001E+04  0.25500000000E-02 0.  1.
    5000001    1    1    2    0    0 -0.83794355690E+02 -0.28696086521E+03 -0.19660862937E+03  0.40418681986E+03  0.18800000000E+03 0.  0.
   -5000001    1    1    2    0    0  0.83794355690E+02  0.28696086521E+03 -0.12033729486E+04  0.12541206025E+04  0.18800000000E+03 0.  0.
<mgrwt>
<rscale>  0 0.88883918E+03</rscale>
<asrwt>0</asrwt>
<pdfrwt beam="1">  1        2 0.21844920E+00 0.88883918E+03</pdfrwt>
<pdfrwt beam="2">  1       -2 0.18451847E-01 0.88883918E+03</pdfrwt>
<totfact> 0.34758648E+02</totfact>
</mgrwt>
</event>
<event>
 4    1  0.6239849E-005  0.4951600E+03  0.7818608E-02  0.1015050E+00
         -2   -1    0    0    0  501 -0.00000000000E+00  0.00000000000E+00  0.11789606331E+04  0.11789606331E+04  0.25500000000E-02 0. -1.
          2   -1    0    0  501    0  0.00000000000E+00 -0.00000000000E+00 -0.51991441470E+02  0.51991441533E+02  0.25500000000E-02 0.  1.
    5000001    1    1    2    0    0  0.13472485496E+03 -0.79168594688E+02  0.46613712021E+03  0.52635184788E+03  0.18800000000E+03 0.  0.
   -5000001    1    1    2    0    0 -0.13472485496E+03  0.79168594688E+02  0.66083207143E+03  0.70460022677E+03  0.18800000000E+03 0.  0.
<mgrwt>
<rscale>  0 0.49516003E+03</rscale>
<asrwt>0</asrwt>
<pdfrwt beam="1">  1        2 0.74273473E-02 0.49516003E+03</pdfrwt>
<pdfrwt beam="2">  1       -2 0.16842298E+00 0.49516003E+03</pdfrwt>
<totfact> 0.21792123E+02</totfact>
</mgrwt>
</event>
<event>
 4    1  0.6239849E-005  0.5535509E+03  0.7818608E-02  0.1000675E+00
          2   -1    0    0  501    0  0.00000000000E+00  0.00000000000E+00  0.18318676643E+03  0.18318676645E+03  0.25500000000E-02 0. -1.
         -2   -1    0    0    0  501 -0.00000000000E+00 -0.00000000000E+00 -0.41817791919E+03  0.41817791919E+03  0.25500000000E-02 0.  1.
    5000001    1    1    2    0    0  0.16030712855E+03 -0.12095817979E+03 -0.15065060445E+03  0.31363810569E+03  0.18800000000E+03 0.  0.
   -5000001    1    1    2    0    0 -0.16030712855E+03  0.12095817979E+03 -0.84340548305E+02  0.28772657995E+03  0.18800000000E+03 0.  0.
<mgrwt>
<rscale>  0 0.55355094E+03</rscale>
<asrwt>0</asrwt>
<pdfrwt beam="1">  1        2 0.26169538E-01 0.55355094E+03</pdfrwt>
<pdfrwt beam="2">  1       -2 0.59739703E-01 0.55355094E+03</pdfrwt>
<totfact> 0.54773509E+02</totfact>
</mgrwt>
</event>
<event>
 4    1  0.6239849E-005  0.4339670E+03  0.7818608E-02  0.1032614E+00
         -2   -1    0    0    0  501 -0.00000000000E+00  0.00000000000E+00  0.52165964208E+03  0.52165964208E+03  0.25500000000E-02 0. -1.
          2   -1    0    0  501    0  0.00000000000E+00 -0.00000000000E+00 -0.90253957967E+02  0.90253958003E+02  0.25500000000E-02 0.  1.
    5000001    1    1    2    0    0  0.77834961584E+02  0.73888564841E+02  0.23661940212E+03  0.32070320035E+03  0.18800000000E+03 0.  0.
   -5000001    1    1    2    0    0 -0.77834961584E+02 -0.73888564841E+02  0.19478628199E+03  0.29121039973E+03  0.18800000000E+03 0.  0.
<mgrwt>
<rscale>  0 0.43396704E+03</rscale>
<asrwt>0</asrwt>
<pdfrwt beam="1">  1        2 0.12893423E-01 0.43396704E+03</pdfrwt>
<pdfrwt beam="2">  1       -2 0.74522806E-01 0.43396704E+03</pdfrwt>
<totfact> 0.78518450E+02</totfact>
</mgrwt>
</event>
<event>
 4    1  0.6239849E-005  0.5361414E+03  0.7818608E-02  0.1004754E+00
         -2   -1    0    0    0  501 -0.00000000000E+00  0.00000000000E+00  0.63793262795E+02  0.63793262846E+02  0.25500000000E-02 0. -1.
          2   -1    0    0  501    0  0.00000000000E+00 -0.00000000000E+00 -0.11264808528E+04  0.11264808528E+04  0.25500000000E-02 0.  1.
    5000001    1    1    2    0    0 -0.11458328865E+03  0.11881480542E+03 -0.74511295341E+03  0.78599211279E+03  0.18800000000E+03 0.  0.
   -5000001    1    1    2    0    0  0.11458328865E+03 -0.11881480542E+03 -0.31757463657E+03  0.40428200284E+03  0.18800000000E+03 0.  0.
<mgrwt>
<rscale>  0 0.53614136E+03</rscale>
<asrwt>0</asrwt>
<pdfrwt beam="1">  1        2 0.16092582E+00 0.53614136E+03</pdfrwt>
<pdfrwt beam="2">  1       -2 0.91133240E-02 0.53614136E+03</pdfrwt>
<totfact> 0.18917021E+03</totfact>
</mgrwt>
</event>
<event>
 4    1  0.6239849E-005  0.1031808E+04  0.7818608E-02  0.9274330E-01
          2   -1    0    0  501    0  0.00000000000E+00  0.00000000000E+00  0.11901352668E+04  0.11901352668E+04  0.25500000000E-02 0.  1.
         -2   -1    0    0    0  501 -0.00000000000E+00 -0.00000000000E+00 -0.22363602465E+03  0.22363602466E+03  0.25500000000E-02 0. -1.
    5000001    1    1    2    0    0 -0.36445110589E+02  0.47718071333E+03  0.42538548900E+03  0.66732787557E+03  0.18800000000E+03 0.  0.
   -5000001    1    1    2    0    0  0.36445110589E+02 -0.47718071333E+03  0.54111375310E+03  0.74644341585E+03  0.18800000000E+03 0.  0.
<mgrwt>
<rscale>  0 0.10318084E+04</rscale>
<asrwt>0</asrwt>
<pdfrwt beam="1">  1        2 0.17001932E+00 0.10318084E+04</pdfrwt>
<pdfrwt beam="2">  1       -2 0.31948003E-01 0.10318084E+04</pdfrwt>
<totfact> 0.19615618E+02</totfact>
</mgrwt>
</event>
<event>
 4    1  0.6239849E-005  0.5870339E+03  0.7818608E-02  0.9932678E-01
         -2   -1    0    0    0  501 -0.00000000000E+00  0.00000000000E+00  0.38205102548E+02  0.38205102633E+02  0.25500000000E-02 0. -1.
          2   -1    0    0  501    0  0.00000000000E+00 -0.00000000000E+00 -0.22549918937E+04  0.22549918937E+04  0.25500000000E-02 0.  1.
    5000001    1    1    2    0    0 -0.17927100011E+03  0.13638095336E+03 -0.11411562404E+04  0.11782696724E+04  0.18800000000E+03 0.  0.
   -5000001    1    1    2    0    0  0.17927100011E+03 -0.13638095336E+03 -0.10756305508E+04  0.11149273240E+04  0.18800000000E+03 0.  0.
<mgrwt>
<rscale>  0 0.58703389E+03</rscale>
<asrwt>0</asrwt>
<pdfrwt beam="1">  1        2 0.32214161E+00 0.58703389E+03</pdfrwt>
<pdfrwt beam="2">  1       -2 0.54578732E-02 0.58703389E+03</pdfrwt>
<totfact> 0.11050980E+03</totfact>
</mgrwt>
</event>
<event>
 4    1  0.6239849E-005  0.5252239E+03  0.7818608E-02  0.1007397E+00
          2   -1    0    0  501    0  0.00000000000E+00  0.00000000000E+00  0.74142873692E+03  0.74142873692E+03  0.25500000000E-02 0.  1.
         -2   -1    0    0    0  501 -0.00000000000E+00 -0.00000000000E+00 -0.93016413157E+02  0.93016413192E+02  0.25500000000E-02 0. -1.
    5000001    1    1    2    0    0  0.16154045535E+03 -0.85895489636E+02  0.30489867601E+03  0.40221953768E+03  0.18800000000E+03 0.  0.
   -5000001    1    1    2    0    0 -0.16154045535E+03  0.85895489636E+02  0.34351364775E+03  0.43222561243E+03  0.18800000000E+03 0.  0.
<mgrwt>
<rscale>  0 0.52522392E+03</rscale>
<asrwt>0</asrwt>
<pdfrwt beam="1">  1        2 0.10591839E+00 0.52522392E+03</pdfrwt>
<pdfrwt beam="2">  1       -2 0.13288059E-01 0.52522392E+03</pdfrwt>
<totfact> 0.17980024E+03</totfact>
</mgrwt>
</event>
<event>
 4    1  0.6239849E-005  0.4554288E+03  0.7818608E-02  0.1026115E+00
         -2   -1    0    0    0  501 -0.00000000000E+00  0.00000000000E+00  0.10908763430E+04  0.10908763430E+04  0.25500000000E-02 0. -1.
          2   -1    0    0  501    0  0.00000000000E+00 -0.00000000000E+00 -0.47534120683E+02  0.47534120752E+02  0.25500000000E-02 0.  1.
    5000001    1    1    2    0    0  0.11319681334E+03  0.53682287223E+02  0.45033081060E+03  0.50382253373E+03  0.18800000000E+03 0.  0.
   -5000001    1    1    2    0    0 -0.11319681334E+03 -0.53682287223E+02  0.59301141167E+03  0.63458792999E+03  0.18800000000E+03 0.  0.
<mgrwt>
<rscale>  0 0.45542880E+03</rscale>
<asrwt>0</asrwt>
<pdfrwt beam="1">  1        2 0.67905899E-02 0.45542880E+03</pdfrwt>
<pdfrwt beam="2">  1       -2 0.15583945E+00 0.45542880E+03</pdfrwt>
<totfact> 0.30226572E+02</totfact>
</mgrwt>
</event>
<event>
 4    1  0.6239849E-005  0.5334933E+03  0.7818608E-02  0.1005388E+00
         -2   -1    0    0    0  501 -0.00000000000E+00  0.00000000000E+00  0.44626556060E+03  0.44626556061E+03  0.25500000000E-02 0. -1.
          2   -1    0    0  501    0  0.00000000000E+00 -0.00000000000E+00 -0.15944267483E+03  0.15944267485E+03  0.25500000000E-02 0.  1.
    5000001    1    1    2    0    0  0.15988815883E+03 -0.10117451037E+03  0.14686820531E+03  0.30449100908E+03  0.18800000000E+03 0.  0.
   -5000001    1    1    2    0    0 -0.15988815883E+03  0.10117451037E+03  0.13995468047E+03  0.30121722638E+03  0.18800000000E+03 0.  0.
<mgrwt>
<rscale>  0 0.53349330E+03</rscale>
<asrwt>0</asrwt>
<pdfrwt beam="1">  1        2 0.22777525E-01 0.53349330E+03</pdfrwt>
<pdfrwt beam="2">  1       -2 0.63752224E-01 0.53349330E+03</pdfrwt>
<totfact> 0.55975168E+02</totfact>
</mgrwt>
</event>
<event>
 4    1  0.6239849E-005  0.6619795E+03  0.7818608E-02  0.9784557E-01
         -2   -1    0    0    0  501 -0.00000000000E+00  0.00000000000E+00  0.13763760782E+03  0.13763760784E+03  0.25500000000E-02 0. -1.
          2   -1    0    0  501    0  0.00000000000E+00 -0.00000000000E+00 -0.79596126578E+03  0.79596126579E+03  0.25500000000E-02 0.  1.
    5000001    1    1    2    0    0  0.15157919352E+03 -0.20508015163E+03 -0.19406520698E+03  0.37153657298E+03  0.18800000000E+03 0.  0.
   -5000001    1    1    2    0    0 -0.15157919352E+03  0.20508015163E+03 -0.46425845099E+03  0.56206230065E+03  0.18800000000E+03 0.  0.
<mgrwt>
<rscale>  0 0.66197947E+03</rscale>
<asrwt>0</asrwt>
<pdfrwt beam="1">  1        2 0.11370875E+00 0.66197947E+03</pdfrwt>
<pdfrwt beam="2">  1       -2 0.19662516E-01 0.66197947E+03</pdfrwt>
<totfact> 0.84387311E+02</totfact>
</mgrwt>
</event>
<event>
 4    1  0.6239849E-005  0.4177258E+03  0.7818608E-02  0.1037809E+00
          2   -1    0    0  501    0  0.00000000000E+00  0.00000000000E+00  0.31459298335E+03  0.31459298336E+03  0.25500000000E-02 0.  1.
         -2   -1    0    0    0  501 -0.00000000000E+00 -0.00000000000E+00 -0.13866714659E+03  0.13866714661E+03  0.25500000000E-02 0. -1.
    5000001    1    1    2    0    0  0.20648338358E+02 -0.79728204373E+02  0.45983744982E+02  0.21033650480E+03  0.18800000000E+03 0.  0.
   -5000001    1    1    2    0    0 -0.20648338358E+02  0.79728204373E+02  0.12994209179E+03  0.24292362517E+03  0.18800000000E+03 0.  0.
<mgrwt>
<rscale>  0 0.41772580E+03</rscale>
<asrwt>0</asrwt>
<pdfrwt beam="1">  1        2 0.44941854E-01 0.41772580E+03</pdfrwt>
<pdfrwt beam="2">  1       -2 0.19809593E-01 0.41772580E+03</pdfrwt>
<totfact> 0.24237299E+03</totfact>
</mgrwt>
</event>
<event>
 4    1  0.6239849E-005  0.7318717E+03  0.7818608E-02  0.9664228E-01
          2   -1    0    0  501    0  0.00000000000E+00  0.00000000000E+00  0.28248104072E+03  0.28248104073E+03  0.25500000000E-02 0.  1.
         -2   -1    0    0    0  501 -0.00000000000E+00 -0.00000000000E+00 -0.47404614095E+03  0.47404614096E+03  0.25500000000E-02 0. -1.
    5000001    1    1    2    0    0 -0.12131427517E+03 -0.26347494112E+03 -0.21994933322E+03  0.40970465843E+03  0.18800000000E+03 0.  0.
   -5000001    1    1    2    0    0  0.12131427517E+03  0.26347494112E+03  0.28384232984E+02  0.34682252326E+03  0.18800000000E+03 0.  0.
<mgrwt>
<rscale>  0 0.73187170E+03</rscale>
<asrwt>0</asrwt>
<pdfrwt beam="1">  1        2 0.40354435E-01 0.73187170E+03</pdfrwt>
<pdfrwt beam="2">  1       -2 0.67720877E-01 0.73187170E+03</pdfrwt>
<totfact> 0.25704406E+02</totfact>
</mgrwt>
</event>
<event>
 4    1  0.6239849E-005  0.5163910E+03  0.7818608E-02  0.1009587E+00
         -2   -1    0    0    0  501 -0.00000000000E+00  0.00000000000E+00  0.14802209063E+03  0.14802209065E+03  0.25500000000E-02 0. -1.
          2   -1    0    0  501    0  0.00000000000E+00 -0.00000000000E+00 -0.45037142591E+03  0.45037142592E+03  0.25500000000E-02 0.  1.
    5000001    1    1    2    0    0  0.57661901864E+02 -0.15687614269E+03 -0.83745883646E+02  0.26512712441E+03  0.18800000000E+03 0.  0.
   -5000001    1    1    2    0    0 -0.57661901864E+02  0.15687614269E+03 -0.21860345164E+03  0.33326639215E+03  0.18800000000E+03 0.  0.
<mgrwt>
<rscale>  0 0.51639101E+03</rscale>
<asrwt>0</asrwt>
<pdfrwt beam="1">  1        2 0.64338774E-01 0.51639101E+03</pdfrwt>
<pdfrwt beam="2">  1       -2 0.21146013E-01 0.51639101E+03</pdfrwt>
<totfact> 0.14601868E+03</totfact>
</mgrwt>
</event>
<event>
 4    1  0.6239849E-005  0.7720463E+03  0.7818608E-02  0.9601384E-01
         -2   -1    0    0    0  501 -0.00000000000E+00  0.00000000000E+00  0.87493829957E+02  0.87493829994E+02  0.25500000000E-02 0.  1.
          2   -1    0    0  501    0  0.00000000000E+00 -0.00000000000E+00 -0.17031358876E+04  0.17031358876E+04  0.25500000000E-02 0. -1.
    5000001    1    1    2    0    0 -0.19073185281E+03  0.27334219595E+03 -0.69012138109E+03  0.78911730206E+03  0.18800000000E+03 0.  0.
   -5000001    1    1    2    0    0  0.19073185281E+03 -0.27334219595E+03 -0.92552067659E+03  0.10015124156E+04  0.18800000000E+03 0.  0.
<mgrwt>
<rscale>  0 0.77204632E+03</rscale>
<asrwt>0</asrwt>
<pdfrwt beam="1">  1        2 0.24330511E+00 0.77204632E+03</pdfrwt>
<pdfrwt beam="2">  1       -2 0.12499120E-01 0.77204632E+03</pdfrwt>
<totfact> 0.55024902E+02</totfact>
</mgrwt>
</event>
<event>
 4    1  0.6239849E-005  0.6787292E+03  0.7818608E-02  0.9754316E-01
          2   -1    0    0  501    0  0.00000000000E+00  0.00000000000E+00  0.37942009698E+03  0.37942009699E+03  0.25500000000E-02 0.  1.
         -2   -1    0    0    0  501 -0.00000000000E+00 -0.00000000000E+00 -0.30353781678E+03  0.30353781679E+03  0.25500000000E-02 0. -1.
    5000001    1    1    2    0    0 -0.12410969904E+03  0.14335822592E+03 -0.17281438331E+03  0.31806227285E+03  0.18800000000E+03 0.  0.
   -5000001    1    1    2    0    0  0.12410969904E+03 -0.14335822592E+03  0.24869666350E+03  0.36489564093E+03  0.18800000000E+03 0.  0.
<mgrwt>
<rscale>  0 0.67872925E+03</rscale>
<asrwt>0</asrwt>
<pdfrwt beam="1">  1        2 0.54202871E-01 0.67872925E+03</pdfrwt>
<pdfrwt beam="2">  1       -2 0.43362545E-01 0.67872925E+03</pdfrwt>
<totfact> 0.46610060E+02</totfact>
</mgrwt>
</event>
<event>
 4    1  0.6239849E-005  0.5393499E+03  0.7818608E-02  0.1003990E+00
          2   -1    0    0  501    0  0.00000000000E+00  0.00000000000E+00  0.27159825880E+04  0.27159825880E+04  0.25500000000E-02 0.  1.
         -2   -1    0    0    0  501 -0.00000000000E+00 -0.00000000000E+00 -0.26776522983E+02  0.26776523104E+02  0.25500000000E-02 0. -1.
    5000001    1    1    2    0    0 -0.91455114034E+02 -0.93043128072E+02  0.20702088174E+04  0.20828177090E+04  0.18800000000E+03 0.  0.
   -5000001    1    1    2    0    0  0.91455114034E+02  0.93043128072E+02  0.61899724761E+03  0.65994140203E+03  0.18800000000E+03 0.  0.
<mgrwt>
<rscale>  0 0.53934987E+03</rscale>
<asrwt>0</asrwt>
<pdfrwt beam="1">  1        2 0.38799750E+00 0.53934987E+03</pdfrwt>
<pdfrwt beam="2">  1       -2 0.38252177E-02 0.53934987E+03</pdfrwt>
<totfact> 0.11142707E+03</totfact>
</mgrwt>
</event>
<event>
 4    1  0.6239849E-005  0.4189316E+03  0.7818608E-02  0.1037415E+00
          2   -1    0    0  501    0  0.00000000000E+00  0.00000000000E+00  0.91299294566E+03  0.91299294566E+03  0.25500000000E-02 0.  1.
         -2   -1    0    0    0  501 -0.00000000000E+00 -0.00000000000E+00 -0.48057245495E+02  0.48057245563E+02  0.25500000000E-02 0. -1.
    5000001    1    1    2    0    0  0.55101048794E+02  0.74132035477E+02  0.43133956732E+03  0.47950965224E+03  0.18800000000E+03 0.  0.
   -5000001    1    1    2    0    0 -0.55101048794E+02 -0.74132035477E+02  0.43359613285E+03  0.48154053898E+03  0.18800000000E+03 0.  0.
<mgrwt>
<rscale>  0 0.41893162E+03</rscale>
<asrwt>0</asrwt>
<pdfrwt beam="1">  1        2 0.13042756E+00 0.41893162E+03</pdfrwt>
<pdfrwt beam="2">  1       -2 0.68653212E-02 0.41893162E+03</pdfrwt>
<totfact> 0.39765663E+03</totfact>
</mgrwt>
</event>
<event>
 4    1  0.6239849E-005  0.7445952E+03  0.7818608E-02  0.9643868E-01
          2   -1    0    0  501    0  0.00000000000E+00  0.00000000000E+00  0.18377791122E+03  0.18377791124E+03  0.25500000000E-02 0.  1.
         -2   -1    0    0    0  501 -0.00000000000E+00 -0.00000000000E+00 -0.75420114914E+03  0.75420114915E+03  0.25500000000E-02 0. -1.
    5000001    1    1    2    0    0 -0.26314266760E+03 -0.16185870129E+03 -0.17381953934E+03  0.40124747345E+03  0.18800000000E+03 0.  0.
   -5000001    1    1    2    0    0  0.26314266760E+03  0.16185870129E+03 -0.39660369857E+03  0.53673158694E+03  0.18800000000E+03 0.  0.
<mgrwt>
<rscale>  0 0.74459522E+03</rscale>
<asrwt>0</asrwt>
<pdfrwt beam="1">  1        2 0.26253988E-01 0.74459522E+03</pdfrwt>
<pdfrwt beam="2">  1       -2 0.10774302E+00 0.74459522E+03</pdfrwt>
<totfact> 0.14442225E+02</totfact>
</mgrwt>
</event>
<event>
 4    1  0.6239849E-005  0.8078299E+03  0.7818608E-02  0.9548752E-01
         -2   -1    0    0    0  501 -0.00000000000E+00  0.00000000000E+00  0.98877689247E+03  0.98877689247E+03  0.25500000000E-02 0. -1.
          2   -1    0    0  501    0  0.00000000000E+00 -0.00000000000E+00 -0.16499908672E+03  0.16499908674E+03  0.25500000000E-02 0.  1.
    5000001    1    1    2    0    0  0.12447820164E+03 -0.13901851872E+03 -0.23624721313E+02  0.26593814824E+03  0.18800000000E+03 0.  0.
   -5000001    1    1    2    0    0 -0.12447820164E+03  0.13901851872E+03  0.84740252707E+03  0.88783783097E+03  0.18800000000E+03 0.  0.
<mgrwt>
<rscale>  0 0.80782989E+03</rscale>
<asrwt>0</asrwt>
<pdfrwt beam="1">  1        2 0.23571297E-01 0.80782989E+03</pdfrwt>
<pdfrwt beam="2">  1       -2 0.14125385E+00 0.80782989E+03</pdfrwt>
<totfact> 0.82959458E+01</totfact>
</mgrwt>
</event>
<event>
 4    1  0.6239849E-005  0.4911059E+03  0.7818608E-02  0.1016127E+00
          2   -1    0    0  501    0  0.00000000000E+00  0.00000000000E+00  0.33129602856E+03  0.33129602857E+03  0.25500000000E-02 0.  1.
         -2   -1    0    0    0  501 -0.00000000000E+00 -0.00000000000E+00 -0.18200110873E+03  0.18200110875E+03  0.25500000000E-02 0. -1.
    5000001    1    1    2    0    0  0.12181106188E+03  0.91130149763E+02  0.11910911982E+03  0.26958045444E+03  0.18800000000E+03 0.  0.
   -5000001    1    1    2    0    0 -0.12181106188E+03 -0.91130149763E+02  0.30185800011E+02  0.24371668288E+03  0.18800000000E+03 0.  0.
<mgrwt>
<rscale>  0 0.49110587E+03</rscale>
<asrwt>0</asrwt>
<pdfrwt beam="1">  1        2 0.47328004E-01 0.49110587E+03</pdfrwt>
<pdfrwt beam="2">  1       -2 0.26000159E-01 0.49110587E+03</pdfrwt>
<totfact> 0.14209409E+03</totfact>
</mgrwt>
</event>
<event>
 4    1  0.6239849E-005  0.7810614E+03  0.7818608E-02  0.9587842E-01
          2   -1    0    0  501    0  0.00000000000E+00  0.00000000000E+00  0.13035636651E+04  0.13035636651E+04  0.25500000000E-02 0.  1.
         -2   -1    0    0    0  501 -0.00000000000E+00 -0.00000000000E+00 -0.11699791392E+03  0.11699791395E+03  0.25500000000E-02 0. -1.
    5000001    1    1    2    0    0 -0.24977047431E+03  0.24879464224E+02  0.10165729414E+04  0.10638462402E+04  0.18800000000E+03 0.  0.
   -5000001    1    1    2    0    0  0.24977047431E+03 -0.24879464224E+02  0.16999280971E+03  0.35671533879E+03  0.18800000000E+03 0.  0.
<mgrwt>
<rscale>  0 0.78106140E+03</rscale>
<asrwt>0</asrwt>
<pdfrwt beam="1">  1        2 0.18622337E+00 0.78106140E+03</pdfrwt>
<pdfrwt beam="2">  1       -2 0.16713988E-01 0.78106140E+03</pdfrwt>
<totfact> 0.54743481E+02</totfact>
</mgrwt>
</event>
<event>
 4    1  0.6239849E-005  0.5427741E+03  0.7818608E-02  0.1003180E+00
          2   -1    0    0  501    0  0.00000000000E+00  0.00000000000E+00  0.18056937773E+04  0.18056937773E+04  0.25500000000E-02 0.  1.
         -2   -1    0    0    0  501 -0.00000000000E+00 -0.00000000000E+00 -0.40788154917E+02  0.40788154997E+02  0.25500000000E-02 0. -1.
    5000001    1    1    2    0    0  0.19141157171E+03 -0.28826206989E+02  0.98090797818E+03  0.10173464511E+04  0.18800000000E+03 0.  0.
   -5000001    1    1    2    0    0 -0.19141157171E+03  0.28826206989E+02  0.78399764415E+03  0.82913548111E+03  0.18800000000E+03 0.  0.
<mgrwt>
<rscale>  0 0.54277405E+03</rscale>
<asrwt>0</asrwt>
<pdfrwt beam="1">  1        2 0.25795639E+00 0.54277405E+03</pdfrwt>
<pdfrwt beam="2">  1       -2 0.58268761E-02 0.54277405E+03</pdfrwt>
<totfact> 0.16813748E+03</totfact>
</mgrwt>
</event>
<event>
 4    1  0.6239849E-005  0.7524150E+03  0.7818608E-02  0.9631569E-01
          2   -1    0    0  501    0  0.00000000000E+00  0.00000000000E+00  0.34213350192E+04  0.34213350192E+04  0.25500000000E-02 0.  1.
         -2   -1    0    0    0  501 -0.00000000000E+00 -0.00000000000E+00 -0.41367504210E+02  0.41367504289E+02  0.25500000000E-02 0. -1.
    5000001    1    1    2    0    0  0.18827381626E+03 -0.20179209900E+03  0.24873730045E+04  0.25096883361E+04  0.18800000000E+03 0.  0.
   -5000001    1    1    2    0    0 -0.18827381626E+03  0.20179209900E+03  0.89259451050E+03  0.95301418735E+03  0.18800000000E+03 0.  0.
<mgrwt>
<rscale>  0 0.75241502E+03</rscale>
<asrwt>0</asrwt>
<pdfrwt beam="1">  1        2 0.48876232E+00 0.75241502E+03</pdfrwt>
<pdfrwt beam="2">  1       -2 0.59096414E-02 0.75241502E+03</pdfrwt>
<totfact> 0.22672756E+02</totfact>
</mgrwt>
</event>
<event>
 4    1  0.6239849E-005  0.5291035E+03  0.7818608E-02  0.1006450E+00
         -2   -1    0    0    0  501 -0.00000000000E+00  0.00000000000E+00  0.57215978216E+02  0.57215978273E+02  0.25500000000E-02 0. -1.
          2   -1    0    0  501    0  0.00000000000E+00 -0.00000000000E+00 -0.12232183474E+04  0.12232183474E+04  0.25500000000E-02 0.  1.
    5000001    1    1    2    0    0  0.46119918895E+02  0.48408434301E+02 -0.16263534189E+03  0.25741926475E+03  0.18800000000E+03 0.  0.
   -5000001    1    1    2    0    0 -0.46119918895E+02 -0.48408434301E+02 -0.10033670273E+04  0.10230150609E+04  0.18800000000E+03 0.  0.
<mgrwt>
<rscale>  0 0.52910352E+03</rscale>
<asrwt>0</asrwt>
<pdfrwt beam="1">  1        2 0.17474546E+00 0.52910352E+03</pdfrwt>
<pdfrwt beam="2">  1       -2 0.81737120E-02 0.52910352E+03</pdfrwt>
<totfact> 0.19859252E+03</totfact>
</mgrwt>
</event>
<event>
 4    1  0.6239849E-005  0.1374677E+04  0.7818608E-02  0.8972355E-01
          2   -1    0    0  501    0  0.00000000000E+00  0.00000000000E+00  0.91905299483E+03  0.91905299484E+03  0.25500000000E-02 0.  1.
         -2   -1    0    0    0  501 -0.00000000000E+00 -0.00000000000E+00 -0.51404484953E+03  0.51404484953E+03  0.25500000000E-02 0. -1.
    5000001    1    1    2    0    0 -0.22270406832E+03 -0.61287389684E+03  0.88881671603E+02  0.68443806660E+03  0.18800000000E+03 0.  0.
   -5000001    1    1    2    0    0  0.22270406832E+03  0.61287389684E+03  0.31612647370E+03  0.74865977777E+03  0.18800000000E+03 0.  0.
<mgrwt>
<rscale>  0 0.13746774E+04</rscale>
<asrwt>0</asrwt>
<pdfrwt beam="1">  1        2 0.13129328E+00 0.13746774E+04</pdfrwt>
<pdfrwt beam="2">  1       -2 0.73434979E-01 0.13746774E+04</pdfrwt>
<totfact> 0.51639513E+01</totfact>
</mgrwt>
</event>
<event>
 4    1  0.6239849E-005  0.7118978E+03  0.7818608E-02  0.9697099E-01
          2   -1    0    0  501    0  0.00000000000E+00  0.00000000000E+00  0.75564796008E+03  0.75564796009E+03  0.25500000000E-02 0.  1.
         -2   -1    0    0    0  501 -0.00000000000E+00 -0.00000000000E+00 -0.16767016223E+03  0.16767016225E+03  0.25500000000E-02 0. -1.
    5000001    1    1    2    0    0 -0.17013802084E+03  0.19320352682E+03  0.88585928365E+02  0.33085648794E+03  0.18800000000E+03 0.  0.
   -5000001    1    1    2    0    0  0.17013802084E+03 -0.19320352682E+03  0.49939186949E+03  0.59246163439E+03  0.18800000000E+03 0.  0.
<mgrwt>
<rscale>  0 0.71189779E+03</rscale>
<asrwt>0</asrwt>
<pdfrwt beam="1">  1        2 0.10794971E+00 0.71189779E+03</pdfrwt>
<pdfrwt beam="2">  1       -2 0.23952880E-01 0.71189779E+03</pdfrwt>
<totfact> 0.63541296E+02</totfact>
</mgrwt>
</event>
<event>
 4    1  0.6239849E-005  0.5993521E+03  0.7818608E-02  0.9906751E-01
         -2   -1    0    0    0  501 -0.00000000000E+00  0.00000000000E+00  0.15586814817E+03  0.15586814819E+03  0.25500000000E-02 0. -1.
          2   -1    0    0  501    0  0.00000000000E+00 -0.00000000000E+00 -0.57616477306E+03  0.57616477307E+03  0.25500000000E-02 0.  1.
    5000001    1    1    2    0    0  0.65680598703E+02  0.21685796110E+03 -0.14192149760E+03  0.32684404205E+03  0.18800000000E+03 0.  0.
   -5000001    1    1    2    0    0 -0.65680598703E+02 -0.21685796110E+03 -0.27837512729E+03  0.40518887921E+03  0.18800000000E+03 0.  0.
<mgrwt>
<rscale>  0 0.59935210E+03</rscale>
<asrwt>0</asrwt>
<pdfrwt beam="1">  1        2 0.82309252E-01 0.59935210E+03</pdfrwt>
<pdfrwt beam="2">  1       -2 0.22266879E-01 0.59935210E+03</pdfrwt>
<totfact> 0.10066730E+03</totfact>
</mgrwt>
</event>
<event>
 4    1  0.6239849E-005  0.1005299E+04  0.7818608E-02  0.9302752E-01
         -2   -1    0    0    0  501 -0.00000000000E+00  0.00000000000E+00  0.20147692458E+03  0.20147692460E+03  0.25500000000E-02 0. -1.
          2   -1    0    0  501    0  0.00000000000E+00 -0.00000000000E+00 -0.12540212089E+04  0.12540212089E+04  0.25500000000E-02 0.  1.
    5000001    1    1    2    0    0 -0.85092690464E+02  0.45718517994E+03 -0.57326034710E+03  0.76172861327E+03  0.18800000000E+03 0.  0.
   -5000001    1    1    2    0    0  0.85092690464E+02 -0.45718517994E+03 -0.47928393723E+03  0.69376952024E+03  0.18800000000E+03 0.  0.
<mgrwt>
<rscale>  0 0.10052986E+04</rscale>
<asrwt>0</asrwt>
<pdfrwt beam="1">  1        2 0.17914588E+00 0.10052986E+04</pdfrwt>
<pdfrwt beam="2">  1       -2 0.28782418E-01 0.10052986E+04</pdfrwt>
<totfact> 0.21958084E+02</totfact>
</mgrwt>
</event>
<event>
 4    1  0.6239849E-005  0.8616409E+03  0.7818608E-02  0.9474845E-01
          2   -1    0    0  501    0  0.00000000000E+00  0.00000000000E+00  0.23782156282E+03  0.23782156283E+03  0.25500000000E-02 0.  1.
         -2   -1    0    0    0  501 -0.00000000000E+00 -0.00000000000E+00 -0.78044340711E+03  0.78044340712E+03  0.25500000000E-02 0. -1.
    5000001    1    1    2    0    0 -0.90339725049E+02  0.13235288578E+03 -0.68843487560E+03  0.73141310505E+03  0.18800000000E+03 0.  0.
   -5000001    1    1    2    0    0  0.90339725049E+02 -0.13235288578E+03  0.14581303130E+03  0.28685186490E+03  0.18800000000E+03 0.  0.
<mgrwt>
<rscale>  0 0.86164092E+03</rscale>
<asrwt>0</asrwt>
<pdfrwt beam="1">  1        2 0.33974509E-01 0.86164092E+03</pdfrwt>
<pdfrwt beam="2">  1       -2 0.11149191E+00 0.86164092E+03</pdfrwt>
<totfact> 0.98829653E+01</totfact>
</mgrwt>
</event>
<event>
 4    1  0.6239849E-005  0.9189362E+03  0.7818608E-02  0.9402215E-01
          2   -1    0    0  501    0  0.00000000000E+00  0.00000000000E+00  0.10192639126E+04  0.10192639126E+04  0.25500000000E-02 0.  1.
         -2   -1    0    0    0  501 -0.00000000000E+00 -0.00000000000E+00 -0.20712095517E+03  0.20712095518E+03  0.25500000000E-02 0. -1.
    5000001    1    1    2    0    0 -0.22891678367E+03 -0.19065734393E+03  0.79974436757E+03  0.87389253922E+03  0.18800000000E+03 0.  0.
   -5000001    1    1    2    0    0  0.22891678367E+03  0.19065734393E+03  0.12398589828E+02  0.35249232853E+03  0.18800000000E+03 0.  0.
<mgrwt>
<rscale>  0 0.91893616E+03</rscale>
<asrwt>0</asrwt>
<pdfrwt beam="1">  1        2 0.14560914E+00 0.91893616E+03</pdfrwt>
<pdfrwt beam="2">  1       -2 0.29588707E-01 0.91893616E+03</pdfrwt>
<totfact> 0.28718904E+02</totfact>
</mgrwt>
</event>
<event>
 4    1  0.6239849E-005  0.5078694E+03  0.7818608E-02  0.1011745E+00
          2   -1    0    0  501    0  0.00000000000E+00  0.00000000000E+00  0.34278285672E+03  0.34278285673E+03  0.25500000000E-02 0.  1.
         -2   -1    0    0    0  501 -0.00000000000E+00 -0.00000000000E+00 -0.18811565997E+03  0.18811565998E+03  0.25500000000E-02 0. -1.
    5000001    1    1    2    0    0 -0.30392567928E+02  0.10003922130E+03 -0.63719263603E+02  0.22435618676E+03  0.18800000000E+03 0.  0.
   -5000001    1    1    2    0    0  0.30392567928E+02 -0.10003922130E+03  0.21838646036E+03  0.30654232995E+03  0.18800000000E+03 0.  0.
<mgrwt>
<rscale>  0 0.50786937E+03</rscale>
<asrwt>0</asrwt>
<pdfrwt beam="1">  1        2 0.48968980E-01 0.50786937E+03</pdfrwt>
<pdfrwt beam="2">  1       -2 0.26873665E-01 0.50786937E+03</pdfrwt>
<totfact> 0.12896655E+03</totfact>
</mgrwt>
</event>
<event>
 4    1  0.6239849E-005  0.5466366E+03  0.7818608E-02  0.1002275E+00
         -2   -1    0    0    0  501 -0.00000000000E+00  0.00000000000E+00  0.34550782600E+02  0.34550782695E+02  0.25500000000E-02 0. -1.
          2   -1    0    0  501    0  0.00000000000E+00 -0.00000000000E+00 -0.21621188024E+04  0.21621188024E+04  0.25500000000E-02 0.  1.
    5000001    1    1    2    0    0  0.18757751185E+03  0.64214099597E+02 -0.10922342348E+04  0.11258900466E+04  0.18800000000E+03 0.  0.
   -5000001    1    1    2    0    0 -0.18757751185E+03 -0.64214099597E+02 -0.10353337851E+04  0.10707795385E+04  0.18800000000E+03 0.  0.
<mgrwt>
<rscale>  0 0.54663661E+03</rscale>
<asrwt>0</asrwt>
<pdfrwt beam="1">  1        2 0.30887403E+00 0.54663661E+03</pdfrwt>
<pdfrwt beam="2">  1       -2 0.49358274E-02 0.54663661E+03</pdfrwt>
<totfact> 0.14419328E+03</totfact>
</mgrwt>
</event>
<event>
 4    1  0.6239849E-005  0.6109281E+03  0.7818608E-02  0.9882989E-01
         -2   -1    0    0    0  501 -0.00000000000E+00  0.00000000000E+00  0.63253851128E+03  0.63253851128E+03  0.25500000000E-02 0. -1.
          2   -1    0    0  501    0  0.00000000000E+00 -0.00000000000E+00 -0.14751402290E+03  0.14751402293E+03  0.25500000000E-02 0.  1.
    5000001    1    1    2    0    0 -0.14254776781E+03  0.18055307595E+03  0.15182103118E+03  0.33363588664E+03  0.18800000000E+03 0.  0.
   -5000001    1    1    2    0    0  0.14254776781E+03 -0.18055307595E+03  0.33320345719E+03  0.44641664757E+03  0.18800000000E+03 0.  0.
<mgrwt>
<rscale>  0 0.61092815E+03</rscale>
<asrwt>0</asrwt>
<pdfrwt beam="1">  1        2 0.21073432E-01 0.61092815E+03</pdfrwt>
<pdfrwt beam="2">  1       -2 0.90362643E-01 0.61092815E+03</pdfrwt>
<totfact> 0.28285256E+02</totfact>
</mgrwt>
</event>
<event>
 4    1  0.6239849E-005  0.5075133E+03  0.7818608E-02  0.1011836E+00
          2   -1    0    0  501    0  0.00000000000E+00  0.00000000000E+00  0.14606947904E+04  0.14606947904E+04  0.25500000000E-02 0.  1.
         -2   -1    0    0    0  501 -0.00000000000E+00 -0.00000000000E+00 -0.44083430046E+02  0.44083430119E+02  0.25500000000E-02 0. -1.
    5000001    1    1    2    0    0 -0.42810597576E+02 -0.16091323101E+03  0.81613648805E+03  0.85390197465E+03  0.18800000000E+03 0.  0.
   -5000001    1    1    2    0    0  0.42810597576E+02  0.16091323101E+03  0.60047487234E+03  0.65087624591E+03  0.18800000000E+03 0.  0.
<mgrwt>
<rscale>  0 0.50751330E+03</rscale>
<asrwt>0</asrwt>
<pdfrwt beam="1">  1        2 0.20867071E+00 0.50751330E+03</pdfrwt>
<pdfrwt beam="2">  1       -2 0.62976322E-02 0.50751330E+03</pdfrwt>
<totfact> 0.22362156E+03</totfact>
</mgrwt>
</event>
<event>
 4    1  0.6239849E-005  0.1596869E+04  0.7818608E-02  0.8822474E-01
         -2   -1    0    0    0  501 -0.00000000000E+00  0.00000000000E+00  0.37302331251E+03  0.37302331252E+03  0.25500000000E-02 0. -1.
          2   -1    0    0  501    0  0.00000000000E+00 -0.00000000000E+00 -0.17090019104E+04  0.17090019104E+04  0.25500000000E-02 0.  1.
    5000001    1    1    2    0    0 -0.74276613135E+03  0.20735522665E+03 -0.55540833699E+03  0.96877248965E+03  0.18800000000E+03 0.  0.
   -5000001    1    1    2    0    0  0.74276613135E+03 -0.20735522665E+03 -0.78057026086E+03  0.11132527332E+04  0.18800000000E+03 0.  0.
<mgrwt>
<rscale>  0 0.15968689E+04</rscale>
<asrwt>0</asrwt>
<pdfrwt beam="1">  1        2 0.24414313E+00 0.15968689E+04</pdfrwt>
<pdfrwt beam="2">  1       -2 0.53289046E-01 0.15968689E+04</pdfrwt>
<totfact> 0.36195685E+01</totfact>
</mgrwt>
</event>
<event>
 4    1  0.6239849E-005  0.1111022E+04  0.7818608E-02  0.9194515E-01
         -2   -1    0    0    0  501 -0.00000000000E+00  0.00000000000E+00  0.30159001777E+03  0.30159001778E+03  0.25500000000E-02 0. -1.
          2   -1    0    0  501    0  0.00000000000E+00 -0.00000000000E+00 -0.10232186312E+04  0.10232186312E+04  0.25500000000E-02 0.  1.
    5000001    1    1    2    0    0 -0.16068664153E+03 -0.49086647602E+03 -0.45679091113E+03  0.71468316795E+03  0.18800000000E+03 0.  0.
   -5000001    1    1    2    0    0  0.16068664153E+03  0.49086647602E+03 -0.26483770227E+03  0.61012548102E+03  0.18800000000E+03 0.  0.
<mgrwt>
<rscale>  0 0.11110221E+04</rscale>
<asrwt>0</asrwt>
<pdfrwt beam="1">  1        2 0.14617409E+00 0.11110221E+04</pdfrwt>
<pdfrwt beam="2">  1       -2 0.43084289E-01 0.11110221E+04</pdfrwt>
<totfact> 0.13760894E+02</totfact>
</mgrwt>
</event>
<event>
 4    1  0.6239849E-005  0.5012247E+03  0.7818608E-02  0.1013460E+00
         -2   -1    0    0    0  501 -0.00000000000E+00  0.00000000000E+00  0.17105594471E+03  0.17105594473E+03  0.25500000000E-02 0. -1.
          2   -1    0    0  501    0  0.00000000000E+00 -0.00000000000E+00 -0.36716970398E+03  0.36716970398E+03  0.25500000000E-02 0.  1.
    5000001    1    1    2    0    0  0.68705639935E+01  0.15533654607E+03 -0.15961139907E+03  0.29154149946E+03  0.18800000000E+03 0.  0.
   -5000001    1    1    2    0    0 -0.68705639935E+01 -0.15533654607E+03 -0.36502360191E+02  0.24668414925E+03  0.18800000000E+03 0.  0.
<mgrwt>
<rscale>  0 0.50122474E+03</rscale>
<asrwt>0</asrwt>
<pdfrwt beam="1">  1        2 0.52452815E-01 0.50122474E+03</pdfrwt>
<pdfrwt beam="2">  1       -2 0.24436564E-01 0.50122474E+03</pdfrwt>
<totfact> 0.14182845E+03</totfact>
</mgrwt>
</event>
<event>
 4    1  0.6239849E-005  0.5030414E+03  0.7818608E-02  0.1012988E+00
         -2   -1    0    0    0  501 -0.00000000000E+00  0.00000000000E+00  0.97032714106E+02  0.97032714140E+02  0.25500000000E-02 0. -1.
          2   -1    0    0  501    0  0.00000000000E+00 -0.00000000000E+00 -0.65197259585E+03  0.65197259585E+03  0.25500000000E-02 0.  1.
    5000001    1    1    2    0    0 -0.18331118922E+02  0.15706241432E+03 -0.19709349644E+03  0.31495154905E+03  0.18800000000E+03 0.  0.
   -5000001    1    1    2    0    0  0.18331118922E+02 -0.15706241432E+03 -0.35784638531E+03  0.43405376094E+03  0.18800000000E+03 0.  0.
<mgrwt>
<rscale>  0 0.50304143E+03</rscale>
<asrwt>0</asrwt>
<pdfrwt beam="1">  1        2 0.93138940E-01 0.50304143E+03</pdfrwt>
<pdfrwt beam="2">  1       -2 0.13861817E-01 0.50304143E+03</pdfrwt>
<totfact> 0.19595126E+03</totfact>
</mgrwt>
</event>
<event>
 4    1  0.6239849E-005  0.4426576E+03  0.7818608E-02  0.1029935E+00
         -2   -1    0    0    0  501 -0.00000000000E+00  0.00000000000E+00  0.21435937160E+02  0.21435937311E+02  0.25500000000E-02 0. -1.
          2   -1    0    0  501    0  0.00000000000E+00 -0.00000000000E+00 -0.22852480025E+04  0.22852480025E+04  0.25500000000E-02 0.  1.
    5000001    1    1    2    0    0  0.12485357459E+02  0.89220976361E+02 -0.74453053141E+03  0.77316620397E+03  0.18800000000E+03 0.  0.
   -5000001    1    1    2    0    0 -0.12485357459E+02 -0.89220976361E+02 -0.15192815339E+04  0.15335177358E+04  0.18800000000E+03 0.  0.
<mgrwt>
<rscale>  0 0.44265758E+03</rscale>
<asrwt>0</asrwt>
<pdfrwt beam="1">  1        2 0.32646385E+00 0.44265758E+03</pdfrwt>
<pdfrwt beam="2">  1       -2 0.30622782E-02 0.44265758E+03</pdfrwt>
<totfact> 0.26080130E+03</totfact>
</mgrwt>
</event>
<event>
 4    1  0.6239849E-005  0.8458986E+03  0.7818608E-02  0.9495858E-01
          2   -1    0    0  501    0  0.00000000000E+00  0.00000000000E+00  0.79440740536E+03  0.79440740537E+03  0.25500000000E-02 0.  1.
         -2   -1    0    0    0  501 -0.00000000000E+00 -0.00000000000E+00 -0.22518182385E+03  0.22518182387E+03  0.25500000000E-02 0. -1.
    5000001    1    1    2    0    0  0.37192016494E+03 -0.59770532757E+02  0.23572644105E+03  0.48250189708E+03  0.18800000000E+03 0.  0.
   -5000001    1    1    2    0    0 -0.37192016494E+03  0.59770532757E+02  0.33349914046E+03  0.53708733215E+03  0.18800000000E+03 0.  0.
<mgrwt>
<rscale>  0 0.84589860E+03</rscale>
<asrwt>0</asrwt>
<pdfrwt beam="1">  1        2 0.11348677E+00 0.84589860E+03</pdfrwt>
<pdfrwt beam="2">  1       -2 0.32168832E-01 0.84589860E+03</pdfrwt>
<totfact> 0.34560105E+02</totfact>
</mgrwt>
</event>
<event>
 4    1  0.6239849E-005  0.4078491E+03  0.7818608E-02  0.1041095E+00
         -2   -1    0    0    0  501 -0.00000000000E+00  0.00000000000E+00  0.31224999835E+02  0.31224999939E+02  0.25500000000E-02 0. -1.
          2   -1    0    0  501    0  0.00000000000E+00 -0.00000000000E+00 -0.13317925730E+04  0.13317925730E+04  0.25500000000E-02 0.  1.
    5000001    1    1    2    0    0 -0.72866443315E+02  0.28717773952E+02 -0.68485235018E+03  0.71449350638E+03  0.18800000000E+03 0.  0.
   -5000001    1    1    2    0    0  0.72866443315E+02 -0.28717773952E+02 -0.61571522298E+03  0.64852406657E+03  0.18800000000E+03 0.  0.
<mgrwt>
<rscale>  0 0.40784910E+03</rscale>
<asrwt>0</asrwt>
<pdfrwt beam="1">  1        2 0.19025605E+00 0.40784910E+03</pdfrwt>
<pdfrwt beam="2">  1       -2 0.44607151E-02 0.40784910E+03</pdfrwt>
<totfact> 0.44570542E+03</totfact>
</mgrwt>
</event>
<event>
 4    1  0.6239849E-005  0.4189322E+03  0.7818608E-02  0.1037414E+00
          2   -1    0    0  501    0  0.00000000000E+00  0.00000000000E+00  0.11190236229E+04  0.11190236229E+04  0.25500000000E-02 0.  1.
         -2   -1    0    0    0  501 -0.00000000000E+00 -0.00000000000E+00 -0.39209225041E+02  0.39209225124E+02  0.25500000000E-02 0. -1.
    5000001    1    1    2    0    0 -0.66191868922E+02 -0.64224108970E+02  0.52582352515E+03  0.56598628895E+03  0.18800000000E+03 0.  0.
   -5000001    1    1    2    0    0  0.66191868922E+02  0.64224108970E+02  0.55399087267E+03  0.59224655903E+03  0.18800000000E+03 0.  0.
<mgrwt>
<rscale>  0 0.41893221E+03</rscale>
<asrwt>0</asrwt>
<pdfrwt beam="1">  1        2 0.15986051E+00 0.41893221E+03</pdfrwt>
<pdfrwt beam="2">  1       -2 0.56013180E-02 0.41893221E+03</pdfrwt>
<totfact> 0.41100093E+03</totfact>
</mgrwt>
</event>
<event>
 4    1  0.6239849E-005  0.1238819E+04  0.7818608E-02  0.9079541E-01
         -2   -1    0    0    0  501 -0.00000000000E+00  0.00000000000E+00  0.72074382488E+03  0.72074382488E+03  0.25500000000E-02 0. -1.
          2   -1    0    0  501    0  0.00000000000E+00 -0.00000000000E+00 -0.53232250884E+03  0.53232250885E+03  0.25500000000E-02 0.  1.
    5000001    1    1    2    0    0 -0.24765745306E+03  0.48614046646E+02  0.63385042349E+03  0.70767782143E+03  0.18800000000E+03 0.  0.
   -5000001    1    1    2    0    0  0.24765745306E+03 -0.48614046646E+02 -0.44542910745E+03  0.54538851230E+03  0.18800000000E+03 0.  0.
<mgrwt>
<rscale>  0 0.12388191E+04</rscale>
<asrwt>0</asrwt>
<pdfrwt beam="1">  1        2 0.76046073E-01 0.12388191E+04</pdfrwt>
<pdfrwt beam="2">  1       -2 0.10296340E+00 0.12388191E+04</pdfrwt>
<totfact> 0.47420355E+01</totfact>
</mgrwt>
</event>
<event>
 4    1  0.6239849E-005  0.3978345E+03  0.7818608E-02  0.1044532E+00
          2   -1    0    0  501    0  0.00000000000E+00  0.00000000000E+00  0.12084262270E+04  0.12084262270E+04  0.25500000000E-02 0.  1.
         -2   -1    0    0    0  501 -0.00000000000E+00 -0.00000000000E+00 -0.32743465411E+02  0.32743465510E+02  0.25500000000E-02 0. -1.
    5000001    1    1    2    0    0  0.56782317532E+02 -0.29350710199E+02  0.55114320350E+03  0.58582294811E+03  0.18800000000E+03 0.  0.
   -5000001    1    1    2    0    0 -0.56782317532E+02  0.29350710199E+02  0.62453955806E+03  0.65534674437E+03  0.18800000000E+03 0.  0.
<mgrwt>
<rscale>  0 0.39783445E+03</rscale>
<asrwt>0</asrwt>
<pdfrwt beam="1">  1        2 0.17263233E+00 0.39783445E+03</pdfrwt>
<pdfrwt beam="2">  1       -2 0.46776376E-02 0.39783445E+03</pdfrwt>
<totfact> 0.48311206E+03</totfact>
</mgrwt>
</event>
<event>
 4    1  0.6239849E-005  0.4825265E+03  0.7818608E-02  0.1018443E+00
          2   -1    0    0  501    0  0.00000000000E+00  0.00000000000E+00  0.98383969780E+03  0.98383969780E+03  0.25500000000E-02 0.  1.
         -2   -1    0    0    0  501 -0.00000000000E+00 -0.00000000000E+00 -0.59164062304E+02  0.59164062359E+02  0.25500000000E-02 0. -1.
    5000001    1    1    2    0    0 -0.28946279679E+02  0.14747790264E+03  0.49826987961E+03  0.55335747199E+03  0.18800000000E+03 0.  0.
   -5000001    1    1    2    0    0  0.28946279679E+02 -0.14747790264E+03  0.42640575588E+03  0.48964628817E+03  0.18800000000E+03 0.  0.
<mgrwt>
<rscale>  0 0.48252649E+03</rscale>
<asrwt>0</asrwt>
<pdfrwt beam="1">  1        2 0.14054852E+00 0.48252649E+03</pdfrwt>
<pdfrwt beam="2">  1       -2 0.84520093E-02 0.48252649E+03</pdfrwt>
<totfact> 0.25910451E+03</totfact>
</mgrwt>
</event>
<event>
 4    1  0.6239849E-005  0.4589971E+03  0.7818608E-02  0.1025072E+00
          2   -1    0    0  501    0  0.00000000000E+00  0.00000000000E+00  0.12750311308E+04  0.12750311308E+04  0.25500000000E-02 0.  1.
         -2   -1    0    0    0  501 -0.00000000000E+00 -0.00000000000E+00 -0.41308470065E+02  0.41308470144E+02  0.25500000000E-02 0. -1.
    5000001    1    1    2    0    0 -0.11816913520E+03 -0.27580142866E+02  0.76312154983E+03  0.79525034335E+03  0.18800000000E+03 0.  0.
   -5000001    1    1    2    0    0  0.11816913520E+03  0.27580142866E+02  0.47060111095E+03  0.52108925763E+03  0.18800000000E+03 0.  0.
<mgrwt>
<rscale>  0 0.45899710E+03</rscale>
<asrwt>0</asrwt>
<pdfrwt beam="1">  1        2 0.18214729E+00 0.45899710E+03</pdfrwt>
<pdfrwt beam="2">  1       -2 0.59012106E-02 0.45899710E+03</pdfrwt>
<totfact> 0.31069682E+03</totfact>
</mgrwt>
</event>
<event>
 4    1  0.6239849E-005  0.4258835E+03  0.7818608E-02  0.1035168E+00
         -2   -1    0    0    0  501 -0.00000000000E+00  0.00000000000E+00  0.16622652789E+04  0.16622652789E+04  0.25500000000E-02 0. -1.
          2   -1    0    0  501    0  0.00000000000E+00 -0.00000000000E+00 -0.27278553535E+02  0.27278553654E+02  0.25500000000E-02 0.  1.
    5000001    1    1    2    0    0  0.67432639850E+01  0.96672245462E+02  0.71957642722E+03  0.75001681932E+03  0.18800000000E+03 0.  0.
   -5000001    1    1    2    0    0 -0.67432639850E+01 -0.96672245462E+02  0.91541029816E+03  0.93952701325E+03  0.18800000000E+03 0.  0.
<mgrwt>
<rscale>  0 0.42588352E+03</rscale>
<asrwt>0</asrwt>
<pdfrwt beam="1">  1        2 0.38969367E-02 0.42588352E+03</pdfrwt>
<pdfrwt beam="2">  1       -2 0.23746644E+00 0.42588352E+03</pdfrwt>
<totfact> 0.18583416E+02</totfact>
</mgrwt>
</event>
<event>
 4    1  0.6239849E-005  0.4179276E+03  0.7818608E-02  0.1037743E+00
          2   -1    0    0  501    0  0.00000000000E+00  0.00000000000E+00  0.44935961083E+03  0.44935961084E+03  0.25500000000E-02 0.  1.
         -2   -1    0    0    0  501 -0.00000000000E+00 -0.00000000000E+00 -0.97173531721E+02  0.97173531754E+02  0.25500000000E-02 0. -1.
    5000001    1    1    2    0    0  0.32820830605E+02 -0.62129132471E+02  0.25217308024E+03  0.32229256650E+03  0.18800000000E+03 0.  0.
   -5000001    1    1    2    0    0 -0.32820830605E+02  0.62129132471E+02  0.10001299887E+03  0.22424057609E+03  0.18800000000E+03 0.  0.
<mgrwt>
<rscale>  0 0.41792756E+03</rscale>
<asrwt>0</asrwt>
<pdfrwt beam="1">  1        2 0.64194230E-01 0.41792756E+03</pdfrwt>
<pdfrwt beam="2">  1       -2 0.13881933E-01 0.41792756E+03</pdfrwt>
<totfact> 0.29885048E+03</totfact>
</mgrwt>
</event>
<event>
 4    1  0.6239849E-005  0.5067121E+03  0.7818608E-02  0.1012042E+00
          2   -1    0    0  501    0  0.00000000000E+00  0.00000000000E+00  0.27035079060E+04  0.27035079060E+04  0.25500000000E-02 0.  1.
         -2   -1    0    0    0  501 -0.00000000000E+00 -0.00000000000E+00 -0.23742962120E+02  0.23742962257E+02  0.25500000000E-02 0. -1.
    5000001    1    1    2    0    0 -0.30949238208E+01 -0.15149167627E+03  0.17528093869E+04  0.17693626122E+04  0.18800000000E+03 0.  0.
   -5000001    1    1    2    0    0  0.30949238208E+01  0.15149167627E+03  0.92695555690E+03  0.95788825601E+03  0.18800000000E+03 0.  0.
<mgrwt>
<rscale>  0 0.50671209E+03</rscale>
<asrwt>0</asrwt>
<pdfrwt beam="1">  1        2 0.38621546E+00 0.50671209E+03</pdfrwt>
<pdfrwt beam="2">  1       -2 0.33918514E-02 0.50671209E+03</pdfrwt>
<totfact> 0.13621822E+03</totfact>
</mgrwt>
</event>
<event>
 4    1  0.6239849E-005  0.4957169E+03  0.7818608E-02  0.1014903E+00
         -2   -1    0    0    0  501 -0.00000000000E+00  0.00000000000E+00  0.26194228142E+02  0.26194228267E+02  0.25500000000E-02 0. -1.
          2   -1    0    0  501    0  0.00000000000E+00 -0.00000000000E+00 -0.23453183835E+04  0.23453183835E+04  0.25500000000E-02 0.  1.
    5000001    1    1    2    0    0  0.12892398066E+03 -0.95681468604E+02 -0.12442631380E+04  0.12685862575E+04  0.18800000000E+03 0.  0.
   -5000001    1    1    2    0    0 -0.12892398066E+03  0.95681468604E+02 -0.10748610174E+04  0.11029263543E+04  0.18800000000E+03 0.  0.
<mgrwt>
<rscale>  0 0.49571687E+03</rscale>
<asrwt>0</asrwt>
<pdfrwt beam="1">  1        2 0.33504535E+00 0.49571687E+03</pdfrwt>
<pdfrwt beam="2">  1       -2 0.37420341E-02 0.49571687E+03</pdfrwt>
<totfact> 0.17898195E+03</totfact>
</mgrwt>
</event>
<event>
 4    1  0.6239849E-005  0.4770991E+03  0.7818608E-02  0.1019935E+00
         -2   -1    0    0    0  501 -0.00000000000E+00  0.00000000000E+00  0.80016596854E+03  0.80016596855E+03  0.25500000000E-02 0. -1.
          2   -1    0    0  501    0  0.00000000000E+00 -0.00000000000E+00 -0.71117614125E+02  0.71117614171E+02  0.25500000000E-02 0.  1.
    5000001    1    1    2    0    0 -0.43563435699E+02  0.53724874362E+02  0.12797693420E+03  0.23771039258E+03  0.18800000000E+03 0.  0.
   -5000001    1    1    2    0    0  0.43563435699E+02 -0.53724874362E+02  0.60107142022E+03  0.63357319014E+03  0.18800000000E+03 0.  0.
<mgrwt>
<rscale>  0 0.47709913E+03</rscale>
<asrwt>0</asrwt>
<pdfrwt beam="1">  1        2 0.10159659E-01 0.47709913E+03</pdfrwt>
<pdfrwt beam="2">  1       -2 0.11430943E+00 0.47709913E+03</pdfrwt>
<totfact> 0.39412741E+02</totfact>
</mgrwt>
</event>
<event>
 4    1  0.6239849E-005  0.5401196E+03  0.7818608E-02  0.1003807E+00
          2   -1    0    0  501    0  0.00000000000E+00  0.00000000000E+00  0.12345621051E+04  0.12345621051E+04  0.25500000000E-02 0.  1.
         -2   -1    0    0    0  501 -0.00000000000E+00 -0.00000000000E+00 -0.59075436617E+02  0.59075436672E+02  0.25500000000E-02 0. -1.
    5000001    1    1    2    0    0  0.15732663385E+03  0.82881961693E+02  0.40272780015E+03  0.47870112838E+03  0.18800000000E+03 0.  0.
   -5000001    1    1    2    0    0 -0.15732663385E+03 -0.82881961693E+02  0.77275886829E+03  0.81493641335E+03  0.18800000000E+03 0.  0.
<mgrwt>
<rscale>  0 0.54011960E+03</rscale>
<asrwt>0</asrwt>
<pdfrwt beam="1">  1        2 0.17636601E+00 0.54011960E+03</pdfrwt>
<pdfrwt beam="2">  1       -2 0.84393485E-02 0.54011960E+03</pdfrwt>
<totfact> 0.18598293E+03</totfact>
</mgrwt>
</event>
<event>
 4    1  0.6239849E-005  0.4098530E+03  0.7818608E-02  0.1040420E+00
          2   -1    0    0  501    0  0.00000000000E+00  0.00000000000E+00  0.22997605961E+04  0.22997605961E+04  0.25500000000E-02 0.  1.
         -2   -1    0    0    0  501 -0.00000000000E+00 -0.00000000000E+00 -0.18260541410E+02  0.18260541588E+02  0.25500000000E-02 0. -1.
    5000001    1    1    2    0    0 -0.54264493398E+02 -0.59096705743E+02  0.10580489209E+04  0.10776124419E+04  0.18800000000E+03 0.  0.
   -5000001    1    1    2    0    0  0.54264493398E+02  0.59096705743E+02  0.12234511337E+04  0.12404086958E+04  0.18800000000E+03 0.  0.
<mgrwt>
<rscale>  0 0.40985302E+03</rscale>
<asrwt>0</asrwt>
<pdfrwt beam="1">  1        2 0.32853691E+00 0.40985302E+03</pdfrwt>
<pdfrwt beam="2">  1       -2 0.26086513E-02 0.40985302E+03</pdfrwt>
<totfact> 0.32688736E+03</totfact>
</mgrwt>
</event>
<event>
 4    1  0.6239849E-005  0.4521123E+03  0.7818608E-02  0.1027094E+00
          2   -1    0    0  501    0  0.00000000000E+00  0.00000000000E+00  0.45805859340E+03  0.45805859341E+03  0.25500000000E-02 0.  1.
         -2   -1    0    0    0  501 -0.00000000000E+00 -0.00000000000E+00 -0.11156080353E+03  0.11156080356E+03  0.25500000000E-02 0. -1.
    5000001    1    1    2    0    0  0.11524978152E+03 -0.40519666802E+02  0.20961263596E+03  0.30692965430E+03  0.18800000000E+03 0.  0.
   -5000001    1    1    2    0    0 -0.11524978152E+03  0.40519666802E+02  0.13688515391E+03  0.26268974266E+03  0.18800000000E+03 0.  0.
<mgrwt>
<rscale>  0 0.45211231E+03</rscale>
<asrwt>0</asrwt>
<pdfrwt beam="1">  1        2 0.65436941E-01 0.45211231E+03</pdfrwt>
<pdfrwt beam="2">  1       -2 0.15937258E-01 0.45211231E+03</pdfrwt>
<totfact> 0.23253817E+03</totfact>
</mgrwt>
</event>
<event>
 4    1  0.6239849E-005  0.7169377E+03  0.7818608E-02  0.9688697E-01
         -2   -1    0    0    0  501 -0.00000000000E+00  0.00000000000E+00  0.20427611959E+03  0.20427611961E+03  0.25500000000E-02 0. -1.
          2   -1    0    0  501    0  0.00000000000E+00 -0.00000000000E+00 -0.62905015079E+03  0.62905015079E+03  0.25500000000E-02 0.  1.
    5000001    1    1    2    0    0 -0.18264953709E+03 -0.18482408201E+03 -0.39848916846E+03  0.51152557323E+03  0.18800000000E+03 0.  0.
   -5000001    1    1    2    0    0  0.18264953709E+03  0.18482408201E+03 -0.26284862741E+02  0.32180069717E+03  0.18800000000E+03 0.  0.
<mgrwt>
<rscale>  0 0.71693772E+03</rscale>
<asrwt>0</asrwt>
<pdfrwt beam="1">  1        2 0.89864307E-01 0.71693772E+03</pdfrwt>
<pdfrwt beam="2">  1       -2 0.29182303E-01 0.71693772E+03</pdfrwt>
<totfact> 0.55569805E+02</totfact>
</mgrwt>
</event>
<event>
 4    1  0.6239849E-005  0.5266956E+03  0.7818608E-02  0.1007037E+00
          2   -1    0    0  501    0  0.00000000000E+00  0.00000000000E+00  0.33231824397E+04  0.33231824397E+04  0.25500000000E-02 0.  1.
         -2   -1    0    0    0  501 -0.00000000000E+00 -0.00000000000E+00 -0.20869167380E+02  0.20869167535E+02  0.25500000000E-02 0. -1.
    5000001    1    1    2    0    0  0.96151279565E+02  0.13719805168E+03  0.21404786240E+04  0.21552403842E+04  0.18800000000E+03 0.  0.
   -5000001    1    1    2    0    0 -0.96151279565E+02 -0.13719805168E+03  0.11618346483E+04  0.11888112230E+04  0.18800000000E+03 0.  0.
<mgrwt>
<rscale>  0 0.52669555E+03</rscale>
<asrwt>0</asrwt>
<pdfrwt beam="1">  1        2 0.47474055E+00 0.52669555E+03</pdfrwt>
<pdfrwt beam="2">  1       -2 0.29813084E-02 0.52669555E+03</pdfrwt>
<totfact> 0.76124166E+02</totfact>
</mgrwt>
</event>
<event>
 4    1  0.6239849E-005  0.6211294E+03  0.7818608E-02  0.9862514E-01
         -2   -1    0    0    0  501 -0.00000000000E+00  0.00000000000E+00  0.13104958583E+03  0.13104958585E+03  0.25500000000E-02 0. -1.
          2   -1    0    0  501    0  0.00000000000E+00 -0.00000000000E+00 -0.73598435466E+03  0.73598435466E+03  0.25500000000E-02 0.  1.
    5000001    1    1    2    0    0  0.19491072965E+03  0.56240498118E+01 -0.51455503090E+03  0.58149179039E+03  0.18800000000E+03 0.  0.
   -5000001    1    1    2    0    0 -0.19491072965E+03 -0.56240498118E+01 -0.90379737930E+02  0.28554215013E+03  0.18800000000E+03 0.  0.
<mgrwt>
<rscale>  0 0.62112944E+03</rscale>
<asrwt>0</asrwt>
<pdfrwt beam="1">  1        2 0.10514062E+00 0.62112944E+03</pdfrwt>
<pdfrwt beam="2">  1       -2 0.18721370E-01 0.62112944E+03</pdfrwt>
<totfact> 0.10151402E+03</totfact>
</mgrwt>
</event>
<event>
 4    1  0.6239849E-005  0.8901654E+03  0.7818608E-02  0.9437959E-01
          2   -1    0    0  501    0  0.00000000000E+00  0.00000000000E+00  0.42699341603E+03  0.42699341604E+03  0.25500000000E-02 0.  1.
         -2   -1    0    0    0  501 -0.00000000000E+00 -0.00000000000E+00 -0.46393833716E+03  0.46393833717E+03  0.25500000000E-02 0. -1.
    5000001    1    1    2    0    0 -0.24019068211E+02 -0.37407062259E+03 -0.16776142046E+03  0.45165655151E+03  0.18800000000E+03 0.  0.
   -5000001    1    1    2    0    0  0.24019068211E+02  0.37407062259E+03  0.13081649933E+03  0.43927520169E+03  0.18800000000E+03 0.  0.
<mgrwt>
<rscale>  0 0.89016541E+03</rscale>
<asrwt>0</asrwt>
<pdfrwt beam="1">  1        2 0.60999060E-01 0.89016541E+03</pdfrwt>
<pdfrwt beam="2">  1       -2 0.66276905E-01 0.89016541E+03</pdfrwt>
<totfact> 0.16892296E+02</totfact>
</mgrwt>
</event>
<event>
 4    1  0.6239849E-005  0.4197769E+03  0.7818608E-02  0.1037139E+00
         -2   -1    0    0    0  501 -0.00000000000E+00  0.00000000000E+00  0.38905169895E+02  0.38905169979E+02  0.25500000000E-02 0. -1.
          2   -1    0    0  501    0  0.00000000000E+00 -0.00000000000E+00 -0.11323217309E+04  0.11323217309E+04  0.25500000000E-02 0.  1.
    5000001    1    1    2    0    0  0.90364139770E+02  0.13364944816E+02 -0.60000389330E+03  0.63536837463E+03  0.18800000000E+03 0.  0.
   -5000001    1    1    2    0    0 -0.90364139770E+02 -0.13364944816E+02 -0.49341266774E+03  0.53585852628E+03  0.18800000000E+03 0.  0.
<mgrwt>
<rscale>  0 0.41977694E+03</rscale>
<asrwt>0</asrwt>
<pdfrwt beam="1">  1        2 0.16176023E+00 0.41977694E+03</pdfrwt>
<pdfrwt beam="2">  1       -2 0.55578821E-02 0.41977694E+03</pdfrwt>
<totfact> 0.40881452E+03</totfact>
</mgrwt>
</event>
<event>
 4    1  0.6239849E-005  0.7569918E+03  0.7818608E-02  0.9624445E-01
          2   -1    0    0  501    0  0.00000000000E+00  0.00000000000E+00  0.85573440519E+03  0.85573440520E+03  0.25500000000E-02 0.  1.
         -2   -1    0    0    0  501 -0.00000000000E+00 -0.00000000000E+00 -0.16741077394E+03  0.16741077396E+03  0.25500000000E-02 0. -1.
    5000001    1    1    2    0    0  0.27665373333E+03 -0.12887007200E+03  0.50842560423E+03  0.62208148876E+03  0.18800000000E+03 0.  0.
   -5000001    1    1    2    0    0 -0.27665373333E+03  0.12887007200E+03  0.17989802703E+03  0.40106369039E+03  0.18800000000E+03 0.  0.
<mgrwt>
<rscale>  0 0.75699183E+03</rscale>
<asrwt>0</asrwt>
<pdfrwt beam="1">  1        2 0.12224777E+00 0.75699183E+03</pdfrwt>
<pdfrwt beam="2">  1       -2 0.23915825E-01 0.75699183E+03</pdfrwt>
<totfact> 0.54200329E+02</totfact>
</mgrwt>
</event>
<event>
 4    1  0.6239849E-005  0.6290311E+03  0.7818608E-02  0.9846941E-01
         -2   -1    0    0    0  501 -0.00000000000E+00  0.00000000000E+00  0.10975985452E+03  0.10975985455E+03  0.25500000000E-02 0. -1.
          2   -1    0    0  501    0  0.00000000000E+00 -0.00000000000E+00 -0.90124052588E+03  0.90124052588E+03  0.25500000000E-02 0.  1.
    5000001    1    1    2    0    0  0.24639597892E+03 -0.52219637264E+02 -0.41463201174E+03  0.52028989430E+03  0.18800000000E+03 0.  0.
   -5000001    1    1    2    0    0 -0.24639597892E+03  0.52219637264E+02 -0.37684865962E+03  0.49071048613E+03  0.18800000000E+03 0.  0.
<mgrwt>
<rscale>  0 0.62903109E+03</rscale>
<asrwt>0</asrwt>
<pdfrwt beam="1">  1        2 0.12874864E+00 0.62903109E+03</pdfrwt>
<pdfrwt beam="2">  1       -2 0.15679980E-01 0.62903109E+03</pdfrwt>
<totfact> 0.10584783E+03</totfact>
</mgrwt>
</event>
<event>
 4    1  0.6239849E-005  0.4540789E+03  0.7818608E-02  0.1026513E+00
          2   -1    0    0  501    0  0.00000000000E+00  0.00000000000E+00  0.28981936372E+03  0.28981936373E+03  0.25500000000E-02 0.  1.
         -2   -1    0    0    0  501 -0.00000000000E+00 -0.00000000000E+00 -0.17785871939E+03  0.17785871941E+03  0.25500000000E-02 0. -1.
    5000001    1    1    2    0    0  0.18735394013E+02  0.11226933894E+03  0.11467369690E+03  0.24789004864E+03  0.18800000000E+03 0.  0.
   -5000001    1    1    2    0    0 -0.18735394013E+02 -0.11226933894E+03 -0.27130525752E+01  0.21978803450E+03  0.18800000000E+03 0.  0.
<mgrwt>
<rscale>  0 0.45407885E+03</rscale>
<asrwt>0</asrwt>
<pdfrwt beam="1">  1        2 0.41402766E-01 0.45407885E+03</pdfrwt>
<pdfrwt beam="2">  1       -2 0.25408389E-01 0.45407885E+03</pdfrwt>
<totfact> 0.17136842E+03</totfact>
</mgrwt>
</event>
<event>
 4    1  0.6239849E-005  0.5025812E+03  0.7818608E-02  0.1013107E+00
          2   -1    0    0  501    0  0.00000000000E+00  0.00000000000E+00  0.13987426002E+04  0.13987426002E+04  0.25500000000E-02 0.  1.
         -2   -1    0    0    0  501 -0.00000000000E+00 -0.00000000000E+00 -0.45145529605E+02  0.45145529677E+02  0.25500000000E-02 0. -1.
    5000001    1    1    2    0    0  0.33499732779E+02  0.16080095963E+03  0.75925729502E+03  0.79924640803E+03  0.18800000000E+03 0.  0.
   -5000001    1    1    2    0    0 -0.33499732779E+02 -0.16080095963E+03  0.59433977561E+03  0.64464172188E+03  0.18800000000E+03 0.  0.
<mgrwt>
<rscale>  0 0.50258124E+03</rscale>
<asrwt>0</asrwt>
<pdfrwt beam="1">  1        2 0.19982036E+00 0.50258124E+03</pdfrwt>
<pdfrwt beam="2">  1       -2 0.64493618E-02 0.50258124E+03</pdfrwt>
<totfact> 0.23220128E+03</totfact>
</mgrwt>
</event>
<event>
 4    1  0.6239849E-005  0.6448655E+03  0.7818608E-02  0.9816462E-01
         -2   -1    0    0    0  501 -0.00000000000E+00  0.00000000000E+00  0.94065334109E+02  0.94065334144E+02  0.25500000000E-02 0. -1.
          2   -1    0    0  501    0  0.00000000000E+00 -0.00000000000E+00 -0.11052199555E+04  0.11052199555E+04  0.25500000000E-02 0.  1.
    5000001    1    1    2    0    0  0.15085675325E+03  0.21414085326E+03 -0.50966002111E+03  0.60308490460E+03  0.18800000000E+03 0.  0.
   -5000001    1    1    2    0    0 -0.15085675325E+03 -0.21414085326E+03 -0.50149460032E+03  0.59620038509E+03  0.18800000000E+03 0.  0.
<mgrwt>
<rscale>  0 0.64486552E+03</rscale>
<asrwt>0</asrwt>
<pdfrwt beam="1">  1        2 0.15788856E+00 0.64486552E+03</pdfrwt>
<pdfrwt beam="2">  1       -2 0.13437906E-01 0.64486552E+03</pdfrwt>
<totfact> 0.10290006E+03</totfact>
</mgrwt>
</event>
<event>
 4    1  0.6239849E-005  0.1095222E+04  0.7818608E-02  0.9209861E-01
         -2   -1    0    0    0  501 -0.00000000000E+00  0.00000000000E+00  0.18480964554E+03  0.18480964556E+03  0.25500000000E-02 0. -1.
          2   -1    0    0  501    0  0.00000000000E+00 -0.00000000000E+00 -0.16226318139E+04  0.16226318139E+04  0.25500000000E-02 0.  1.
    5000001    1    1    2    0    0 -0.43181417189E+03 -0.82926454386E+02 -0.11592456934E+04  0.12540075174E+04  0.18800000000E+03 0.  0.
   -5000001    1    1    2    0    0  0.43181417189E+03  0.82926454386E+02 -0.27857647494E+03  0.55343394210E+03  0.18800000000E+03 0.  0.
<mgrwt>
<rscale>  0 0.10952224E+04</rscale>
<asrwt>0</asrwt>
<pdfrwt beam="1">  1        2 0.23180454E+00 0.10952224E+04</pdfrwt>
<pdfrwt beam="2">  1       -2 0.26401379E-01 0.10952224E+04</pdfrwt>
<totfact> 0.16216822E+02</totfact>
</mgrwt>
</event>
<event>
 4    1  0.6239849E-005  0.7865190E+03  0.7818608E-02  0.9579738E-01
          2   -1    0    0  501    0  0.00000000000E+00  0.00000000000E+00  0.89692442816E+03  0.89692442816E+03  0.25500000000E-02 0.  1.
         -2   -1    0    0    0  501 -0.00000000000E+00 -0.00000000000E+00 -0.17242595282E+03  0.17242595284E+03  0.25500000000E-02 0. -1.
    5000001    1    1    2    0    0 -0.24370578929E+03  0.24293569023E+03  0.32148874911E+03  0.50705944141E+03  0.18800000000E+03 0.  0.
   -5000001    1    1    2    0    0  0.24370578929E+03 -0.24293569023E+03  0.40300972623E+03  0.56229093960E+03  0.18800000000E+03 0.  0.
<mgrwt>
<rscale>  0 0.78651904E+03</rscale>
<asrwt>0</asrwt>
<pdfrwt beam="1">  1        2 0.12813206E+00 0.78651904E+03</pdfrwt>
<pdfrwt beam="2">  1       -2 0.24632279E-01 0.78651904E+03</pdfrwt>
<totfact> 0.48226290E+02</totfact>
</mgrwt>
</event>
<event>
 4    1  0.6239849E-005  0.1047641E+04  0.7818608E-02  0.9257783E-01
         -2   -1    0    0    0  501 -0.00000000000E+00  0.00000000000E+00  0.30993090322E+03  0.30993090323E+03  0.25500000000E-02 0. -1.
          2   -1    0    0  501    0  0.00000000000E+00 -0.00000000000E+00 -0.88531955825E+03  0.88531955826E+03  0.25500000000E-02 0.  1.
    5000001    1    1    2    0    0 -0.22495113279E+02  0.47324810781E+03 -0.14996159683E+03  0.53132126081E+03  0.18800000000E+03 0.  0.
   -5000001    1    1    2    0    0  0.22495113279E+02 -0.47324810781E+03 -0.42542705820E+03  0.66392920068E+03  0.18800000000E+03 0.  0.
<mgrwt>
<rscale>  0 0.10476410E+04</rscale>
<asrwt>0</asrwt>
<pdfrwt beam="1">  1        2 0.12647422E+00 0.10476410E+04</pdfrwt>
<pdfrwt beam="2">  1       -2 0.44275844E-01 0.10476410E+04</pdfrwt>
<totfact> 0.16004114E+02</totfact>
</mgrwt>
</event>
<event>
 4    1  0.6239849E-005  0.4233474E+03  0.7818608E-02  0.1035982E+00
         -2   -1    0    0    0  501 -0.00000000000E+00  0.00000000000E+00  0.20276272496E+02  0.20276272656E+02  0.25500000000E-02 0. -1.
          2   -1    0    0  501    0  0.00000000000E+00 -0.00000000000E+00 -0.22097624257E+04  0.22097624257E+04  0.25500000000E-02 0.  1.
    5000001    1    1    2    0    0  0.76371820581E+02  0.59817794288E+02 -0.10571535076E+04  0.10781133345E+04  0.18800000000E+03 0.  0.
   -5000001    1    1    2    0    0 -0.76371820581E+02 -0.59817794288E+02 -0.11323326456E+04  0.11519253638E+04  0.18800000000E+03 0.  0.
<mgrwt>
<rscale>  0 0.42334735E+03</rscale>
<asrwt>0</asrwt>
<pdfrwt beam="1">  1        2 0.31568019E+00 0.42334735E+03</pdfrwt>
<pdfrwt beam="2">  1       -2 0.28966118E-02 0.42334735E+03</pdfrwt>
<totfact> 0.30955475E+03</totfact>
</mgrwt>
</event>
<event>
 4    1  0.6239849E-005  0.5613101E+03  0.7818608E-02  0.9989095E-01
         -2   -1    0    0    0  501 -0.00000000000E+00  0.00000000000E+00  0.42333983053E+02  0.42333983129E+02  0.25500000000E-02 0. -1.
          2   -1    0    0  501    0  0.00000000000E+00 -0.00000000000E+00 -0.18606155252E+04  0.18606155252E+04  0.25500000000E-02 0.  1.
    5000001    1    1    2    0    0 -0.98204591311E+02  0.10019583270E+03 -0.38678787776E+03  0.45236291739E+03  0.18800000000E+03 0.  0.
   -5000001    1    1    2    0    0  0.98204591311E+02 -0.10019583270E+03 -0.14314936643E+04  0.14505865909E+04  0.18800000000E+03 0.  0.
<mgrwt>
<rscale>  0 0.56131013E+03</rscale>
<asrwt>0</asrwt>
<pdfrwt beam="1">  1        2 0.26580217E+00 0.56131013E+03</pdfrwt>
<pdfrwt beam="2">  1       -2 0.60477130E-02 0.56131013E+03</pdfrwt>
<totfact> 0.14875709E+03</totfact>
</mgrwt>
</event>
<event>
 4    1  0.6239849E-005  0.5001147E+03  0.7818608E-02  0.1013749E+00
         -2   -1    0    0    0  501 -0.00000000000E+00  0.00000000000E+00  0.22478012969E+02  0.22478013113E+02  0.25500000000E-02 0. -1.
          2   -1    0    0  501    0  0.00000000000E+00 -0.00000000000E+00 -0.27817706463E+04  0.27817706463E+04  0.25500000000E-02 0.  1.
    5000001    1    1    2    0    0 -0.52787150092E+02  0.10896700572E+03 -0.20071627679E+04  0.20195808151E+04  0.18800000000E+03 0.  0.
   -5000001    1    1    2    0    0  0.52787150092E+02 -0.10896700572E+03 -0.75212986535E+03  0.78466784431E+03  0.18800000000E+03 0.  0.
<mgrwt>
<rscale>  0 0.50011469E+03</rscale>
<asrwt>0</asrwt>
<pdfrwt beam="1">  1        2 0.39739559E+00 0.50011469E+03</pdfrwt>
<pdfrwt beam="2">  1       -2 0.32111465E-02 0.50011469E+03</pdfrwt>
<totfact> 0.13478606E+03</totfact>
</mgrwt>
</event>
<event>
 4    1  0.6239849E-005  0.7629256E+03  0.7818608E-02  0.9615288E-01
          2   -1    0    0  501    0  0.00000000000E+00  0.00000000000E+00  0.11046548221E+04  0.11046548221E+04  0.25500000000E-02 0.  1.
         -2   -1    0    0    0  501 -0.00000000000E+00 -0.00000000000E+00 -0.13172789694E+03  0.13172789696E+03  0.25500000000E-02 0. -1.
    5000001    1    1    2    0    0  0.26256967559E+03  0.15127862744E+03  0.26698509616E+03  0.44548075069E+03  0.18800000000E+03 0.  0.
   -5000001    1    1    2    0    0 -0.26256967559E+03 -0.15127862744E+03  0.70594182897E+03  0.79090196836E+03  0.18800000000E+03 0.  0.
<mgrwt>
<rscale>  0 0.76292557E+03</rscale>
<asrwt>0</asrwt>
<pdfrwt beam="1">  1        2 0.15780783E+00 0.76292557E+03</pdfrwt>
<pdfrwt beam="2">  1       -2 0.18818271E-01 0.76292557E+03</pdfrwt>
<totfact> 0.57857335E+02</totfact>
</mgrwt>
</event>
<event>
 4    1  0.6239849E-005  0.6707033E+03  0.7818608E-02  0.9768688E-01
          2   -1    0    0  501    0  0.00000000000E+00  0.00000000000E+00  0.10815304065E+04  0.10815304065E+04  0.25500000000E-02 0.  1.
         -2   -1    0    0    0  501 -0.00000000000E+00 -0.00000000000E+00 -0.10398294266E+03  0.10398294270E+03  0.25500000000E-02 0. -1.
    5000001    1    1    2    0    0  0.21067948105E+03 -0.54803716495E+02  0.18401604613E+03  0.34146038761E+03  0.18800000000E+03 0.  0.
   -5000001    1    1    2    0    0 -0.21067948105E+03  0.54803716495E+02  0.79353141770E+03  0.84405296158E+03  0.18800000000E+03 0.  0.
<mgrwt>
<rscale>  0 0.67070326E+03</rscale>
<asrwt>0</asrwt>
<pdfrwt beam="1">  1        2 0.15450435E+00 0.67070326E+03</pdfrwt>
<pdfrwt beam="2">  1       -2 0.14854706E-01 0.67070326E+03</pdfrwt>
<totfact> 0.89737294E+02</totfact>
</mgrwt>
</event>
<event>
 4    1  0.6239849E-005  0.5108659E+03  0.7818608E-02  0.1010981E+00
         -2   -1    0    0    0  501 -0.00000000000E+00  0.00000000000E+00  0.82134763427E+02  0.82134763466E+02  0.25500000000E-02 0. -1.
          2   -1    0    0  501    0  0.00000000000E+00 -0.00000000000E+00 -0.79437730974E+03  0.79437730975E+03  0.25500000000E-02 0.  1.
    5000001    1    1    2    0    0 -0.23368224358E+02 -0.15357387609E+03 -0.22578182216E+03  0.33234385890E+03  0.18800000000E+03 0.  0.
   -5000001    1    1    2    0    0  0.23368224358E+02  0.15357387609E+03 -0.48646072416E+03  0.54416821432E+03  0.18800000000E+03 0.  0.
<mgrwt>
<rscale>  0 0.51086590E+03</rscale>
<asrwt>0</asrwt>
<pdfrwt beam="1">  1        2 0.11348247E+00 0.51086590E+03</pdfrwt>
<pdfrwt beam="2">  1       -2 0.11733538E-01 0.51086590E+03</pdfrwt>
<totfact> 0.20242131E+03</totfact>
</mgrwt>
</event>
<event>
 4    1  0.6239849E-005  0.6388525E+03  0.7818608E-02  0.9827924E-01
          2   -1    0    0  501    0  0.00000000000E+00  0.00000000000E+00  0.16253716407E+04  0.16253716407E+04  0.25500000000E-02 0.  1.
         -2   -1    0    0    0  501 -0.00000000000E+00 -0.00000000000E+00 -0.62775259507E+02  0.62775259559E+02  0.25500000000E-02 0. -1.
    5000001    1    1    2    0    0 -0.17552206130E+03 -0.15192962632E+03  0.10802419827E+04  0.11207842551E+04  0.18800000000E+03 0.  0.
   -5000001    1    1    2    0    0  0.17552206130E+03  0.15192962632E+03  0.48235439857E+03  0.56736264521E+03  0.18800000000E+03 0.  0.
<mgrwt>
<rscale>  0 0.63885249E+03</rscale>
<asrwt>0</asrwt>
<pdfrwt beam="1">  1        2 0.23219593E+00 0.63885249E+03</pdfrwt>
<pdfrwt beam="2">  1       -2 0.89678949E-02 0.63885249E+03</pdfrwt>
<totfact> 0.10446797E+03</totfact>
</mgrwt>
</event>
<event>
 4    1  0.6239849E-005  0.7946707E+03  0.7818608E-02  0.9567763E-01
         -2   -1    0    0    0  501 -0.00000000000E+00  0.00000000000E+00  0.84795202197E+02  0.84795202235E+02  0.25500000000E-02 0. -1.
          2   -1    0    0  501    0  0.00000000000E+00 -0.00000000000E+00 -0.18618435354E+04  0.18618435354E+04  0.25500000000E-02 0.  1.
    5000001    1    1    2    0    0  0.86422043552E+02  0.18296194092E+03 -0.15882213109E+04  0.16120591719E+04  0.18800000000E+03 0.  0.
   -5000001    1    1    2    0    0 -0.86422043552E+02 -0.18296194092E+03 -0.18882702233E+03  0.33457956572E+03  0.18800000000E+03 0.  0.
<mgrwt>
<rscale>  0 0.79467075E+03</rscale>
<asrwt>0</asrwt>
<pdfrwt beam="1">  1        2 0.26597762E+00 0.79467075E+03</pdfrwt>
<pdfrwt beam="2">  1       -2 0.12113601E-01 0.79467075E+03</pdfrwt>
<totfact> 0.48035965E+02</totfact>
</mgrwt>
</event>
<event>
 4    1  0.6239849E-005  0.9523404E+03  0.7818608E-02  0.9362419E-01
          2   -1    0    0  501    0  0.00000000000E+00  0.00000000000E+00  0.20777423645E+03  0.20777423646E+03  0.25500000000E-02 0.  1.
         -2   -1    0    0    0  501 -0.00000000000E+00 -0.00000000000E+00 -0.10912713788E+04  0.10912713788E+04  0.25500000000E-02 0. -1.
    5000001    1    1    2    0    0  0.39766195931E+03 -0.24882627784E+02 -0.19531119559E+03  0.48191767157E+03  0.18800000000E+03 0.  0.
   -5000001    1    1    2    0    0 -0.39766195931E+03  0.24882627784E+02 -0.68818594673E+03  0.81712794367E+03  0.18800000000E+03 0.  0.
<mgrwt>
<rscale>  0 0.95234044E+03</rscale>
<asrwt>0</asrwt>
<pdfrwt beam="1">  1        2 0.29682035E-01 0.95234044E+03</pdfrwt>
<pdfrwt beam="2">  1       -2 0.15589591E+00 0.95234044E+03</pdfrwt>
<totfact> 0.48741840E+01</totfact>
</mgrwt>
</event>
<event>
 4    1  0.6239849E-005  0.4181471E+03  0.7818608E-02  0.1037671E+00
          2   -1    0    0  501    0  0.00000000000E+00  0.00000000000E+00  0.20090853306E+04  0.20090853306E+04  0.25500000000E-02 0.  1.
         -2   -1    0    0    0  501 -0.00000000000E+00 -0.00000000000E+00 -0.21757041220E+02  0.21757041370E+02  0.25500000000E-02 0. -1.
    5000001    1    1    2    0    0  0.24625073164E+02  0.73173183084E+02  0.75538332498E+03  0.78224591824E+03  0.18800000000E+03 0.  0.
   -5000001    1    1    2    0    0 -0.24625073164E+02 -0.73173183084E+02  0.12319449644E+04  0.12485964537E+04  0.18800000000E+03 0.  0.
<mgrwt>
<rscale>  0 0.41814712E+03</rscale>
<asrwt>0</asrwt>
<pdfrwt beam="1">  1        2 0.28701217E+00 0.41814712E+03</pdfrwt>
<pdfrwt beam="2">  1       -2 0.31081489E-02 0.41814712E+03</pdfrwt>
<totfact> 0.35016574E+03</totfact>
</mgrwt>
</event>
<event>
 4    1  0.6239849E-005  0.6506102E+03  0.7818608E-02  0.9805635E-01
          2   -1    0    0  501    0  0.00000000000E+00  0.00000000000E+00  0.58360947293E+03  0.58360947294E+03  0.25500000000E-02 0.  1.
         -2   -1    0    0    0  501 -0.00000000000E+00 -0.00000000000E+00 -0.18132574125E+03  0.18132574127E+03  0.25500000000E-02 0. -1.
    5000001    1    1    2    0    0  0.15155577752E+03 -0.21796849905E+03  0.20114547384E+03  0.38246950457E+03  0.18800000000E+03 0.  0.
   -5000001    1    1    2    0    0 -0.15155577752E+03  0.21796849905E+03  0.20113825785E+03  0.38246570964E+03  0.18800000000E+03 0.  0.
<mgrwt>
<rscale>  0 0.65061024E+03</rscale>
<asrwt>0</asrwt>
<pdfrwt beam="1">  1        2 0.83372782E-01 0.65061024E+03</pdfrwt>
<pdfrwt beam="2">  1       -2 0.25903677E-01 0.65061024E+03</pdfrwt>
<totfact> 0.75612977E+02</totfact>
</mgrwt>
</event>
<event>
 4    1  0.6239849E-005  0.4029159E+03  0.7818608E-02  0.1042775E+00
          2   -1    0    0  501    0  0.00000000000E+00  0.00000000000E+00  0.64107706074E+03  0.64107706075E+03  0.25500000000E-02 0.  1.
         -2   -1    0    0    0  501 -0.00000000000E+00 -0.00000000000E+00 -0.63308001095E+02  0.63308001147E+02  0.25500000000E-02 0. -1.
    5000001    1    1    2    0    0  0.64159428277E+02 -0.49998950253E+01  0.34686311378E+03  0.39974923500E+03  0.18800000000E+03 0.  0.
   -5000001    1    1    2    0    0 -0.64159428277E+02  0.49998950253E+01  0.23090594587E+03  0.30463582689E+03  0.18800000000E+03 0.  0.
<mgrwt>
<rscale>  0 0.40291591E+03</rscale>
<asrwt>0</asrwt>
<pdfrwt beam="1">  1        2 0.91582437E-01 0.40291591E+03</pdfrwt>
<pdfrwt beam="2">  1       -2 0.90440002E-02 0.40291591E+03</pdfrwt>
<totfact> 0.39945705E+03</totfact>
</mgrwt>
</event>
<event>
 4    1  0.6239849E-005  0.7833627E+03  0.7818608E-02  0.9584416E-01
          2   -1    0    0  501    0  0.00000000000E+00  0.00000000000E+00  0.10426905351E+03  0.10426905354E+03  0.25500000000E-02 0.  1.
         -2   -1    0    0    0  501 -0.00000000000E+00 -0.00000000000E+00 -0.14713308772E+04  0.14713308772E+04  0.25500000000E-02 0. -1.
    5000001    1    1    2    0    0 -0.22693086394E+03 -0.25795043670E+03 -0.67176280130E+03  0.77758941995E+03  0.18800000000E+03 0.  0.
   -5000001    1    1    2    0    0  0.22693086394E+03  0.25795043670E+03 -0.69529902240E+03  0.79801051081E+03  0.18800000000E+03 0.  0.
<mgrwt>
<rscale>  0 0.78336270E+03</rscale>
<asrwt>0</asrwt>
<pdfrwt beam="1">  1        2 0.14895580E-01 0.78336270E+03</pdfrwt>
<pdfrwt beam="2">  1       -2 0.21019011E+00 0.78336270E+03</pdfrwt>
<totfact> 0.46981476E+01</totfact>
</mgrwt>
</event>
<event>
 4    1  0.6239849E-005  0.6032747E+03  0.7818608E-02  0.9898635E-01
          2   -1    0    0  501    0  0.00000000000E+00  0.00000000000E+00  0.11609385242E+04  0.11609385242E+04  0.25500000000E-02 0.  1.
         -2   -1    0    0    0  501 -0.00000000000E+00 -0.00000000000E+00 -0.78372018996E+02  0.78372019038E+02  0.25500000000E-02 0. -1.
    5000001    1    1    2    0    0 -0.14132425143E+03  0.18542433779E+03  0.46760361746E+03  0.55529440133E+03  0.18800000000E+03 0.  0.
   -5000001    1    1    2    0    0  0.14132425143E+03 -0.18542433779E+03  0.61496288773E+03  0.68401614190E+03  0.18800000000E+03 0.  0.
<mgrwt>
<rscale>  0 0.60327472E+03</rscale>
<asrwt>0</asrwt>
<pdfrwt beam="1">  1        2 0.16584836E+00 0.60327472E+03</pdfrwt>
<pdfrwt beam="2">  1       -2 0.11196003E-01 0.60327472E+03</pdfrwt>
<totfact> 0.12934896E+03</totfact>
</mgrwt>
</event>
<event>
 4    1  0.6239849E-005  0.6355334E+03  0.7818608E-02  0.9834310E-01
          2   -1    0    0  501    0  0.00000000000E+00  0.00000000000E+00  0.13542788507E+04  0.13542788507E+04  0.25500000000E-02 0.  1.
         -2   -1    0    0    0  501 -0.00000000000E+00 -0.00000000000E+00 -0.74560479119E+02  0.74560479163E+02  0.25500000000E-02 0. -1.
    5000001    1    1    2    0    0  0.70599943388E+02  0.16804126732E+03  0.10446036408E+04  0.10769229248E+04  0.18800000000E+03 0.  0.
   -5000001    1    1    2    0    0 -0.70599943388E+02 -0.16804126732E+03  0.23511473072E+03  0.35191640503E+03  0.18800000000E+03 0.  0.
<mgrwt>
<rscale>  0 0.63553341E+03</rscale>
<asrwt>0</asrwt>
<pdfrwt beam="1">  1        2 0.19346840E+00 0.63553341E+03</pdfrwt>
<pdfrwt beam="2">  1       -2 0.10651498E-01 0.63553341E+03</pdfrwt>
<totfact> 0.10965964E+03</totfact>
</mgrwt>
</event>
<event>
 4    1  0.6239849E-005  0.5765327E+03  0.7818608E-02  0.9955326E-01
          2   -1    0    0  501    0  0.00000000000E+00  0.00000000000E+00  0.10639929764E+04  0.10639929764E+04  0.25500000000E-02 0.  1.
         -2   -1    0    0    0  501 -0.00000000000E+00 -0.00000000000E+00 -0.78099650649E+02  0.78099650691E+02  0.25500000000E-02 0. -1.
    5000001    1    1    2    0    0 -0.29012104836E+02 -0.21401891820E+03  0.42701643110E+03  0.51413308783E+03  0.18800000000E+03 0.  0.
   -5000001    1    1    2    0    0  0.29012104836E+02  0.21401891820E+03  0.55887689465E+03  0.62795953926E+03  0.18800000000E+03 0.  0.
<mgrwt>
<rscale>  0 0.57653267E+03</rscale>
<asrwt>0</asrwt>
<pdfrwt beam="1">  1        2 0.15199899E+00 0.57653267E+03</pdfrwt>
<pdfrwt beam="2">  1       -2 0.11157093E-01 0.57653267E+03</pdfrwt>
<totfact> 0.14811303E+03</totfact>
</mgrwt>
</event>
<event>
 4    1  0.6239849E-005  0.4069568E+03  0.7818608E-02  0.1041397E+00
         -2   -1    0    0    0  501 -0.00000000000E+00  0.00000000000E+00  0.57901502033E+02  0.57901502089E+02  0.25500000000E-02 0. -1.
          2   -1    0    0  501    0  0.00000000000E+00 -0.00000000000E+00 -0.71506713111E+03  0.71506713111E+03  0.25500000000E-02 0.  1.
    5000001    1    1    2    0    0 -0.30805591736E+02 -0.89378288827E+01 -0.19386560230E+03  0.27194988697E+03  0.18800000000E+03 0.  0.
   -5000001    1    1    2    0    0  0.30805591736E+02  0.89378288827E+01 -0.46330002677E+03  0.50101874623E+03  0.18800000000E+03 0.  0.
<mgrwt>
<rscale>  0 0.40695681E+03</rscale>
<asrwt>0</asrwt>
<pdfrwt beam="1">  1        2 0.10215244E+00 0.40695681E+03</pdfrwt>
<pdfrwt beam="2">  1       -2 0.82716436E-02 0.40695681E+03</pdfrwt>
<totfact> 0.40401409E+03</totfact>
</mgrwt>
</event>
<event>
 4    1  0.6239849E-005  0.8507053E+03  0.7818608E-02  0.9489391E-01
         -2   -1    0    0    0  501 -0.00000000000E+00  0.00000000000E+00  0.25677283754E+03  0.25677283755E+03  0.25500000000E-02 0. -1.
          2   -1    0    0  501    0  0.00000000000E+00 -0.00000000000E+00 -0.70461062556E+03  0.70461062556E+03  0.25500000000E-02 0.  1.
    5000001    1    1    2    0    0  0.85870632636E+02 -0.26867295867E+03 -0.51429553439E+03  0.61595683368E+03  0.18800000000E+03 0.  0.
   -5000001    1    1    2    0    0 -0.85870632636E+02  0.26867295867E+03  0.66457746376E+02  0.34542662943E+03  0.18800000000E+03 0.  0.
<mgrwt>
<rscale>  0 0.85070528E+03</rscale>
<asrwt>0</asrwt>
<pdfrwt beam="1">  1        2 0.10065866E+00 0.85070528E+03</pdfrwt>
<pdfrwt beam="2">  1       -2 0.36681834E-01 0.85070528E+03</pdfrwt>
<totfact> 0.31328990E+02</totfact>
</mgrwt>
</event>
<event>
 4    1  0.6239849E-005  0.1485656E+04  0.7818608E-02  0.8894048E-01
          2   -1    0    0  501    0  0.00000000000E+00  0.00000000000E+00  0.23739750085E+04  0.23739750085E+04  0.25500000000E-02 0.  1.
         -2   -1    0    0    0  501 -0.00000000000E+00 -0.00000000000E+00 -0.23243432852E+03  0.23243432853E+03  0.25500000000E-02 0. -1.
    5000001    1    1    2    0    0  0.37709339930E+03  0.52223628669E+03  0.51178768171E+03  0.84391990264E+03  0.18800000000E+03 0.  0.
   -5000001    1    1    2    0    0 -0.37709339930E+03 -0.52223628669E+03  0.16297529982E+04  0.17624894343E+04  0.18800000000E+03 0.  0.
<mgrwt>
<rscale>  0 0.14856558E+04</rscale>
<asrwt>0</asrwt>
<pdfrwt beam="1">  1        2 0.33913927E+00 0.14856558E+04</pdfrwt>
<pdfrwt beam="2">  1       -2 0.33204905E-01 0.14856558E+04</pdfrwt>
<totfact> 0.42166448E+01</totfact>
</mgrwt>
</event>
<event>
 4    1  0.6239849E-005  0.4625994E+03  0.7818608E-02  0.1024030E+00
          2   -1    0    0  501    0  0.00000000000E+00  0.00000000000E+00  0.72986364611E+03  0.72986364612E+03  0.25500000000E-02 0.  1.
         -2   -1    0    0    0  501 -0.00000000000E+00 -0.00000000000E+00 -0.73300753370E+02  0.73300753415E+02  0.25500000000E-02 0. -1.
    5000001    1    1    2    0    0 -0.10670859808E+03 -0.76935089775E+02  0.27766829212E+03  0.36020745882E+03  0.18800000000E+03 0.  0.
   -5000001    1    1    2    0    0  0.10670859808E+03  0.76935089775E+02  0.37889460063E+03  0.44295694071E+03  0.18800000000E+03 0.  0.
<mgrwt>
<rscale>  0 0.46259942E+03</rscale>
<asrwt>0</asrwt>
<pdfrwt beam="1">  1        2 0.10426623E+00 0.46259942E+03</pdfrwt>
<pdfrwt beam="2">  1       -2 0.10471536E-01 0.46259942E+03</pdfrwt>
<totfact> 0.27060887E+03</totfact>
</mgrwt>
</event>
<event>
 4    1  0.6239849E-005  0.7022506E+03  0.7818608E-02  0.9713391E-01
          2   -1    0    0  501    0  0.00000000000E+00  0.00000000000E+00  0.45238494858E+03  0.45238494858E+03  0.25500000000E-02 0.  1.
         -2   -1    0    0    0  501 -0.00000000000E+00 -0.00000000000E+00 -0.27253111594E+03  0.27253111595E+03  0.25500000000E-02 0. -1.
    5000001    1    1    2    0    0  0.22003958188E+03 -0.15616027642E+03 -0.37095515105E+02  0.33094338907E+03  0.18800000000E+03 0.  0.
   -5000001    1    1    2    0    0 -0.22003958188E+03  0.15616027642E+03  0.21694934774E+03  0.39397267546E+03  0.18800000000E+03 0.  0.
<mgrwt>
<rscale>  0 0.70225060E+03</rscale>
<asrwt>0</asrwt>
<pdfrwt beam="1">  1        2 0.64626420E-01 0.70225060E+03</pdfrwt>
<pdfrwt beam="2">  1       -2 0.38933017E-01 0.70225060E+03</pdfrwt>
<totfact> 0.47232762E+02</totfact>
</mgrwt>
</event>
<event>
 4    1  0.6239849E-005  0.5191914E+03  0.7818608E-02  0.1008888E+00
          2   -1    0    0  501    0  0.00000000000E+00  0.00000000000E+00  0.23732366050E+04  0.23732366050E+04  0.25500000000E-02 0.  1.
         -2   -1    0    0    0  501 -0.00000000000E+00 -0.00000000000E+00 -0.28395792837E+02  0.28395792952E+02  0.25500000000E-02 0. -1.
    5000001    1    1    2    0    0  0.10776134943E+03  0.13101353424E+03  0.14368917024E+04  0.14590335223E+04  0.18800000000E+03 0.  0.
   -5000001    1    1    2    0    0 -0.10776134943E+03 -0.13101353424E+03  0.90794910974E+03  0.94259887569E+03  0.18800000000E+03 0.  0.
<mgrwt>
<rscale>  0 0.51919143E+03</rscale>
<asrwt>0</asrwt>
<pdfrwt beam="1">  1        2 0.33903388E+00 0.51919143E+03</pdfrwt>
<pdfrwt beam="2">  1       -2 0.40565409E-02 0.51919143E+03</pdfrwt>
<totfact> 0.15294690E+03</totfact>
</mgrwt>
</event>
<event>
 4    1  0.6239849E-005  0.5451986E+03  0.7818608E-02  0.1002611E+00
          2   -1    0    0  501    0  0.00000000000E+00  0.00000000000E+00  0.88610474369E+03  0.88610474369E+03  0.25500000000E-02 0.  1.
         -2   -1    0    0    0  501 -0.00000000000E+00 -0.00000000000E+00 -0.83861846749E+02  0.83861846788E+02  0.25500000000E-02 0. -1.
    5000001    1    1    2    0    0 -0.29823977266E+01 -0.13836055664E+03  0.65155146663E+03  0.69210971095E+03  0.18800000000E+03 0.  0.
   -5000001    1    1    2    0    0  0.29823977266E+01  0.13836055664E+03  0.15069143031E+03  0.27785687952E+03  0.18800000000E+03 0.  0.
<mgrwt>
<rscale>  0 0.54519861E+03</rscale>
<asrwt>0</asrwt>
<pdfrwt beam="1">  1        2 0.12658640E+00 0.54519861E+03</pdfrwt>
<pdfrwt beam="2">  1       -2 0.11980263E-01 0.54519861E+03</pdfrwt>
<totfact> 0.16979416E+03</totfact>
</mgrwt>
</event>
<event>
 4    1  0.6239849E-005  0.5925571E+03  0.7818608E-02  0.9920969E-01
         -2   -1    0    0    0  501 -0.00000000000E+00  0.00000000000E+00  0.98433099568E+02  0.98433099601E+02  0.25500000000E-02 0. -1.
          2   -1    0    0  501    0  0.00000000000E+00 -0.00000000000E+00 -0.89178328569E+03  0.89178328570E+03  0.25500000000E-02 0.  1.
    5000001    1    1    2    0    0 -0.18270473210E+03 -0.13257385022E+03 -0.46096642907E+03  0.54661768507E+03  0.18800000000E+03 0.  0.
   -5000001    1    1    2    0    0  0.18270473210E+03  0.13257385022E+03 -0.33238375705E+03  0.44359870023E+03  0.18800000000E+03 0.  0.
<mgrwt>
<rscale>  0 0.59255715E+03</rscale>
<asrwt>0</asrwt>
<pdfrwt beam="1">  1        2 0.12739761E+00 0.59255715E+03</pdfrwt>
<pdfrwt beam="2">  1       -2 0.14061872E-01 0.59255715E+03</pdfrwt>
<totfact> 0.12903311E+03</totfact>
</mgrwt>
</event>
<event>
 4    1  0.6239849E-005  0.4796172E+03  0.7818608E-02  0.1019240E+00
         -2   -1    0    0    0  501 -0.00000000000E+00  0.00000000000E+00  0.15638727302E+03  0.15638727304E+03  0.25500000000E-02 0. -1.
          2   -1    0    0  501    0  0.00000000000E+00 -0.00000000000E+00 -0.36772922966E+03  0.36772922967E+03  0.25500000000E-02 0.  1.
    5000001    1    1    2    0    0 -0.11901276099E+03  0.33238876816E+02 -0.14928633748E+02  0.22546778998E+03  0.18800000000E+03 0.  0.
   -5000001    1    1    2    0    0  0.11901276099E+03 -0.33238876816E+02 -0.19641332288E+03  0.29864871273E+03  0.18800000000E+03 0.  0.
<mgrwt>
<rscale>  0 0.47961723E+03</rscale>
<asrwt>0</asrwt>
<pdfrwt beam="1">  1        2 0.52532747E-01 0.47961723E+03</pdfrwt>
<pdfrwt beam="2">  1       -2 0.22341039E-01 0.47961723E+03</pdfrwt>
<totfact> 0.16591651E+03</totfact>
</mgrwt>
</event>
<event>
 4    1  0.6239849E-005  0.5456898E+03  0.7818608E-02  0.1002497E+00
          2   -1    0    0  501    0  0.00000000000E+00  0.00000000000E+00  0.80596585494E+03  0.80596585495E+03  0.25500000000E-02 0.  1.
         -2   -1    0    0    0  501 -0.00000000000E+00 -0.00000000000E+00 -0.92366632731E+02  0.92366632766E+02  0.25500000000E-02 0. -1.
    5000001    1    1    2    0    0  0.83650064151E+02 -0.12801989335E+03  0.56316344233E+03  0.61309337715E+03  0.18800000000E+03 0.  0.
   -5000001    1    1    2    0    0 -0.83650064151E+02  0.12801989335E+03  0.15043577988E+03  0.28523911056E+03  0.18800000000E+03 0.  0.
<mgrwt>
<rscale>  0 0.54568985E+03</rscale>
<asrwt>0</asrwt>
<pdfrwt beam="1">  1        2 0.11513798E+00 0.54568985E+03</pdfrwt>
<pdfrwt beam="2">  1       -2 0.13195233E-01 0.54568985E+03</pdfrwt>
<totfact> 0.16376388E+03</totfact>
</mgrwt>
</event>
<event>
 4    1  0.6239849E-005  0.5458334E+03  0.7818608E-02  0.1002463E+00
          2   -1    0    0  501    0  0.00000000000E+00  0.00000000000E+00  0.18366751323E+04  0.18366751323E+04  0.25500000000E-02 0.  1.
         -2   -1    0    0    0  501 -0.00000000000E+00 -0.00000000000E+00 -0.40553462026E+02  0.40553462106E+02  0.25500000000E-02 0. -1.
    5000001    1    1    2    0    0  0.82399123809E+02 -0.17018403648E+03  0.69789741351E+03  0.74709907084E+03  0.18800000000E+03 0.  0.
   -5000001    1    1    2    0    0 -0.82399123809E+02  0.17018403648E+03  0.10982242568E+04  0.11301295236E+04  0.18800000000E+03 0.  0.
<mgrwt>
<rscale>  0 0.54583344E+03</rscale>
<asrwt>0</asrwt>
<pdfrwt beam="1">  1        2 0.26238217E+00 0.54583344E+03</pdfrwt>
<pdfrwt beam="2">  1       -2 0.57933515E-02 0.54583344E+03</pdfrwt>
<totfact> 0.16366022E+03</totfact>
</mgrwt>
</event>
<event>
 4    1  0.6239849E-005  0.5471505E+03  0.7818608E-02  0.1002156E+00
          2   -1    0    0  501    0  0.00000000000E+00  0.00000000000E+00  0.12921504362E+04  0.12921504362E+04  0.25500000000E-02 0.  1.
         -2   -1    0    0    0  501 -0.00000000000E+00 -0.00000000000E+00 -0.57921606911E+02  0.57921606967E+02  0.25500000000E-02 0. -1.
    5000001    1    1    2    0    0  0.18522583012E+03 -0.34951059357E+02  0.77256918746E+03  0.81715196512E+03  0.18800000000E+03 0.  0.
   -5000001    1    1    2    0    0 -0.18522583012E+03  0.34951059357E+02  0.46165964186E+03  0.53292007808E+03  0.18800000000E+03 0.  0.
<mgrwt>
<rscale>  0 0.54715054E+03</rscale>
<asrwt>0</asrwt>
<pdfrwt beam="1">  1        2 0.18459292E+00 0.54715054E+03</pdfrwt>
<pdfrwt beam="2">  1       -2 0.82745151E-02 0.54715054E+03</pdfrwt>
<totfact> 0.17846314E+03</totfact>
</mgrwt>
</event>
<event>
 4    1  0.6239849E-005  0.4971510E+03  0.7818608E-02  0.1014525E+00
         -2   -1    0    0    0  501 -0.00000000000E+00  0.00000000000E+00  0.27727455989E+02  0.27727456106E+02  0.25500000000E-02 0. -1.
          2   -1    0    0  501    0  0.00000000000E+00 -0.00000000000E+00 -0.22284687482E+04  0.22284687482E+04  0.25500000000E-02 0.  1.
    5000001    1    1    2    0    0  0.11245811904E+03  0.65051491139E+02 -0.15442674441E+04  0.15610843871E+04  0.18800000000E+03 0.  0.
   -5000001    1    1    2    0    0 -0.11245811904E+03 -0.65051491139E+02 -0.65647384814E+03  0.69511181714E+03  0.18800000000E+03 0.  0.
<mgrwt>
<rscale>  0 0.49715096E+03</rscale>
<asrwt>0</asrwt>
<pdfrwt beam="1">  1        2 0.31835256E+00 0.49715096E+03</pdfrwt>
<pdfrwt beam="2">  1       -2 0.39610666E-02 0.49715096E+03</pdfrwt>
<totfact> 0.18783237E+03</totfact>
</mgrwt>
</event>
<event>
 4    1  0.6239849E-005  0.6471531E+03  0.7818608E-02  0.9812136E-01
          2   -1    0    0  501    0  0.00000000000E+00  0.00000000000E+00  0.13517873460E+04  0.13517873460E+04  0.25500000000E-02 0.  1.
         -2   -1    0    0    0  501 -0.00000000000E+00 -0.00000000000E+00 -0.77454338708E+02  0.77454338750E+02  0.25500000000E-02 0. -1.
    5000001    1    1    2    0    0 -0.10883526795E+03  0.12271109098E+03  0.10922188283E+04  0.11203522198E+04  0.18800000000E+03 0.  0.
   -5000001    1    1    2    0    0  0.10883526795E+03 -0.12271109098E+03  0.18211417898E+03  0.30888946500E+03  0.18800000000E+03 0.  0.
<mgrwt>
<rscale>  0 0.64715313E+03</rscale>
<asrwt>0</asrwt>
<pdfrwt beam="1">  1        2 0.19311249E+00 0.64715313E+03</pdfrwt>
<pdfrwt beam="2">  1       -2 0.11064905E-01 0.64715313E+03</pdfrwt>
<totfact> 0.10331959E+03</totfact>
</mgrwt>
</event>
<event>
 4    1  0.6239849E-005  0.8587546E+03  0.7818608E-02  0.9478662E-01
          2   -1    0    0  501    0  0.00000000000E+00  0.00000000000E+00  0.68604346019E+03  0.68604346019E+03  0.25500000000E-02 0. -1.
         -2   -1    0    0    0  501 -0.00000000000E+00 -0.00000000000E+00 -0.26873645257E+03  0.26873645258E+03  0.25500000000E-02 0.  1.
    5000001    1    1    2    0    0 -0.12956645229E+03 -0.34153623828E+03  0.34745921499E+03  0.53805796500E+03  0.18800000000E+03 0.  0.
   -5000001    1    1    2    0    0  0.12956645229E+03  0.34153623828E+03  0.69847792630E+02  0.41672194777E+03  0.18800000000E+03 0.  0.
<mgrwt>
<rscale>  0 0.85875465E+03</rscale>
<asrwt>0</asrwt>
<pdfrwt beam="1">  1        2 0.98006208E-01 0.85875465E+03</pdfrwt>
<pdfrwt beam="2">  1       -2 0.38390922E-01 0.85875465E+03</pdfrwt>
<totfact> 0.29646242E+02</totfact>
</mgrwt>
</event>
<event>
 4    1  0.6239849E-005  0.4098112E+03  0.7818608E-02  0.1040434E+00
         -2   -1    0    0    0  501 -0.00000000000E+00  0.00000000000E+00  0.43161074226E+02  0.43161074301E+02  0.25500000000E-02 0. -1.
          2   -1    0    0  501    0  0.00000000000E+00 -0.00000000000E+00 -0.97278194726E+03  0.97278194727E+03  0.25500000000E-02 0.  1.
    5000001    1    1    2    0    0 -0.41473076051E+02 -0.34210310564E+02 -0.61666020942E+03  0.64691898664E+03  0.18800000000E+03 0.  0.
   -5000001    1    1    2    0    0  0.41473076051E+02  0.34210310564E+02 -0.31296066361E+03  0.36902403493E+03  0.18800000000E+03 0.  0.
<mgrwt>
<rscale>  0 0.40981124E+03</rscale>
<asrwt>0</asrwt>
<pdfrwt beam="1">  1        2 0.13896884E+00 0.40981124E+03</pdfrwt>
<pdfrwt beam="2">  1       -2 0.61658683E-02 0.40981124E+03</pdfrwt>
<totfact> 0.43161531E+03</totfact>
</mgrwt>
</event>
<event>
 4    1  0.6239849E-005  0.9519010E+03  0.7818608E-02  0.9362931E-01
         -2   -1    0    0    0  501 -0.00000000000E+00  0.00000000000E+00  0.19814323781E+03  0.19814323783E+03  0.25500000000E-02 0. -1.
          2   -1    0    0  501    0  0.00000000000E+00 -0.00000000000E+00 -0.11432581601E+04  0.11432581601E+04  0.25500000000E-02 0.  1.
    5000001    1    1    2    0    0 -0.13132315387E+03  0.37295148464E+03 -0.73561167765E+03  0.85604154159E+03  0.18800000000E+03 0.  0.
   -5000001    1    1    2    0    0  0.13132315387E+03 -0.37295148464E+03 -0.20950324466E+03  0.48535985636E+03  0.18800000000E+03 0.  0.
<mgrwt>
<rscale>  0 0.95190099E+03</rscale>
<asrwt>0</asrwt>
<pdfrwt beam="1">  1        2 0.16332259E+00 0.95190099E+03</pdfrwt>
<pdfrwt beam="2">  1       -2 0.28306177E-01 0.95190099E+03</pdfrwt>
<totfact> 0.26258812E+02</totfact>
</mgrwt>
</event>
<event>
 4    1  0.6239849E-005  0.4497814E+03  0.7818608E-02  0.1027787E+00
         -2   -1    0    0    0  501 -0.00000000000E+00  0.00000000000E+00  0.56967894382E+02  0.56967894439E+02  0.25500000000E-02 0. -1.
          2   -1    0    0  501    0  0.00000000000E+00 -0.00000000000E+00 -0.88779516283E+03  0.88779516283E+03  0.25500000000E-02 0.  1.
    5000001    1    1    2    0    0  0.28294550011E+02  0.25941665672E+02 -0.16903483032E+03  0.25571532109E+03  0.18800000000E+03 0.  0.
   -5000001    1    1    2    0    0 -0.28294550011E+02 -0.25941665672E+02 -0.66179243812E+03  0.68904773618E+03  0.18800000000E+03 0.  0.
<mgrwt>
<rscale>  0 0.44978137E+03</rscale>
<asrwt>0</asrwt>
<pdfrwt beam="1">  1        2 0.12682787E+00 0.44978137E+03</pdfrwt>
<pdfrwt beam="2">  1       -2 0.81382711E-02 0.44978137E+03</pdfrwt>
<totfact> 0.31588870E+03</totfact>
</mgrwt>
</event>
<event>
 4    1  0.6239849E-005  0.8089394E+03  0.7818608E-02  0.9547167E-01
          2   -1    0    0  501    0  0.00000000000E+00  0.00000000000E+00  0.85458305757E+03  0.85458305757E+03  0.25500000000E-02 0.  1.
         -2   -1    0    0    0  501 -0.00000000000E+00 -0.00000000000E+00 -0.19143337953E+03  0.19143337954E+03  0.25500000000E-02 0. -1.
    5000001    1    1    2    0    0  0.30021298584E+01  0.23802049053E+03 -0.14400828431E+02  0.30366782930E+03  0.18800000000E+03 0.  0.
   -5000001    1    1    2    0    0 -0.30021298584E+01 -0.23802049053E+03  0.67755050647E+03  0.74234860781E+03  0.18800000000E+03 0.  0.
<mgrwt>
<rscale>  0 0.80893936E+03</rscale>
<asrwt>0</asrwt>
<pdfrwt beam="1">  1        2 0.12208330E+00 0.80893936E+03</pdfrwt>
<pdfrwt beam="2">  1       -2 0.27347625E-01 0.80893936E+03</pdfrwt>
<totfact> 0.42515959E+02</totfact>
</mgrwt>
</event>
<event>
 4    1  0.6239849E-005  0.6500986E+03  0.7818608E-02  0.9806594E-01
         -2   -1    0    0    0  501 -0.00000000000E+00  0.00000000000E+00  0.97126086226E+02  0.97126086259E+02  0.25500000000E-02 0. -1.
          2   -1    0    0  501    0  0.00000000000E+00 -0.00000000000E+00 -0.10878340474E+04  0.10878340474E+04  0.25500000000E-02 0.  1.
    5000001    1    1    2    0    0 -0.22154385108E+03  0.12661949323E+03 -0.36392844107E+03  0.48259929987E+03  0.18800000000E+03 0.  0.
   -5000001    1    1    2    0    0  0.22154385108E+03 -0.12661949323E+03 -0.62677952007E+03  0.70236083376E+03  0.18800000000E+03 0.  0.
<mgrwt>
<rscale>  0 0.65009865E+03</rscale>
<asrwt>0</asrwt>
<pdfrwt beam="1">  1        2 0.15540486E+00 0.65009865E+03</pdfrwt>
<pdfrwt beam="2">  1       -2 0.13875156E-01 0.65009865E+03</pdfrwt>
<totfact> 0.99835245E+02</totfact>
</mgrwt>
</event>
<event>
 4    1  0.6239849E-005  0.5804388E+03  0.7818608E-02  0.9946841E-01
         -2   -1    0    0    0  501 -0.00000000000E+00  0.00000000000E+00  0.30936189778E+02  0.30936189884E+02  0.25500000000E-02 0. -1.
          2   -1    0    0  501    0  0.00000000000E+00 -0.00000000000E+00 -0.27226143376E+04  0.27226143376E+04  0.25500000000E-02 0.  1.
    5000001    1    1    2    0    0  0.16556842511E+03 -0.10054770440E+03 -0.18514734995E+04  0.18710480656E+04  0.18800000000E+03 0.  0.
   -5000001    1    1    2    0    0 -0.16556842511E+03  0.10054770440E+03 -0.84020464830E+03  0.88250246191E+03  0.18800000000E+03 0.  0.
<mgrwt>
<rscale>  0 0.58043885E+03</rscale>
<asrwt>0</asrwt>
<pdfrwt beam="1">  1        2 0.38894475E+00 0.58043885E+03</pdfrwt>
<pdfrwt beam="2">  1       -2 0.44194574E-02 0.58043885E+03</pdfrwt>
<totfact> 0.88259487E+02</totfact>
</mgrwt>
</event>
<event>
 4    1  0.6239849E-005  0.5860472E+03  0.7818608E-02  0.9934784E-01
          2   -1    0    0  501    0  0.00000000000E+00  0.00000000000E+00  0.20780357447E+04  0.20780357447E+04  0.25500000000E-02 0.  1.
         -2   -1    0    0    0  501 -0.00000000000E+00 -0.00000000000E+00 -0.41319224087E+02  0.41319224165E+02  0.25500000000E-02 0. -1.
    5000001    1    1    2    0    0  0.20241621864E+03  0.48762718207E+02  0.13245484104E+04  0.13539285874E+04  0.18800000000E+03 0.  0.
   -5000001    1    1    2    0    0 -0.20241621864E+03 -0.48762718207E+02  0.71216811015E+03  0.76542638142E+03  0.18800000000E+03 0.  0.
<mgrwt>
<rscale>  0 0.58604718E+03</rscale>
<asrwt>0</asrwt>
<pdfrwt beam="1">  1        2 0.29686226E+00 0.58604718E+03</pdfrwt>
<pdfrwt beam="2">  1       -2 0.59027460E-02 0.58604718E+03</pdfrwt>
<totfact> 0.12004118E+03</totfact>
</mgrwt>
</event>
<event>
 4    1  0.6239849E-005  0.7660845E+03  0.7818608E-02  0.9610449E-01
          2   -1    0    0  501    0  0.00000000000E+00  0.00000000000E+00  0.21709624836E+04  0.21709624836E+04  0.25500000000E-02 0.  1.
         -2   -1    0    0    0  501 -0.00000000000E+00 -0.00000000000E+00 -0.67583560909E+02  0.67583560957E+02  0.25500000000E-02 0. -1.
    5000001    1    1    2    0    0 -0.15526705740E+03 -0.28851210042E+03  0.86618379844E+03  0.94496849889E+03  0.18800000000E+03 0.  0.
   -5000001    1    1    2    0    0  0.15526705740E+03  0.28851210042E+03  0.12371951243E+04  0.12935775457E+04  0.18800000000E+03 0.  0.
<mgrwt>
<rscale>  0 0.76608453E+03</rscale>
<asrwt>0</asrwt>
<pdfrwt beam="1">  1        2 0.31013755E+00 0.76608453E+03</pdfrwt>
<pdfrwt beam="2">  1       -2 0.96547928E-02 0.76608453E+03</pdfrwt>
<totfact> 0.48666843E+02</totfact>
</mgrwt>
</event>
<event>
 4    1  0.6239849E-005  0.8413025E+03  0.7818608E-02  0.9502085E-01
          2   -1    0    0  501    0  0.00000000000E+00  0.00000000000E+00  0.18800022791E+04  0.18800022791E+04  0.25500000000E-02 0.  1.
         -2   -1    0    0    0  501 -0.00000000000E+00 -0.00000000000E+00 -0.94120889227E+02  0.94120889261E+02  0.25500000000E-02 0. -1.
    5000001    1    1    2    0    0  0.15847402331E+03  0.32938242980E+03  0.68310611975E+03  0.79723570666E+03  0.18800000000E+03 0.  0.
   -5000001    1    1    2    0    0 -0.15847402331E+03 -0.32938242980E+03  0.11027752701E+04  0.11768874617E+04  0.18800000000E+03 0.  0.
<mgrwt>
<rscale>  0 0.84130253E+03</rscale>
<asrwt>0</asrwt>
<pdfrwt beam="1">  1        2 0.26857174E+00 0.84130253E+03</pdfrwt>
<pdfrwt beam="2">  1       -2 0.13445842E-01 0.84130253E+03</pdfrwt>
<totfact> 0.39410302E+02</totfact>
</mgrwt>
</event>
<event>
 4    1  0.6239849E-005  0.7878087E+03  0.7818608E-02  0.9577833E-01
          2   -1    0    0  501    0  0.00000000000E+00  0.00000000000E+00  0.32039406390E+04  0.32039406390E+04  0.25500000000E-02 0.  1.
         -2   -1    0    0    0  501 -0.00000000000E+00 -0.00000000000E+00 -0.48428058237E+02  0.48428058304E+02  0.25500000000E-02 0. -1.
    5000001    1    1    2    0    0 -0.59066076360E+02  0.33136803722E+03  0.19111859700E+04  0.19496844333E+04  0.18800000000E+03 0.  0.
   -5000001    1    1    2    0    0  0.59066076360E+02 -0.33136803722E+03  0.12443266108E+04  0.13026842640E+04  0.18800000000E+03 0.  0.
<mgrwt>
<rscale>  0 0.78780867E+03</rscale>
<asrwt>0</asrwt>
<pdfrwt beam="1">  1        2 0.45770582E+00 0.78780867E+03</pdfrwt>
<pdfrwt beam="2">  1       -2 0.69182939E-02 0.78780867E+03</pdfrwt>
<totfact> 0.23507541E+02</totfact>
</mgrwt>
</event>
<event>
 4    1  0.6239849E-005  0.5486769E+03  0.7818608E-02  0.1001801E+00
         -2   -1    0    0    0  501 -0.00000000000E+00  0.00000000000E+00  0.75238952553E+02  0.75238952596E+02  0.25500000000E-02 0. -1.
          2   -1    0    0  501    0  0.00000000000E+00 -0.00000000000E+00 -0.10003009320E+04  0.10003009320E+04  0.25500000000E-02 0.  1.
    5000001    1    1    2    0    0 -0.43624747616E+02  0.12632676991E+02 -0.81139657536E+02  0.20973875931E+03  0.18800000000E+03 0.  0.
   -5000001    1    1    2    0    0  0.43624747616E+02 -0.12632676991E+02 -0.84392232196E+03  0.86580112533E+03  0.18800000000E+03 0.  0.
<mgrwt>
<rscale>  0 0.54867693E+03</rscale>
<asrwt>0</asrwt>
<pdfrwt beam="1">  1        2 0.14290013E+00 0.54867693E+03</pdfrwt>
<pdfrwt beam="2">  1       -2 0.10748422E-01 0.54867693E+03</pdfrwt>
<totfact> 0.17191868E+03</totfact>
</mgrwt>
</event>
<event>
 4    1  0.6239849E-005  0.8065241E+03  0.7818608E-02  0.9550621E-01
          2   -1    0    0  501    0  0.00000000000E+00  0.00000000000E+00  0.15488430798E+04  0.15488430798E+04  0.25500000000E-02 0.  1.
         -2   -1    0    0    0  501 -0.00000000000E+00 -0.00000000000E+00 -0.10499467961E+03  0.10499467964E+03  0.25500000000E-02 0. -1.
    5000001    1    1    2    0    0  0.25540274506E+03  0.23667498305E+03  0.56268189792E+03  0.68789572468E+03  0.18800000000E+03 0.  0.
   -5000001    1    1    2    0    0 -0.25540274506E+03 -0.23667498305E+03  0.88116650224E+03  0.96594203473E+03  0.18800000000E+03 0.  0.
<mgrwt>
<rscale>  0 0.80652410E+03</rscale>
<asrwt>0</asrwt>
<pdfrwt beam="1">  1        2 0.22126331E+00 0.80652410E+03</pdfrwt>
<pdfrwt beam="2">  1       -2 0.14999239E-01 0.80652410E+03</pdfrwt>
<totfact> 0.48620957E+02</totfact>
</mgrwt>
</event>
<event>
 4    1  0.6239849E-005  0.4125620E+03  0.7818608E-02  0.1039515E+00
         -2   -1    0    0    0  501 -0.00000000000E+00  0.00000000000E+00  0.23401355792E+03  0.23401355794E+03  0.25500000000E-02 0. -1.
          2   -1    0    0  501    0  0.00000000000E+00 -0.00000000000E+00 -0.18183496506E+03  0.18183496508E+03  0.25500000000E-02 0.  1.
    5000001    1    1    2    0    0 -0.55960180939E+02 -0.47311235914E+02  0.69302162367E+02  0.21334639581E+03  0.18800000000E+03 0.  0.
   -5000001    1    1    2    0    0  0.55960180939E+02  0.47311235914E+02 -0.17123569507E+02  0.20250212722E+03  0.18800000000E+03 0.  0.
<mgrwt>
<rscale>  0 0.41256198E+03</rscale>
<asrwt>0</asrwt>
<pdfrwt beam="1">  1        2 0.25976424E-01 0.41256198E+03</pdfrwt>
<pdfrwt beam="2">  1       -2 0.33430508E-01 0.41256198E+03</pdfrwt>
<totfact> 0.17385415E+03</totfact>
</mgrwt>
</event>
<event>
 4    1  0.6239849E-005  0.5400296E+03  0.7818608E-02  0.1003828E+00
          2   -1    0    0  501    0  0.00000000000E+00  0.00000000000E+00  0.30550774975E+03  0.30550774976E+03  0.25500000000E-02 0.  1.
         -2   -1    0    0    0  501 -0.00000000000E+00 -0.00000000000E+00 -0.23864532072E+03  0.23864532073E+03  0.25500000000E-02 0. -1.
    5000001    1    1    2    0    0 -0.34398630062E+02 -0.18213241949E+03  0.90507443769E+02  0.27908973711E+03  0.18800000000E+03 0.  0.
   -5000001    1    1    2    0    0  0.34398630062E+02  0.18213241949E+03 -0.23645014744E+02  0.26506333338E+03  0.18800000000E+03 0.  0.
<mgrwt>
<rscale>  0 0.54002961E+03</rscale>
<asrwt>0</asrwt>
<pdfrwt beam="1">  1        2 0.43643964E-01 0.54002961E+03</pdfrwt>
<pdfrwt beam="2">  1       -2 0.34092189E-01 0.54002961E+03</pdfrwt>
<totfact> 0.94355124E+02</totfact>
</mgrwt>
</event>
<event>
 4    1  0.6239849E-005  0.4581799E+03  0.7818608E-02  0.1025310E+00
         -2   -1    0    0    0  501 -0.00000000000E+00  0.00000000000E+00  0.74325177749E+02  0.74325177793E+02  0.25500000000E-02 0. -1.
          2   -1    0    0  501    0  0.00000000000E+00 -0.00000000000E+00 -0.70611626010E+03  0.70611626010E+03  0.25500000000E-02 0.  1.
    5000001    1    1    2    0    0  0.43634509069E+02  0.98163847709E+02 -0.18844996432E+03  0.28704964803E+03  0.18800000000E+03 0.  0.
   -5000001    1    1    2    0    0 -0.43634509069E+02 -0.98163847709E+02 -0.44334111803E+03  0.49339178987E+03  0.18800000000E+03 0.  0.
<mgrwt>
<rscale>  0 0.45817995E+03</rscale>
<asrwt>0</asrwt>
<pdfrwt beam="1">  1        2 0.10087375E+00 0.45817995E+03</pdfrwt>
<pdfrwt beam="2">  1       -2 0.10617883E-01 0.45817995E+03</pdfrwt>
<totfact> 0.27548621E+03</totfact>
</mgrwt>
</event>
<event>
 4    1  0.6239849E-005  0.4690778E+03  0.7818608E-02  0.1022181E+00
         -2   -1    0    0    0  501 -0.00000000000E+00  0.00000000000E+00  0.60823869367E+03  0.60823869367E+03  0.25500000000E-02 0. -1.
          2   -1    0    0  501    0  0.00000000000E+00 -0.00000000000E+00 -0.90438991964E+02  0.90438992000E+02  0.25500000000E-02 0.  1.
    5000001    1    1    2    0    0 -0.23992097266E+02 -0.13379152852E+03  0.31025313498E+03  0.38739747237E+03  0.18800000000E+03 0.  0.
   -5000001    1    1    2    0    0  0.23992097266E+02  0.13379152852E+03  0.20754656673E+03  0.31128021331E+03  0.18800000000E+03 0.  0.
<mgrwt>
<rscale>  0 0.46907779E+03</rscale>
<asrwt>0</asrwt>
<pdfrwt beam="1">  1        2 0.12919856E-01 0.46907779E+03</pdfrwt>
<pdfrwt beam="2">  1       -2 0.86891244E-01 0.46907779E+03</pdfrwt>
<totfact> 0.55621417E+02</totfact>
</mgrwt>
</event>
<event>
 4    1  0.6239849E-005  0.8964099E+03  0.7818608E-02  0.9430080E-01
         -2   -1    0    0    0  501 -0.00000000000E+00  0.00000000000E+00  0.37767219775E+03  0.37767219776E+03  0.25500000000E-02 0. -1.
          2   -1    0    0  501    0  0.00000000000E+00 -0.00000000000E+00 -0.53191016753E+03  0.53191016754E+03  0.25500000000E-02 0.  1.
    5000001    1    1    2    0    0 -0.17106552451E+03 -0.32330284397E+03 -0.25793842881E+03  0.48545275327E+03  0.18800000000E+03 0.  0.
   -5000001    1    1    2    0    0  0.17106552451E+03  0.32330284397E+03  0.10370045903E+03  0.42412961203E+03  0.18800000000E+03 0.  0.
<mgrwt>
<rscale>  0 0.89640991E+03</rscale>
<asrwt>0</asrwt>
<pdfrwt beam="1">  1        2 0.75987167E-01 0.89640991E+03</pdfrwt>
<pdfrwt beam="2">  1       -2 0.53953171E-01 0.89640991E+03</pdfrwt>
<totfact> 0.20292889E+02</totfact>
</mgrwt>
</event>
<event>
 4    1  0.6239849E-005  0.5832568E+03  0.7818608E-02  0.9940765E-01
         -2   -1    0    0    0  501 -0.00000000000E+00  0.00000000000E+00  0.92234805624E+02  0.92234805659E+02  0.25500000000E-02 0. -1.
          2   -1    0    0  501    0  0.00000000000E+00 -0.00000000000E+00 -0.92207195311E+03  0.92207195311E+03  0.25500000000E-02 0.  1.
    5000001    1    1    2    0    0 -0.17597592655E+03  0.11680193958E+03 -0.29081268287E+03  0.40561833826E+03  0.18800000000E+03 0.  0.
   -5000001    1    1    2    0    0  0.17597592655E+03 -0.11680193958E+03 -0.53902446461E+03  0.60868842051E+03  0.18800000000E+03 0.  0.
<mgrwt>
<rscale>  0 0.58325681E+03</rscale>
<asrwt>0</asrwt>
<pdfrwt beam="1">  1        2 0.13172456E+00 0.58325681E+03</pdfrwt>
<pdfrwt beam="2">  1       -2 0.13176401E-01 0.58325681E+03</pdfrwt>
<totfact> 0.13752169E+03</totfact>
</mgrwt>
</event>
<event>
 4    1  0.6239849E-005  0.4967121E+03  0.7818608E-02  0.1014641E+00
         -2   -1    0    0    0  501 -0.00000000000E+00  0.00000000000E+00  0.46051388394E+02  0.46051388465E+02  0.25500000000E-02 0. -1.
          2   -1    0    0  501    0  0.00000000000E+00 -0.00000000000E+00 -0.13393891413E+04  0.13393891413E+04  0.25500000000E-02 0.  1.
    5000001    1    1    2    0    0  0.10359872702E+02 -0.13969510669E+03 -0.87522654424E+03  0.90608363496E+03  0.18800000000E+03 0.  0.
   -5000001    1    1    2    0    0 -0.10359872702E+02  0.13969510669E+03 -0.41811120871E+03  0.47935689485E+03  0.18800000000E+03 0.  0.
<mgrwt>
<rscale>  0 0.49671211E+03</rscale>
<asrwt>0</asrwt>
<pdfrwt beam="1">  1        2 0.19134128E+00 0.49671211E+03</pdfrwt>
<pdfrwt beam="2">  1       -2 0.65787706E-02 0.49671211E+03</pdfrwt>
<totfact> 0.24204917E+03</totfact>
</mgrwt>
</event>
<event>
 4    1  0.6239849E-005  0.5138076E+03  0.7818608E-02  0.1010236E+00
          2   -1    0    0  501    0  0.00000000000E+00  0.00000000000E+00  0.16677215777E+04  0.16677215777E+04  0.25500000000E-02 0.  1.
         -2   -1    0    0    0  501 -0.00000000000E+00 -0.00000000000E+00 -0.39574687947E+02  0.39574688029E+02  0.25500000000E-02 0. -1.
    5000001    1    1    2    0    0 -0.13670030643E+03 -0.10643181864E+03  0.72995555692E+03  0.77342990689E+03  0.18800000000E+03 0.  0.
   -5000001    1    1    2    0    0  0.13670030643E+03  0.10643181864E+03  0.89819133286E+03  0.93386635887E+03  0.18800000000E+03 0.  0.
<mgrwt>
<rscale>  0 0.51380759E+03</rscale>
<asrwt>0</asrwt>
<pdfrwt beam="1">  1        2 0.23824592E+00 0.51380759E+03</pdfrwt>
<pdfrwt beam="2">  1       -2 0.56535274E-02 0.51380759E+03</pdfrwt>
<totfact> 0.20710880E+03</totfact>
</mgrwt>
</event>
<event>
 4    1  0.6239849E-005  0.4800109E+03  0.7818608E-02  0.1019132E+00
         -2   -1    0    0    0  501 -0.00000000000E+00  0.00000000000E+00  0.57588983363E+02  0.57588983420E+02  0.25500000000E-02 0. -1.
          2   -1    0    0  501    0  0.00000000000E+00 -0.00000000000E+00 -0.10002366143E+04  0.10002366143E+04  0.25500000000E-02 0.  1.
    5000001    1    1    2    0    0 -0.24581606128E+02 -0.94735794739E+02 -0.71947352974E+03  0.75004352284E+03  0.18800000000E+03 0.  0.
   -5000001    1    1    2    0    0  0.24581606128E+02  0.94735794739E+02 -0.22317410116E+03  0.30778207484E+03  0.18800000000E+03 0.  0.
<mgrwt>
<rscale>  0 0.48001087E+03</rscale>
<asrwt>0</asrwt>
<pdfrwt beam="1">  1        2 0.14289093E+00 0.48001087E+03</pdfrwt>
<pdfrwt beam="2">  1       -2 0.82269982E-02 0.48001087E+03</pdfrwt>
<totfact> 0.26433518E+03</totfact>
</mgrwt>
</event>
<event>
 4    1  0.6239849E-005  0.5085833E+03  0.7818608E-02  0.1011563E+00
          2   -1    0    0  501    0  0.00000000000E+00  0.00000000000E+00  0.16622059725E+03  0.16622059727E+03  0.25500000000E-02 0.  1.
         -2   -1    0    0    0  501 -0.00000000000E+00 -0.00000000000E+00 -0.38902669376E+03  0.38902669377E+03  0.25500000000E-02 0. -1.
    5000001    1    1    2    0    0  0.20831935847E+02  0.95509772578E+02  0.42081106848E+02  0.21603450132E+03  0.18800000000E+03 0.  0.
   -5000001    1    1    2    0    0 -0.20831935847E+02 -0.95509772578E+02 -0.26488720336E+03  0.33921278972E+03  0.18800000000E+03 0.  0.
<mgrwt>
<rscale>  0 0.50858332E+03</rscale>
<asrwt>0</asrwt>
<pdfrwt beam="1">  1        2 0.23745800E-01 0.50858332E+03</pdfrwt>
<pdfrwt beam="2">  1       -2 0.55575242E-01 0.50858332E+03</pdfrwt>
<totfact> 0.71147096E+02</totfact>
</mgrwt>
</event>
<event>
 4    1  0.6239849E-005  0.5051061E+03  0.7818608E-02  0.1012455E+00
          2   -1    0    0  501    0  0.00000000000E+00  0.00000000000E+00  0.17750196484E+04  0.17750196484E+04  0.25500000000E-02 0. -1.
         -2   -1    0    0    0  501 -0.00000000000E+00 -0.00000000000E+00 -0.35933712153E+02  0.35933712243E+02  0.25500000000E-02 0.  1.
    5000001    1    1    2    0    0 -0.88488411111E+02 -0.14154477463E+03  0.78365121143E+03  0.82299352567E+03  0.18800000000E+03 0.  0.
   -5000001    1    1    2    0    0  0.88488411111E+02  0.14154477463E+03  0.95543472480E+03  0.98795983495E+03  0.18800000000E+03 0.  0.
<mgrwt>
<rscale>  0 0.50510611E+03</rscale>
<asrwt>0</asrwt>
<pdfrwt beam="1">  1        2 0.25357429E+00 0.50510611E+03</pdfrwt>
<pdfrwt beam="2">  1       -2 0.51333863E-02 0.50510611E+03</pdfrwt>
<totfact> 0.21240872E+03</totfact>
</mgrwt>
</event>
<event>
 4    1  0.6239849E-005  0.8593563E+03  0.7818608E-02  0.9477865E-01
          2   -1    0    0  501    0  0.00000000000E+00  0.00000000000E+00  0.13153409526E+04  0.13153409526E+04  0.25500000000E-02 0.  1.
         -2   -1    0    0    0  501 -0.00000000000E+00 -0.00000000000E+00 -0.14036157416E+03  0.14036157419E+03  0.25500000000E-02 0. -1.
    5000001    1    1    2    0    0 -0.30934306600E+03 -0.20919613035E+03  0.41959952419E+03  0.59233766901E+03  0.18800000000E+03 0.  0.
   -5000001    1    1    2    0    0  0.30934306600E+03  0.20919613035E+03  0.75537985422E+03  0.86336485775E+03  0.18800000000E+03 0.  0.
<mgrwt>
<rscale>  0 0.85935633E+03</rscale>
<asrwt>0</asrwt>
<pdfrwt beam="1">  1        2 0.18790586E+00 0.85935633E+03</pdfrwt>
<pdfrwt beam="2">  1       -2 0.20051653E-01 0.85935633E+03</pdfrwt>
<totfact> 0.39202560E+02</totfact>
</mgrwt>
</event>
<event>
 4    1  0.6239849E-005  0.6694551E+03  0.7818608E-02  0.9770943E-01
          2   -1    0    0  501    0  0.00000000000E+00  0.00000000000E+00  0.23032225957E+04  0.23032225957E+04  0.25500000000E-02 0.  1.
         -2   -1    0    0    0  501 -0.00000000000E+00 -0.00000000000E+00 -0.48645980061E+02  0.48645980128E+02  0.25500000000E-02 0. -1.
    5000001    1    1    2    0    0 -0.10706419492E+03  0.21800966546E+03  0.15947769183E+04  0.16240838572E+04  0.18800000000E+03 0.  0.
   -5000001    1    1    2    0    0  0.10706419492E+03 -0.21800966546E+03  0.65979969738E+03  0.72778471867E+03  0.18800000000E+03 0.  0.
<mgrwt>
<rscale>  0 0.66945506E+03</rscale>
<asrwt>0</asrwt>
<pdfrwt beam="1">  1        2 0.32903184E+00 0.66945506E+03</pdfrwt>
<pdfrwt beam="2">  1       -2 0.69494249E-02 0.66945506E+03</pdfrwt>
<totfact> 0.71100821E+02</totfact>
</mgrwt>
</event>
<event>
 4    1  0.6239849E-005  0.9607328E+03  0.7818608E-02  0.9352693E-01
         -2   -1    0    0    0  501 -0.00000000000E+00  0.00000000000E+00  0.12597695760E+03  0.12597695762E+03  0.25500000000E-02 0. -1.
          2   -1    0    0  501    0  0.00000000000E+00 -0.00000000000E+00 -0.18316990191E+04  0.18316990191E+04  0.25500000000E-02 0.  1.
    5000001    1    1    2    0    0 -0.36637783380E+03  0.21526518944E+03 -0.60466355660E+03  0.76258365808E+03  0.18800000000E+03 0.  0.
   -5000001    1    1    2    0    0  0.36637783380E+03 -0.21526518944E+03 -0.11010585049E+04  0.11950923187E+04  0.18800000000E+03 0.  0.
<mgrwt>
<rscale>  0 0.96073278E+03</rscale>
<asrwt>0</asrwt>
<pdfrwt beam="1">  1        2 0.26167127E+00 0.96073278E+03</pdfrwt>
<pdfrwt beam="2">  1       -2 0.17996709E-01 0.96073278E+03</pdfrwt>
<totfact> 0.25202725E+02</totfact>
</mgrwt>
</event>
<event>
 4    1  0.6239849E-005  0.5756969E+03  0.7818608E-02  0.9957151E-01
         -2   -1    0    0    0  501 -0.00000000000E+00  0.00000000000E+00  0.99795701935E+02  0.99795701967E+02  0.25500000000E-02 0.  1.
          2   -1    0    0  501    0  0.00000000000E+00 -0.00000000000E+00 -0.83026341592E+03  0.83026341593E+03  0.25500000000E-02 0. -1.
    5000001    1    1    2    0    0 -0.18617546824E+03 -0.11173971782E+03 -0.33434157395E+03  0.44076678366E+03  0.18800000000E+03 0.  0.
   -5000001    1    1    2    0    0  0.18617546824E+03  0.11173971782E+03 -0.39612614004E+03  0.48929233423E+03  0.18800000000E+03 0.  0.
<mgrwt>
<rscale>  0 0.57569687E+03</rscale>
<asrwt>0</asrwt>
<pdfrwt beam="1">  1        2 0.11860906E+00 0.57569687E+03</pdfrwt>
<pdfrwt beam="2">  1       -2 0.14256529E-01 0.57569687E+03</pdfrwt>
<totfact> 0.13853558E+03</totfact>
</mgrwt>
</event>
<event>
 4    1  0.6239849E-005  0.5284375E+03  0.7818608E-02  0.1006612E+00
         -2   -1    0    0    0  501 -0.00000000000E+00  0.00000000000E+00  0.28764761432E+02  0.28764761545E+02  0.25500000000E-02 0. -1.
          2   -1    0    0  501    0  0.00000000000E+00 -0.00000000000E+00 -0.24269820499E+04  0.24269820499E+04  0.25500000000E-02 0.  1.
    5000001    1    1    2    0    0 -0.12784370810E+03 -0.11153714149E+03 -0.84877712250E+03  0.88574892115E+03  0.18800000000E+03 0.  0.
   -5000001    1    1    2    0    0  0.12784370810E+03  0.11153714149E+03 -0.15494401660E+04  0.15699978903E+04  0.18800000000E+03 0.  0.
<mgrwt>
<rscale>  0 0.52843755E+03</rscale>
<asrwt>0</asrwt>
<pdfrwt beam="1">  1        2 0.34671159E+00 0.52843755E+03</pdfrwt>
<pdfrwt beam="2">  1       -2 0.41092532E-02 0.52843755E+03</pdfrwt>
<totfact> 0.14075130E+03</totfact>
</mgrwt>
</event>
<event>
 4    1  0.6239849E-005  0.4588885E+03  0.7818608E-02  0.1025104E+00
         -2   -1    0    0    0  501 -0.00000000000E+00  0.00000000000E+00  0.25715617256E+02  0.25715617382E+02  0.25500000000E-02 0. -1.
          2   -1    0    0  501    0  0.00000000000E+00 -0.00000000000E+00 -0.20471868605E+04  0.20471868605E+04  0.25500000000E-02 0.  1.
    5000001    1    1    2    0    0  0.12042710802E+03  0.51441812001E+02 -0.95509384714E+03  0.98219000464E+03  0.18800000000E+03 0.  0.
   -5000001    1    1    2    0    0 -0.12042710802E+03 -0.51441812001E+02 -0.10663773961E+04  0.10907124732E+04  0.18800000000E+03 0.  0.
<mgrwt>
<rscale>  0 0.45888854E+03</rscale>
<asrwt>0</asrwt>
<pdfrwt beam="1">  1        2 0.29245516E+00 0.45888854E+03</pdfrwt>
<pdfrwt beam="2">  1       -2 0.36736609E-02 0.45888854E+03</pdfrwt>
<totfact> 0.25993114E+03</totfact>
</mgrwt>
</event>
<event>
 4    1  0.6239849E-005  0.4533547E+03  0.7818608E-02  0.1026726E+00
         -2   -1    0    0    0  501 -0.00000000000E+00  0.00000000000E+00  0.16533768263E+02  0.16533768460E+02  0.25500000000E-02 0. -1.
          2   -1    0    0  501    0  0.00000000000E+00 -0.00000000000E+00 -0.31077378871E+04  0.31077378871E+04  0.25500000000E-02 0.  1.
    5000001    1    1    2    0    0  0.12009493228E+03  0.78080375079E+01 -0.18173437944E+04  0.18310014269E+04  0.18800000000E+03 0.  0.
   -5000001    1    1    2    0    0 -0.12009493228E+03 -0.78080375079E+01 -0.12738603244E+04  0.12932702287E+04  0.18800000000E+03 0.  0.
<mgrwt>
<rscale>  0 0.45335469E+03</rscale>
<asrwt>0</asrwt>
<pdfrwt beam="1">  1        2 0.44396218E+00 0.45335469E+03</pdfrwt>
<pdfrwt beam="2">  1       -2 0.23619689E-02 0.45335469E+03</pdfrwt>
<totfact> 0.14381707E+03</totfact>
</mgrwt>
</event>
<event>
 4    1  0.6239849E-005  0.6490042E+03  0.7818608E-02  0.9808650E-01
         -2   -1    0    0    0  501 -0.00000000000E+00  0.00000000000E+00  0.65481610909E+02  0.65481610959E+02  0.25500000000E-02 0. -1.
          2   -1    0    0  501    0  0.00000000000E+00 -0.00000000000E+00 -0.16081095428E+04  0.16081095428E+04  0.25500000000E-02 0.  1.
    5000001    1    1    2    0    0 -0.23340342437E+03  0.95085343862E+02 -0.56438628390E+03  0.64606056882E+03  0.18800000000E+03 0.  0.
   -5000001    1    1    2    0    0  0.23340342437E+03 -0.95085343862E+02 -0.97824164798E+03  0.10275305849E+04  0.18800000000E+03 0.  0.
<mgrwt>
<rscale>  0 0.64900417E+03</rscale>
<asrwt>0</asrwt>
<pdfrwt beam="1">  1        2 0.22972991E+00 0.64900417E+03</pdfrwt>
<pdfrwt beam="2">  1       -2 0.93545168E-02 0.64900417E+03</pdfrwt>
<totfact> 0.99565307E+02</totfact>
</mgrwt>
</event>
<event>
 4    1  0.6239849E-005  0.9633609E+03  0.7818608E-02  0.9349669E-01
         -2   -1    0    0    0  501 -0.00000000000E+00  0.00000000000E+00  0.11870891902E+03  0.11870891905E+03  0.25500000000E-02 0. -1.
          2   -1    0    0  501    0  0.00000000000E+00 -0.00000000000E+00 -0.19544955240E+04  0.19544955240E+04  0.25500000000E-02 0.  1.
    5000001    1    1    2    0    0 -0.61503419438E+02  0.43830595473E+03 -0.85789497116E+03  0.98347473892E+03  0.18800000000E+03 0.  0.
   -5000001    1    1    2    0    0  0.61503419438E+02 -0.43830595473E+03 -0.97789163384E+03  0.10897297041E+04  0.18800000000E+03 0.  0.
<mgrwt>
<rscale>  0 0.96336089E+03</rscale>
<asrwt>0</asrwt>
<pdfrwt beam="1">  1        2 0.27921363E+00 0.96336089E+03</pdfrwt>
<pdfrwt beam="2">  1       -2 0.16958418E-01 0.96336089E+03</pdfrwt>
<totfact> 0.24165194E+02</totfact>
</mgrwt>
</event>
<event>
 4    1  0.6239849E-005  0.6253338E+03  0.7818608E-02  0.9854197E-01
          2   -1    0    0  501    0  0.00000000000E+00  0.00000000000E+00  0.12975357714E+04  0.12975357714E+04  0.25500000000E-02 0.  1.
         -2   -1    0    0    0  501 -0.00000000000E+00 -0.00000000000E+00 -0.75343265076E+02  0.75343265119E+02  0.25500000000E-02 0. -1.
    5000001    1    1    2    0    0  0.23703935039E+03 -0.29187158902E+02  0.45010883654E+03  0.54312200159E+03  0.18800000000E+03 0.  0.
   -5000001    1    1    2    0    0 -0.23703935039E+03  0.29187158902E+02  0.77208366979E+03  0.82975703494E+03  0.18800000000E+03 0.  0.
<mgrwt>
<rscale>  0 0.62533377E+03</rscale>
<asrwt>0</asrwt>
<pdfrwt beam="1">  1        2 0.18536223E+00 0.62533377E+03</pdfrwt>
<pdfrwt beam="2">  1       -2 0.10763325E-01 0.62533377E+03</pdfrwt>
<totfact> 0.11574678E+03</totfact>
</mgrwt>
</event>
<event>
 4    1  0.6239849E-005  0.7095366E+03  0.7818608E-02  0.9701061E-01
         -2   -1    0    0    0  501 -0.00000000000E+00  0.00000000000E+00  0.59560110024E+02  0.59560110078E+02  0.25500000000E-02 0. -1.
          2   -1    0    0  501    0  0.00000000000E+00 -0.00000000000E+00 -0.21131682363E+04  0.21131682363E+04  0.25500000000E-02 0.  1.
    5000001    1    1    2    0    0 -0.34144483259E+02 -0.19493150842E+03 -0.33288151535E+03  0.43048605317E+03  0.18800000000E+03 0.  0.
   -5000001    1    1    2    0    0  0.34144483259E+02  0.19493150842E+03 -0.17207266109E+04  0.17422422932E+04  0.18800000000E+03 0.  0.
<mgrwt>
<rscale>  0 0.70953656E+03</rscale>
<asrwt>0</asrwt>
<pdfrwt beam="1">  1        2 0.30188113E+00 0.70953656E+03</pdfrwt>
<pdfrwt beam="2">  1       -2 0.85085885E-02 0.70953656E+03</pdfrwt>
<totfact> 0.64087924E+02</totfact>
</mgrwt>
</event>
<event>
 4    1  0.6239849E-005  0.1045736E+04  0.7818608E-02  0.9259758E-01
         -2   -1    0    0    0  501 -0.00000000000E+00  0.00000000000E+00  0.16143133701E+03  0.16143133703E+03  0.25500000000E-02 0. -1.
          2   -1    0    0  501    0  0.00000000000E+00 -0.00000000000E+00 -0.16935419655E+04  0.16935419655E+04  0.25500000000E-02 0.  1.
    5000001    1    1    2    0    0  0.66509758073E+02  0.37503264224E+03 -0.22518162904E+03  0.48075336371E+03  0.18800000000E+03 0.  0.
   -5000001    1    1    2    0    0 -0.66509758073E+02 -0.37503264224E+03 -0.13069289994E+04  0.13742199388E+04  0.18800000000E+03 0.  0.
<mgrwt>
<rscale>  0 0.10457356E+04</rscale>
<asrwt>0</asrwt>
<pdfrwt beam="1">  1        2 0.24193456E+00 0.10457356E+04</pdfrwt>
<pdfrwt beam="2">  1       -2 0.23061621E-01 0.10457356E+04</pdfrwt>
<totfact> 0.19081418E+02</totfact>
</mgrwt>
</event>
<event>
 4    1  0.6239849E-005  0.5380317E+03  0.7818608E-02  0.1004303E+00
          2   -1    0    0  501    0  0.00000000000E+00  0.00000000000E+00  0.22079645305E+04  0.22079645305E+04  0.25500000000E-02 0.  1.
         -2   -1    0    0    0  501 -0.00000000000E+00 -0.00000000000E+00 -0.32776580984E+02  0.32776581083E+02  0.25500000000E-02 0. -1.
    5000001    1    1    2    0    0  0.18051932686E+03  0.51305025077E+02  0.91060176255E+03  0.94855627294E+03  0.18800000000E+03 0.  0.
   -5000001    1    1    2    0    0 -0.18051932686E+03 -0.51305025077E+02  0.12645861870E+04  0.12921848387E+04  0.18800000000E+03 0.  0.
<mgrwt>
<rscale>  0 0.53803170E+03</rscale>
<asrwt>0</asrwt>
<pdfrwt beam="1">  1        2 0.31542355E+00 0.53803170E+03</pdfrwt>
<pdfrwt beam="2">  1       -2 0.46823681E-02 0.53803170E+03</pdfrwt>
<totfact> 0.14843013E+03</totfact>
</mgrwt>
</event>
<event>
 4    1  0.6239849E-005  0.6247483E+03  0.7818608E-02  0.9855351E-01
         -2   -1    0    0    0  501 -0.00000000000E+00  0.00000000000E+00  0.47659912263E+02  0.47659912331E+02  0.25500000000E-02 0. -1.
          2   -1    0    0  501    0  0.00000000000E+00 -0.00000000000E+00 -0.20473728197E+04  0.20473728197E+04  0.25500000000E-02 0.  1.
    5000001    1    1    2    0    0  0.14993342650E+03 -0.17398405336E+03 -0.13264153258E+04  0.13592174585E+04  0.18800000000E+03 0.  0.
   -5000001    1    1    2    0    0 -0.14993342650E+03  0.17398405336E+03 -0.67329758169E+03  0.73581527350E+03  0.18800000000E+03 0.  0.
<mgrwt>
<rscale>  0 0.62474830E+03</rscale>
<asrwt>0</asrwt>
<pdfrwt beam="1">  1        2 0.29248178E+00 0.62474830E+03</pdfrwt>
<pdfrwt beam="2">  1       -2 0.68085602E-02 0.62474830E+03</pdfrwt>
<totfact> 0.99164539E+02</totfact>
</mgrwt>
</event>
<event>
 4    1  0.6239849E-005  0.1285206E+04  0.7818608E-02  0.9041380E-01
         -2   -1    0    0    0  501 -0.00000000000E+00  0.00000000000E+00  0.28129935188E+03  0.28129935190E+03  0.25500000000E-02 0. -1.
          2   -1    0    0  501    0  0.00000000000E+00 -0.00000000000E+00 -0.14679696604E+04  0.14679696604E+04  0.25500000000E-02 0.  1.
    5000001    1    1    2    0    0 -0.15787175725E+03 -0.59365326027E+03 -0.61473611722E+03  0.88915250603E+03  0.18800000000E+03 0.  0.
   -5000001    1    1    2    0    0  0.15787175725E+03  0.59365326027E+03 -0.57193419128E+03  0.86011650625E+03  0.18800000000E+03 0.  0.
<mgrwt>
<rscale>  0 0.12852065E+04</rscale>
<asrwt>0</asrwt>
<pdfrwt beam="1">  1        2 0.20970995E+00 0.12852065E+04</pdfrwt>
<pdfrwt beam="2">  1       -2 0.40185623E-01 0.12852065E+04</pdfrwt>
<totfact> 0.87426297E+01</totfact>
</mgrwt>
</event>
<event>
 4    1  0.6239849E-005  0.7877071E+03  0.7818608E-02  0.9577983E-01
          2   -1    0    0  501    0  0.00000000000E+00  0.00000000000E+00  0.21361066206E+04  0.21361066206E+04  0.25500000000E-02 0.  1.
         -2   -1    0    0    0  501 -0.00000000000E+00 -0.00000000000E+00 -0.72618388101E+02  0.72618388146E+02  0.25500000000E-02 0. -1.
    5000001    1    1    2    0    0 -0.20384237263E+03 -0.17001953624E+03  0.40904137396E+03  0.52260616261E+03  0.18800000000E+03 0.  0.
   -5000001    1    1    2    0    0  0.20384237263E+03  0.17001953624E+03  0.16544468586E+04  0.16861188462E+04  0.18800000000E+03 0.  0.
<mgrwt>
<rscale>  0 0.78770710E+03</rscale>
<asrwt>0</asrwt>
<pdfrwt beam="1">  1        2 0.30515812E+00 0.78770710E+03</pdfrwt>
<pdfrwt beam="2">  1       -2 0.10374054E-01 0.78770710E+03</pdfrwt>
<totfact> 0.45023204E+02</totfact>
</mgrwt>
</event>
<event>
 4    1  0.6239849E-005  0.5506936E+03  0.7818608E-02  0.1001334E+00
          2   -1    0    0  501    0  0.00000000000E+00  0.00000000000E+00  0.50337671169E+03  0.50337671170E+03  0.25500000000E-02 0.  1.
         -2   -1    0    0    0  501 -0.00000000000E+00 -0.00000000000E+00 -0.15061453446E+03  0.15061453448E+03  0.25500000000E-02 0. -1.
    5000001    1    1    2    0    0 -0.13780526388E+03  0.13582654047E+03  0.11098115222E+03  0.29171896750E+03  0.18800000000E+03 0.  0.
   -5000001    1    1    2    0    0  0.13780526388E+03 -0.13582654047E+03  0.24178102501E+03  0.36227227869E+03  0.18800000000E+03 0.  0.
<mgrwt>
<rscale>  0 0.55069356E+03</rscale>
<asrwt>0</asrwt>
<pdfrwt beam="1">  1        2 0.71910961E-01 0.55069356E+03</pdfrwt>
<pdfrwt beam="2">  1       -2 0.21516362E-01 0.55069356E+03</pdfrwt>
<totfact> 0.12495847E+03</totfact>
</mgrwt>
</event>
<event>
 4    1  0.6239849E-005  0.4473425E+03  0.7818608E-02  0.1028518E+00
          2   -1    0    0  501    0  0.00000000000E+00  0.00000000000E+00  0.20288904653E+04  0.20288904653E+04  0.25500000000E-02 0.  1.
         -2   -1    0    0    0  501 -0.00000000000E+00 -0.00000000000E+00 -0.24658219970E+02  0.24658220102E+02  0.25500000000E-02 0. -1.
    5000001    1    1    2    0    0  0.21581058077E+02  0.10297409013E+03  0.12781385412E+04  0.12961680199E+04  0.18800000000E+03 0.  0.
   -5000001    1    1    2    0    0 -0.21581058077E+02 -0.10297409013E+03  0.72609370416E+03  0.75738066553E+03  0.18800000000E+03 0.  0.
<mgrwt>
<rscale>  0 0.44734250E+03</rscale>
<asrwt>0</asrwt>
<pdfrwt beam="1">  1        2 0.28984156E+00 0.44734250E+03</pdfrwt>
<pdfrwt beam="2">  1       -2 0.35226021E-02 0.44734250E+03</pdfrwt>
<totfact> 0.28303135E+03</totfact>
</mgrwt>
</event>
<event>
 4    1  0.6239849E-005  0.6511612E+03  0.7818608E-02  0.9804603E-01
          2   -1    0    0  501    0  0.00000000000E+00  0.00000000000E+00  0.16345876988E+04  0.16345876989E+04  0.25500000000E-02 0.  1.
         -2   -1    0    0    0  501 -0.00000000000E+00 -0.00000000000E+00 -0.64849824496E+02  0.64849824546E+02  0.25500000000E-02 0. -1.
    5000001    1    1    2    0    0 -0.19720496728E+02 -0.16574785272E+03  0.13247844107E+04  0.13484283383E+04  0.18800000000E+03 0.  0.
   -5000001    1    1    2    0    0  0.19720496728E+02  0.16574785272E+03  0.24495346365E+03  0.35100918510E+03  0.18800000000E+03 0.  0.
<mgrwt>
<rscale>  0 0.65116119E+03</rscale>
<asrwt>0</asrwt>
<pdfrwt beam="1">  1        2 0.23351251E+00 0.65116119E+03</pdfrwt>
<pdfrwt beam="2">  1       -2 0.92642612E-02 0.65116119E+03</pdfrwt>
<totfact> 0.98005890E+02</totfact>
</mgrwt>
</event>
<event>
 4    1  0.6239849E-005  0.5368163E+03  0.7818608E-02  0.1004592E+00
         -2   -1    0    0    0  501 -0.00000000000E+00  0.00000000000E+00  0.50111203655E+03  0.50111203656E+03  0.25500000000E-02 0. -1.
          2   -1    0    0  501    0  0.00000000000E+00 -0.00000000000E+00 -0.14376610440E+03  0.14376610443E+03  0.25500000000E-02 0.  1.
    5000001    1    1    2    0    0 -0.10076396693E+03 -0.10556449913E+03  0.29587225391E+02  0.23982627966E+03  0.18800000000E+03 0.  0.
   -5000001    1    1    2    0    0  0.10076396693E+03  0.10556449913E+03  0.32775870676E+03  0.40505186133E+03  0.18800000000E+03 0.  0.
<mgrwt>
<rscale>  0 0.53681626E+03</rscale>
<asrwt>0</asrwt>
<pdfrwt beam="1">  1        2 0.20538015E-01 0.53681626E+03</pdfrwt>
<pdfrwt beam="2">  1       -2 0.71587435E-01 0.53681626E+03</pdfrwt>
<totfact> 0.49165264E+02</totfact>
</mgrwt>
</event>
<event>
 4    1  0.6239849E-005  0.6221552E+03  0.7818608E-02  0.9860478E-01
         -2   -1    0    0    0  501 -0.00000000000E+00  0.00000000000E+00  0.14312938744E+03  0.14312938746E+03  0.25500000000E-02 0. -1.
          2   -1    0    0  501    0  0.00000000000E+00 -0.00000000000E+00 -0.67609647759E+03  0.67609647759E+03  0.25500000000E-02 0.  1.
    5000001    1    1    2    0    0  0.86478532370E+02  0.62449116450E+02 -0.56105677280E+03  0.60125463076E+03  0.18800000000E+03 0.  0.
   -5000001    1    1    2    0    0 -0.86478532370E+02 -0.62449116450E+02  0.28089682653E+02  0.21797123429E+03  0.18800000000E+03 0.  0.
<mgrwt>
<rscale>  0 0.62215520E+03</rscale>
<asrwt>0</asrwt>
<pdfrwt beam="1">  1        2 0.96585209E-01 0.62215520E+03</pdfrwt>
<pdfrwt beam="2">  1       -2 0.20447056E-01 0.62215520E+03</pdfrwt>
<totfact> 0.96656929E+02</totfact>
</mgrwt>
</event>
<event>
 4    1  0.6239849E-005  0.4255599E+03  0.7818608E-02  0.1035272E+00
         -2   -1    0    0    0  501 -0.00000000000E+00  0.00000000000E+00  0.35374761233E+03  0.35374761234E+03  0.25500000000E-02 0. -1.
          2   -1    0    0  501    0  0.00000000000E+00 -0.00000000000E+00 -0.12798762538E+03  0.12798762540E+03  0.25500000000E-02 0.  1.
    5000001    1    1    2    0    0 -0.12724951207E+02 -0.97764178427E+02  0.12934501568E+03  0.24858377270E+03  0.18800000000E+03 0.  0.
   -5000001    1    1    2    0    0  0.12724951207E+02  0.97764178427E+02  0.96414971274E+02  0.23315146504E+03  0.18800000000E+03 0.  0.
<mgrwt>
<rscale>  0 0.42555995E+03</rscale>
<asrwt>0</asrwt>
<pdfrwt beam="1">  1        2 0.18283946E-01 0.42555995E+03</pdfrwt>
<pdfrwt beam="2">  1       -2 0.50535374E-01 0.42555995E+03</pdfrwt>
<totfact> 0.11685572E+03</totfact>
</mgrwt>
</event>
<event>
 4    1  0.6239849E-005  0.1301847E+04  0.7818608E-02  0.9028102E-01
          2   -1    0    0  501    0  0.00000000000E+00  0.00000000000E+00  0.13439631585E+04  0.13439631585E+04  0.25500000000E-02 0.  1.
         -2   -1    0    0    0  501 -0.00000000000E+00 -0.00000000000E+00 -0.31526279977E+03  0.31526279978E+03  0.25500000000E-02 0. -1.
    5000001    1    1    2    0    0  0.11861489251E+03 -0.53072416711E+03  0.12646983533E+03  0.58913177942E+03  0.18800000000E+03 0.  0.
   -5000001    1    1    2    0    0 -0.11861489251E+03  0.53072416711E+03  0.90223052341E+03  0.10700941789E+04  0.18800000000E+03 0.  0.
<mgrwt>
<rscale>  0 0.13018473E+04</rscale>
<asrwt>0</asrwt>
<pdfrwt beam="1">  1        2 0.19199474E+00 0.13018473E+04</pdfrwt>
<pdfrwt beam="2">  1       -2 0.45037543E-01 0.13018473E+04</pdfrwt>
<totfact> 0.81353524E+01</totfact>
</mgrwt>
</event>
<event>
 4    1  0.6239849E-005  0.5788243E+03  0.7818608E-02  0.9950340E-01
          2   -1    0    0  501    0  0.00000000000E+00  0.00000000000E+00  0.25228368363E+03  0.25228368364E+03  0.25500000000E-02 0.  1.
         -2   -1    0    0    0  501 -0.00000000000E+00 -0.00000000000E+00 -0.33200478028E+03  0.33200478029E+03  0.25500000000E-02 0. -1.
    5000001    1    1    2    0    0 -0.13851352672E+03 -0.89688413092E+02 -0.18678656328E+03  0.31219101324E+03  0.18800000000E+03 0.  0.
   -5000001    1    1    2    0    0  0.13851352672E+03  0.89688413092E+02  0.10706546663E+03  0.27209745069E+03  0.18800000000E+03 0.  0.
<mgrwt>
<rscale>  0 0.57882429E+03</rscale>
<asrwt>0</asrwt>
<pdfrwt beam="1">  1        2 0.36040526E-01 0.57882429E+03</pdfrwt>
<pdfrwt beam="2">  1       -2 0.47429254E-01 0.57882429E+03</pdfrwt>
<totfact> 0.61384690E+02</totfact>
</mgrwt>
</event>
<event>
 4    1  0.6239849E-005  0.6517145E+03  0.7818608E-02  0.9803567E-01
          2   -1    0    0  501    0  0.00000000000E+00  0.00000000000E+00  0.81959306294E+03  0.81959306294E+03  0.25500000000E-02 0. -1.
         -2   -1    0    0    0  501 -0.00000000000E+00 -0.00000000000E+00 -0.12955568635E+03  0.12955568637E+03  0.25500000000E-02 0.  1.
    5000001    1    1    2    0    0 -0.31839909046E+02 -0.19237974271E+03  0.60884275636E+03  0.66637620544E+03  0.18800000000E+03 0.  0.
   -5000001    1    1    2    0    0  0.31839909046E+02  0.19237974271E+03  0.81194620232E+02  0.28277254387E+03  0.18800000000E+03 0.  0.
<mgrwt>
<rscale>  0 0.65171448E+03</rscale>
<asrwt>0</asrwt>
<pdfrwt beam="1">  1        2 0.11708473E+00 0.65171448E+03</pdfrwt>
<pdfrwt beam="2">  1       -2 0.18507954E-01 0.65171448E+03</pdfrwt>
<totfact> 0.90286322E+02</totfact>
</mgrwt>
</event>
<event>
 4    1  0.6239849E-005  0.4986860E+03  0.7818608E-02  0.1014122E+00
         -2   -1    0    0    0  501 -0.00000000000E+00  0.00000000000E+00  0.35905086418E+03  0.35905086419E+03  0.25500000000E-02 0. -1.
          2   -1    0    0  501    0  0.00000000000E+00 -0.00000000000E+00 -0.17315630765E+03  0.17315630766E+03  0.25500000000E-02 0.  1.
    5000001    1    1    2    0    0 -0.14777834797E+03  0.70379338541E+02  0.86523498429E+02  0.26385982491E+03  0.18800000000E+03 0.  0.
   -5000001    1    1    2    0    0  0.14777834797E+03 -0.70379338541E+02  0.99371058109E+02  0.26834734694E+03  0.18800000000E+03 0.  0.
<mgrwt>
<rscale>  0 0.49868596E+03</rscale>
<asrwt>0</asrwt>
<pdfrwt beam="1">  1        2 0.24736616E-01 0.49868596E+03</pdfrwt>
<pdfrwt beam="2">  1       -2 0.51292980E-01 0.49868596E+03</pdfrwt>
<totfact> 0.80016376E+02</totfact>
</mgrwt>
</event>
<event>
 4    1  0.6239849E-005  0.1145957E+04  0.7818608E-02  0.9161521E-01
         -2   -1    0    0    0  501 -0.00000000000E+00  0.00000000000E+00  0.23863997822E+03  0.23863997823E+03  0.25500000000E-02 0. -1.
          2   -1    0    0  501    0  0.00000000000E+00 -0.00000000000E+00 -0.13757318480E+04  0.13757318480E+04  0.25500000000E-02 0.  1.
    5000001    1    1    2    0    0 -0.10842681613E+03 -0.32345539080E+03 -0.11605257306E+04  0.12241502096E+04  0.18800000000E+03 0.  0.
   -5000001    1    1    2    0    0  0.10842681613E+03  0.32345539080E+03  0.23433860762E+02  0.39022161668E+03  0.18800000000E+03 0.  0.
<mgrwt>
<rscale>  0 0.11459574E+04</rscale>
<asrwt>0</asrwt>
<pdfrwt beam="1">  1        2 0.19653312E+00 0.11459574E+04</pdfrwt>
<pdfrwt beam="2">  1       -2 0.34091426E-01 0.11459574E+04</pdfrwt>
<totfact> 0.13585449E+02</totfact>
</mgrwt>
</event>
<event>
 4    1  0.6239849E-005  0.5653435E+03  0.7818608E-02  0.9980036E-01
         -2   -1    0    0    0  501 -0.00000000000E+00  0.00000000000E+00  0.82293298926E+02  0.82293298966E+02  0.25500000000E-02 0. -1.
          2   -1    0    0  501    0  0.00000000000E+00 -0.00000000000E+00 -0.97095767480E+03  0.97095767481E+03  0.25500000000E-02 0.  1.
    5000001    1    1    2    0    0 -0.74137441636E+02 -0.12975716323E+03 -0.16658451962E+03  0.29228014616E+03  0.18800000000E+03 0.  0.
   -5000001    1    1    2    0    0  0.74137441636E+02  0.12975716323E+03 -0.72207985626E+03  0.76097082761E+03  0.18800000000E+03 0.  0.
<mgrwt>
<rscale>  0 0.56534347E+03</rscale>
<asrwt>0</asrwt>
<pdfrwt beam="1">  1        2 0.13870823E+00 0.56534347E+03</pdfrwt>
<pdfrwt beam="2">  1       -2 0.11756186E-01 0.56534347E+03</pdfrwt>
<totfact> 0.15473788E+03</totfact>
</mgrwt>
</event>
<event>
 4    1  0.6239849E-005  0.4170157E+03  0.7818608E-02  0.1038042E+00
          2   -1    0    0  501    0  0.00000000000E+00  0.00000000000E+00  0.15714366659E+03  0.15714366661E+03  0.25500000000E-02 0.  1.
         -2   -1    0    0    0  501 -0.00000000000E+00 -0.00000000000E+00 -0.27666098199E+03  0.27666098200E+03  0.25500000000E-02 0. -1.
    5000001    1    1    2    0    0  0.38419419937E+02  0.73237786498E+02 -0.22371542897E+02  0.20660181783E+03  0.18800000000E+03 0.  0.
   -5000001    1    1    2    0    0 -0.38419419937E+02 -0.73237786498E+02 -0.97145772499E+02  0.22720283078E+03  0.18800000000E+03 0.  0.
<mgrwt>
<rscale>  0 0.41701569E+03</rscale>
<asrwt>0</asrwt>
<pdfrwt beam="1">  1        2 0.22449095E-01 0.41701569E+03</pdfrwt>
<pdfrwt beam="2">  1       -2 0.39522997E-01 0.41701569E+03</pdfrwt>
<totfact> 0.14945960E+03</totfact>
</mgrwt>
</event>
<event>
 4    1  0.6239849E-005  0.5429244E+03  0.7818608E-02  0.1003145E+00
          2   -1    0    0  501    0  0.00000000000E+00  0.00000000000E+00  0.18392720937E+04  0.18392720937E+04  0.25500000000E-02 0.  1.
         -2   -1    0    0    0  501 -0.00000000000E+00 -0.00000000000E+00 -0.40065704752E+02  0.40065704833E+02  0.25500000000E-02 0. -1.
    5000001    1    1    2    0    0  0.18410681870E+03  0.64893618457E+02  0.95336593909E+03  0.99113930213E+03  0.18800000000E+03 0.  0.
   -5000001    1    1    2    0    0 -0.18410681870E+03 -0.64893618457E+02  0.84584044990E+03  0.88819849644E+03  0.18800000000E+03 0.  0.
<mgrwt>
<rscale>  0 0.54292442E+03</rscale>
<asrwt>0</asrwt>
<pdfrwt beam="1">  1        2 0.26275321E+00 0.54292442E+03</pdfrwt>
<pdfrwt beam="2">  1       -2 0.57236710E-02 0.54292442E+03</pdfrwt>
<totfact> 0.16629666E+03</totfact>
</mgrwt>
</event>
<event>
 4    1  0.6239849E-005  0.6037307E+03  0.7818608E-02  0.9897696E-01
         -2   -1    0    0    0  501 -0.00000000000E+00  0.00000000000E+00  0.79038047392E+02  0.79038047433E+02  0.25500000000E-02 0. -1.
          2   -1    0    0  501    0  0.00000000000E+00 -0.00000000000E+00 -0.11528966085E+04  0.11528966085E+04  0.25500000000E-02 0.  1.
    5000001    1    1    2    0    0  0.22799264932E+03  0.51518355066E+02 -0.60594370913E+03  0.67612614776E+03  0.18800000000E+03 0.  0.
   -5000001    1    1    2    0    0 -0.22799264932E+03 -0.51518355066E+02 -0.46791485194E+03  0.55580850814E+03  0.18800000000E+03 0.  0.
<mgrwt>
<rscale>  0 0.60373072E+03</rscale>
<asrwt>0</asrwt>
<pdfrwt beam="1">  1        2 0.16469951E+00 0.60373072E+03</pdfrwt>
<pdfrwt beam="2">  1       -2 0.11291150E-01 0.60373072E+03</pdfrwt>
<totfact> 0.12891947E+03</totfact>
</mgrwt>
</event>
<event>
 4    1  0.6239849E-005  0.4845075E+03  0.7818608E-02  0.1017904E+00
         -2   -1    0    0    0  501 -0.00000000000E+00  0.00000000000E+00  0.10463475314E+03  0.10463475317E+03  0.25500000000E-02 0. -1.
          2   -1    0    0  501    0  0.00000000000E+00 -0.00000000000E+00 -0.56087378836E+03  0.56087378837E+03  0.25500000000E-02 0.  1.
    5000001    1    1    2    0    0  0.53539297550E+02  0.13951545733E+03 -0.18442613144E+03  0.30280029256E+03  0.18800000000E+03 0.  0.
   -5000001    1    1    2    0    0 -0.53539297550E+02 -0.13951545733E+03 -0.27181290378E+03  0.36270824898E+03  0.18800000000E+03 0.  0.
<mgrwt>
<rscale>  0 0.48450755E+03</rscale>
<asrwt>0</asrwt>
<pdfrwt beam="1">  1        2 0.80124825E-01 0.48450755E+03</pdfrwt>
<pdfrwt beam="2">  1       -2 0.14947822E-01 0.48450755E+03</pdfrwt>
<totfact> 0.20604456E+03</totfact>
</mgrwt>
</event>
<event>
 4    1  0.6239849E-005  0.6832490E+03  0.7818608E-02  0.9746315E-01
         -2   -1    0    0    0  501 -0.00000000000E+00  0.00000000000E+00  0.29376335378E+03  0.29376335379E+03  0.25500000000E-02 0. -1.
          2   -1    0    0  501    0  0.00000000000E+00 -0.00000000000E+00 -0.39728335290E+03  0.39728335291E+03  0.25500000000E-02 0.  1.
    5000001    1    1    2    0    0 -0.17606240737E+03  0.21771930505E+03  0.33004682708E+01  0.33727519946E+03  0.18800000000E+03 0.  0.
   -5000001    1    1    2    0    0  0.17606240737E+03 -0.21771930505E+03 -0.10682046740E+03  0.35377150724E+03  0.18800000000E+03 0.  0.
<mgrwt>
<rscale>  0 0.68324897E+03</rscale>
<asrwt>0</asrwt>
<pdfrwt beam="1">  1        2 0.56754765E-01 0.68324897E+03</pdfrwt>
<pdfrwt beam="2">  1       -2 0.41966194E-01 0.68324897E+03</pdfrwt>
<totfact> 0.47222950E+02</totfact>
</mgrwt>
</event>
<event>
 4    1  0.6239849E-005  0.8554585E+03  0.7818608E-02  0.9483040E-01
          2   -1    0    0  501    0  0.00000000000E+00  0.00000000000E+00  0.53058677850E+03  0.53058677851E+03  0.25500000000E-02 0.  1.
         -2   -1    0    0    0  501 -0.00000000000E+00 -0.00000000000E+00 -0.34481129598E+03  0.34481129599E+03  0.25500000000E-02 0. -1.
    5000001    1    1    2    0    0 -0.20573796938E+03  0.28197184102E+03  0.25716649612E+03  0.47256199370E+03  0.18800000000E+03 0.  0.
   -5000001    1    1    2    0    0  0.20573796938E+03 -0.28197184102E+03 -0.71391013596E+02  0.40283608080E+03  0.18800000000E+03 0.  0.
<mgrwt>
<rscale>  0 0.85545851E+03</rscale>
<asrwt>0</asrwt>
<pdfrwt beam="1">  1        2 0.75798111E-01 0.85545851E+03</pdfrwt>
<pdfrwt beam="2">  1       -2 0.49258757E-01 0.85545851E+03</pdfrwt>
<totfact> 0.24566389E+02</totfact>
</mgrwt>
</event>
<event>
 4    1  0.6239849E-005  0.5208994E+03  0.7818608E-02  0.1008463E+00
          2   -1    0    0  501    0  0.00000000000E+00  0.00000000000E+00  0.35333451633E+03  0.35333451634E+03  0.25500000000E-02 0.  1.
         -2   -1    0    0    0  501 -0.00000000000E+00 -0.00000000000E+00 -0.19198249619E+03  0.19198249621E+03  0.25500000000E-02 0. -1.
    5000001    1    1    2    0    0  0.36954054787E+01  0.17916782583E+03  0.60395870034E+02  0.26665788372E+03  0.18800000000E+03 0.  0.
   -5000001    1    1    2    0    0 -0.36954054787E+01 -0.17916782583E+03  0.10095615011E+03  0.27865912883E+03  0.18800000000E+03 0.  0.
<mgrwt>
<rscale>  0 0.52089939E+03</rscale>
<asrwt>0</asrwt>
<pdfrwt beam="1">  1        2 0.50476360E-01 0.52089939E+03</pdfrwt>
<pdfrwt beam="2">  1       -2 0.27426071E-01 0.52089939E+03</pdfrwt>
<totfact> 0.12022310E+03</totfact>
</mgrwt>
</event>
<event>
 4    1  0.6239849E-005  0.4289754E+03  0.7818608E-02  0.1034184E+00
         -2   -1    0    0    0  501 -0.00000000000E+00  0.00000000000E+00  0.50304605533E+02  0.50304605598E+02  0.25500000000E-02 0. -1.
          2   -1    0    0  501    0  0.00000000000E+00 -0.00000000000E+00 -0.91452812244E+03  0.91452812244E+03  0.25500000000E-02 0.  1.
    5000001    1    1    2    0    0  0.39383153717E+01  0.10313118275E+03 -0.42520670297E+03  0.47623134235E+03  0.18800000000E+03 0.  0.
   -5000001    1    1    2    0    0 -0.39383153717E+01 -0.10313118275E+03 -0.43901681393E+03  0.48860138569E+03  0.18800000000E+03 0.  0.
<mgrwt>
<rscale>  0 0.42897541E+03</rscale>
<asrwt>0</asrwt>
<pdfrwt beam="1">  1        2 0.13064686E+00 0.42897541E+03</pdfrwt>
<pdfrwt beam="2">  1       -2 0.71863728E-02 0.42897541E+03</pdfrwt>
<totfact> 0.36943045E+03</totfact>
</mgrwt>
</event>
<event>
 4    1  0.6239849E-005  0.5321793E+03  0.7818608E-02  0.1005705E+00
         -2   -1    0    0    0  501 -0.00000000000E+00  0.00000000000E+00  0.14855844323E+03  0.14855844326E+03  0.25500000000E-02 0. -1.
          2   -1    0    0  501    0  0.00000000000E+00 -0.00000000000E+00 -0.47660507917E+03  0.47660507918E+03  0.25500000000E-02 0.  1.
    5000001    1    1    2    0    0  0.62300523537E+02 -0.17367347323E+03 -0.20822599361E+03  0.33577655509E+03  0.18800000000E+03 0.  0.
   -5000001    1    1    2    0    0 -0.62300523537E+02  0.17367347323E+03 -0.11982064233E+03  0.28938696734E+03  0.18800000000E+03 0.  0.
<mgrwt>
<rscale>  0 0.53217933E+03</rscale>
<asrwt>0</asrwt>
<pdfrwt beam="1">  1        2 0.68086439E-01 0.53217933E+03</pdfrwt>
<pdfrwt beam="2">  1       -2 0.21222635E-01 0.53217933E+03</pdfrwt>
<totfact> 0.13617254E+03</totfact>
</mgrwt>
</event>
<event>
 4    1  0.6239849E-005  0.4961841E+03  0.7818608E-02  0.1014780E+00
          2   -1    0    0  501    0  0.00000000000E+00  0.00000000000E+00  0.21842497498E+04  0.21842497498E+04  0.25500000000E-02 0.  1.
         -2   -1    0    0    0  501 -0.00000000000E+00 -0.00000000000E+00 -0.28178859664E+02  0.28178859779E+02  0.25500000000E-02 0. -1.
    5000001    1    1    2    0    0 -0.55502313241E+02 -0.10451742040E+03  0.15705611743E+04  0.15861938092E+04  0.18800000000E+03 0.  0.
   -5000001    1    1    2    0    0  0.55502313241E+02  0.10451742040E+03  0.58550971584E+03  0.62623480044E+03  0.18800000000E+03 0.  0.
<mgrwt>
<rscale>  0 0.49618411E+03</rscale>
<asrwt>0</asrwt>
<pdfrwt beam="1">  1        2 0.31203572E+00 0.49618411E+03</pdfrwt>
<pdfrwt beam="2">  1       -2 0.40255508E-02 0.49618411E+03</pdfrwt>
<totfact> 0.19284347E+03</totfact>
</mgrwt>
</event>
<event>
 4    1  0.6239849E-005  0.1091992E+04  0.7818608E-02  0.9213032E-01
         -2   -1    0    0    0  501 -0.00000000000E+00  0.00000000000E+00  0.15479693037E+03  0.15479693039E+03  0.25500000000E-02 0.  1.
          2   -1    0    0  501    0  0.00000000000E+00 -0.00000000000E+00 -0.19258241353E+04  0.19258241353E+04  0.25500000000E-02 0. -1.
    5000001    1    1    2    0    0 -0.22340105621E+03 -0.42772804862E+03 -0.55600274328E+03  0.75983048506E+03  0.18800000000E+03 0.  0.
   -5000001    1    1    2    0    0  0.22340105621E+03  0.42772804862E+03 -0.12150244617E+04  0.13207905807E+04  0.18800000000E+03 0.  0.
<mgrwt>
<rscale>  0 0.10919921E+04</rscale>
<asrwt>0</asrwt>
<pdfrwt beam="1">  1        2 0.27511772E+00 0.10919921E+04</pdfrwt>
<pdfrwt beam="2">  1       -2 0.22113848E-01 0.10919921E+04</pdfrwt>
<totfact> 0.15573741E+02</totfact>
</mgrwt>
</event>
<event>
 4    1  0.6239849E-005  0.4511310E+03  0.7818608E-02  0.1027385E+00
         -2   -1    0    0    0  501 -0.00000000000E+00  0.00000000000E+00  0.19669340294E+02  0.19669340459E+02  0.25500000000E-02 0. -1.
          2   -1    0    0  501    0  0.00000000000E+00 -0.00000000000E+00 -0.25867570461E+04  0.25867570461E+04  0.25500000000E-02 0.  1.
    5000001    1    1    2    0    0  0.92414754035E+02  0.83291766274E+02 -0.13274682315E+04  0.13464746231E+04  0.18800000000E+03 0.  0.
   -5000001    1    1    2    0    0 -0.92414754035E+02 -0.83291766274E+02 -0.12396194744E+04  0.12599517635E+04  0.18800000000E+03 0.  0.
<mgrwt>
<rscale>  0 0.45113104E+03</rscale>
<asrwt>0</asrwt>
<pdfrwt beam="1">  1        2 0.36953651E+00 0.45113104E+03</pdfrwt>
<pdfrwt beam="2">  1       -2 0.28099074E-02 0.45113104E+03</pdfrwt>
<totfact> 0.20891530E+03</totfact>
</mgrwt>
</event>
<event>
 4    1  0.6239849E-005  0.6976768E+03  0.7818608E-02  0.9721213E-01
         -2   -1    0    0    0  501 -0.00000000000E+00  0.00000000000E+00  0.11391046950E+04  0.11391046950E+04  0.25500000000E-02 0. -1.
          2   -1    0    0  501    0  0.00000000000E+00 -0.00000000000E+00 -0.10682795011E+03  0.10682795014E+03  0.25500000000E-02 0.  1.
    5000001    1    1    2    0    0  0.11615359760E+03  0.48045659744E+02  0.99045776717E+03  0.10159481444E+04  0.18800000000E+03 0.  0.
   -5000001    1    1    2    0    0 -0.11615359760E+03 -0.48045659744E+02  0.41818977700E+02  0.22998450068E+03  0.18800000000E+03 0.  0.
<mgrwt>
<rscale>  0 0.69767677E+03</rscale>
<asrwt>0</asrwt>
<pdfrwt beam="1">  1        2 0.15261136E-01 0.69767677E+03</pdfrwt>
<pdfrwt beam="2">  1       -2 0.16272923E+00 0.69767677E+03</pdfrwt>
<totfact> 0.95840029E+01</totfact>
</mgrwt>
</event>
<event>
 4    1  0.6239849E-005  0.6006315E+03  0.7818608E-02  0.9904097E-01
         -2   -1    0    0    0  501 -0.00000000000E+00  0.00000000000E+00  0.43071706260E+02  0.43071706336E+02  0.25500000000E-02 0. -1.
          2   -1    0    0  501    0  0.00000000000E+00 -0.00000000000E+00 -0.20939393046E+04  0.20939393046E+04  0.25500000000E-02 0.  1.
    5000001    1    1    2    0    0 -0.22681584965E+03  0.46928216928E+02 -0.90229350696E+03  0.95032902718E+03  0.18800000000E+03 0.  0.
   -5000001    1    1    2    0    0  0.22681584965E+03 -0.46928216928E+02 -0.11485740914E+04  0.11866819838E+04  0.18800000000E+03 0.  0.
<mgrwt>
<rscale>  0 0.60063146E+03</rscale>
<asrwt>0</asrwt>
<pdfrwt beam="1">  1        2 0.29913412E+00 0.60063146E+03</pdfrwt>
<pdfrwt beam="2">  1       -2 0.61531022E-02 0.60063146E+03</pdfrwt>
<totfact> 0.11034013E+03</totfact>
</mgrwt>
</event>
<event>
 4    1  0.6239849E-005  0.5411631E+03  0.7818608E-02  0.1003560E+00
          2   -1    0    0  501    0  0.00000000000E+00  0.00000000000E+00  0.12606210218E+04  0.12606210218E+04  0.25500000000E-02 0.  1.
         -2   -1    0    0    0  501 -0.00000000000E+00 -0.00000000000E+00 -0.58078014507E+02  0.58078014563E+02  0.25500000000E-02 0. -1.
    5000001    1    1    2    0    0  0.15701782169E+03 -0.10157855270E+03  0.73244144029E+03  0.77896550768E+03  0.18800000000E+03 0.  0.
   -5000001    1    1    2    0    0 -0.15701782169E+03  0.10157855270E+03  0.47010156705E+03  0.53973352873E+03  0.18800000000E+03 0.  0.
<mgrwt>
<rscale>  0 0.54116307E+03</rscale>
<asrwt>0</asrwt>
<pdfrwt beam="1">  1        2 0.18008869E+00 0.54116307E+03</pdfrwt>
<pdfrwt beam="2">  1       -2 0.82968605E-02 0.54116307E+03</pdfrwt>
<totfact> 0.18489760E+03</totfact>
</mgrwt>
</event>
<event>
 4    1  0.6239849E-005  0.9751693E+03  0.7818608E-02  0.9336206E-01
          2   -1    0    0  501    0  0.00000000000E+00  0.00000000000E+00  0.10852318349E+04  0.10852318349E+04  0.25500000000E-02 0.  1.
         -2   -1    0    0    0  501 -0.00000000000E+00 -0.00000000000E+00 -0.21906727233E+03  0.21906727235E+03  0.25500000000E-02 0. -1.
    5000001    1    1    2    0    0  0.16685002749E+03  0.41241363543E+03  0.52251403170E+03  0.71153977520E+03  0.18800000000E+03 0.  0.
   -5000001    1    1    2    0    0 -0.16685002749E+03 -0.41241363543E+03  0.34365053083E+03  0.59275933202E+03  0.18800000000E+03 0.  0.
<mgrwt>
<rscale>  0 0.97516927E+03</rscale>
<asrwt>0</asrwt>
<pdfrwt beam="1">  1        2 0.15503312E+00 0.97516927E+03</pdfrwt>
<pdfrwt beam="2">  1       -2 0.31295325E-01 0.97516927E+03</pdfrwt>
<totfact> 0.23540546E+02</totfact>
</mgrwt>
</event>
<event>
 4    1  0.6239849E-005  0.6774047E+03  0.7818608E-02  0.9756673E-01
         -2   -1    0    0    0  501 -0.00000000000E+00  0.00000000000E+00  0.14789102103E+03  0.14789102105E+03  0.25500000000E-02 0. -1.
          2   -1    0    0  501    0  0.00000000000E+00 -0.00000000000E+00 -0.77570138619E+03  0.77570138620E+03  0.25500000000E-02 0.  1.
    5000001    1    1    2    0    0 -0.88018661184E+02 -0.26054937819E+03 -0.23050164739E+03  0.40510279269E+03  0.18800000000E+03 0.  0.
   -5000001    1    1    2    0    0  0.88018661184E+02  0.26054937819E+03 -0.39730871777E+03  0.51848961456E+03  0.18800000000E+03 0.  0.
<mgrwt>
<rscale>  0 0.67740466E+03</rscale>
<asrwt>0</asrwt>
<pdfrwt beam="1">  1        2 0.11081448E+00 0.67740466E+03</pdfrwt>
<pdfrwt beam="2">  1       -2 0.21127289E-01 0.67740466E+03</pdfrwt>
<totfact> 0.76874159E+02</totfact>
</mgrwt>
</event>
<event>
 4    1  0.6239849E-005  0.7449456E+03  0.7818608E-02  0.9643313E-01
         -2   -1    0    0    0  501 -0.00000000000E+00  0.00000000000E+00  0.47370423824E+03  0.47370423825E+03  0.25500000000E-02 0. -1.
          2   -1    0    0  501    0  0.00000000000E+00 -0.00000000000E+00 -0.29287473944E+03  0.29287473945E+03  0.25500000000E-02 0.  1.
    5000001    1    1    2    0    0  0.11203225859E+03  0.25802602637E+03 -0.69875712818E+02  0.34547832420E+03  0.18800000000E+03 0.  0.
   -5000001    1    1    2    0    0 -0.11203225859E+03 -0.25802602637E+03  0.25070521162E+03  0.42110065350E+03  0.18800000000E+03 0.  0.
<mgrwt>
<rscale>  0 0.74494565E+03</rscale>
<asrwt>0</asrwt>
<pdfrwt beam="1">  1        2 0.41839249E-01 0.74494565E+03</pdfrwt>
<pdfrwt beam="2">  1       -2 0.67672034E-01 0.74494565E+03</pdfrwt>
<totfact> 0.24722051E+02</totfact>
</mgrwt>
</event>
<event>
 4    1  0.6239849E-005  0.7692579E+03  0.7818608E-02  0.9605613E-01
          2   -1    0    0  501    0  0.00000000000E+00  0.00000000000E+00  0.23486928208E+04  0.23486928208E+04  0.25500000000E-02 0.  1.
         -2   -1    0    0    0  501 -0.00000000000E+00 -0.00000000000E+00 -0.62987979562E+02  0.62987979614E+02  0.25500000000E-02 0. -1.
    5000001    1    1    2    0    0  0.25015199151E+03  0.50033187692E+02  0.18262417110E+04  0.18535323374E+04  0.18800000000E+03 0.  0.
   -5000001    1    1    2    0    0 -0.25015199151E+03 -0.50033187692E+02  0.45946313017E+03  0.55814846296E+03  0.18800000000E+03 0.  0.
<mgrwt>
<rscale>  0 0.76925786E+03</rscale>
<asrwt>0</asrwt>
<pdfrwt beam="1">  1        2 0.33552757E+00 0.76925786E+03</pdfrwt>
<pdfrwt beam="2">  1       -2 0.89982821E-02 0.76925786E+03</pdfrwt>
<totfact> 0.44276914E+02</totfact>
</mgrwt>
</event>
<event>
 4    1  0.6239849E-005  0.4242079E+03  0.7818608E-02  0.1035705E+00
         -2   -1    0    0    0  501 -0.00000000000E+00  0.00000000000E+00  0.78414442657E+02  0.78414442698E+02  0.25500000000E-02 0. -1.
          2   -1    0    0  501    0  0.00000000000E+00 -0.00000000000E+00 -0.57372180494E+03  0.57372180495E+03  0.25500000000E-02 0.  1.
    5000001    1    1    2    0    0 -0.38922742495E+02 -0.65901304471E+02 -0.15306123272E+03  0.25422372583E+03  0.18800000000E+03 0.  0.
   -5000001    1    1    2    0    0  0.38922742495E+02  0.65901304471E+02 -0.34224612956E+03  0.39791252181E+03  0.18800000000E+03 0.  0.
<mgrwt>
<rscale>  0 0.42420785E+03</rscale>
<asrwt>0</asrwt>
<pdfrwt beam="1">  1        2 0.81960256E-01 0.42420785E+03</pdfrwt>
<pdfrwt beam="2">  1       -2 0.11202064E-01 0.42420785E+03</pdfrwt>
<totfact> 0.32249018E+03</totfact>
</mgrwt>
</event>
<event>
 4    1  0.6239849E-005  0.5078110E+03  0.7818608E-02  0.1011760E+00
          2   -1    0    0  501    0  0.00000000000E+00  0.00000000000E+00  0.12276377059E+04  0.12276377059E+04  0.25500000000E-02 0.  1.
         -2   -1    0    0    0  501 -0.00000000000E+00 -0.00000000000E+00 -0.52513872796E+02  0.52513872858E+02  0.25500000000E-02 0. -1.
    5000001    1    1    2    0    0  0.10868680140E+03 -0.88093404442E+02  0.34119759362E+03  0.41392398650E+03  0.18800000000E+03 0.  0.
   -5000001    1    1    2    0    0 -0.10868680140E+03  0.88093404442E+02  0.83392623950E+03  0.86622759228E+03  0.18800000000E+03 0.  0.
<mgrwt>
<rscale>  0 0.50781103E+03</rscale>
<asrwt>0</asrwt>
<pdfrwt beam="1">  1        2 0.17537683E+00 0.50781103E+03</pdfrwt>
<pdfrwt beam="2">  1       -2 0.75019813E-02 0.50781103E+03</pdfrwt>
<totfact> 0.22632321E+03</totfact>
</mgrwt>
</event>
<event>
 4    1  0.6239849E-005  0.5446828E+03  0.7818608E-02  0.1002732E+00
          2   -1    0    0  501    0  0.00000000000E+00  0.00000000000E+00  0.39239686827E+04  0.39239686827E+04  0.25500000000E-02 0.  1.
         -2   -1    0    0    0  501 -0.00000000000E+00 -0.00000000000E+00 -0.18901740501E+02  0.18901740673E+02  0.25500000000E-02 0. -1.
    5000001    1    1    2    0    0 -0.66888353216E+02 -0.18270642405E+03  0.21780030990E+04  0.21947430803E+04  0.18800000000E+03 0.  0.
   -5000001    1    1    2    0    0  0.66888353216E+02  0.18270642405E+03  0.17270638432E+04  0.17481273431E+04  0.18800000000E+03 0.  0.
<mgrwt>
<rscale>  0 0.54468280E+03</rscale>
<asrwt>0</asrwt>
<pdfrwt beam="1">  1        2 0.56056689E+00 0.54468280E+03</pdfrwt>
<pdfrwt beam="2">  1       -2 0.27002490E-02 0.54468280E+03</pdfrwt>
<totfact> 0.37999600E+02</totfact>
</mgrwt>
</event>
<event>
 4    1  0.6239849E-005  0.9775868E+03  0.7818608E-02  0.9333475E-01
         -2   -1    0    0    0  501 -0.00000000000E+00  0.00000000000E+00  0.20185697730E+04  0.20185697730E+04  0.25500000000E-02 0. -1.
          2   -1    0    0  501    0  0.00000000000E+00 -0.00000000000E+00 -0.11836053008E+03  0.11836053011E+03  0.25500000000E-02 0.  1.
    5000001    1    1    2    0    0  0.10883520300E+03 -0.33174664615E+03  0.15748126300E+04  0.16239703687E+04  0.18800000000E+03 0.  0.
   -5000001    1    1    2    0    0 -0.10883520300E+03  0.33174664615E+03  0.32539661287E+03  0.51295993441E+03  0.18800000000E+03 0.  0.
<mgrwt>
<rscale>  0 0.97758680E+03</rscale>
<asrwt>0</asrwt>
<pdfrwt beam="1">  1        2 0.16908646E-01 0.97758680E+03</pdfrwt>
<pdfrwt beam="2">  1       -2 0.28836712E+00 0.97758680E+03</pdfrwt>
<totfact> 0.13202535E+01</totfact>
</mgrwt>
</event>
<event>
 4    1  0.6239849E-005  0.5617772E+03  0.7818608E-02  0.9988041E-01
         -2   -1    0    0    0  501 -0.00000000000E+00  0.00000000000E+00  0.95295351309E+02  0.95295351343E+02  0.25500000000E-02 0. -1.
          2   -1    0    0  501    0  0.00000000000E+00 -0.00000000000E+00 -0.82793542944E+03  0.82793542945E+03  0.25500000000E-02 0.  1.
    5000001    1    1    2    0    0 -0.15846410392E+03 -0.69146676373E+02 -0.55841125329E+03  0.61405151485E+03  0.18800000000E+03 0.  0.
   -5000001    1    1    2    0    0  0.15846410392E+03  0.69146676373E+02 -0.17422882484E+03  0.30917926594E+03  0.18800000000E+03 0.  0.
<mgrwt>
<rscale>  0 0.56177717E+03</rscale>
<asrwt>0</asrwt>
<pdfrwt beam="1">  1        2 0.11827649E+00 0.56177717E+03</pdfrwt>
<pdfrwt beam="2">  1       -2 0.13613622E-01 0.56177717E+03</pdfrwt>
<totfact> 0.15019169E+03</totfact>
</mgrwt>
</event>
<event>
 4    1  0.6239849E-005  0.5537860E+03  0.7818608E-02  0.1000621E+00
         -2   -1    0    0    0  501 -0.00000000000E+00  0.00000000000E+00  0.28743229164E+02  0.28743229277E+02  0.25500000000E-02 0. -1.
          2   -1    0    0  501    0  0.00000000000E+00 -0.00000000000E+00 -0.26674019975E+04  0.26674019975E+04  0.25500000000E-02 0.  1.
    5000001    1    1    2    0    0 -0.40036829669E+02  0.19785420025E+03 -0.14362272234E+04  0.14624779894E+04  0.18800000000E+03 0.  0.
   -5000001    1    1    2    0    0  0.40036829669E+02 -0.19785420025E+03 -0.12024315449E+04  0.12336672373E+04  0.18800000000E+03 0.  0.
<mgrwt>
<rscale>  0 0.55378605E+03</rscale>
<asrwt>0</asrwt>
<pdfrwt beam="1">  1        2 0.38105727E+00 0.55378605E+03</pdfrwt>
<pdfrwt beam="2">  1       -2 0.41061773E-02 0.55378605E+03</pdfrwt>
<totfact> 0.10584046E+03</totfact>
</mgrwt>
</event>
<event>
 4    1  0.6239849E-005  0.5911075E+03  0.7818608E-02  0.9924029E-01
         -2   -1    0    0    0  501 -0.00000000000E+00  0.00000000000E+00  0.56887209313E+02  0.56887209371E+02  0.25500000000E-02 0.  1.
          2   -1    0    0  501    0  0.00000000000E+00 -0.00000000000E+00 -0.15355299122E+04  0.15355299122E+04  0.25500000000E-02 0. -1.
    5000001    1    1    2    0    0  0.21486007520E+03 -0.22534919170E+02 -0.93609698467E+03  0.97892504269E+03  0.18800000000E+03 0.  0.
   -5000001    1    1    2    0    0 -0.21486007520E+03  0.22534919170E+02 -0.54254571820E+03  0.61349207887E+03  0.18800000000E+03 0.  0.
<mgrwt>
<rscale>  0 0.59110747E+03</rscale>
<asrwt>0</asrwt>
<pdfrwt beam="1">  1        2 0.21936139E+00 0.59110747E+03</pdfrwt>
<pdfrwt beam="2">  1       -2 0.81267452E-02 0.59110747E+03</pdfrwt>
<totfact> 0.13635631E+03</totfact>
</mgrwt>
</event>
<event>
 4    1  0.6239849E-005  0.6061177E+03  0.7818608E-02  0.9892795E-01
         -2   -1    0    0    0  501 -0.00000000000E+00  0.00000000000E+00  0.70008725879E+02  0.70008725925E+02  0.25500000000E-02 0. -1.
          2   -1    0    0  501    0  0.00000000000E+00 -0.00000000000E+00 -0.13119029827E+04  0.13119029827E+04  0.25500000000E-02 0.  1.
    5000001    1    1    2    0    0  0.85459812410E+02  0.20842546629E+03 -0.79392382027E+03  0.84640627769E+03  0.18800000000E+03 0.  0.
   -5000001    1    1    2    0    0 -0.85459812410E+02 -0.20842546629E+03 -0.44797043658E+03  0.53550543096E+03  0.18800000000E+03 0.  0.
<mgrwt>
<rscale>  0 0.60611767E+03</rscale>
<asrwt>0</asrwt>
<pdfrwt beam="1">  1        2 0.18741470E+00 0.60611767E+03</pdfrwt>
<pdfrwt beam="2">  1       -2 0.10001247E-01 0.60611767E+03</pdfrwt>
<totfact> 0.12818553E+03</totfact>
</mgrwt>
</event>
<event>
 4    1  0.6239849E-005  0.6043224E+03  0.7818608E-02  0.9896479E-01
          2   -1    0    0  501    0  0.00000000000E+00  0.00000000000E+00  0.14198188114E+04  0.14198188114E+04  0.25500000000E-02 0.  1.
         -2   -1    0    0    0  501 -0.00000000000E+00 -0.00000000000E+00 -0.64304967146E+02  0.64304967197E+02  0.25500000000E-02 0. -1.
    5000001    1    1    2    0    0 -0.11318335852E+02 -0.12895862435E+03  0.11639835457E+04  0.11861535002E+04  0.18800000000E+03 0.  0.
   -5000001    1    1    2    0    0  0.11318335852E+02  0.12895862435E+03  0.19153029861E+03  0.29797027839E+03  0.18800000000E+03 0.  0.
<mgrwt>
<rscale>  0 0.60432244E+03</rscale>
<asrwt>0</asrwt>
<pdfrwt beam="1">  1        2 0.20283124E+00 0.60432244E+03</pdfrwt>
<pdfrwt beam="2">  1       -2 0.91864248E-02 0.60432244E+03</pdfrwt>
<totfact> 0.12874295E+03</totfact>
</mgrwt>
</event>
<event>
 4    1  0.6239849E-005  0.5193877E+03  0.7818608E-02  0.1008839E+00
         -2   -1    0    0    0  501 -0.00000000000E+00  0.00000000000E+00  0.15232089053E+03  0.15232089055E+03  0.25500000000E-02 0. -1.
          2   -1    0    0  501    0  0.00000000000E+00 -0.00000000000E+00 -0.44275532395E+03  0.44275532396E+03  0.25500000000E-02 0.  1.
    5000001    1    1    2    0    0 -0.41742323950E+02  0.14026944679E+03 -0.26819000704E+02  0.23975236831E+03  0.18800000000E+03 0.  0.
   -5000001    1    1    2    0    0  0.41742323950E+02 -0.14026944679E+03 -0.26361543272E+03  0.35532384620E+03  0.18800000000E+03 0.  0.
<mgrwt>
<rscale>  0 0.51938766E+03</rscale>
<asrwt>0</asrwt>
<pdfrwt beam="1">  1        2 0.63250760E-01 0.51938766E+03</pdfrwt>
<pdfrwt beam="2">  1       -2 0.21760127E-01 0.51938766E+03</pdfrwt>
<totfact> 0.14154538E+03</totfact>
</mgrwt>
</event>
<event>
 4    1  0.6239849E-005  0.4450776E+03  0.7818608E-02  0.1029200E+00
          2   -1    0    0  501    0  0.00000000000E+00  0.00000000000E+00  0.15190354204E+03  0.15190354206E+03  0.25500000000E-02 0.  1.
         -2   -1    0    0    0  501 -0.00000000000E+00 -0.00000000000E+00 -0.32601945147E+03  0.32601945148E+03  0.25500000000E-02 0. -1.
    5000001    1    1    2    0    0 -0.10053313343E+03  0.62891337300E+02 -0.75429260970E+02  0.23472495529E+03  0.18800000000E+03 0.  0.
   -5000001    1    1    2    0    0  0.10053313343E+03 -0.62891337300E+02 -0.98686648456E+02  0.24319803825E+03  0.18800000000E+03 0.  0.
<mgrwt>
<rscale>  0 0.44507756E+03</rscale>
<asrwt>0</asrwt>
<pdfrwt beam="1">  1        2 0.21700506E-01 0.44507756E+03</pdfrwt>
<pdfrwt beam="2">  1       -2 0.46574207E-01 0.44507756E+03</pdfrwt>
<totfact> 0.11280007E+03</totfact>
</mgrwt>
</event>
<event>
 4    1  0.6239849E-005  0.5026832E+03  0.7818608E-02  0.1013081E+00
          2   -1    0    0  501    0  0.00000000000E+00  0.00000000000E+00  0.54006585640E+03  0.54006585641E+03  0.25500000000E-02 0. -1.
         -2   -1    0    0    0  501 -0.00000000000E+00 -0.00000000000E+00 -0.11697204766E+03  0.11697204769E+03  0.25500000000E-02 0.  1.
    5000001    1    1    2    0    0  0.15761815888E+03 -0.27458227560E+02  0.27328630856E+03  0.36827550111E+03  0.18800000000E+03 0.  0.
   -5000001    1    1    2    0    0 -0.15761815888E+03  0.27458227560E+02  0.14980750018E+03  0.28876240299E+03  0.18800000000E+03 0.  0.
<mgrwt>
<rscale>  0 0.50268324E+03</rscale>
<asrwt>0</asrwt>
<pdfrwt beam="1">  1        2 0.77152262E-01 0.50268324E+03</pdfrwt>
<pdfrwt beam="2">  1       -2 0.16710293E-01 0.50268324E+03</pdfrwt>
<totfact> 0.17836146E+03</totfact>
</mgrwt>
</event>
<event>
 4    1  0.6239849E-005  0.4205818E+03  0.7818608E-02  0.1036877E+00
          2   -1    0    0  501    0  0.00000000000E+00  0.00000000000E+00  0.36577035595E+04  0.36577035595E+04  0.25500000000E-02 0.  1.
         -2   -1    0    0    0  501 -0.00000000000E+00 -0.00000000000E+00 -0.12090173664E+02  0.12090173932E+02  0.25500000000E-02 0. -1.
    5000001    1    1    2    0    0 -0.47964318097E+02  0.58470995805E+02  0.13324017360E+04  0.13477231983E+04  0.18800000000E+03 0.  0.
   -5000001    1    1    2    0    0  0.47964318097E+02 -0.58470995805E+02  0.23132116499E+04  0.23220705352E+04  0.18800000000E+03 0.  0.
<mgrwt>
<rscale>  0 0.42058184E+03</rscale>
<asrwt>0</asrwt>
<pdfrwt beam="1">  1        2 0.52252936E+00 0.42058184E+03</pdfrwt>
<pdfrwt beam="2">  1       -2 0.17271668E-02 0.42058184E+03</pdfrwt>
<totfact> 0.11103981E+03</totfact>
</mgrwt>
</event>
<event>
 4    1  0.6239849E-005  0.5100479E+03  0.7818608E-02  0.1011189E+00
          2   -1    0    0  501    0  0.00000000000E+00  0.00000000000E+00  0.11462376958E+04  0.11462376958E+04  0.25500000000E-02 0.  1.
         -2   -1    0    0    0  501 -0.00000000000E+00 -0.00000000000E+00 -0.56739721312E+02  0.56739721369E+02  0.25500000000E-02 0. -1.
    5000001    1    1    2    0    0 -0.12358359092E+03 -0.62023269857E+00  0.82797161248E+03  0.85799433547E+03  0.18800000000E+03 0.  0.
   -5000001    1    1    2    0    0  0.12358359092E+03  0.62023269857E+00  0.26152636202E+03  0.34498308171E+03  0.18800000000E+03 0.  0.
<mgrwt>
<rscale>  0 0.51004787E+03</rscale>
<asrwt>0</asrwt>
<pdfrwt beam="1">  1        2 0.16374825E+00 0.51004787E+03</pdfrwt>
<pdfrwt beam="2">  1       -2 0.81056742E-02 0.51004787E+03</pdfrwt>
<totfact> 0.22232343E+03</totfact>
</mgrwt>
</event>
<event>
 4    1  0.6239849E-005  0.4574950E+03  0.7818608E-02  0.1025510E+00
         -2   -1    0    0    0  501 -0.00000000000E+00  0.00000000000E+00  0.38118860024E+02  0.38118860110E+02  0.25500000000E-02 0. -1.
          2   -1    0    0  501    0  0.00000000000E+00 -0.00000000000E+00 -0.13726910344E+04  0.13726910344E+04  0.25500000000E-02 0.  1.
    5000001    1    1    2    0    0 -0.62225279215E+02 -0.87936897067E+02 -0.44116901296E+03  0.49150684760E+03  0.18800000000E+03 0.  0.
   -5000001    1    1    2    0    0  0.62225279215E+02  0.87936897067E+02 -0.89340316142E+03  0.91930304692E+03  0.18800000000E+03 0.  0.
<mgrwt>
<rscale>  0 0.45749499E+03</rscale>
<asrwt>0</asrwt>
<pdfrwt beam="1">  1        2 0.19609869E+00 0.45749499E+03</pdfrwt>
<pdfrwt beam="2">  1       -2 0.54455523E-02 0.45749499E+03</pdfrwt>
<totfact> 0.31204190E+03</totfact>
</mgrwt>
</event>
<event>
 4    1  0.6239849E-005  0.4575465E+03  0.7818608E-02  0.1025495E+00
         -2   -1    0    0    0  501 -0.00000000000E+00  0.00000000000E+00  0.11394981786E+03  0.11394981789E+03  0.25500000000E-02 0. -1.
          2   -1    0    0  501    0  0.00000000000E+00 -0.00000000000E+00 -0.45930038521E+03  0.45930038521E+03  0.25500000000E-02 0.  1.
    5000001    1    1    2    0    0  0.85005138214E+02 -0.86501040194E+02 -0.11278700703E+03  0.25054582901E+03  0.18800000000E+03 0.  0.
   -5000001    1    1    2    0    0 -0.85005138214E+02  0.86501040194E+02 -0.23256356031E+03  0.32270437410E+03  0.18800000000E+03 0.  0.
<mgrwt>
<rscale>  0 0.45754648E+03</rscale>
<asrwt>0</asrwt>
<pdfrwt beam="1">  1        2 0.65614340E-01 0.45754648E+03</pdfrwt>
<pdfrwt beam="2">  1       -2 0.16278546E-01 0.45754648E+03</pdfrwt>
<totfact> 0.22372839E+03</totfact>
</mgrwt>
</event>
<event>
 4    1  0.6239849E-005  0.5605463E+03  0.7818608E-02  0.9990819E-01
          2   -1    0    0  501    0  0.00000000000E+00  0.00000000000E+00  0.13241146846E+04  0.13241146846E+04  0.25500000000E-02 0.  1.
         -2   -1    0    0    0  501 -0.00000000000E+00 -0.00000000000E+00 -0.59324944628E+02  0.59324944683E+02  0.25500000000E-02 0. -1.
    5000001    1    1    2    0    0  0.12115031482E+03  0.15203526343E+03  0.45074940248E+03  0.52565306424E+03  0.18800000000E+03 0.  0.
   -5000001    1    1    2    0    0 -0.12115031482E+03 -0.15203526343E+03  0.81404033744E+03  0.85778656500E+03  0.18800000000E+03 0.  0.
<mgrwt>
<rscale>  0 0.56054627E+03</rscale>
<asrwt>0</asrwt>
<pdfrwt beam="1">  1        2 0.18915927E+00 0.56054627E+03</pdfrwt>
<pdfrwt beam="2">  1       -2 0.84749910E-02 0.56054627E+03</pdfrwt>
<totfact> 0.16501571E+03</totfact>
</mgrwt>
</event>
<event>
 4    1  0.6239849E-005  0.4696476E+03  0.7818608E-02  0.1022020E+00
          2   -1    0    0  501    0  0.00000000000E+00  0.00000000000E+00  0.21312975828E+04  0.21312975828E+04  0.25500000000E-02 0.  1.
         -2   -1    0    0    0  501 -0.00000000000E+00 -0.00000000000E+00 -0.25872598555E+02  0.25872598681E+02  0.25500000000E-02 0. -1.
    5000001    1    1    2    0    0 -0.18953200068E+02  0.67605060722E+02  0.16127878787E+04  0.16252256488E+04  0.18800000000E+03 0.  0.
   -5000001    1    1    2    0    0  0.18953200068E+02 -0.67605060722E+02  0.49263710555E+03  0.53194453263E+03  0.18800000000E+03 0.  0.
<mgrwt>
<rscale>  0 0.46964756E+03</rscale>
<asrwt>0</asrwt>
<pdfrwt beam="1">  1        2 0.30447114E+00 0.46964756E+03</pdfrwt>
<pdfrwt beam="2">  1       -2 0.36960849E-02 0.46964756E+03</pdfrwt>
<totfact> 0.23376318E+03</totfact>
</mgrwt>
</event>
<event>
 4    1  0.6239849E-005  0.4047402E+03  0.7818608E-02  0.1042151E+00
         -2   -1    0    0    0  501 -0.00000000000E+00  0.00000000000E+00  0.39979581276E+03  0.39979581277E+03  0.25500000000E-02 0. -1.
          2   -1    0    0  501    0  0.00000000000E+00 -0.00000000000E+00 -0.10243645863E+03  0.10243645866E+03  0.25500000000E-02 0.  1.
    5000001    1    1    2    0    0 -0.36789654601E+02  0.53728460588E+02  0.10275988670E+03  0.22392815919E+03  0.18800000000E+03 0.  0.
   -5000001    1    1    2    0    0  0.36789654601E+02 -0.53728460588E+02  0.19459946743E+03  0.27830411223E+03  0.18800000000E+03 0.  0.
<mgrwt>
<rscale>  0 0.40474025E+03</rscale>
<asrwt>0</asrwt>
<pdfrwt beam="1">  1        2 0.14633780E-01 0.40474025E+03</pdfrwt>
<pdfrwt beam="2">  1       -2 0.57113687E-01 0.40474025E+03</pdfrwt>
<totfact> 0.11853377E+03</totfact>
</mgrwt>
</event>
<event>
 4    1  0.6239849E-005  0.4620100E+03  0.7818608E-02  0.1024200E+00
          2   -1    0    0  501    0  0.00000000000E+00  0.00000000000E+00  0.21121064638E+04  0.21121064638E+04  0.25500000000E-02 0.  1.
         -2   -1    0    0    0  501 -0.00000000000E+00 -0.00000000000E+00 -0.25265448603E+02  0.25265448732E+02  0.25500000000E-02 0. -1.
    5000001    1    1    2    0    0  0.12540228316E+03  0.35624166259E+01  0.82247699999E+03  0.85296590726E+03  0.18800000000E+03 0.  0.
   -5000001    1    1    2    0    0 -0.12540228316E+03 -0.35624166259E+01  0.12643640152E+04  0.12844060053E+04  0.18800000000E+03 0.  0.
<mgrwt>
<rscale>  0 0.46201003E+03</rscale>
<asrwt>0</asrwt>
<pdfrwt beam="1">  1        2 0.30172941E+00 0.46201003E+03</pdfrwt>
<pdfrwt beam="2">  1       -2 0.36093509E-02 0.46201003E+03</pdfrwt>
<totfact> 0.24783702E+03</totfact>
</mgrwt>
</event>
<event>
 4    1  0.6239849E-005  0.7841778E+03  0.7818608E-02  0.9583206E-01
          2   -1    0    0  501    0  0.00000000000E+00  0.00000000000E+00  0.75103820946E+03  0.75103820946E+03  0.25500000000E-02 0.  1.
         -2   -1    0    0    0  501 -0.00000000000E+00 -0.00000000000E+00 -0.20469491175E+03  0.20469491177E+03  0.25500000000E-02 0. -1.
    5000001    1    1    2    0    0  0.32487027041E+03  0.74664774945E+02  0.16922413960E+03  0.41844513456E+03  0.18800000000E+03 0.  0.
   -5000001    1    1    2    0    0 -0.32487027041E+03 -0.74664774945E+02  0.37711915811E+03  0.53728798668E+03  0.18800000000E+03 0.  0.
<mgrwt>
<rscale>  0 0.78417779E+03</rscale>
<asrwt>0</asrwt>
<pdfrwt beam="1">  1        2 0.10729117E+00 0.78417779E+03</pdfrwt>
<pdfrwt beam="2">  1       -2 0.29242130E-01 0.78417779E+03</pdfrwt>
<totfact> 0.44445935E+02</totfact>
</mgrwt>
</event>
<event>
 4    1  0.6239849E-005  0.4917035E+03  0.7818608E-02  0.1015967E+00
         -2   -1    0    0    0  501 -0.00000000000E+00  0.00000000000E+00  0.77022070345E+02  0.77022070387E+02  0.25500000000E-02 0. -1.
          2   -1    0    0  501    0  0.00000000000E+00 -0.00000000000E+00 -0.78475022265E+03  0.78475022266E+03  0.25500000000E-02 0.  1.
    5000001    1    1    2    0    0  0.49625234601E+02 -0.13803248919E+03 -0.45877970407E+03  0.51704782066E+03  0.18800000000E+03 0.  0.
   -5000001    1    1    2    0    0 -0.49625234601E+02  0.13803248919E+03 -0.24894844824E+03  0.34472447239E+03  0.18800000000E+03 0.  0.
<mgrwt>
<rscale>  0 0.49170352E+03</rscale>
<asrwt>0</asrwt>
<pdfrwt beam="1">  1        2 0.11210717E+00 0.49170352E+03</pdfrwt>
<pdfrwt beam="2">  1       -2 0.11003153E-01 0.49170352E+03</pdfrwt>
<totfact> 0.22827800E+03</totfact>
</mgrwt>
</event>
<event>
 4    1  0.6239849E-005  0.5444519E+03  0.7818608E-02  0.1002786E+00
         -2   -1    0    0    0  501 -0.00000000000E+00  0.00000000000E+00  0.37604490404E+02  0.37604490490E+02  0.25500000000E-02 0. -1.
          2   -1    0    0  501    0  0.00000000000E+00 -0.00000000000E+00 -0.19706944132E+04  0.19706944132E+04  0.25500000000E-02 0.  1.
    5000001    1    1    2    0    0 -0.15890956332E+03  0.10665979349E+03 -0.79613043977E+03  0.84011680020E+03  0.18800000000E+03 0.  0.
   -5000001    1    1    2    0    0  0.15890956332E+03 -0.10665979349E+03 -0.11369594830E+04  0.11681821034E+04  0.18800000000E+03 0.  0.
<mgrwt>
<rscale>  0 0.54445187E+03</rscale>
<asrwt>0</asrwt>
<pdfrwt beam="1">  1        2 0.28152771E+00 0.54445187E+03</pdfrwt>
<pdfrwt beam="2">  1       -2 0.53720713E-02 0.54445187E+03</pdfrwt>
<totfact> 0.15769623E+03</totfact>
</mgrwt>
</event>
<event>
 4    1  0.6239849E-005  0.4353313E+03  0.7818608E-02  0.1032189E+00
          2   -1    0    0  501    0  0.00000000000E+00  0.00000000000E+00  0.61773906744E+03  0.61773906745E+03  0.25500000000E-02 0.  1.
         -2   -1    0    0    0  501 -0.00000000000E+00 -0.00000000000E+00 -0.76696372045E+02  0.76696372087E+02  0.25500000000E-02 0. -1.
    5000001    1    1    2    0    0 -0.85848323788E+02  0.68294844412E+02  0.26976486957E+03  0.34662833889E+03  0.18800000000E+03 0.  0.
   -5000001    1    1    2    0    0  0.85848323788E+02 -0.68294844412E+02  0.27127782583E+03  0.34780710064E+03  0.18800000000E+03 0.  0.
<mgrwt>
<rscale>  0 0.43533135E+03</rscale>
<asrwt>0</asrwt>
<pdfrwt beam="1">  1        2 0.88248437E-01 0.43533135E+03</pdfrwt>
<pdfrwt beam="2">  1       -2 0.10956625E-01 0.43533135E+03</pdfrwt>
<totfact> 0.30690110E+03</totfact>
</mgrwt>
</event>
<event>
 4    1  0.6239849E-005  0.1145758E+04  0.7818608E-02  0.9161706E-01
         -2   -1    0    0    0  501 -0.00000000000E+00  0.00000000000E+00  0.83844887738E+03  0.83844887739E+03  0.25500000000E-02 0.  1.
          2   -1    0    0  501    0  0.00000000000E+00 -0.00000000000E+00 -0.39142565484E+03  0.39142565485E+03  0.25500000000E-02 0. -1.
    5000001    1    1    2    0    0  0.45426161224E+03 -0.29038689414E+03  0.17352869678E+03  0.59676994667E+03  0.18800000000E+03 0.  0.
   -5000001    1    1    2    0    0 -0.45426161224E+03  0.29038689414E+03  0.27349452576E+03  0.63310458557E+03  0.18800000000E+03 0.  0.
<mgrwt>
<rscale>  0 0.11457581E+04</rscale>
<asrwt>0</asrwt>
<pdfrwt beam="1">  1        2 0.55917951E-01 0.11457581E+04</pdfrwt>
<pdfrwt beam="2">  1       -2 0.11977841E+00 0.11457581E+04</pdfrwt>
<totfact> 0.46827507E+01</totfact>
</mgrwt>
</event>
<event>
 4    1  0.6239849E-005  0.4828629E+03  0.7818608E-02  0.1018351E+00
         -2   -1    0    0    0  501 -0.00000000000E+00  0.00000000000E+00  0.34471101160E+02  0.34471101254E+02  0.25500000000E-02 0. -1.
          2   -1    0    0  501    0  0.00000000000E+00 -0.00000000000E+00 -0.16909566057E+04  0.16909566057E+04  0.25500000000E-02 0.  1.
    5000001    1    1    2    0    0 -0.13063414999E+03  0.44754190063E+02 -0.60574980525E+03  0.64911096527E+03  0.18800000000E+03 0.  0.
   -5000001    1    1    2    0    0  0.13063414999E+03 -0.44754190063E+02 -0.10507356993E+04  0.10763167417E+04  0.18800000000E+03 0.  0.
<mgrwt>
<rscale>  0 0.48286286E+03</rscale>
<asrwt>0</asrwt>
<pdfrwt beam="1">  1        2 0.24156518E+00 0.48286286E+03</pdfrwt>
<pdfrwt beam="2">  1       -2 0.49244441E-02 0.48286286E+03</pdfrwt>
<totfact> 0.24984601E+03</totfact>
</mgrwt>
</event>
<event>
 4    1  0.6239849E-005  0.4263605E+03  0.7818608E-02  0.1035016E+00
         -2   -1    0    0    0  501 -0.00000000000E+00  0.00000000000E+00  0.18036035661E+02  0.18036035841E+02  0.25500000000E-02 0. -1.
          2   -1    0    0  501    0  0.00000000000E+00 -0.00000000000E+00 -0.25197233133E+04  0.25197233133E+04  0.25500000000E-02 0.  1.
    5000001    1    1    2    0    0  0.80972222936E+02 -0.37184511327E+02 -0.15276427437E+04  0.15417443177E+04  0.18800000000E+03 0.  0.
   -5000001    1    1    2    0    0 -0.80972222936E+02  0.37184511327E+02 -0.97404453397E+03  0.99601503147E+03  0.18800000000E+03 0.  0.
<mgrwt>
<rscale>  0 0.42636050E+03</rscale>
<asrwt>0</asrwt>
<pdfrwt beam="1">  1        2 0.35996025E+00 0.42636050E+03</pdfrwt>
<pdfrwt beam="2">  1       -2 0.25765781E-02 0.42636050E+03</pdfrwt>
<totfact> 0.25787074E+03</totfact>
</mgrwt>
</event>
<event>
 4    1  0.6239849E-005  0.4982581E+03  0.7818608E-02  0.1014235E+00
         -2   -1    0    0    0  501 -0.00000000000E+00  0.00000000000E+00  0.48587434667E+02  0.48587434734E+02  0.25500000000E-02 0. -1.
          2   -1    0    0  501    0  0.00000000000E+00 -0.00000000000E+00 -0.12773938621E+04  0.12773938621E+04  0.25500000000E-02 0.  1.
    5000001    1    1    2    0    0  0.14360901897E+03 -0.28386400697E+02 -0.42080961825E+03  0.48358460778E+03  0.18800000000E+03 0.  0.
   -5000001    1    1    2    0    0 -0.14360901897E+03  0.28386400697E+02 -0.80799680919E+03  0.84239668905E+03  0.18800000000E+03 0.  0.
<mgrwt>
<rscale>  0 0.49825813E+03</rscale>
<asrwt>0</asrwt>
<pdfrwt beam="1">  1        2 0.18248482E+00 0.49825813E+03</pdfrwt>
<pdfrwt beam="2">  1       -2 0.69410629E-02 0.49825813E+03</pdfrwt>
<totfact> 0.24029853E+03</totfact>
</mgrwt>
</event>
<event>
 4    1  0.6239849E-005  0.4342005E+03  0.7818608E-02  0.1032541E+00
          2   -1    0    0  501    0  0.00000000000E+00  0.00000000000E+00  0.79656897614E+03  0.79656897615E+03  0.25500000000E-02 0.  1.
         -2   -1    0    0    0  501 -0.00000000000E+00 -0.00000000000E+00 -0.59169416425E+02  0.59169416480E+02  0.25500000000E-02 0. -1.
    5000001    1    1    2    0    0 -0.10764499220E+03  0.14102733084E+02  0.36578316813E+03  0.42535591863E+03  0.18800000000E+03 0.  0.
   -5000001    1    1    2    0    0  0.10764499220E+03 -0.14102733084E+02  0.37161639159E+03  0.43038247400E+03  0.18800000000E+03 0.  0.
<mgrwt>
<rscale>  0 0.43420051E+03</rscale>
<asrwt>0</asrwt>
<pdfrwt beam="1">  1        2 0.11379556E+00 0.43420051E+03</pdfrwt>
<pdfrwt beam="2">  1       -2 0.84527743E-02 0.43420051E+03</pdfrwt>
<totfact> 0.34189152E+03</totfact>
</mgrwt>
</event>
<event>
 4    1  0.6239849E-005  0.4663738E+03  0.7818608E-02  0.1022949E+00
          2   -1    0    0  501    0  0.00000000000E+00  0.00000000000E+00  0.33152330579E+04  0.33152330579E+04  0.25500000000E-02 0.  1.
         -2   -1    0    0    0  501 -0.00000000000E+00 -0.00000000000E+00 -0.16401906113E+02  0.16401906311E+02  0.25500000000E-02 0. -1.
    5000001    1    1    2    0    0 -0.96983658765E+02  0.83185083074E+02  0.20210633495E+04  0.20338059521E+04  0.18800000000E+03 0.  0.
   -5000001    1    1    2    0    0  0.96983658765E+02 -0.83185083074E+02  0.12777678022E+04  0.12978290121E+04  0.18800000000E+03 0.  0.
<mgrwt>
<rscale>  0 0.46637385E+03</rscale>
<asrwt>0</asrwt>
<pdfrwt beam="1">  1        2 0.47360522E+00 0.46637385E+03</pdfrwt>
<pdfrwt beam="2">  1       -2 0.23431270E-02 0.46637385E+03</pdfrwt>
<totfact> 0.11133136E+03</totfact>
</mgrwt>
</event>
<event>
 4    1  0.6239849E-005  0.8134216E+03  0.7818608E-02  0.9540791E-01
          2   -1    0    0  501    0  0.00000000000E+00  0.00000000000E+00  0.10685322502E+04  0.10685322502E+04  0.25500000000E-02 0.  1.
         -2   -1    0    0    0  501 -0.00000000000E+00 -0.00000000000E+00 -0.15480455107E+03  0.15480455109E+03  0.25500000000E-02 0. -1.
    5000001    1    1    2    0    0  0.34927463774E+02  0.34399802541E+03  0.61108245885E+03  0.72685647877E+03  0.18800000000E+03 0.  0.
   -5000001    1    1    2    0    0 -0.34927463774E+02 -0.34399802541E+03  0.30264524032E+03  0.49648032257E+03  0.18800000000E+03 0.  0.
<mgrwt>
<rscale>  0 0.81342155E+03</rscale>
<asrwt>0</asrwt>
<pdfrwt beam="1">  1        2 0.15264746E+00 0.81342155E+03</pdfrwt>
<pdfrwt beam="2">  1       -2 0.22114937E-01 0.81342155E+03</pdfrwt>
<totfact> 0.45683694E+02</totfact>
</mgrwt>
</event>
<event>
 4    1  0.6239849E-005  0.7131886E+03  0.7818608E-02  0.9694940E-01
          2   -1    0    0  501    0  0.00000000000E+00  0.00000000000E+00  0.21177368021E+04  0.21177368021E+04  0.25500000000E-02 0.  1.
         -2   -1    0    0    0  501 -0.00000000000E+00 -0.00000000000E+00 -0.60044992235E+02  0.60044992290E+02  0.25500000000E-02 0. -1.
    5000001    1    1    2    0    0 -0.29879017639E+03 -0.44419431539E+02  0.11015465249E+04  0.11575825681E+04  0.18800000000E+03 0.  0.
   -5000001    1    1    2    0    0  0.29879017639E+03  0.44419431539E+02  0.95614528497E+03  0.10201992263E+04  0.18800000000E+03 0.  0.
<mgrwt>
<rscale>  0 0.71318859E+03</rscale>
<asrwt>0</asrwt>
<pdfrwt beam="1">  1        2 0.30253379E+00 0.71318859E+03</pdfrwt>
<pdfrwt beam="2">  1       -2 0.85778572E-02 0.71318859E+03</pdfrwt>
<totfact> 0.62907890E+02</totfact>
</mgrwt>
</event>
<event>
 4    1  0.6239849E-005  0.5873170E+03  0.7818608E-02  0.9932074E-01
          2   -1    0    0  501    0  0.00000000000E+00  0.00000000000E+00  0.10639208206E+04  0.10639208206E+04  0.25500000000E-02 0.  1.
         -2   -1    0    0    0  501 -0.00000000000E+00 -0.00000000000E+00 -0.81054266975E+02  0.81054267016E+02  0.25500000000E-02 0. -1.
    5000001    1    1    2    0    0  0.66982649467E+02 -0.21010503742E+03  0.58412215802E+03  0.65205329351E+03  0.18800000000E+03 0.  0.
   -5000001    1    1    2    0    0 -0.66982649467E+02  0.21010503742E+03  0.39874439557E+03  0.49292179408E+03  0.18800000000E+03 0.  0.
<mgrwt>
<rscale>  0 0.58731703E+03</rscale>
<asrwt>0</asrwt>
<pdfrwt beam="1">  1        2 0.15198869E+00 0.58731703E+03</pdfrwt>
<pdfrwt beam="2">  1       -2 0.11579181E-01 0.58731703E+03</pdfrwt>
<totfact> 0.13936166E+03</totfact>
</mgrwt>
</event>
<event>
 4    1  0.6239849E-005  0.6062406E+03  0.7818608E-02  0.9892543E-01
          2   -1    0    0  501    0  0.00000000000E+00  0.00000000000E+00  0.82926865954E+03  0.82926865955E+03  0.25500000000E-02 0.  1.
         -2   -1    0    0    0  501 -0.00000000000E+00 -0.00000000000E+00 -0.11079874066E+03  0.11079874069E+03  0.25500000000E-02 0. -1.
    5000001    1    1    2    0    0  0.21762694752E+03 -0.54140595725E+02  0.48177787355E+03  0.56369017362E+03  0.18800000000E+03 0.  0.
   -5000001    1    1    2    0    0 -0.21762694752E+03  0.54140595725E+02  0.23669204533E+03  0.37637722662E+03  0.18800000000E+03 0.  0.
<mgrwt>
<rscale>  0 0.60624062E+03</rscale>
<asrwt>0</asrwt>
<pdfrwt beam="1">  1        2 0.11846695E+00 0.60624062E+03</pdfrwt>
<pdfrwt beam="2">  1       -2 0.15828392E-01 0.60624062E+03</pdfrwt>
<totfact> 0.11629996E+03</totfact>
</mgrwt>
</event>
<event>
 4    1  0.6239849E-005  0.6877673E+03  0.7818608E-02  0.9738383E-01
         -2   -1    0    0    0  501 -0.00000000000E+00  0.00000000000E+00  0.53289002256E+02  0.53289002317E+02  0.25500000000E-02 0. -1.
          2   -1    0    0  501    0  0.00000000000E+00 -0.00000000000E+00 -0.22191437637E+04  0.22191437637E+04  0.25500000000E-02 0.  1.
    5000001    1    1    2    0    0 -0.12630327647E+03  0.24901293945E+03 -0.13154363181E+04  0.13578205584E+04  0.18800000000E+03 0.  0.
   -5000001    1    1    2    0    0  0.12630327647E+03 -0.24901293945E+03 -0.85041844329E+03  0.91461220763E+03  0.18800000000E+03 0.  0.
<mgrwt>
<rscale>  0 0.68776728E+03</rscale>
<asrwt>0</asrwt>
<pdfrwt beam="1">  1        2 0.31702048E+00 0.68776728E+03</pdfrwt>
<pdfrwt beam="2">  1       -2 0.76127160E-02 0.68776728E+03</pdfrwt>
<totfact> 0.67778269E+02</totfact>
</mgrwt>
</event>
<event>
 4    1  0.6239849E-005  0.8031118E+03  0.7818608E-02  0.9555524E-01
         -2   -1    0    0    0  501 -0.00000000000E+00  0.00000000000E+00  0.41541132464E+03  0.41541132465E+03  0.25500000000E-02 0. -1.
          2   -1    0    0  501    0  0.00000000000E+00 -0.00000000000E+00 -0.38816263253E+03  0.38816263254E+03  0.25500000000E-02 0.  1.
    5000001    1    1    2    0    0 -0.33338658813E+02  0.11065785600E+03 -0.32204824178E+03  0.39040453033E+03  0.18800000000E+03 0.  0.
   -5000001    1    1    2    0    0  0.33338658813E+02 -0.11065785600E+03  0.34929693389E+03  0.41316942686E+03  0.18800000000E+03 0.  0.
<mgrwt>
<rscale>  0 0.80311183E+03</rscale>
<asrwt>0</asrwt>
<pdfrwt beam="1">  1        2 0.55451804E-01 0.80311183E+03</pdfrwt>
<pdfrwt beam="2">  1       -2 0.59344475E-01 0.80311183E+03</pdfrwt>
<totfact> 0.23874219E+02</totfact>
</mgrwt>
</event>
<event>
 4    1  0.6239849E-005  0.5826061E+03  0.7818608E-02  0.9942165E-01
          2   -1    0    0  501    0  0.00000000000E+00  0.00000000000E+00  0.67516780470E+03  0.67516780470E+03  0.25500000000E-02 0.  1.
         -2   -1    0    0    0  501 -0.00000000000E+00 -0.00000000000E+00 -0.12568354090E+03  0.12568354093E+03  0.25500000000E-02 0. -1.
    5000001    1    1    2    0    0  0.10189214258E+03  0.15427413014E+03  0.44494292760E+03  0.51720472231E+03  0.18800000000E+03 0.  0.
   -5000001    1    1    2    0    0 -0.10189214258E+03 -0.15427413014E+03  0.10454133619E+03  0.28364662332E+03  0.18800000000E+03 0.  0.
<mgrwt>
<rscale>  0 0.58260615E+03</rscale>
<asrwt>0</asrwt>
<pdfrwt beam="1">  1        2 0.96452542E-01 0.58260615E+03</pdfrwt>
<pdfrwt beam="2">  1       -2 0.17954792E-01 0.58260615E+03</pdfrwt>
<totfact> 0.12133627E+03</totfact>
</mgrwt>
</event>
<event>
 4    1  0.6239849E-005  0.1154403E+04  0.7818608E-02  0.9153731E-01
         -2   -1    0    0    0  501 -0.00000000000E+00  0.00000000000E+00  0.38061588373E+03  0.38061588374E+03  0.25500000000E-02 0. -1.
          2   -1    0    0  501    0  0.00000000000E+00 -0.00000000000E+00 -0.87532179444E+03  0.87532179444E+03  0.25500000000E-02 0.  1.
    5000001    1    1    2    0    0  0.44710521841E+03 -0.27421969849E+03 -0.41133430947E+03  0.69256005770E+03  0.18800000000E+03 0.  0.
   -5000001    1    1    2    0    0 -0.44710521841E+03  0.27421969849E+03 -0.83371601232E+02  0.56337762048E+03  0.18800000000E+03 0.  0.
<mgrwt>
<rscale>  0 0.11544027E+04</rscale>
<asrwt>0</asrwt>
<pdfrwt beam="1">  1        2 0.12504597E+00 0.11544027E+04</pdfrwt>
<pdfrwt beam="2">  1       -2 0.54373698E-01 0.11544027E+04</pdfrwt>
<totfact> 0.10640674E+02</totfact>
</mgrwt>
</event>
<event>
 4    1  0.6239849E-005  0.7889984E+03  0.7818608E-02  0.9576079E-01
          2   -1    0    0  501    0  0.00000000000E+00  0.00000000000E+00  0.99999346722E+03  0.99999346722E+03  0.25500000000E-02 0.  1.
         -2   -1    0    0    0  501 -0.00000000000E+00 -0.00000000000E+00 -0.15563061907E+03  0.15563061909E+03  0.25500000000E-02 0. -1.
    5000001    1    1    2    0    0 -0.13797850306E+03 -0.31366016295E+03  0.50057680301E+03  0.63509204124E+03  0.18800000000E+03 0.  0.
   -5000001    1    1    2    0    0  0.13797850306E+03  0.31366016295E+03  0.34378604513E+03  0.52053204508E+03  0.18800000000E+03 0.  0.
<mgrwt>
<rscale>  0 0.78899836E+03</rscale>
<asrwt>0</asrwt>
<pdfrwt beam="1">  1        2 0.14285621E+00 0.78899836E+03</pdfrwt>
<pdfrwt beam="2">  1       -2 0.22232945E-01 0.78899836E+03</pdfrwt>
<totfact> 0.49838001E+02</totfact>
</mgrwt>
</event>
<event>
 4    1  0.6239849E-005  0.6530468E+03  0.7818608E-02  0.9801079E-01
         -2   -1    0    0    0  501 -0.00000000000E+00  0.00000000000E+00  0.47653274805E+03  0.47653274805E+03  0.25500000000E-02 0. -1.
          2   -1    0    0  501    0  0.00000000000E+00 -0.00000000000E+00 -0.22373603330E+03  0.22373603331E+03  0.25500000000E-02 0.  1.
    5000001    1    1    2    0    0 -0.18814346275E+03 -0.11930095817E+03 -0.31354708508E+02  0.29318560493E+03  0.18800000000E+03 0.  0.
   -5000001    1    1    2    0    0  0.18814346275E+03  0.11930095817E+03  0.28415142326E+03  0.40708317643E+03  0.18800000000E+03 0.  0.
<mgrwt>
<rscale>  0 0.65304685E+03</rscale>
<asrwt>0</asrwt>
<pdfrwt beam="1">  1        2 0.31962290E-01 0.65304685E+03</pdfrwt>
<pdfrwt beam="2">  1       -2 0.68076107E-01 0.65304685E+03</pdfrwt>
<totfact> 0.33035795E+02</totfact>
</mgrwt>
</event>
<event>
 4    1  0.6239849E-005  0.6550687E+03  0.7818608E-02  0.9797314E-01
          2   -1    0    0  501    0  0.00000000000E+00  0.00000000000E+00  0.88976326587E+03  0.88976326587E+03  0.25500000000E-02 0.  1.
         -2   -1    0    0    0  501 -0.00000000000E+00 -0.00000000000E+00 -0.12057000818E+03  0.12057000821E+03  0.25500000000E-02 0. -1.
    5000001    1    1    2    0    0 -0.24295366706E+03  0.47507296303E+02  0.54377345336E+03  0.62635213428E+03  0.18800000000E+03 0.  0.
   -5000001    1    1    2    0    0  0.24295366706E+03 -0.47507296303E+02  0.22541980432E+03  0.38398113980E+03  0.18800000000E+03 0.  0.
<mgrwt>
<rscale>  0 0.65506874E+03</rscale>
<asrwt>0</asrwt>
<pdfrwt beam="1">  1        2 0.12710904E+00 0.65506874E+03</pdfrwt>
<pdfrwt beam="2">  1       -2 0.17224286E-01 0.65506874E+03</pdfrwt>
<totfact> 0.91706603E+02</totfact>
</mgrwt>
</event>
<event>
 4    1  0.6239849E-005  0.5283494E+03  0.7818608E-02  0.1006633E+00
          2   -1    0    0  501    0  0.00000000000E+00  0.00000000000E+00  0.82820829397E+03  0.82820829398E+03  0.25500000000E-02 0.  1.
         -2   -1    0    0    0  501 -0.00000000000E+00 -0.00000000000E+00 -0.84264161513E+02  0.84264161551E+02  0.25500000000E-02 0. -1.
    5000001    1    1    2    0    0  0.12141005908E+03  0.63645167675E+01  0.61414604735E+03  0.65368209169E+03  0.18800000000E+03 0.  0.
   -5000001    1    1    2    0    0 -0.12141005908E+03 -0.63645167675E+01  0.12979808511E+03  0.25879036384E+03  0.18800000000E+03 0.  0.
<mgrwt>
<rscale>  0 0.52834942E+03</rscale>
<asrwt>0</asrwt>
<pdfrwt beam="1">  1        2 0.11831547E+00 0.52834942E+03</pdfrwt>
<pdfrwt beam="2">  1       -2 0.12037738E-01 0.52834942E+03</pdfrwt>
<totfact> 0.18402716E+03</totfact>
</mgrwt>
</event>
<event>
 4    1  0.6239849E-005  0.8520442E+03  0.7818608E-02  0.9487597E-01
          2   -1    0    0  501    0  0.00000000000E+00  0.00000000000E+00  0.27045079316E+04  0.27045079316E+04  0.25500000000E-02 0.  1.
         -2   -1    0    0    0  501 -0.00000000000E+00 -0.00000000000E+00 -0.67108262462E+02  0.67108262511E+02  0.25500000000E-02 0. -1.
    5000001    1    1    2    0    0  0.29477734867E+03 -0.99995585291E+02  0.59674593180E+03  0.69881507531E+03  0.18800000000E+03 0.  0.
   -5000001    1    1    2    0    0 -0.29477734867E+03  0.99995585291E+02  0.20406537374E+04  0.20728011188E+04  0.18800000000E+03 0.  0.
<mgrwt>
<rscale>  0 0.85204420E+03</rscale>
<asrwt>0</asrwt>
<pdfrwt beam="1">  1        2 0.38635813E+00 0.85204420E+03</pdfrwt>
<pdfrwt beam="2">  1       -2 0.95868982E-02 0.85204420E+03</pdfrwt>
<totfact> 0.25931724E+02</totfact>
</mgrwt>
</event>
<event>
 4    1  0.6239849E-005  0.1150323E+04  0.7818608E-02  0.9157485E-01
         -2   -1    0    0    0  501 -0.00000000000E+00  0.00000000000E+00  0.14973744244E+03  0.14973744246E+03  0.25500000000E-02 0. -1.
          2   -1    0    0  501    0  0.00000000000E+00 -0.00000000000E+00 -0.22092726599E+04  0.22092726599E+04  0.25500000000E-02 0.  1.
    5000001    1    1    2    0    0 -0.40778875325E+03 -0.31501994688E+03 -0.13845960776E+04  0.14892882637E+04  0.18800000000E+03 0.  0.
   -5000001    1    1    2    0    0  0.40778875325E+03  0.31501994688E+03 -0.67493913991E+03  0.86972183874E+03  0.18800000000E+03 0.  0.
<mgrwt>
<rscale>  0 0.11503232E+04</rscale>
<asrwt>0</asrwt>
<pdfrwt beam="1">  1        2 0.31561036E+00 0.11503232E+04</pdfrwt>
<pdfrwt beam="2">  1       -2 0.21391065E-01 0.11503232E+04</pdfrwt>
<totfact> 0.11778453E+02</totfact>
</mgrwt>
</event>
<event>
 4    1  0.6239849E-005  0.6330348E+03  0.7818608E-02  0.9839144E-01
          2   -1    0    0  501    0  0.00000000000E+00  0.00000000000E+00  0.14628427254E+04  0.14628427254E+04  0.25500000000E-02 0.  1.
         -2   -1    0    0    0  501 -0.00000000000E+00 -0.00000000000E+00 -0.68485332170E+02  0.68485332218E+02  0.25500000000E-02 0. -1.
    5000001    1    1    2    0    0  0.12730471710E+03  0.21184474801E+03  0.84540368490E+03  0.90063093368E+03  0.18800000000E+03 0.  0.
   -5000001    1    1    2    0    0 -0.12730471710E+03 -0.21184474801E+03  0.54895370832E+03  0.63069712393E+03  0.18800000000E+03 0.  0.
<mgrwt>
<rscale>  0 0.63303482E+03</rscale>
<asrwt>0</asrwt>
<pdfrwt beam="1">  1        2 0.20897753E+00 0.63303482E+03</pdfrwt>
<pdfrwt beam="2">  1       -2 0.97836190E-02 0.63303482E+03</pdfrwt>
<totfact> 0.11025635E+03</totfact>
</mgrwt>
</event>
<event>
 4    1  0.6239849E-005  0.6629806E+03  0.7818608E-02  0.9782722E-01
          2   -1    0    0  501    0  0.00000000000E+00  0.00000000000E+00  0.41464792043E+04  0.41464792043E+04  0.25500000000E-02 0.  1.
         -2   -1    0    0    0  501 -0.00000000000E+00 -0.00000000000E+00 -0.26500995399E+02  0.26500995521E+02  0.25500000000E-02 0. -1.
    5000001    1    1    2    0    0  0.18323553494E+03  0.57438436206E+02  0.83839125119E+03  0.88040804476E+03  0.18800000000E+03 0.  0.
   -5000001    1    1    2    0    0 -0.18323553494E+03 -0.57438436206E+02  0.32815869577E+04  0.32925721551E+04  0.18800000000E+03 0.  0.
<mgrwt>
<rscale>  0 0.66298062E+03</rscale>
<asrwt>0</asrwt>
<pdfrwt beam="1">  1        2 0.59235374E+00 0.66298062E+03</pdfrwt>
<pdfrwt beam="2">  1       -2 0.37858593E-02 0.66298062E+03</pdfrwt>
<totfact> 0.15804194E+02</totfact>
</mgrwt>
</event>
<event>
 4    1  0.6239849E-005  0.4377919E+03  0.7818608E-02  0.1031426E+00
          2   -1    0    0  501    0  0.00000000000E+00  0.00000000000E+00  0.12780802840E+04  0.12780802840E+04  0.25500000000E-02 0.  1.
         -2   -1    0    0    0  501 -0.00000000000E+00 -0.00000000000E+00 -0.37490153991E+02  0.37490154077E+02  0.25500000000E-02 0. -1.
    5000001    1    1    2    0    0  0.88296024942E+02 -0.67779452620E+02  0.66074398690E+03  0.69592877398E+03  0.18800000000E+03 0.  0.
   -5000001    1    1    2    0    0 -0.88296024942E+02  0.67779452620E+02  0.57984614309E+03  0.61964166409E+03  0.18800000000E+03 0.  0.
<mgrwt>
<rscale>  0 0.43779185E+03</rscale>
<asrwt>0</asrwt>
<pdfrwt beam="1">  1        2 0.18258288E+00 0.43779185E+03</pdfrwt>
<pdfrwt beam="2">  1       -2 0.53557369E-02 0.43779185E+03</pdfrwt>
<totfact> 0.35969316E+03</totfact>
</mgrwt>
</event>
<event>
 4    1  0.6239849E-005  0.4804790E+03  0.7818608E-02  0.1019004E+00
         -2   -1    0    0    0  501 -0.00000000000E+00  0.00000000000E+00  0.18929036103E+02  0.18929036275E+02  0.25500000000E-02 0. -1.
          2   -1    0    0  501    0  0.00000000000E+00 -0.00000000000E+00 -0.30490207374E+04  0.30490207374E+04  0.25500000000E-02 0.  1.
    5000001    1    1    2    0    0 -0.11385145814E+03  0.96709471561E+02 -0.15628911106E+04  0.15812297430E+04  0.18800000000E+03 0.  0.
   -5000001    1    1    2    0    0  0.11385145814E+03 -0.96709471561E+02 -0.14672005907E+04  0.14867200307E+04  0.18800000000E+03 0.  0.
<mgrwt>
<rscale>  0 0.48047903E+03</rscale>
<asrwt>0</asrwt>
<pdfrwt beam="1">  1        2 0.43557408E+00 0.48047903E+03</pdfrwt>
<pdfrwt beam="2">  1       -2 0.27041500E-02 0.48047903E+03</pdfrwt>
<totfact> 0.12602076E+03</totfact>
</mgrwt>
</event>
<event>
 4    1  0.6239849E-005  0.5770792E+03  0.7818608E-02  0.9954135E-01
         -2   -1    0    0    0  501 -0.00000000000E+00  0.00000000000E+00  0.67265057713E+02  0.67265057762E+02  0.25500000000E-02 0. -1.
          2   -1    0    0  501    0  0.00000000000E+00 -0.00000000000E+00 -0.12377169261E+04  0.12377169261E+04  0.25500000000E-02 0.  1.
    5000001    1    1    2    0    0 -0.19118065418E+03 -0.88737296841E+02 -0.71875613674E+03  0.77225561473E+03  0.18800000000E+03 0.  0.
   -5000001    1    1    2    0    0  0.19118065418E+03  0.88737296841E+02 -0.45169573168E+03  0.53272636916E+03  0.18800000000E+03 0.  0.
<mgrwt>
<rscale>  0 0.57707920E+03</rscale>
<asrwt>0</asrwt>
<pdfrwt beam="1">  1        2 0.17681669E+00 0.57707920E+03</pdfrwt>
<pdfrwt beam="2">  1       -2 0.96092948E-02 0.57707920E+03</pdfrwt>
<totfact> 0.15027575E+03</totfact>
</mgrwt>
</event>
<event>
 4    1  0.6239849E-005  0.4716833E+03  0.7818608E-02  0.1021446E+00
          2   -1    0    0  501    0  0.00000000000E+00  0.00000000000E+00  0.13568779832E+04  0.13568779832E+04  0.25500000000E-02 0.  1.
         -2   -1    0    0    0  501 -0.00000000000E+00 -0.00000000000E+00 -0.40992105910E+02  0.40992105989E+02  0.25500000000E-02 0. -1.
    5000001    1    1    2    0    0 -0.47057156480E+02 -0.97924829442E+02  0.93074726470E+03  0.95573956649E+03  0.18800000000E+03 0.  0.
   -5000001    1    1    2    0    0  0.47057156480E+02  0.97924829442E+02  0.38513861255E+03  0.44213052267E+03  0.18800000000E+03 0.  0.
<mgrwt>
<rscale>  0 0.47168331E+03</rscale>
<asrwt>0</asrwt>
<pdfrwt beam="1">  1        2 0.19383975E+00 0.47168331E+03</pdfrwt>
<pdfrwt beam="2">  1       -2 0.58560141E-02 0.47168331E+03</pdfrwt>
<totfact> 0.28418315E+03</totfact>
</mgrwt>
</event>
<event>
 4    1  0.6239849E-005  0.4608911E+03  0.7818608E-02  0.1024523E+00
         -2   -1    0    0    0  501 -0.00000000000E+00  0.00000000000E+00  0.60041368213E+02  0.60041368267E+02  0.25500000000E-02 0. -1.
          2   -1    0    0  501    0  0.00000000000E+00 -0.00000000000E+00 -0.88447593348E+03  0.88447593348E+03  0.25500000000E-02 0.  1.
    5000001    1    1    2    0    0 -0.27001232629E+02 -0.12893952558E+03 -0.45354454561E+03  0.50833170535E+03  0.18800000000E+03 0.  0.
   -5000001    1    1    2    0    0  0.27001232629E+02  0.12893952558E+03 -0.37089001966E+03  0.43618559639E+03  0.18800000000E+03 0.  0.
<mgrwt>
<rscale>  0 0.46089107E+03</rscale>
<asrwt>0</asrwt>
<pdfrwt beam="1">  1        2 0.12635370E+00 0.46089107E+03</pdfrwt>
<pdfrwt beam="2">  1       -2 0.85773388E-02 0.46089107E+03</pdfrwt>
<totfact> 0.29207831E+03</totfact>
</mgrwt>
</event>
<event>
 4    1  0.6239849E-005  0.5659505E+03  0.7818608E-02  0.9978680E-01
         -2   -1    0    0    0  501 -0.00000000000E+00  0.00000000000E+00  0.22330207609E+03  0.22330207610E+03  0.25500000000E-02 0. -1.
          2   -1    0    0  501    0  0.00000000000E+00 -0.00000000000E+00 -0.35859493595E+03  0.35859493596E+03  0.25500000000E-02 0.  1.
    5000001    1    1    2    0    0 -0.16306369641E+03  0.13356177334E+03 -0.49764513322E+02  0.28679090496E+03  0.18800000000E+03 0.  0.
   -5000001    1    1    2    0    0  0.16306369641E+03 -0.13356177334E+03 -0.85528346540E+02  0.29510610709E+03  0.18800000000E+03 0.  0.
<mgrwt>
<rscale>  0 0.56595051E+03</rscale>
<asrwt>0</asrwt>
<pdfrwt beam="1">  1        2 0.51227848E-01 0.56595051E+03</pdfrwt>
<pdfrwt beam="2">  1       -2 0.31900297E-01 0.56595051E+03</pdfrwt>
<totfact> 0.89559299E+02</totfact>
</mgrwt>
</event>
<event>
 4    1  0.6239849E-005  0.5036743E+03  0.7818608E-02  0.1012824E+00
         -2   -1    0    0    0  501 -0.00000000000E+00  0.00000000000E+00  0.63363199783E+03  0.63363199784E+03  0.25500000000E-02 0. -1.
          2   -1    0    0  501    0  0.00000000000E+00 -0.00000000000E+00 -0.10009270125E+03  0.10009270128E+03  0.25500000000E-02 0.  1.
    5000001    1    1    2    0    0 -0.16652676474E+03 -0.73367371390E+01  0.29170285018E+03  0.38499291408E+03  0.18800000000E+03 0.  0.
   -5000001    1    1    2    0    0  0.16652676474E+03  0.73367371390E+01  0.24183644640E+03  0.34873178504E+03  0.18800000000E+03 0.  0.
<mgrwt>
<rscale>  0 0.50367425E+03</rscale>
<asrwt>0</asrwt>
<pdfrwt beam="1">  1        2 0.14298958E-01 0.50367425E+03</pdfrwt>
<pdfrwt beam="2">  1       -2 0.90518856E-01 0.50367425E+03</pdfrwt>
<totfact> 0.44763384E+02</totfact>
</mgrwt>
</event>
<event>
 4    1  0.6239849E-005  0.4322751E+03  0.7818608E-02  0.1033144E+00
          2   -1    0    0  501    0  0.00000000000E+00  0.00000000000E+00  0.44249707271E+03  0.44249707271E+03  0.25500000000E-02 0.  1.
         -2   -1    0    0    0  501 -0.00000000000E+00 -0.00000000000E+00 -0.10557229370E+03  0.10557229373E+03  0.25500000000E-02 0. -1.
    5000001    1    1    2    0    0 -0.61635221273E+02 -0.42440115801E+00  0.27879164859E+03  0.34185942131E+03  0.18800000000E+03 0.  0.
   -5000001    1    1    2    0    0  0.61635221273E+02  0.42440115801E+00  0.58133130426E+02  0.20620994513E+03  0.18800000000E+03 0.  0.
<mgrwt>
<rscale>  0 0.43227506E+03</rscale>
<asrwt>0</asrwt>
<pdfrwt beam="1">  1        2 0.63213868E-01 0.43227506E+03</pdfrwt>
<pdfrwt beam="2">  1       -2 0.15081756E-01 0.43227506E+03</pdfrwt>
<totfact> 0.26494568E+03</totfact>
</mgrwt>
</event>
<event>
 4    1  0.6239849E-005  0.4784743E+03  0.7818608E-02  0.1019555E+00
         -2   -1    0    0    0  501 -0.00000000000E+00  0.00000000000E+00  0.83986948195E+02  0.83986948234E+02  0.25500000000E-02 0. -1.
          2   -1    0    0  501    0  0.00000000000E+00 -0.00000000000E+00 -0.68146790959E+03  0.68146790960E+03  0.25500000000E-02 0.  1.
    5000001    1    1    2    0    0 -0.47253565317E+02  0.95816460485E+02 -0.46248756615E+03  0.51054132289E+03  0.18800000000E+03 0.  0.
   -5000001    1    1    2    0    0  0.47253565317E+02 -0.95816460485E+02 -0.13499339524E+03  0.25491353494E+03  0.18800000000E+03 0.  0.
<mgrwt>
<rscale>  0 0.47847428E+03</rscale>
<asrwt>0</asrwt>
<pdfrwt beam="1">  1        2 0.97352556E-01 0.47847428E+03</pdfrwt>
<pdfrwt beam="2">  1       -2 0.11998136E-01 0.47847428E+03</pdfrwt>
<totfact> 0.23577494E+03</totfact>
</mgrwt>
</event>
<event>
 4    1  0.6239849E-005  0.4607236E+03  0.7818608E-02  0.1024572E+00
         -2   -1    0    0    0  501 -0.00000000000E+00  0.00000000000E+00  0.20614446956E+03  0.20614446957E+03  0.25500000000E-02 0. -1.
          2   -1    0    0  501    0  0.00000000000E+00 -0.00000000000E+00 -0.25742408828E+03  0.25742408829E+03  0.25500000000E-02 0.  1.
    5000001    1    1    2    0    0 -0.12425634448E+03  0.11592654637E+02 -0.72278202527E+02  0.23694338426E+03  0.18800000000E+03 0.  0.
   -5000001    1    1    2    0    0  0.12425634448E+03 -0.11592654637E+02  0.20998583807E+02  0.22662517360E+03  0.18800000000E+03 0.  0.
<mgrwt>
<rscale>  0 0.46072357E+03</rscale>
<asrwt>0</asrwt>
<pdfrwt beam="1">  1        2 0.36774870E-01 0.46072357E+03</pdfrwt>
<pdfrwt beam="2">  1       -2 0.29449210E-01 0.46072357E+03</pdfrwt>
<totfact> 0.14944899E+03</totfact>
</mgrwt>
</event>
<event>
 4    1  0.6239849E-005  0.5721762E+03  0.7818608E-02  0.9964875E-01
          2   -1    0    0  501    0  0.00000000000E+00  0.00000000000E+00  0.40075644814E+03  0.40075644815E+03  0.25500000000E-02 0. -1.
         -2   -1    0    0    0  501 -0.00000000000E+00 -0.00000000000E+00 -0.20422974649E+03  0.20422974650E+03  0.25500000000E-02 0.  1.
    5000001    1    1    2    0    0  0.19786751490E+03  0.84416139541E+02  0.82412035124E+02  0.29734387769E+03  0.18800000000E+03 0.  0.
   -5000001    1    1    2    0    0 -0.19786751490E+03 -0.84416139541E+02  0.11411466653E+03  0.30764231696E+03  0.18800000000E+03 0.  0.
<mgrwt>
<rscale>  0 0.57217615E+03</rscale>
<asrwt>0</asrwt>
<pdfrwt beam="1">  1        2 0.57250921E-01 0.57217615E+03</pdfrwt>
<pdfrwt beam="2">  1       -2 0.29175678E-01 0.57217615E+03</pdfrwt>
<totfact> 0.93405489E+02</totfact>
</mgrwt>
</event>
<event>
 4    1  0.6239849E-005  0.5235223E+03  0.7818608E-02  0.1007815E+00
          2   -1    0    0  501    0  0.00000000000E+00  0.00000000000E+00  0.44359369496E+03  0.44359369497E+03  0.25500000000E-02 0. -1.
         -2   -1    0    0    0  501 -0.00000000000E+00 -0.00000000000E+00 -0.15446318449E+03  0.15446318451E+03  0.25500000000E-02 0.  1.
    5000001    1    1    2    0    0  0.24708907285E+02 -0.12618700296E+03 -0.28015622934E+01  0.22778397346E+03  0.18800000000E+03 0.  0.
   -5000001    1    1    2    0    0 -0.24708907285E+02  0.12618700296E+03  0.29193207277E+03  0.37027290601E+03  0.18800000000E+03 0.  0.
<mgrwt>
<rscale>  0 0.52352228E+03</rscale>
<asrwt>0</asrwt>
<pdfrwt beam="1">  1        2 0.63370527E-01 0.52352228E+03</pdfrwt>
<pdfrwt beam="2">  1       -2 0.22066169E-01 0.52352228E+03</pdfrwt>
<totfact> 0.13782301E+03</totfact>
</mgrwt>
</event>
<event>
 4    1  0.6239849E-005  0.4821616E+03  0.7818608E-02  0.1018543E+00
         -2   -1    0    0    0  501 -0.00000000000E+00  0.00000000000E+00  0.72241565590E+03  0.72241565591E+03  0.25500000000E-02 0. -1.
          2   -1    0    0  501    0  0.00000000000E+00 -0.00000000000E+00 -0.80452216401E+02  0.80452216442E+02  0.25500000000E-02 0.  1.
    5000001    1    1    2    0    0  0.11121606466E+03  0.80554069305E+01  0.49031977539E+03  0.53683459721E+03  0.18800000000E+03 0.  0.
   -5000001    1    1    2    0    0 -0.11121606466E+03 -0.80554069305E+01  0.15164366411E+03  0.26603327514E+03  0.18800000000E+03 0.  0.
<mgrwt>
<rscale>  0 0.48216155E+03</rscale>
<asrwt>0</asrwt>
<pdfrwt beam="1">  1        2 0.11493173E-01 0.48216155E+03</pdfrwt>
<pdfrwt beam="2">  1       -2 0.10320224E+00 0.48216155E+03</pdfrwt>
<totfact> 0.43137778E+02</totfact>
</mgrwt>
</event>
<event>
 4    1  0.6239849E-005  0.4115440E+03  0.7818608E-02  0.1039854E+00
          2   -1    0    0  501    0  0.00000000000E+00  0.00000000000E+00  0.39058647477E+04  0.39058647477E+04  0.25500000000E-02 0.  1.
         -2   -1    0    0    0  501 -0.00000000000E+00 -0.00000000000E+00 -0.10840651105E+02  0.10840651405E+02  0.25500000000E-02 0. -1.
    5000001    1    1    2    0    0  0.82892816387E+02  0.36060016450E+01  0.18459438905E+04  0.18573467822E+04  0.18800000000E+03 0.  0.
   -5000001    1    1    2    0    0 -0.82892816387E+02 -0.36060016450E+01  0.20490802060E+04  0.20593586169E+04  0.18800000000E+03 0.  0.
<mgrwt>
<rscale>  0 0.41154401E+03</rscale>
<asrwt>0</asrwt>
<pdfrwt beam="1">  1        2 0.55798156E+00 0.41154401E+03</pdfrwt>
<pdfrwt beam="2">  1       -2 0.15486620E-02 0.41154401E+03</pdfrwt>
<totfact> 0.91425690E+02</totfact>
</mgrwt>
</event>
<event>
 4    1  0.6239849E-005  0.4137297E+03  0.7818608E-02  0.1039127E+00
         -2   -1    0    0    0  501 -0.00000000000E+00  0.00000000000E+00  0.60026326289E+02  0.60026326344E+02  0.25500000000E-02 0. -1.
          2   -1    0    0  501    0  0.00000000000E+00 -0.00000000000E+00 -0.71290493583E+03  0.71290493584E+03  0.25500000000E-02 0.  1.
    5000001    1    1    2    0    0  0.39216137938E+01  0.81530876272E+02 -0.37882905691E+03  0.43071814125E+03  0.18800000000E+03 0.  0.
   -5000001    1    1    2    0    0 -0.39216137938E+01 -0.81530876272E+02 -0.27404955263E+03  0.34221312093E+03  0.18800000000E+03 0.  0.
<mgrwt>
<rscale>  0 0.41372969E+03</rscale>
<asrwt>0</asrwt>
<pdfrwt beam="1">  1        2 0.10184356E+00 0.41372969E+03</pdfrwt>
<pdfrwt beam="2">  1       -2 0.85751899E-02 0.41372969E+03</pdfrwt>
<totfact> 0.38308250E+03</totfact>
</mgrwt>
</event>
<event>
 4    1  0.6239849E-005  0.5445861E+03  0.7818608E-02  0.1002755E+00
         -2   -1    0    0    0  501 -0.00000000000E+00  0.00000000000E+00  0.21272470818E+03  0.21272470820E+03  0.25500000000E-02 0. -1.
          2   -1    0    0  501    0  0.00000000000E+00 -0.00000000000E+00 -0.34854201123E+03  0.34854201124E+03  0.25500000000E-02 0.  1.
    5000001    1    1    2    0    0  0.24595577074E+02  0.18635775063E+03 -0.72383801596E+01  0.26595215318E+03  0.18800000000E+03 0.  0.
   -5000001    1    1    2    0    0 -0.24595577074E+02 -0.18635775063E+03 -0.12857892289E+03  0.29531456626E+03  0.18800000000E+03 0.  0.
<mgrwt>
<rscale>  0 0.54458607E+03</rscale>
<asrwt>0</asrwt>
<pdfrwt beam="1">  1        2 0.49791715E-01 0.54458607E+03</pdfrwt>
<pdfrwt beam="2">  1       -2 0.30389244E-01 0.54458607E+03</pdfrwt>
<totfact> 0.10113267E+03</totfact>
</mgrwt>
</event>
<event>
 4    1  0.6239849E-005  0.8770575E+03  0.7818608E-02  0.9454724E-01
          2   -1    0    0  501    0  0.00000000000E+00  0.00000000000E+00  0.12641385620E+03  0.12641385623E+03  0.25500000000E-02 0.  1.
         -2   -1    0    0    0  501 -0.00000000000E+00 -0.00000000000E+00 -0.15212531867E+04  0.15212531867E+04  0.25500000000E-02 0. -1.
    5000001    1    1    2    0    0  0.39340565047E+03  0.43437797171E+01 -0.78506552733E+03  0.89803048748E+03  0.18800000000E+03 0.  0.
   -5000001    1    1    2    0    0 -0.39340565047E+03 -0.43437797171E+01 -0.60977380320E+03  0.74963655548E+03  0.18800000000E+03 0.  0.
<mgrwt>
<rscale>  0 0.87705754E+03</rscale>
<asrwt>0</asrwt>
<pdfrwt beam="1">  1        2 0.18059123E-01 0.87705754E+03</pdfrwt>
<pdfrwt beam="2">  1       -2 0.21732187E+00 0.87705754E+03</pdfrwt>
<totfact> 0.33354408E+01</totfact>
</mgrwt>
</event>
<event>
 4    1  0.6239849E-005  0.4552468E+03  0.7818608E-02  0.1026169E+00
         -2   -1    0    0    0  501 -0.00000000000E+00  0.00000000000E+00  0.44771133531E+02  0.44771133603E+02  0.25500000000E-02 0. -1.
          2   -1    0    0  501    0  0.00000000000E+00 -0.00000000000E+00 -0.11572727901E+04  0.11572727901E+04  0.25500000000E-02 0.  1.
    5000001    1    1    2    0    0 -0.12541642998E+03  0.58680603663E+01 -0.48615769987E+03  0.53615018808E+03  0.18800000000E+03 0.  0.
   -5000001    1    1    2    0    0  0.12541642998E+03 -0.58680603663E+01 -0.62634395667E+03  0.66589373559E+03  0.18800000000E+03 0.  0.
<mgrwt>
<rscale>  0 0.45524681E+03</rscale>
<asrwt>0</asrwt>
<pdfrwt beam="1">  1        2 0.16532467E+00 0.45524681E+03</pdfrwt>
<pdfrwt beam="2">  1       -2 0.63958769E-02 0.45524681E+03</pdfrwt>
<totfact> 0.31831882E+03</totfact>
</mgrwt>
</event>
<event>
 4    1  0.6239849E-005  0.5889269E+03  0.7818608E-02  0.9928649E-01
          2   -1    0    0  501    0  0.00000000000E+00  0.00000000000E+00  0.83669836467E+03  0.83669836467E+03  0.25500000000E-02 0.  1.
         -2   -1    0    0    0  501 -0.00000000000E+00 -0.00000000000E+00 -0.10363201523E+03  0.10363201526E+03  0.25500000000E-02 0. -1.
    5000001    1    1    2    0    0 -0.42339862696E+02  0.22229976049E+03  0.34666165857E+03  0.45467367750E+03  0.18800000000E+03 0.  0.
   -5000001    1    1    2    0    0  0.42339862696E+02 -0.22229976049E+03  0.38640469087E+03  0.48565670243E+03  0.18800000000E+03 0.  0.
<mgrwt>
<rscale>  0 0.58892695E+03</rscale>
<asrwt>0</asrwt>
<pdfrwt beam="1">  1        2 0.11952834E+00 0.58892695E+03</pdfrwt>
<pdfrwt beam="2">  1       -2 0.14804573E-01 0.58892695E+03</pdfrwt>
<totfact> 0.12872734E+03</totfact>
</mgrwt>
</event>
<event>
 4    1  0.6239849E-005  0.5309790E+03  0.7818608E-02  0.1005995E+00
          2   -1    0    0  501    0  0.00000000000E+00  0.00000000000E+00  0.91881080087E+03  0.91881080087E+03  0.25500000000E-02 0.  1.
         -2   -1    0    0    0  501 -0.00000000000E+00 -0.00000000000E+00 -0.76712940276E+02  0.76712940318E+02  0.25500000000E-02 0. -1.
    5000001    1    1    2    0    0  0.16983412857E+03 -0.69471138357E+02  0.49295279459E+03  0.55858421745E+03  0.18800000000E+03 0.  0.
   -5000001    1    1    2    0    0 -0.16983412857E+03  0.69471138357E+02  0.34914506601E+03  0.43693952374E+03  0.18800000000E+03 0.  0.
<mgrwt>
<rscale>  0 0.53097901E+03</rscale>
<asrwt>0</asrwt>
<pdfrwt beam="1">  1        2 0.13125868E+00 0.53097901E+03</pdfrwt>
<pdfrwt beam="2">  1       -2 0.10958992E-01 0.53097901E+03</pdfrwt>
<totfact> 0.18717981E+03</totfact>
</mgrwt>
</event>
<event>
 4    1  0.6239849E-005  0.1026495E+04  0.7818608E-02  0.9279953E-01
         -2   -1    0    0    0  501 -0.00000000000E+00  0.00000000000E+00  0.13460434496E+03  0.13460434499E+03  0.25500000000E-02 0. -1.
          2   -1    0    0  501    0  0.00000000000E+00 -0.00000000000E+00 -0.19570184351E+04  0.19570184351E+04  0.25500000000E-02 0.  1.
    5000001    1    1    2    0    0  0.34672815764E+03  0.32278976505E+03 -0.78784113581E+03  0.93832366644E+03  0.18800000000E+03 0.  0.
   -5000001    1    1    2    0    0 -0.34672815764E+03 -0.32278976505E+03 -0.10345729543E+04  0.11532991136E+04  0.18800000000E+03 0.  0.
<mgrwt>
<rscale>  0 0.10264954E+04</rscale>
<asrwt>0</asrwt>
<pdfrwt beam="1">  1        2 0.27957405E+00 0.10264954E+04</pdfrwt>
<pdfrwt beam="2">  1       -2 0.19229193E-01 0.10264954E+04</pdfrwt>
<totfact> 0.19295307E+02</totfact>
</mgrwt>
</event>
<event>
 4    1  0.6239849E-005  0.6392537E+03  0.7818608E-02  0.9827155E-01
          2   -1    0    0  501    0  0.00000000000E+00  0.00000000000E+00  0.13342676894E+04  0.13342676894E+04  0.25500000000E-02 0.  1.
         -2   -1    0    0    0  501 -0.00000000000E+00 -0.00000000000E+00 -0.76567348028E+02  0.76567348070E+02  0.25500000000E-02 0. -1.
    5000001    1    1    2    0    0 -0.15028202583E+03 -0.20599436545E+03  0.53524168109E+03  0.62196947116E+03  0.18800000000E+03 0.  0.
   -5000001    1    1    2    0    0  0.15028202583E+03  0.20599436545E+03  0.72245866024E+03  0.78886556627E+03  0.18800000000E+03 0.  0.
<mgrwt>
<rscale>  0 0.63925375E+03</rscale>
<asrwt>0</asrwt>
<pdfrwt beam="1">  1        2 0.19060967E+00 0.63925375E+03</pdfrwt>
<pdfrwt beam="2">  1       -2 0.10938193E-01 0.63925375E+03</pdfrwt>
<totfact> 0.10763101E+03</totfact>
</mgrwt>
</event>
<event>
 4    1  0.6239849E-005  0.5164056E+03  0.7818608E-02  0.1009583E+00
         -2   -1    0    0    0  501 -0.00000000000E+00  0.00000000000E+00  0.31148033679E+03  0.31148033680E+03  0.25500000000E-02 0. -1.
          2   -1    0    0  501    0  0.00000000000E+00 -0.00000000000E+00 -0.21403821809E+03  0.21403821811E+03  0.25500000000E-02 0.  1.
    5000001    1    1    2    0    0 -0.16742353750E+03  0.56889650529E+02  0.40996119854E+02  0.26132691229E+03  0.18800000000E+03 0.  0.
   -5000001    1    1    2    0    0  0.16742353750E+03 -0.56889650529E+02  0.56445998847E+02  0.26419164262E+03  0.18800000000E+03 0.  0.
<mgrwt>
<rscale>  0 0.51640564E+03</rscale>
<asrwt>0</asrwt>
<pdfrwt beam="1">  1        2 0.30576888E-01 0.51640564E+03</pdfrwt>
<pdfrwt beam="2">  1       -2 0.44497191E-01 0.51640564E+03</pdfrwt>
<totfact> 0.83734278E+02</totfact>
</mgrwt>
</event>
<event>
 4    1  0.6239849E-005  0.4541248E+03  0.7818608E-02  0.1026499E+00
         -2   -1    0    0    0  501 -0.00000000000E+00  0.00000000000E+00  0.62619535750E+03  0.62619535751E+03  0.25500000000E-02 0. -1.
          2   -1    0    0  501    0  0.00000000000E+00 -0.00000000000E+00 -0.82334261720E+02  0.82334261759E+02  0.25500000000E-02 0.  1.
    5000001    1    1    2    0    0  0.50404160809E+02  0.40560926421E+02  0.44303906925E+03  0.48560620369E+03  0.18800000000E+03 0.  0.
   -5000001    1    1    2    0    0 -0.50404160809E+02 -0.40560926421E+02  0.10082202653E+03  0.22292341558E+03  0.18800000000E+03 0.  0.
<mgrwt>
<rscale>  0 0.45412480E+03</rscale>
<asrwt>0</asrwt>
<pdfrwt beam="1">  1        2 0.11762038E-01 0.45412480E+03</pdfrwt>
<pdfrwt beam="2">  1       -2 0.89456476E-01 0.45412480E+03</pdfrwt>
<totfact> 0.58443046E+02</totfact>
</mgrwt>
</event>
<event>
 4    1  0.6239849E-005  0.6398674E+03  0.7818608E-02  0.9825980E-01
         -2   -1    0    0    0  501 -0.00000000000E+00  0.00000000000E+00  0.74840339515E+02  0.74840339559E+02  0.25500000000E-02 0. -1.
          2   -1    0    0  501    0  0.00000000000E+00 -0.00000000000E+00 -0.13676790748E+04  0.13676790748E+04  0.25500000000E-02 0.  1.
    5000001    1    1    2    0    0 -0.16851338403E+03 -0.13775365485E+03 -0.96236370654E+03  0.10044205960E+04  0.18800000000E+03 0.  0.
   -5000001    1    1    2    0    0  0.16851338403E+03  0.13775365485E+03 -0.33047502875E+03  0.43809881836E+03  0.18800000000E+03 0.  0.
<mgrwt>
<rscale>  0 0.63986738E+03</rscale>
<asrwt>0</asrwt>
<pdfrwt beam="1">  1        2 0.19538271E+00 0.63986738E+03</pdfrwt>
<pdfrwt beam="2">  1       -2 0.10691478E-01 0.63986738E+03</pdfrwt>
<totfact> 0.10718432E+03</totfact>
</mgrwt>
</event>
<event>
 4    1  0.6239849E-005  0.6911225E+03  0.7818608E-02  0.9732535E-01
          2   -1    0    0  501    0  0.00000000000E+00  0.00000000000E+00  0.38538988576E+04  0.38538988576E+04  0.25500000000E-02 0.  1.
         -2   -1    0    0    0  501 -0.00000000000E+00 -0.00000000000E+00 -0.30984875115E+02  0.30984875220E+02  0.25500000000E-02 0. -1.
    5000001    1    1    2    0    0  0.10615511997E+03 -0.23219811843E+03  0.26839001597E+04  0.27025634022E+04  0.18800000000E+03 0.  0.
   -5000001    1    1    2    0    0 -0.10615511997E+03  0.23219811843E+03  0.11390138228E+04  0.11823203306E+04  0.18800000000E+03 0.  0.
<mgrwt>
<rscale>  0 0.69112249E+03</rscale>
<asrwt>0</asrwt>
<pdfrwt beam="1">  1        2 0.55055686E+00 0.69112249E+03</pdfrwt>
<pdfrwt beam="2">  1       -2 0.44264117E-02 0.69112249E+03</pdfrwt>
<totfact> 0.19422700E+02</totfact>
</mgrwt>
</event>
<event>
 4    1  0.6239849E-005  0.4912174E+03  0.7818608E-02  0.1016097E+00
          2   -1    0    0  501    0  0.00000000000E+00  0.00000000000E+00  0.83942100550E+03  0.83942100551E+03  0.25500000000E-02 0.  1.
         -2   -1    0    0    0  501 -0.00000000000E+00 -0.00000000000E+00 -0.71863386896E+02  0.71863386941E+02  0.25500000000E-02 0. -1.
    5000001    1    1    2    0    0 -0.78411094301E+02 -0.13664847714E+03  0.36042075902E+03  0.43596815199E+03  0.18800000000E+03 0.  0.
   -5000001    1    1    2    0    0  0.78411094301E+02  0.13664847714E+03  0.40713685958E+03  0.47531624046E+03  0.18800000000E+03 0.  0.
<mgrwt>
<rscale>  0 0.49121741E+03</rscale>
<asrwt>0</asrwt>
<pdfrwt beam="1">  1        2 0.11991728E+00 0.49121741E+03</pdfrwt>
<pdfrwt beam="2">  1       -2 0.10266198E-01 0.49121741E+03</pdfrwt>
<totfact> 0.23441724E+03</totfact>
</mgrwt>
</event>
<event>
 4    1  0.6239849E-005  0.4322075E+03  0.7818608E-02  0.1033165E+00
         -2   -1    0    0    0  501 -0.00000000000E+00  0.00000000000E+00  0.51915466151E+03  0.51915466152E+03  0.25500000000E-02 0. -1.
          2   -1    0    0  501    0  0.00000000000E+00 -0.00000000000E+00 -0.89955544667E+02  0.89955544703E+02  0.25500000000E-02 0.  1.
    5000001    1    1    2    0    0 -0.85949625560E+02 -0.36212933759E+02  0.28725887126E+03  0.35575324851E+03  0.18800000000E+03 0.  0.
   -5000001    1    1    2    0    0  0.85949625560E+02  0.36212933759E+02  0.14194024558E+03  0.25335695771E+03  0.18800000000E+03 0.  0.
<mgrwt>
<rscale>  0 0.43220754E+03</rscale>
<asrwt>0</asrwt>
<pdfrwt beam="1">  1        2 0.12850792E-01 0.43220754E+03</pdfrwt>
<pdfrwt beam="2">  1       -2 0.74164954E-01 0.43220754E+03</pdfrwt>
<totfact> 0.79671393E+02</totfact>
</mgrwt>
</event>
<event>
 4    1  0.6239849E-005  0.5156977E+03  0.7818608E-02  0.1009761E+00
         -2   -1    0    0    0  501 -0.00000000000E+00  0.00000000000E+00  0.37821361867E+02  0.37821361953E+02  0.25500000000E-02 0. -1.
          2   -1    0    0  501    0  0.00000000000E+00 -0.00000000000E+00 -0.17578959085E+04  0.17578959085E+04  0.25500000000E-02 0.  1.
    5000001    1    1    2    0    0  0.73713801152E+02  0.13083153634E+03 -0.11827936447E+04  0.12070192299E+04  0.18800000000E+03 0.  0.
   -5000001    1    1    2    0    0 -0.73713801152E+02 -0.13083153634E+03 -0.53728090192E+03  0.58869804055E+03  0.18800000000E+03 0.  0.
<mgrwt>
<rscale>  0 0.51569765E+03</rscale>
<asrwt>0</asrwt>
<pdfrwt beam="1">  1        2 0.25112794E+00 0.51569765E+03</pdfrwt>
<pdfrwt beam="2">  1       -2 0.54030528E-02 0.51569765E+03</pdfrwt>
<totfact> 0.20006988E+03</totfact>
</mgrwt>
</event>
<event>
 4    1  0.6239849E-005  0.4270272E+03  0.7818608E-02  0.1034803E+00
          2   -1    0    0  501    0  0.00000000000E+00  0.00000000000E+00  0.14552687042E+04  0.14552687042E+04  0.25500000000E-02 0.  1.
         -2   -1    0    0    0  501 -0.00000000000E+00 -0.00000000000E+00 -0.31326216901E+02  0.31326217004E+02  0.25500000000E-02 0. -1.
    5000001    1    1    2    0    0  0.66627529216E+02 -0.35354100725E+02  0.94692240799E+03  0.96834662536E+03  0.18800000000E+03 0.  0.
   -5000001    1    1    2    0    0 -0.66627529216E+02  0.35354100725E+02  0.47702007932E+03  0.51824829586E+03  0.18800000000E+03 0.  0.
<mgrwt>
<rscale>  0 0.42702723E+03</rscale>
<asrwt>0</asrwt>
<pdfrwt beam="1">  1        2 0.20789551E+00 0.42702723E+03</pdfrwt>
<pdfrwt beam="2">  1       -2 0.44751742E-02 0.42702723E+03</pdfrwt>
<totfact> 0.38211303E+03</totfact>
</mgrwt>
</event>
<event>
 4    1  0.6239849E-005  0.5399014E+03  0.7818608E-02  0.1003859E+00
          2   -1    0    0  501    0  0.00000000000E+00  0.00000000000E+00  0.35192677428E+04  0.35192677428E+04  0.25500000000E-02 0.  1.
         -2   -1    0    0    0  501 -0.00000000000E+00 -0.00000000000E+00 -0.20706976204E+02  0.20706976361E+02  0.25500000000E-02 0. -1.
    5000001    1    1    2    0    0 -0.11670947209E+03  0.15284100326E+03  0.19027577908E+04  0.19216692441E+04  0.18800000000E+03 0.  0.
   -5000001    1    1    2    0    0  0.11670947209E+03 -0.15284100326E+03  0.15958029757E+04  0.16183054750E+04  0.18800000000E+03 0.  0.
<mgrwt>
<rscale>  0 0.53990145E+03</rscale>
<asrwt>0</asrwt>
<pdfrwt beam="1">  1        2 0.50275243E+00 0.53990145E+03</pdfrwt>
<pdfrwt beam="2">  1       -2 0.29581401E-02 0.53990145E+03</pdfrwt>
<totfact> 0.59120850E+02</totfact>
</mgrwt>
</event>
<event>
 4    1  0.6239849E-005  0.8479733E+03  0.7818608E-02  0.9493061E-01
         -2   -1    0    0    0  501 -0.00000000000E+00  0.00000000000E+00  0.59045407814E+02  0.59045407869E+02  0.25500000000E-02 0.  1.
          2   -1    0    0  501    0  0.00000000000E+00 -0.00000000000E+00 -0.30445157281E+04  0.30445157281E+04  0.25500000000E-02 0. -1.
    5000001    1    1    2    0    0 -0.14734307163E+03  0.34094880905E+03 -0.17870072143E+04  0.18348555407E+04  0.18800000000E+03 0.  0.
   -5000001    1    1    2    0    0  0.14734307163E+03 -0.34094880905E+03 -0.11984631060E+04  0.12687055953E+04  0.18800000000E+03 0.  0.
<mgrwt>
<rscale>  0 0.84797328E+03</rscale>
<asrwt>0</asrwt>
<pdfrwt beam="1">  1        2 0.43493072E+00 0.84797328E+03</pdfrwt>
<pdfrwt beam="2">  1       -2 0.84350602E-02 0.84797328E+03</pdfrwt>
<totfact> 0.20902167E+02</totfact>
</mgrwt>
</event>
<event>
 4    1  0.6239849E-005  0.4408129E+03  0.7818608E-02  0.1030498E+00
          2   -1    0    0  501    0  0.00000000000E+00  0.00000000000E+00  0.32684958360E+03  0.32684958361E+03  0.25500000000E-02 0.  1.
         -2   -1    0    0    0  501 -0.00000000000E+00 -0.00000000000E+00 -0.14862801109E+03  0.14862801111E+03  0.25500000000E-02 0. -1.
    5000001    1    1    2    0    0  0.29484544728E+02 -0.77611900957E+02  0.32112409779E+01  0.20554137690E+03  0.18800000000E+03 0.  0.
   -5000001    1    1    2    0    0 -0.29484544728E+02  0.77611900957E+02  0.17501033154E+03  0.26993621782E+03  0.18800000000E+03 0.  0.
<mgrwt>
<rscale>  0 0.44081290E+03</rscale>
<asrwt>0</asrwt>
<pdfrwt beam="1">  1        2 0.46692797E-01 0.44081290E+03</pdfrwt>
<pdfrwt beam="2">  1       -2 0.21232573E-01 0.44081290E+03</pdfrwt>
<totfact> 0.20624214E+03</totfact>
</mgrwt>
</event>
<event>
 4    1  0.6239849E-005  0.6058634E+03  0.7818608E-02  0.9893315E-01
          2   -1    0    0  501    0  0.00000000000E+00  0.00000000000E+00  0.11590047606E+04  0.11590047606E+04  0.25500000000E-02 0.  1.
         -2   -1    0    0    0  501 -0.00000000000E+00 -0.00000000000E+00 -0.79177956390E+02  0.79177956431E+02  0.25500000000E-02 0. -1.
    5000001    1    1    2    0    0  0.11972336226E+03  0.19782866221E+03  0.42884309213E+03  0.52222625435E+03  0.18800000000E+03 0.  0.
   -5000001    1    1    2    0    0 -0.11972336226E+03 -0.19782866221E+03  0.65098371206E+03  0.71595646267E+03  0.18800000000E+03 0.  0.
<mgrwt>
<rscale>  0 0.60586344E+03</rscale>
<asrwt>0</asrwt>
<pdfrwt beam="1">  1        2 0.16557210E+00 0.60586344E+03</pdfrwt>
<pdfrwt beam="2">  1       -2 0.11311137E-01 0.60586344E+03</pdfrwt>
<totfact> 0.12751424E+03</totfact>
</mgrwt>
</event>
<event>
 4    1  0.6239849E-005  0.4398875E+03  0.7818608E-02  0.1030781E+00
          2   -1    0    0  501    0  0.00000000000E+00  0.00000000000E+00  0.78655711370E+03  0.78655711370E+03  0.25500000000E-02 0.  1.
         -2   -1    0    0    0  501 -0.00000000000E+00 -0.00000000000E+00 -0.61502527911E+02  0.61502527964E+02  0.25500000000E-02 0. -1.
    5000001    1    1    2    0    0  0.83849173709E+02 -0.75480164746E+02  0.32895126328E+03  0.39532375696E+03  0.18800000000E+03 0.  0.
   -5000001    1    1    2    0    0 -0.83849173709E+02  0.75480164746E+02  0.39610332250E+03  0.45273588470E+03  0.18800000000E+03 0.  0.
<mgrwt>
<rscale>  0 0.43988749E+03</rscale>
<asrwt>0</asrwt>
<pdfrwt beam="1">  1        2 0.11236529E+00 0.43988749E+03</pdfrwt>
<pdfrwt beam="2">  1       -2 0.87860767E-02 0.43988749E+03</pdfrwt>
<totfact> 0.32669853E+03</totfact>
</mgrwt>
</event>
<event>
 4    1  0.6239849E-005  0.5133638E+03  0.7818608E-02  0.1010348E+00
          2   -1    0    0  501    0  0.00000000000E+00  0.00000000000E+00  0.10520792850E+04  0.10520792850E+04  0.25500000000E-02 0.  1.
         -2   -1    0    0    0  501 -0.00000000000E+00 -0.00000000000E+00 -0.62624165845E+02  0.62624165897E+02  0.25500000000E-02 0. -1.
    5000001    1    1    2    0    0 -0.17351201308E+03 -0.13918337837E+02  0.46098743321E+03  0.52740264731E+03  0.18800000000E+03 0.  0.
   -5000001    1    1    2    0    0  0.17351201308E+03  0.13918337837E+02  0.52846768593E+03  0.58730080358E+03  0.18800000000E+03 0.  0.
<mgrwt>
<rscale>  0 0.51336376E+03</rscale>
<asrwt>0</asrwt>
<pdfrwt beam="1">  1        2 0.15029704E+00 0.51336376E+03</pdfrwt>
<pdfrwt beam="2">  1       -2 0.89463093E-02 0.51336376E+03</pdfrwt>
<totfact> 0.21533312E+03</totfact>
</mgrwt>
</event>
<event>
 4    1  0.6239849E-005  0.4216248E+03  0.7818608E-02  0.1036539E+00
          2   -1    0    0  501    0  0.00000000000E+00  0.00000000000E+00  0.11955851787E+03  0.11955851789E+03  0.25500000000E-02 0. -1.
         -2   -1    0    0    0  501 -0.00000000000E+00 -0.00000000000E+00 -0.37171646357E+03  0.37171646358E+03  0.25500000000E-02 0.  1.
    5000001    1    1    2    0    0  0.51990891235E+02  0.72624975889E+02 -0.16508132263E+03  0.26565632493E+03  0.18800000000E+03 0.  0.
   -5000001    1    1    2    0    0 -0.51990891235E+02 -0.72624975889E+02 -0.87076623081E+02  0.22561865655E+03  0.18800000000E+03 0.  0.
<mgrwt>
<rscale>  0 0.42162481E+03</rscale>
<asrwt>0</asrwt>
<pdfrwt beam="1">  1        2 0.17079788E-01 0.42162481E+03</pdfrwt>
<pdfrwt beam="2">  1       -2 0.53102352E-01 0.42162481E+03</pdfrwt>
<totfact> 0.11450926E+03</totfact>
</mgrwt>
</event>
<event>
 4    1  0.6239849E-005  0.7539754E+03  0.7818608E-02  0.9629134E-01
          2   -1    0    0  501    0  0.00000000000E+00  0.00000000000E+00  0.15615999445E+03  0.15615999447E+03  0.25500000000E-02 0.  1.
         -2   -1    0    0    0  501 -0.00000000000E+00 -0.00000000000E+00 -0.91009059766E+03  0.91009059766E+03  0.25500000000E-02 0. -1.
    5000001    1    1    2    0    0  0.19092866781E+03 -0.23964880974E+03 -0.21640585543E+03  0.41959599911E+03  0.18800000000E+03 0.  0.
   -5000001    1    1    2    0    0 -0.19092866781E+03  0.23964880974E+03 -0.53752474778E+03  0.64665459302E+03  0.18800000000E+03 0.  0.
<mgrwt>
<rscale>  0 0.75397544E+03</rscale>
<asrwt>0</asrwt>
<pdfrwt beam="1">  1        2 0.22308571E-01 0.75397544E+03</pdfrwt>
<pdfrwt beam="2">  1       -2 0.13001294E+00 0.75397544E+03</pdfrwt>
<totfact> 0.10960837E+02</totfact>
</mgrwt>
</event>
<event>
 4    1  0.6239849E-005  0.7106565E+03  0.7818608E-02  0.9699180E-01
         -2   -1    0    0    0  501 -0.00000000000E+00  0.00000000000E+00  0.27461369936E+02  0.27461370054E+02  0.25500000000E-02 0. -1.
          2   -1    0    0  501    0  0.00000000000E+00 -0.00000000000E+00 -0.45976650451E+04  0.45976650451E+04  0.25500000000E-02 0.  1.
    5000001    1    1    2    0    0  0.19699784237E+03  0.22745432121E+03 -0.21598180865E+04  0.21887671838E+04  0.18800000000E+03 0.  0.
   -5000001    1    1    2    0    0 -0.19699784237E+03 -0.22745432121E+03 -0.24103855887E+04  0.24363592314E+04  0.18800000000E+03 0.  0.
<mgrwt>
<rscale>  0 0.71065654E+03</rscale>
<asrwt>0</asrwt>
<pdfrwt beam="1">  1        2 0.65680880E+00 0.71065654E+03</pdfrwt>
<pdfrwt beam="2">  1       -2 0.39230558E-02 0.71065654E+03</pdfrwt>
<totfact> 0.68338113E+01</totfact>
</mgrwt>
</event>
<event>
 4    1  0.6239849E-005  0.5152261E+03  0.7818608E-02  0.1009879E+00
          2   -1    0    0  501    0  0.00000000000E+00  0.00000000000E+00  0.34188637776E+04  0.34188637776E+04  0.25500000000E-02 0.  1.
         -2   -1    0    0    0  501 -0.00000000000E+00 -0.00000000000E+00 -0.19411269699E+02  0.19411269867E+02  0.25500000000E-02 0. -1.
    5000001    1    1    2    0    0 -0.68162026049E+02 -0.14162520631E+03  0.11693442526E+04  0.11947442161E+04  0.18800000000E+03 0.  0.
   -5000001    1    1    2    0    0  0.68162026049E+02  0.14162520631E+03  0.22301082553E+04  0.22435308313E+04  0.18800000000E+03 0.  0.
<mgrwt>
<rscale>  0 0.51522611E+03</rscale>
<asrwt>0</asrwt>
<pdfrwt beam="1">  1        2 0.48840926E+00 0.51522611E+03</pdfrwt>
<pdfrwt beam="2">  1       -2 0.27730377E-02 0.51522611E+03</pdfrwt>
<totfact> 0.74902160E+02</totfact>
</mgrwt>
</event>
<event>
 4    1  0.6239849E-005  0.5752881E+03  0.7818608E-02  0.9958045E-01
          2   -1    0    0  501    0  0.00000000000E+00  0.00000000000E+00  0.18590018610E+03  0.18590018612E+03  0.25500000000E-02 0.  1.
         -2   -1    0    0    0  501 -0.00000000000E+00 -0.00000000000E+00 -0.44507266846E+03  0.44507266847E+03  0.25500000000E-02 0. -1.
    5000001    1    1    2    0    0 -0.14130647544E+02 -0.21248328920E+03 -0.17920051236E+03  0.33586551925E+03  0.18800000000E+03 0.  0.
   -5000001    1    1    2    0    0  0.14130647544E+02  0.21248328920E+03 -0.79971970003E+02  0.29510733534E+03  0.18800000000E+03 0.  0.
<mgrwt>
<rscale>  0 0.57528807E+03</rscale>
<asrwt>0</asrwt>
<pdfrwt beam="1">  1        2 0.26557170E-01 0.57528807E+03</pdfrwt>
<pdfrwt beam="2">  1       -2 0.63581809E-01 0.57528807E+03</pdfrwt>
<totfact> 0.47208286E+02</totfact>
</mgrwt>
</event>
<event>
 4    1  0.6239849E-005  0.7899886E+03  0.7818608E-02  0.9574622E-01
         -2   -1    0    0    0  501 -0.00000000000E+00  0.00000000000E+00  0.38268617351E+03  0.38268617352E+03  0.25500000000E-02 0. -1.
          2   -1    0    0  501    0  0.00000000000E+00 -0.00000000000E+00 -0.40769828028E+03  0.40769828029E+03  0.25500000000E-02 0.  1.
    5000001    1    1    2    0    0 -0.80050094092E+02 -0.16140404042E+03 -0.30966871184E+03  0.40459608614E+03  0.18800000000E+03 0.  0.
   -5000001    1    1    2    0    0  0.80050094092E+02  0.16140404042E+03  0.28465660506E+03  0.38578836768E+03  0.18800000000E+03 0.  0.
<mgrwt>
<rscale>  0 0.78998859E+03</rscale>
<asrwt>0</asrwt>
<pdfrwt beam="1">  1        2 0.58242611E-01 0.78998859E+03</pdfrwt>
<pdfrwt beam="2">  1       -2 0.54669454E-01 0.78998859E+03</pdfrwt>
<totfact> 0.26834481E+02</totfact>
</mgrwt>
</event>
<event>
 4    1  0.6239849E-005  0.3937284E+03  0.7818608E-02  0.1045973E+00
          2   -1    0    0  501    0  0.00000000000E+00  0.00000000000E+00  0.11795387888E+04  0.11795387888E+04  0.25500000000E-02 0.  1.
         -2   -1    0    0    0  501 -0.00000000000E+00 -0.00000000000E+00 -0.32856500499E+02  0.32856500598E+02  0.25500000000E-02 0. -1.
    5000001    1    1    2    0    0  0.85840109258E+01  0.37604492931E+02  0.70839903336E+03  0.73393526526E+03  0.18800000000E+03 0.  0.
   -5000001    1    1    2    0    0 -0.85840109258E+01 -0.37604492931E+02  0.43828325490E+03  0.47846002410E+03  0.18800000000E+03 0.  0.
<mgrwt>
<rscale>  0 0.39372842E+03</rscale>
<asrwt>0</asrwt>
<pdfrwt beam="1">  1        2 0.16850552E+00 0.39372842E+03</pdfrwt>
<pdfrwt beam="2">  1       -2 0.46937863E-02 0.39372842E+03</pdfrwt>
<totfact> 0.49850350E+03</totfact>
</mgrwt>
</event>
<event>
 4    1  0.6239849E-005  0.8295635E+03  0.7818608E-02  0.9518184E-01
         -2   -1    0    0    0  501 -0.00000000000E+00  0.00000000000E+00  0.18206980943E+03  0.18206980945E+03  0.25500000000E-02 0.  1.
          2   -1    0    0  501    0  0.00000000000E+00 -0.00000000000E+00 -0.94493372045E+03  0.94493372045E+03  0.25500000000E-02 0. -1.
    5000001    1    1    2    0    0 -0.12429878290E+03  0.11268322702E+03 -0.82903699101E+03  0.86648371569E+03  0.18800000000E+03 0.  0.
   -5000001    1    1    2    0    0  0.12429878290E+03 -0.11268322702E+03  0.66173079992E+02  0.26051981421E+03  0.18800000000E+03 0.  0.
<mgrwt>
<rscale>  0 0.82956351E+03</rscale>
<asrwt>0</asrwt>
<pdfrwt beam="1">  1        2 0.13499053E+00 0.82956351E+03</pdfrwt>
<pdfrwt beam="2">  1       -2 0.26009973E-01 0.82956351E+03</pdfrwt>
<totfact> 0.40638038E+02</totfact>
</mgrwt>
</event>
<event>
 4    1  0.6239849E-005  0.4863315E+03  0.7818608E-02  0.1017409E+00
         -2   -1    0    0    0  501 -0.00000000000E+00  0.00000000000E+00  0.57220406248E+02  0.57220406304E+02  0.25500000000E-02 0. -1.
          2   -1    0    0  501    0  0.00000000000E+00 -0.00000000000E+00 -0.10333653495E+04  0.10333653495E+04  0.25500000000E-02 0.  1.
    5000001    1    1    2    0    0  0.15124406026E+03 -0.21993945916E+02 -0.53441555552E+03  0.58677294195E+03  0.18800000000E+03 0.  0.
   -5000001    1    1    2    0    0 -0.15124406026E+03  0.21993945916E+02 -0.44172938773E+03  0.50381281386E+03  0.18800000000E+03 0.  0.
<mgrwt>
<rscale>  0 0.48633151E+03</rscale>
<asrwt>0</asrwt>
<pdfrwt beam="1">  1        2 0.14762361E+00 0.48633151E+03</pdfrwt>
<pdfrwt beam="2">  1       -2 0.81743444E-02 0.48633151E+03</pdfrwt>
<totfact> 0.25511520E+03</totfact>
</mgrwt>
</event>
<event>
 4    1  0.6239849E-005  0.5707581E+03  0.7818608E-02  0.9968002E-01
         -2   -1    0    0    0  501 -0.00000000000E+00  0.00000000000E+00  0.89314540520E+02  0.89314540557E+02  0.25500000000E-02 0. -1.
          2   -1    0    0  501    0  0.00000000000E+00 -0.00000000000E+00 -0.91184717679E+03  0.91184717680E+03  0.25500000000E-02 0.  1.
    5000001    1    1    2    0    0 -0.19627964857E+03  0.84718748137E+02 -0.37643778577E+03  0.47196649594E+03  0.18800000000E+03 0.  0.
   -5000001    1    1    2    0    0  0.19627964857E+03 -0.84718748137E+02 -0.44609485050E+03  0.52919522142E+03  0.18800000000E+03 0.  0.
<mgrwt>
<rscale>  0 0.57075813E+03</rscale>
<asrwt>0</asrwt>
<pdfrwt beam="1">  1        2 0.13026388E+00 0.57075813E+03</pdfrwt>
<pdfrwt beam="2">  1       -2 0.12759221E-01 0.57075813E+03</pdfrwt>
<totfact> 0.14727413E+03</totfact>
</mgrwt>
</event>
<event>
 4    1  0.6239849E-005  0.4730242E+03  0.7818608E-02  0.1021070E+00
          2   -1    0    0  501    0  0.00000000000E+00  0.00000000000E+00  0.15802619525E+04  0.15802619525E+04  0.25500000000E-02 0.  1.
         -2   -1    0    0    0  501 -0.00000000000E+00 -0.00000000000E+00 -0.35397908196E+02  0.35397908288E+02  0.25500000000E-02 0. -1.
    5000001    1    1    2    0    0  0.10034266798E+03 -0.75439319487E+02  0.10099136723E+04  0.10349054872E+04  0.18800000000E+03 0.  0.
   -5000001    1    1    2    0    0 -0.10034266798E+03  0.75439319487E+02  0.53495037209E+03  0.58075437367E+03  0.18800000000E+03 0.  0.
<mgrwt>
<rscale>  0 0.47302418E+03</rscale>
<asrwt>0</asrwt>
<pdfrwt beam="1">  1        2 0.22575178E+00 0.47302418E+03</pdfrwt>
<pdfrwt beam="2">  1       -2 0.50568424E-02 0.47302418E+03</pdfrwt>
<totfact> 0.27300588E+03</totfact>
</mgrwt>
</event>
<event>
 4    1  0.6239849E-005  0.5580945E+03  0.7818608E-02  0.9996376E-01
         -2   -1    0    0    0  501 -0.00000000000E+00  0.00000000000E+00  0.14615754075E+03  0.14615754077E+03  0.25500000000E-02 0. -1.
          2   -1    0    0  501    0  0.00000000000E+00 -0.00000000000E+00 -0.53276321652E+03  0.53276321653E+03  0.25500000000E-02 0.  1.
    5000001    1    1    2    0    0 -0.20410329800E+03 -0.42226479700E+01 -0.22871472441E+03  0.35962537754E+03  0.18800000000E+03 0.  0.
   -5000001    1    1    2    0    0  0.20410329800E+03  0.42226479700E+01 -0.15789095136E+03  0.31929537976E+03  0.18800000000E+03 0.  0.
<mgrwt>
<rscale>  0 0.55809448E+03</rscale>
<asrwt>0</asrwt>
<pdfrwt beam="1">  1        2 0.76109030E-01 0.55809448E+03</pdfrwt>
<pdfrwt beam="2">  1       -2 0.20879649E-01 0.55809448E+03</pdfrwt>
<totfact> 0.12344745E+03</totfact>
</mgrwt>
</event>
<event>
 4    1  0.6239849E-005  0.7076680E+03  0.7818608E-02  0.9704208E-01
         -2   -1    0    0    0  501 -0.00000000000E+00  0.00000000000E+00  0.70861452731E+03  0.70861452732E+03  0.25500000000E-02 0. -1.
          2   -1    0    0  501    0  0.00000000000E+00 -0.00000000000E+00 -0.17668068674E+03  0.17668068676E+03  0.25500000000E-02 0.  1.
    5000001    1    1    2    0    0  0.29709607810E+03 -0.36241904891E+02  0.24522340807E+03  0.43018376905E+03  0.18800000000E+03 0.  0.
   -5000001    1    1    2    0    0 -0.29709607810E+03  0.36241904891E+02  0.28671043251E+03  0.45511144503E+03  0.18800000000E+03 0.  0.
<mgrwt>
<rscale>  0 0.70766801E+03</rscale>
<asrwt>0</asrwt>
<pdfrwt beam="1">  1        2 0.25240098E-01 0.70766801E+03</pdfrwt>
<pdfrwt beam="2">  1       -2 0.10123065E+00 0.70766801E+03</pdfrwt>
<totfact> 0.17563445E+02</totfact>
</mgrwt>
</event>
<event>
 4    1  0.6239849E-005  0.5094034E+03  0.7818608E-02  0.1011353E+00
          2   -1    0    0  501    0  0.00000000000E+00  0.00000000000E+00  0.75656888095E+03  0.75656888095E+03  0.25500000000E-02 0.  1.
         -2   -1    0    0    0  501 -0.00000000000E+00 -0.00000000000E+00 -0.85746270286E+02  0.85746270324E+02  0.25500000000E-02 0. -1.
    5000001    1    1    2    0    0  0.12545048361E+03 -0.28999378788E+02  0.52358136750E+03  0.57101684406E+03  0.18800000000E+03 0.  0.
   -5000001    1    1    2    0    0 -0.12545048361E+03  0.28999378788E+02  0.14724124316E+03  0.27129830721E+03  0.18800000000E+03 0.  0.
<mgrwt>
<rscale>  0 0.50940341E+03</rscale>
<asrwt>0</asrwt>
<pdfrwt beam="1">  1        2 0.10808126E+00 0.50940341E+03</pdfrwt>
<pdfrwt beam="2">  1       -2 0.12249468E-01 0.50940341E+03</pdfrwt>
<totfact> 0.20054583E+03</totfact>
</mgrwt>
</event>
<event>
 4    1  0.6239849E-005  0.5712139E+03  0.7818608E-02  0.9966996E-01
         -2   -1    0    0    0  501 -0.00000000000E+00  0.00000000000E+00  0.18571877178E+03  0.18571877180E+03  0.25500000000E-02 0. -1.
          2   -1    0    0  501    0  0.00000000000E+00 -0.00000000000E+00 -0.43921959758E+03  0.43921959759E+03  0.25500000000E-02 0.  1.
    5000001    1    1    2    0    0 -0.14977054524E+03 -0.15425374364E+03 -0.12524611407E+03  0.31185897893E+03  0.18800000000E+03 0.  0.
   -5000001    1    1    2    0    0  0.14977054524E+03  0.15425374364E+03 -0.12825471172E+03  0.31307939046E+03  0.18800000000E+03 0.  0.
<mgrwt>
<rscale>  0 0.57121388E+03</rscale>
<asrwt>0</asrwt>
<pdfrwt beam="1">  1        2 0.62745656E-01 0.57121388E+03</pdfrwt>
<pdfrwt beam="2">  1       -2 0.26531253E-01 0.57121388E+03</pdfrwt>
<totfact> 0.10029940E+03</totfact>
</mgrwt>
</event>
<event>
 4    1  0.6239849E-005  0.4511305E+03  0.7818608E-02  0.1027385E+00
         -2   -1    0    0    0  501 -0.00000000000E+00  0.00000000000E+00  0.12022273052E+03  0.12022273055E+03  0.25500000000E-02 0. -1.
          2   -1    0    0  501    0  0.00000000000E+00 -0.00000000000E+00 -0.42321186265E+03  0.42321186265E+03  0.25500000000E-02 0.  1.
    5000001    1    1    2    0    0  0.15616790483E+02  0.11648604510E+03 -0.20149374461E+03  0.29959407866E+03  0.18800000000E+03 0.  0.
   -5000001    1    1    2    0    0 -0.15616790483E+02 -0.11648604510E+03 -0.10149538751E+03  0.24384051455E+03  0.18800000000E+03 0.  0.
<mgrwt>
<rscale>  0 0.45113052E+03</rscale>
<asrwt>0</asrwt>
<pdfrwt beam="1">  1        2 0.60458837E-01 0.45113052E+03</pdfrwt>
<pdfrwt beam="2">  1       -2 0.17174676E-01 0.45113052E+03</pdfrwt>
<totfact> 0.22372389E+03</totfact>
</mgrwt>
</event>
<event>
 4    1  0.6239849E-005  0.4920214E+03  0.7818608E-02  0.1015883E+00
          2   -1    0    0  501    0  0.00000000000E+00  0.00000000000E+00  0.91502719677E+03  0.91502719677E+03  0.25500000000E-02 0.  1.
         -2   -1    0    0    0  501 -0.00000000000E+00 -0.00000000000E+00 -0.66141497067E+02  0.66141497116E+02  0.25500000000E-02 0. -1.
    5000001    1    1    2    0    0 -0.58388034711E+02  0.56640837691E+02  0.15276905831E+03  0.25553812293E+03  0.18800000000E+03 0.  0.
   -5000001    1    1    2    0    0  0.58388034711E+02 -0.56640837691E+02  0.69611664139E+03  0.72563057096E+03  0.18800000000E+03 0.  0.
<mgrwt>
<rscale>  0 0.49202142E+03</rscale>
<asrwt>0</asrwt>
<pdfrwt beam="1">  1        2 0.13071817E+00 0.49202142E+03</pdfrwt>
<pdfrwt beam="2">  1       -2 0.94487852E-02 0.49202142E+03</pdfrwt>
<totfact> 0.23925315E+03</totfact>
</mgrwt>
</event>
<event>
 4    1  0.6239849E-005  0.4730614E+03  0.7818608E-02  0.1021060E+00
         -2   -1    0    0    0  501 -0.00000000000E+00  0.00000000000E+00  0.23671274900E+03  0.23671274902E+03  0.25500000000E-02 0. -1.
          2   -1    0    0  501    0  0.00000000000E+00 -0.00000000000E+00 -0.23634875538E+03  0.23634875540E+03  0.25500000000E-02 0.  1.
    5000001    1    1    2    0    0  0.83677195051E+02 -0.10928269892E+03 -0.40538800610E+02  0.23649941989E+03  0.18800000000E+03 0.  0.
   -5000001    1    1    2    0    0 -0.83677195051E+02  0.10928269892E+03  0.40902794232E+02  0.23656208452E+03  0.18800000000E+03 0.  0.
<mgrwt>
<rscale>  0 0.47306136E+03</rscale>
<asrwt>0</asrwt>
<pdfrwt beam="1">  1        2 0.33764108E-01 0.47306136E+03</pdfrwt>
<pdfrwt beam="2">  1       -2 0.33816107E-01 0.47306136E+03</pdfrwt>
<totfact> 0.12713046E+03</totfact>
</mgrwt>
</event>
<event>
 4    1  0.6239849E-005  0.1003400E+04  0.7818608E-02  0.9304823E-01
         -2   -1    0    0    0  501 -0.00000000000E+00  0.00000000000E+00  0.13249545732E+03  0.13249545735E+03  0.25500000000E-02 0. -1.
          2   -1    0    0  501    0  0.00000000000E+00 -0.00000000000E+00 -0.18997104546E+04  0.18997104546E+04  0.25500000000E-02 0.  1.
    5000001    1    1    2    0    0  0.40845288436E+03 -0.21687460484E+03 -0.98468397305E+03  0.11039994926E+04  0.18800000000E+03 0.  0.
   -5000001    1    1    2    0    0 -0.40845288436E+03  0.21687460484E+03 -0.78253102418E+03  0.92820641926E+03  0.18800000000E+03 0.  0.
<mgrwt>
<rscale>  0 0.10034002E+04</rscale>
<asrwt>0</asrwt>
<pdfrwt beam="1">  1        2 0.27138719E+00 0.10034002E+04</pdfrwt>
<pdfrwt beam="2">  1       -2 0.18927924E-01 0.10034002E+04</pdfrwt>
<totfact> 0.21251185E+02</totfact>
</mgrwt>
</event>
<event>
 4    1  0.6239849E-005  0.4782216E+03  0.7818608E-02  0.1019625E+00
         -2   -1    0    0    0  501 -0.00000000000E+00  0.00000000000E+00  0.10984622821E+03  0.10984622824E+03  0.25500000000E-02 0. -1.
          2   -1    0    0  501    0  0.00000000000E+00 -0.00000000000E+00 -0.52049095321E+03  0.52049095321E+03  0.25500000000E-02 0.  1.
    5000001    1    1    2    0    0 -0.16016443740E+02 -0.13763785971E+03 -0.13773575862E+03  0.27113805727E+03  0.18800000000E+03 0.  0.
   -5000001    1    1    2    0    0  0.16016443740E+02  0.13763785971E+03 -0.27290896637E+03  0.35919912419E+03  0.18800000000E+03 0.  0.
<mgrwt>
<rscale>  0 0.47822157E+03</rscale>
<asrwt>0</asrwt>
<pdfrwt beam="1">  1        2 0.74355849E-01 0.47822157E+03</pdfrwt>
<pdfrwt beam="2">  1       -2 0.15692319E-01 0.47822157E+03</pdfrwt>
<totfact> 0.20682861E+03</totfact>
</mgrwt>
</event>
<event>
 4    1  0.6239849E-005  0.4677781E+03  0.7818608E-02  0.1022549E+00
          2   -1    0    0  501    0  0.00000000000E+00  0.00000000000E+00  0.84598352391E+03  0.84598352391E+03  0.25500000000E-02 0.  1.
         -2   -1    0    0    0  501 -0.00000000000E+00 -0.00000000000E+00 -0.64663292202E+02  0.64663292252E+02  0.25500000000E-02 0. -1.
    5000001    1    1    2    0    0 -0.11120974933E+03  0.74297332606E+02  0.46535997056E+03  0.51941467459E+03  0.18800000000E+03 0.  0.
   -5000001    1    1    2    0    0  0.11120974933E+03 -0.74297332606E+02  0.31596026115E+03  0.39123214158E+03  0.18800000000E+03 0.  0.
<mgrwt>
<rscale>  0 0.46777807E+03</rscale>
<asrwt>0</asrwt>
<pdfrwt beam="1">  1        2 0.12085478E+00 0.46777807E+03</pdfrwt>
<pdfrwt beam="2">  1       -2 0.92376136E-02 0.46777807E+03</pdfrwt>
<totfact> 0.27498391E+03</totfact>
</mgrwt>
</event>
<event>
 4    1  0.6239849E-005  0.4855143E+03  0.7818608E-02  0.1017631E+00
          2   -1    0    0  501    0  0.00000000000E+00  0.00000000000E+00  0.20404267829E+04  0.20404267829E+04  0.25500000000E-02 0.  1.
         -2   -1    0    0    0  501 -0.00000000000E+00 -0.00000000000E+00 -0.28881725109E+02  0.28881725222E+02  0.25500000000E-02 0. -1.
    5000001    1    1    2    0    0  0.63341171112E+02 -0.13988382602E+03  0.10174111158E+04  0.10459679571E+04  0.18800000000E+03 0.  0.
   -5000001    1    1    2    0    0 -0.63341171112E+02  0.13988382602E+03  0.99413394207E+03  0.10233405511E+04  0.18800000000E+03 0.  0.
<mgrwt>
<rscale>  0 0.48551435E+03</rscale>
<asrwt>0</asrwt>
<pdfrwt beam="1">  1        2 0.29148958E+00 0.48551435E+03</pdfrwt>
<pdfrwt beam="2">  1       -2 0.41259601E-02 0.48551435E+03</pdfrwt>
<totfact> 0.21919698E+03</totfact>
</mgrwt>
</event>
<event>
 4    1  0.6239849E-005  0.4966606E+03  0.7818608E-02  0.1014654E+00
         -2   -1    0    0    0  501 -0.00000000000E+00  0.00000000000E+00  0.46697162978E+02  0.46697163048E+02  0.25500000000E-02 0. -1.
          2   -1    0    0  501    0  0.00000000000E+00 -0.00000000000E+00 -0.13205926363E+04  0.13205926363E+04  0.25500000000E-02 0.  1.
    5000001    1    1    2    0    0  0.10653643125E+03 -0.12187576651E+03 -0.66713209653E+03  0.71176748160E+03  0.18800000000E+03 0.  0.
   -5000001    1    1    2    0    0 -0.10653643125E+03  0.12187576651E+03 -0.60676337679E+03  0.65552231774E+03  0.18800000000E+03 0.  0.
<mgrwt>
<rscale>  0 0.49666057E+03</rscale>
<asrwt>0</asrwt>
<pdfrwt beam="1">  1        2 0.18865607E+00 0.49666057E+03</pdfrwt>
<pdfrwt beam="2">  1       -2 0.66710241E-02 0.49666057E+03</pdfrwt>
<totfact> 0.24237750E+03</totfact>
</mgrwt>
</event>
<event>
 4    1  0.6239849E-005  0.7324378E+03  0.7818608E-02  0.9663313E-01
         -2   -1    0    0    0  501 -0.00000000000E+00  0.00000000000E+00  0.23503981272E+03  0.23503981273E+03  0.25500000000E-02 0. -1.
          2   -1    0    0  501    0  0.00000000000E+00 -0.00000000000E+00 -0.57061090107E+03  0.57061090107E+03  0.25500000000E-02 0.  1.
    5000001    1    1    2    0    0 -0.18999227867E+03  0.10448401615E+03  0.82459836599E+02  0.29859269957E+03  0.18800000000E+03 0.  0.
   -5000001    1    1    2    0    0  0.18999227867E+03 -0.10448401615E+03 -0.41803092495E+03  0.50705801423E+03  0.18800000000E+03 0.  0.
<mgrwt>
<rscale>  0 0.73243779E+03</rscale>
<asrwt>0</asrwt>
<pdfrwt beam="1">  1        2 0.81515842E-01 0.73243779E+03</pdfrwt>
<pdfrwt beam="2">  1       -2 0.33577116E-01 0.73243779E+03</pdfrwt>
<totfact> 0.47978431E+02</totfact>
</mgrwt>
</event>
<event>
 4    1  0.6239849E-005  0.4246913E+03  0.7818608E-02  0.1035550E+00
         -2   -1    0    0    0  501 -0.00000000000E+00  0.00000000000E+00  0.29337055075E+02  0.29337055186E+02  0.25500000000E-02 0. -1.
          2   -1    0    0  501    0  0.00000000000E+00 -0.00000000000E+00 -0.15369871091E+04  0.15369871091E+04  0.25500000000E-02 0.  1.
    5000001    1    1    2    0    0  0.19229481870E+02 -0.94690462787E+02 -0.67908939389E+03  0.71122602709E+03  0.18800000000E+03 0.  0.
   -5000001    1    1    2    0    0 -0.19229481870E+02  0.94690462787E+02 -0.82856066013E+03  0.85509813719E+03  0.18800000000E+03 0.  0.
<mgrwt>
<rscale>  0 0.42469130E+03</rscale>
<asrwt>0</asrwt>
<pdfrwt beam="1">  1        2 0.21956954E+00 0.42469130E+03</pdfrwt>
<pdfrwt beam="2">  1       -2 0.41910088E-02 0.42469130E+03</pdfrwt>
<totfact> 0.38341511E+03</totfact>
</mgrwt>
</event>
<event>
 4    1  0.6239849E-005  0.4557640E+03  0.7818608E-02  0.1026017E+00
         -2   -1    0    0    0  501 -0.00000000000E+00  0.00000000000E+00  0.95638322906E+02  0.95638322940E+02  0.25500000000E-02 0. -1.
          2   -1    0    0  501    0  0.00000000000E+00 -0.00000000000E+00 -0.54298522816E+03  0.54298522817E+03  0.25500000000E-02 0.  1.
    5000001    1    1    2    0    0  0.11901104136E+02  0.12823528073E+03 -0.22440570494E+03  0.31982470810E+03  0.18800000000E+03 0.  0.
   -5000001    1    1    2    0    0 -0.11901104136E+02 -0.12823528073E+03 -0.22294120032E+03  0.31879884301E+03  0.18800000000E+03 0.  0.
<mgrwt>
<rscale>  0 0.45576396E+03</rscale>
<asrwt>0</asrwt>
<pdfrwt beam="1">  1        2 0.77569317E-01 0.45576396E+03</pdfrwt>
<pdfrwt beam="2">  1       -2 0.13662618E-01 0.45576396E+03</pdfrwt>
<totfact> 0.24827769E+03</totfact>
</mgrwt>
</event>
<event>
 4    1  0.6239849E-005  0.4784314E+03  0.7818608E-02  0.1019567E+00
          2   -1    0    0  501    0  0.00000000000E+00  0.00000000000E+00  0.11201335411E+03  0.11201335414E+03  0.25500000000E-02 0.  1.
         -2   -1    0    0    0  501 -0.00000000000E+00 -0.00000000000E+00 -0.51086892179E+03  0.51086892180E+03  0.25500000000E-02 0. -1.
    5000001    1    1    2    0    0 -0.86742627139E+02 -0.96472441947E+02 -0.29193717847E+03  0.37067847468E+03  0.18800000000E+03 0.  0.
   -5000001    1    1    2    0    0  0.86742627139E+02  0.96472441947E+02 -0.10691838922E+03  0.25220380126E+03  0.18800000000E+03 0.  0.
<mgrwt>
<rscale>  0 0.47843136E+03</rscale>
<asrwt>0</asrwt>
<pdfrwt beam="1">  1        2 0.16001908E-01 0.47843136E+03</pdfrwt>
<pdfrwt beam="2">  1       -2 0.72981273E-01 0.47843136E+03</pdfrwt>
<totfact> 0.63307120E+02</totfact>
</mgrwt>
</event>
<event>
 4    1  0.6239849E-005  0.4666089E+03  0.7818608E-02  0.1022882E+00
         -2   -1    0    0    0  501 -0.00000000000E+00  0.00000000000E+00  0.87449871973E+02  0.87449872010E+02  0.25500000000E-02 0. -1.
          2   -1    0    0  501    0  0.00000000000E+00 -0.00000000000E+00 -0.62242468717E+03  0.62242468718E+03  0.25500000000E-02 0.  1.
    5000001    1    1    2    0    0 -0.61816142195E+02  0.12313196369E+03 -0.28302031329E+03  0.36664316938E+03  0.18800000000E+03 0.  0.
   -5000001    1    1    2    0    0  0.61816142195E+02 -0.12313196369E+03 -0.25195450192E+03  0.34323138981E+03  0.18800000000E+03 0.  0.
<mgrwt>
<rscale>  0 0.46660887E+03</rscale>
<asrwt>0</asrwt>
<pdfrwt beam="1">  1        2 0.88917810E-01 0.46660887E+03</pdfrwt>
<pdfrwt beam="2">  1       -2 0.12492839E-01 0.46660887E+03</pdfrwt>
<totfact> 0.24573618E+03</totfact>
</mgrwt>
</event>
<event>
 4    1  0.6239849E-005  0.5029169E+03  0.7818608E-02  0.1013020E+00
          2   -1    0    0  501    0  0.00000000000E+00  0.00000000000E+00  0.19396924055E+04  0.19396924055E+04  0.25500000000E-02 0.  1.
         -2   -1    0    0    0  501 -0.00000000000E+00 -0.00000000000E+00 -0.32598650090E+02  0.32598650190E+02  0.25500000000E-02 0. -1.
    5000001    1    1    2    0    0  0.96478659751E+02  0.97210028820E+02  0.57883568811E+03  0.62382102827E+03  0.18800000000E+03 0.  0.
   -5000001    1    1    2    0    0 -0.96478659751E+02 -0.97210028820E+02  0.13282580673E+04  0.13484700274E+04  0.18800000000E+03 0.  0.
<mgrwt>
<rscale>  0 0.50291691E+03</rscale>
<asrwt>0</asrwt>
<pdfrwt beam="1">  1        2 0.27709887E+00 0.50291691E+03</pdfrwt>
<pdfrwt beam="2">  1       -2 0.46569508E-02 0.50291691E+03</pdfrwt>
<totfact> 0.20419934E+03</totfact>
</mgrwt>
</event>
<event>
 4    1  0.6239849E-005  0.7636637E+03  0.7818608E-02  0.9614155E-01
          2   -1    0    0  501    0  0.00000000000E+00  0.00000000000E+00  0.79570456333E+03  0.79570456333E+03  0.25500000000E-02 0.  1.
         -2   -1    0    0    0  501 -0.00000000000E+00 -0.00000000000E+00 -0.18322826393E+03  0.18322826394E+03  0.25500000000E-02 0. -1.
    5000001    1    1    2    0    0  0.32681353758E+03 -0.40369840026E+02  0.24869923191E+03  0.45346677969E+03  0.18800000000E+03 0.  0.
   -5000001    1    1    2    0    0 -0.32681353758E+03  0.40369840026E+02  0.36377706749E+03  0.52546604758E+03  0.18800000000E+03 0.  0.
<mgrwt>
<rscale>  0 0.76366371E+03</rscale>
<asrwt>0</asrwt>
<pdfrwt beam="1">  1        2 0.11367208E+00 0.76366371E+03</pdfrwt>
<pdfrwt beam="2">  1       -2 0.26175467E-01 0.76366371E+03</pdfrwt>
<totfact> 0.50621551E+02</totfact>
</mgrwt>
</event>
<event>
 4    1  0.6239849E-005  0.6094166E+03  0.7818608E-02  0.9886060E-01
          2   -1    0    0  501    0  0.00000000000E+00  0.00000000000E+00  0.41619064574E+04  0.41619064574E+04  0.25500000000E-02 0.  1.
         -2   -1    0    0    0  501 -0.00000000000E+00 -0.00000000000E+00 -0.22308801099E+02  0.22308801245E+02  0.25500000000E-02 0. -1.
    5000001    1    1    2    0    0  0.14823401466E+03  0.18000783179E+03  0.16858584725E+04  0.17122613503E+04  0.18800000000E+03 0.  0.
   -5000001    1    1    2    0    0 -0.14823401466E+03 -0.18000783179E+03  0.24537391838E+04  0.24719539083E+04  0.18800000000E+03 0.  0.
<mgrwt>
<rscale>  0 0.60941659E+03</rscale>
<asrwt>0</asrwt>
<pdfrwt beam="1">  1        2 0.59455871E+00 0.60941659E+03</pdfrwt>
<pdfrwt beam="2">  1       -2 0.31869681E-02 0.60941659E+03</pdfrwt>
<totfact> 0.20225117E+02</totfact>
</mgrwt>
</event>
<event>
 4    1  0.6239849E-005  0.5569308E+03  0.7818608E-02  0.9999023E-01
          2   -1    0    0  501    0  0.00000000000E+00  0.00000000000E+00  0.24133048272E+03  0.24133048273E+03  0.25500000000E-02 0.  1.
         -2   -1    0    0    0  501 -0.00000000000E+00 -0.00000000000E+00 -0.32131446252E+03  0.32131446253E+03  0.25500000000E-02 0. -1.
    5000001    1    1    2    0    0  0.37699283009E+02  0.16109179822E+03 -0.16300820074E+03  0.29881010174E+03  0.18800000000E+03 0.  0.
   -5000001    1    1    2    0    0 -0.37699283009E+02 -0.16109179822E+03  0.83024220941E+02  0.26383484352E+03  0.18800000000E+03 0.  0.
<mgrwt>
<rscale>  0 0.55693078E+03</rscale>
<asrwt>0</asrwt>
<pdfrwt beam="1">  1        2 0.34475784E-01 0.55693078E+03</pdfrwt>
<pdfrwt beam="2">  1       -2 0.45902066E-01 0.55693078E+03</pdfrwt>
<totfact> 0.68857585E+02</totfact>
</mgrwt>
</event>
<event>
 4    1  0.6239849E-005  0.5707910E+03  0.7818608E-02  0.9967930E-01
          2   -1    0    0  501    0  0.00000000000E+00  0.00000000000E+00  0.40256408522E+03  0.40256408523E+03  0.25500000000E-02 0.  1.
         -2   -1    0    0    0  501 -0.00000000000E+00 -0.00000000000E+00 -0.20232951246E+03  0.20232951247E+03  0.25500000000E-02 0. -1.
    5000001    1    1    2    0    0 -0.16743006064E+03  0.12216101807E+03  0.40634878554E+02  0.28275666729E+03  0.18800000000E+03 0.  0.
   -5000001    1    1    2    0    0  0.16743006064E+03 -0.12216101807E+03  0.15959969421E+03  0.32213693041E+03  0.18800000000E+03 0.  0.
<mgrwt>
<rscale>  0 0.57079101E+03</rscale>
<asrwt>0</asrwt>
<pdfrwt beam="1">  1        2 0.57509154E-01 0.57079101E+03</pdfrwt>
<pdfrwt beam="2">  1       -2 0.28904217E-01 0.57079101E+03</pdfrwt>
<totfact> 0.94549978E+02</totfact>
</mgrwt>
</event>
<event>
 4    1  0.6239849E-005  0.5137085E+03  0.7818608E-02  0.1010261E+00
         -2   -1    0    0    0  501 -0.00000000000E+00  0.00000000000E+00  0.10443807566E+03  0.10443807569E+03  0.25500000000E-02 0. -1.
          2   -1    0    0  501    0  0.00000000000E+00 -0.00000000000E+00 -0.63170548833E+03  0.63170548834E+03  0.25500000000E-02 0.  1.
    5000001    1    1    2    0    0  0.80286938614E+02 -0.15545786574E+03 -0.25773137598E+03  0.36384420113E+03  0.18800000000E+03 0.  0.
   -5000001    1    1    2    0    0 -0.80286938614E+02  0.15545786574E+03 -0.26953603670E+03  0.37229936289E+03  0.18800000000E+03 0.  0.
<mgrwt>
<rscale>  0 0.51370850E+03</rscale>
<asrwt>0</asrwt>
<pdfrwt beam="1">  1        2 0.90243639E-01 0.51370850E+03</pdfrwt>
<pdfrwt beam="2">  1       -2 0.14919725E-01 0.51370850E+03</pdfrwt>
<totfact> 0.17993844E+03</totfact>
</mgrwt>
</event>
<event>
 4    1  0.6239849E-005  0.8303233E+03  0.7818608E-02  0.9517134E-01
         -2   -1    0    0    0  501 -0.00000000000E+00  0.00000000000E+00  0.61157892611E+03  0.61157892611E+03  0.25500000000E-02 0. -1.
          2   -1    0    0  501    0  0.00000000000E+00 -0.00000000000E+00 -0.28182658534E+03  0.28182658535E+03  0.25500000000E-02 0.  1.
    5000001    1    1    2    0    0  0.27807084966E+03  0.15922589275E+03  0.36426218839E+03  0.52029532407E+03  0.18800000000E+03 0.  0.
   -5000001    1    1    2    0    0 -0.27807084966E+03 -0.15922589275E+03 -0.34509847618E+02  0.37311018740E+03  0.18800000000E+03 0.  0.
<mgrwt>
<rscale>  0 0.83032331E+03</rscale>
<asrwt>0</asrwt>
<pdfrwt beam="1">  1        2 0.40260941E-01 0.83032331E+03</pdfrwt>
<pdfrwt beam="2">  1       -2 0.87368417E-01 0.83032331E+03</pdfrwt>
<totfact> 0.14560092E+02</totfact>
</mgrwt>
</event>
<event>
 4    1  0.6239849E-005  0.6697308E+03  0.7818608E-02  0.9770444E-01
         -2   -1    0    0    0  501 -0.00000000000E+00  0.00000000000E+00  0.45852874702E+03  0.45852874703E+03  0.25500000000E-02 0. -1.
          2   -1    0    0  501    0  0.00000000000E+00 -0.00000000000E+00 -0.24455358930E+03  0.24455358931E+03  0.25500000000E-02 0.  1.
    5000001    1    1    2    0    0  0.67721620179E+02 -0.17388750148E+03  0.32204965427E+03  0.41699287863E+03  0.18800000000E+03 0.  0.
   -5000001    1    1    2    0    0 -0.67721620179E+02  0.17388750148E+03 -0.10807449655E+03  0.28608945771E+03  0.18800000000E+03 0.  0.
<mgrwt>
<rscale>  0 0.66973084E+03</rscale>
<asrwt>0</asrwt>
<pdfrwt beam="1">  1        2 0.34936227E-01 0.66973084E+03</pdfrwt>
<pdfrwt beam="2">  1       -2 0.65504108E-01 0.66973084E+03</pdfrwt>
<totfact> 0.32480596E+02</totfact>
</mgrwt>
</event>
<event>
 4    1  0.6239849E-005  0.7036534E+03  0.7818608E-02  0.9711005E-01
         -2   -1    0    0    0  501 -0.00000000000E+00  0.00000000000E+00  0.14963875679E+03  0.14963875681E+03  0.25500000000E-02 0. -1.
          2   -1    0    0  501    0  0.00000000000E+00 -0.00000000000E+00 -0.82720561914E+03  0.82720561914E+03  0.25500000000E-02 0.  1.
    5000001    1    1    2    0    0 -0.15284891570E+03 -0.23466101949E+03 -0.19989329904E+03  0.39208406764E+03  0.18800000000E+03 0.  0.
   -5000001    1    1    2    0    0  0.15284891570E+03  0.23466101949E+03 -0.47767356331E+03  0.58476030831E+03  0.18800000000E+03 0.  0.
<mgrwt>
<rscale>  0 0.70365338E+03</rscale>
<asrwt>0</asrwt>
<pdfrwt beam="1">  1        2 0.11817223E+00 0.70365338E+03</pdfrwt>
<pdfrwt beam="2">  1       -2 0.21376966E-01 0.70365338E+03</pdfrwt>
<totfact> 0.69284312E+02</totfact>
</mgrwt>
</event>
<event>
 4    1  0.6239849E-005  0.4327110E+03  0.7818608E-02  0.1033007E+00
         -2   -1    0    0    0  501 -0.00000000000E+00  0.00000000000E+00  0.24230297234E+02  0.24230297369E+02  0.25500000000E-02 0. -1.
          2   -1    0    0  501    0  0.00000000000E+00 -0.00000000000E+00 -0.19318669301E+04  0.19318669301E+04  0.25500000000E-02 0.  1.
    5000001    1    1    2    0    0  0.26326476359E+02 -0.72112935100E+02 -0.61636654656E+03  0.64895691573E+03  0.18800000000E+03 0.  0.
   -5000001    1    1    2    0    0 -0.26326476359E+02  0.72112935100E+02 -0.12912700863E+04  0.13071403117E+04  0.18800000000E+03 0.  0.
<mgrwt>
<rscale>  0 0.43271104E+03</rscale>
<asrwt>0</asrwt>
<pdfrwt beam="1">  1        2 0.27598089E+00 0.43271104E+03</pdfrwt>
<pdfrwt beam="2">  1       -2 0.34614723E-02 0.43271104E+03</pdfrwt>
<totfact> 0.32488364E+03</totfact>
</mgrwt>
</event>
<event>
 4    1  0.6239849E-005  0.7812788E+03  0.7818608E-02  0.9587518E-01
          2   -1    0    0  501    0  0.00000000000E+00  0.00000000000E+00  0.27614072355E+04  0.27614072355E+04  0.25500000000E-02 0.  1.
         -2   -1    0    0    0  501 -0.00000000000E+00 -0.00000000000E+00 -0.55261373550E+02  0.55261373608E+02  0.25500000000E-02 0. -1.
    5000001    1    1    2    0    0  0.14832266958E+03 -0.25997570883E+03  0.75339241973E+03  0.83218454780E+03  0.18800000000E+03 0.  0.
   -5000001    1    1    2    0    0 -0.14832266958E+03  0.25997570883E+03  0.19527534422E+04  0.19844840613E+04  0.18800000000E+03 0.  0.
<mgrwt>
<rscale>  0 0.78127884E+03</rscale>
<asrwt>0</asrwt>
<pdfrwt beam="1">  1        2 0.39448682E+00 0.78127884E+03</pdfrwt>
<pdfrwt beam="2">  1       -2 0.78944805E-02 0.78127884E+03</pdfrwt>
<totfact> 0.33296793E+02</totfact>
</mgrwt>
</event>
<event>
 4    1  0.6239849E-005  0.5523386E+03  0.7818608E-02  0.1000954E+00
          2   -1    0    0  501    0  0.00000000000E+00  0.00000000000E+00  0.20625569388E+04  0.20625569388E+04  0.25500000000E-02 0.  1.
         -2   -1    0    0    0  501 -0.00000000000E+00 -0.00000000000E+00 -0.36978122319E+02  0.36978122407E+02  0.25500000000E-02 0. -1.
    5000001    1    1    2    0    0  0.76122647319E+02 -0.18648949462E+03  0.94142305700E+03  0.98091506324E+03  0.18800000000E+03 0.  0.
   -5000001    1    1    2    0    0 -0.76122647319E+02  0.18648949462E+03  0.10841557595E+04  0.11186199980E+04  0.18800000000E+03 0.  0.
<mgrwt>
<rscale>  0 0.55233860E+03</rscale>
<asrwt>0</asrwt>
<pdfrwt beam="1">  1        2 0.29465101E+00 0.55233860E+03</pdfrwt>
<pdfrwt beam="2">  1       -2 0.52825885E-02 0.55233860E+03</pdfrwt>
<totfact> 0.14554506E+03</totfact>
</mgrwt>
</event>
<event>
 4    1  0.6239849E-005  0.4070586E+03  0.7818608E-02  0.1041363E+00
         -2   -1    0    0    0  501 -0.00000000000E+00  0.00000000000E+00  0.72772627209E+02  0.72772627253E+02  0.25500000000E-02 0. -1.
          2   -1    0    0  501    0  0.00000000000E+00 -0.00000000000E+00 -0.56922734352E+03  0.56922734353E+03  0.25500000000E-02 0.  1.
    5000001    1    1    2    0    0 -0.28467194258E+02 -0.66817902452E+02 -0.29297994439E+03  0.35560689117E+03  0.18800000000E+03 0.  0.
   -5000001    1    1    2    0    0  0.28467194258E+02  0.66817902452E+02 -0.20347477193E+03  0.28639307961E+03  0.18800000000E+03 0.  0.
<mgrwt>
<rscale>  0 0.40705857E+03</rscale>
<asrwt>0</asrwt>
<pdfrwt beam="1">  1        2 0.81318189E-01 0.40705857E+03</pdfrwt>
<pdfrwt beam="2">  1       -2 0.10396090E-01 0.40705857E+03</pdfrwt>
<totfact> 0.36695397E+03</totfact>
</mgrwt>
</event>
<event>
 4    1  0.6239849E-005  0.4011575E+03  0.7818608E-02  0.1043380E+00
         -2   -1    0    0    0  501 -0.00000000000E+00  0.00000000000E+00  0.47934807419E+03  0.47934807420E+03  0.25500000000E-02 0.  1.
          2   -1    0    0  501    0  0.00000000000E+00 -0.00000000000E+00 -0.83930301015E+02  0.83930301053E+02  0.25500000000E-02 0. -1.
    5000001    1    1    2    0    0  0.31486144272E+02  0.31954045775E+02  0.12241554593E+03  0.22878374988E+03  0.18800000000E+03 0.  0.
   -5000001    1    1    2    0    0 -0.31486144272E+02 -0.31954045775E+02  0.27300222725E+03  0.33449462538E+03  0.18800000000E+03 0.  0.
<mgrwt>
<rscale>  0 0.40115747E+03</rscale>
<asrwt>0</asrwt>
<pdfrwt beam="1">  1        2 0.11990043E-01 0.40115747E+03</pdfrwt>
<pdfrwt beam="2">  1       -2 0.68478297E-01 0.40115747E+03</pdfrwt>
<totfact> 0.10307591E+03</totfact>
</mgrwt>
</event>
<event>
 4    1  0.6239849E-005  0.7535647E+03  0.7818608E-02  0.9629774E-01
          2   -1    0    0  501    0  0.00000000000E+00  0.00000000000E+00  0.10606025868E+04  0.10606025868E+04  0.25500000000E-02 0.  1.
         -2   -1    0    0    0  501 -0.00000000000E+00 -0.00000000000E+00 -0.13385309301E+03  0.13385309303E+03  0.25500000000E-02 0. -1.
    5000001    1    1    2    0    0  0.13042750708E+03  0.29015586484E+03  0.58006004341E+03  0.68776116092E+03  0.18800000000E+03 0.  0.
   -5000001    1    1    2    0    0 -0.13042750708E+03 -0.29015586484E+03  0.34668945041E+03  0.50669451895E+03  0.18800000000E+03 0.  0.
<mgrwt>
<rscale>  0 0.75356469E+03</rscale>
<asrwt>0</asrwt>
<pdfrwt beam="1">  1        2 0.15151465E+00 0.75356469E+03</pdfrwt>
<pdfrwt beam="2">  1       -2 0.19121871E-01 0.75356469E+03</pdfrwt>
<totfact> 0.59767593E+02</totfact>
</mgrwt>
</event>
<event>
 4    1  0.6239849E-005  0.4052185E+03  0.7818608E-02  0.1041988E+00
          2   -1    0    0  501    0  0.00000000000E+00  0.00000000000E+00  0.16288264039E+04  0.16288264039E+04  0.25500000000E-02 0.  1.
         -2   -1    0    0    0  501 -0.00000000000E+00 -0.00000000000E+00 -0.25202501137E+02  0.25202501266E+02  0.25500000000E-02 0. -1.
    5000001    1    1    2    0    0 -0.58104610150E+02 -0.26489215871E+02  0.96654134840E+03  0.98672387345E+03  0.18800000000E+03 0.  0.
   -5000001    1    1    2    0    0  0.58104610150E+02  0.26489215871E+02  0.63708255439E+03  0.66730503174E+03  0.18800000000E+03 0.  0.
<mgrwt>
<rscale>  0 0.40521846E+03</rscale>
<asrwt>0</asrwt>
<pdfrwt beam="1">  1        2 0.23268951E+00 0.40521846E+03</pdfrwt>
<pdfrwt beam="2">  1       -2 0.36003569E-02 0.40521846E+03</pdfrwt>
<totfact> 0.43383996E+03</totfact>
</mgrwt>
</event>
<event>
 4    1  0.6239849E-005  0.4503740E+03  0.7818608E-02  0.1027611E+00
          2   -1    0    0  501    0  0.00000000000E+00  0.00000000000E+00  0.58175483344E+03  0.58175483344E+03  0.25500000000E-02 0.  1.
         -2   -1    0    0    0  501 -0.00000000000E+00 -0.00000000000E+00 -0.87165897818E+02  0.87165897855E+02  0.25500000000E-02 0. -1.
    5000001    1    1    2    0    0  0.25702385718E+02  0.15748007661E+02  0.42587494862E+03  0.46649982233E+03  0.18800000000E+03 0.  0.
   -5000001    1    1    2    0    0 -0.25702385718E+02 -0.15748007661E+02  0.68713987004E+02  0.20242090897E+03  0.18800000000E+03 0.  0.
<mgrwt>
<rscale>  0 0.45037399E+03</rscale>
<asrwt>0</asrwt>
<pdfrwt beam="1">  1        2 0.83107836E-01 0.45037399E+03</pdfrwt>
<pdfrwt beam="2">  1       -2 0.12452271E-01 0.45037399E+03</pdfrwt>
<totfact> 0.26722148E+03</totfact>
</mgrwt>
</event>
<event>
 4    1  0.6239849E-005  0.4926133E+03  0.7818608E-02  0.1015725E+00
         -2   -1    0    0    0  501 -0.00000000000E+00  0.00000000000E+00  0.94096739348E+02  0.94096739383E+02  0.25500000000E-02 0. -1.
          2   -1    0    0  501    0  0.00000000000E+00 -0.00000000000E+00 -0.64472981206E+03  0.64472981206E+03  0.25500000000E-02 0.  1.
    5000001    1    1    2    0    0 -0.12993944038E+03  0.47085055188E+02 -0.39361832335E+03  0.45758129886E+03  0.18800000000E+03 0.  0.
   -5000001    1    1    2    0    0  0.12993944038E+03 -0.47085055188E+02 -0.15701474936E+03  0.28124525259E+03  0.18800000000E+03 0.  0.
<mgrwt>
<rscale>  0 0.49261333E+03</rscale>
<asrwt>0</asrwt>
<pdfrwt beam="1">  1        2 0.92104257E-01 0.49261333E+03</pdfrwt>
<pdfrwt beam="2">  1       -2 0.13442392E-01 0.49261333E+03</pdfrwt>
<totfact> 0.20895418E+03</totfact>
</mgrwt>
</event>
<event>
 4    1  0.6239849E-005  0.4555533E+03  0.7818608E-02  0.1026079E+00
         -2   -1    0    0    0  501 -0.00000000000E+00  0.00000000000E+00  0.70714657594E+03  0.70714657594E+03  0.25500000000E-02 0. -1.
          2   -1    0    0  501    0  0.00000000000E+00 -0.00000000000E+00 -0.73368384845E+02  0.73368384890E+02  0.25500000000E-02 0.  1.
    5000001    1    1    2    0    0 -0.95163457255E+02  0.68807109471E+02  0.22707867894E+03  0.31733141720E+03  0.18800000000E+03 0.  0.
   -5000001    1    1    2    0    0  0.95163457255E+02 -0.68807109471E+02  0.40669951215E+03  0.46318354364E+03  0.18800000000E+03 0.  0.
<mgrwt>
<rscale>  0 0.45555330E+03</rscale>
<asrwt>0</asrwt>
<pdfrwt beam="1">  1        2 0.10481198E-01 0.45555330E+03</pdfrwt>
<pdfrwt beam="2">  1       -2 0.10102093E+00 0.45555330E+03</pdfrwt>
<totfact> 0.50915004E+02</totfact>
</mgrwt>
</event>
<event>
 4    1  0.6239849E-005  0.4226318E+03  0.7818608E-02  0.1036213E+00
         -2   -1    0    0    0  501 -0.00000000000E+00  0.00000000000E+00  0.94016085353E+02  0.94016085387E+02  0.25500000000E-02 0. -1.
          2   -1    0    0  501    0  0.00000000000E+00 -0.00000000000E+00 -0.47496566929E+03  0.47496566929E+03  0.25500000000E-02 0.  1.
    5000001    1    1    2    0    0  0.83373529984E+02  0.25526951281E+02 -0.24610806207E+03  0.32173894536E+03  0.18800000000E+03 0.  0.
   -5000001    1    1    2    0    0 -0.83373529984E+02 -0.25526951281E+02 -0.13484152186E+03  0.24724280932E+03  0.18800000000E+03 0.  0.
<mgrwt>
<rscale>  0 0.42263182E+03</rscale>
<asrwt>0</asrwt>
<pdfrwt beam="1">  1        2 0.67852237E-01 0.42263182E+03</pdfrwt>
<pdfrwt beam="2">  1       -2 0.13430870E-01 0.42263182E+03</pdfrwt>
<totfact> 0.29680015E+03</totfact>
</mgrwt>
</event>
<event>
 4    1  0.6239849E-005  0.1011868E+04  0.7818608E-02  0.9295624E-01
          2   -1    0    0  501    0  0.00000000000E+00  0.00000000000E+00  0.35005189590E+03  0.35005189591E+03  0.25500000000E-02 0.  1.
         -2   -1    0    0    0  501 -0.00000000000E+00 -0.00000000000E+00 -0.73123146456E+03  0.73123146457E+03  0.25500000000E-02 0. -1.
    5000001    1    1    2    0    0  0.35450392328E+03 -0.30789431229E+03 -0.17737098859E+03  0.53598172241E+03  0.18800000000E+03 0.  0.
   -5000001    1    1    2    0    0 -0.35450392328E+03  0.30789431229E+03 -0.20380858007E+03  0.54530163806E+03  0.18800000000E+03 0.  0.
<mgrwt>
<rscale>  0 0.10118675E+04</rscale>
<asrwt>0</asrwt>
<pdfrwt beam="1">  1        2 0.50007414E-01 0.10118675E+04</pdfrwt>
<pdfrwt beam="2">  1       -2 0.10446164E+00 0.10118675E+04</pdfrwt>
<totfact> 0.74602401E+01</totfact>
</mgrwt>
</event>
<event>
 4    1  0.6239849E-005  0.4609832E+03  0.7818608E-02  0.1024496E+00
          2   -1    0    0  501    0  0.00000000000E+00  0.00000000000E+00  0.10894836671E+03  0.10894836674E+03  0.25500000000E-02 0.  1.
         -2   -1    0    0    0  501 -0.00000000000E+00 -0.00000000000E+00 -0.48762896755E+03  0.48762896755E+03  0.25500000000E-02 0. -1.
    5000001    1    1    2    0    0 -0.10014542392E+03 -0.82004388279E+02 -0.23084480006E+03  0.32463386660E+03  0.18800000000E+03 0.  0.
   -5000001    1    1    2    0    0  0.10014542392E+03  0.82004388279E+02 -0.14783580078E+03  0.27194346770E+03  0.18800000000E+03 0.  0.
<mgrwt>
<rscale>  0 0.46098321E+03</rscale>
<asrwt>0</asrwt>
<pdfrwt beam="1">  1        2 0.15564053E-01 0.46098321E+03</pdfrwt>
<pdfrwt beam="2">  1       -2 0.69661280E-01 0.46098321E+03</pdfrwt>
<totfact> 0.72409594E+02</totfact>
</mgrwt>
</event>
<event>
 4    1  0.6239849E-005  0.5885562E+03  0.7818608E-02  0.9929437E-01
          2   -1    0    0  501    0  0.00000000000E+00  0.00000000000E+00  0.36906621337E+03  0.36906621338E+03  0.25500000000E-02 0.  1.
         -2   -1    0    0    0  501 -0.00000000000E+00 -0.00000000000E+00 -0.23464518512E+03  0.23464518513E+03  0.25500000000E-02 0. -1.
    5000001    1    1    2    0    0 -0.47929657722E+02 -0.22113055414E+03  0.75131793095E+02  0.30361943349E+03  0.18800000000E+03 0.  0.
   -5000001    1    1    2    0    0  0.47929657722E+02  0.22113055414E+03  0.59289235157E+02  0.30009196502E+03  0.18800000000E+03 0.  0.
<mgrwt>
<rscale>  0 0.58855623E+03</rscale>
<asrwt>0</asrwt>
<pdfrwt beam="1">  1        2 0.52723745E-01 0.58855623E+03</pdfrwt>
<pdfrwt beam="2">  1       -2 0.33520741E-01 0.58855623E+03</pdfrwt>
<totfact> 0.79052676E+02</totfact>
</mgrwt>
</event>
<event>
 4    1  0.6239849E-005  0.5653073E+03  0.7818608E-02  0.9980117E-01
          2   -1    0    0  501    0  0.00000000000E+00  0.00000000000E+00  0.39061083457E+04  0.39061083457E+04  0.25500000000E-02 0.  1.
         -2   -1    0    0    0  501 -0.00000000000E+00 -0.00000000000E+00 -0.20453371359E+02  0.20453371518E+02  0.25500000000E-02 0. -1.
    5000001    1    1    2    0    0  0.18161765217E+03  0.99140932978E+00  0.11959221741E+04  0.12241567714E+04  0.18800000000E+03 0.  0.
   -5000001    1    1    2    0    0 -0.18161765217E+03 -0.99140932978E+00  0.26897328002E+04  0.27024049458E+04  0.18800000000E+03 0.  0.
<mgrwt>
<rscale>  0 0.56530730E+03</rscale>
<asrwt>0</asrwt>
<pdfrwt beam="1">  1        2 0.55801603E+00 0.56530730E+03</pdfrwt>
<pdfrwt beam="2">  1       -2 0.29219073E-02 0.56530730E+03</pdfrwt>
<totfact> 0.34532872E+02</totfact>
</mgrwt>
</event>
<event>
 4    1  0.6239849E-005  0.6540628E+03  0.7818608E-02  0.9799185E-01
          2   -1    0    0  501    0  0.00000000000E+00  0.00000000000E+00  0.71678822495E+03  0.71678822496E+03  0.25500000000E-02 0.  1.
         -2   -1    0    0    0  501 -0.00000000000E+00 -0.00000000000E+00 -0.14920658713E+03  0.14920658715E+03  0.25500000000E-02 0. -1.
    5000001    1    1    2    0    0 -0.16479971573E+03  0.20767355484E+03  0.23571811452E+03  0.40149007609E+03  0.18800000000E+03 0.  0.
   -5000001    1    1    2    0    0  0.16479971573E+03 -0.20767355484E+03  0.33186352330E+03  0.46450473602E+03  0.18800000000E+03 0.  0.
<mgrwt>
<rscale>  0 0.65406276E+03</rscale>
<asrwt>0</asrwt>
<pdfrwt beam="1">  1        2 0.10239832E+00 0.65406276E+03</pdfrwt>
<pdfrwt beam="2">  1       -2 0.21315227E-01 0.65406276E+03</pdfrwt>
<totfact> 0.83600590E+02</totfact>
</mgrwt>
</event>
<event>
 4    1  0.6239849E-005  0.5525482E+03  0.7818608E-02  0.1000906E+00
         -2   -1    0    0    0  501 -0.00000000000E+00  0.00000000000E+00  0.67326137116E+02  0.67326137164E+02  0.25500000000E-02 0. -1.
          2   -1    0    0  501    0  0.00000000000E+00 -0.00000000000E+00 -0.11336959729E+04  0.11336959729E+04  0.25500000000E-02 0.  1.
    5000001    1    1    2    0    0  0.13147061002E+03 -0.41689595308E+02 -0.21107418161E+03  0.31451367824E+03  0.18800000000E+03 0.  0.
   -5000001    1    1    2    0    0 -0.13147061002E+03  0.41689595308E+02 -0.85529565417E+03  0.88650843182E+03  0.18800000000E+03 0.  0.
<mgrwt>
<rscale>  0 0.55254817E+03</rscale>
<asrwt>0</asrwt>
<pdfrwt beam="1">  1        2 0.16195656E+00 0.55254817E+03</pdfrwt>
<pdfrwt beam="2">  1       -2 0.96180203E-02 0.55254817E+03</pdfrwt>
<totfact> 0.17176856E+03</totfact>
</mgrwt>
</event>
<event>
 4    1  0.6239849E-005  0.5636737E+03  0.7818608E-02  0.9983776E-01
          2   -1    0    0  501    0  0.00000000000E+00  0.00000000000E+00  0.33926753019E+04  0.33926753019E+04  0.25500000000E-02 0.  1.
         -2   -1    0    0    0  501 -0.00000000000E+00 -0.00000000000E+00 -0.23412796893E+02  0.23412797032E+02  0.25500000000E-02 0. -1.
    5000001    1    1    2    0    0  0.12553815680E+03  0.14665592878E+03  0.11841351414E+04  0.12144084253E+04  0.18800000000E+03 0.  0.
   -5000001    1    1    2    0    0 -0.12553815680E+03 -0.14665592878E+03  0.21851273636E+04  0.22016796736E+04  0.18800000000E+03 0.  0.
<mgrwt>
<rscale>  0 0.56367373E+03</rscale>
<asrwt>0</asrwt>
<pdfrwt beam="1">  1        2 0.48466798E+00 0.56367373E+03</pdfrwt>
<pdfrwt beam="2">  1       -2 0.33446847E-02 0.56367373E+03</pdfrwt>
<totfact> 0.58048639E+02</totfact>
</mgrwt>
</event>
<event>
 4    1  0.6239849E-005  0.6491131E+03  0.7818608E-02  0.9808445E-01
         -2   -1    0    0    0  501 -0.00000000000E+00  0.00000000000E+00  0.44698147647E+02  0.44698147719E+02  0.25500000000E-02 0. -1.
          2   -1    0    0  501    0  0.00000000000E+00 -0.00000000000E+00 -0.23566292654E+04  0.23566292654E+04  0.25500000000E-02 0.  1.
    5000001    1    1    2    0    0 -0.19366272489E+03 -0.13045702010E+03 -0.69585989018E+03  0.75768679008E+03  0.18800000000E+03 0.  0.
   -5000001    1    1    2    0    0  0.19366272489E+03  0.13045702010E+03 -0.16160712275E+04  0.16436406230E+04  0.18800000000E+03 0.  0.
<mgrwt>
<rscale>  0 0.64911313E+03</rscale>
<asrwt>0</asrwt>
<pdfrwt beam="1">  1        2 0.33666125E+00 0.64911313E+03</pdfrwt>
<pdfrwt beam="2">  1       -2 0.63854511E-02 0.64911313E+03</pdfrwt>
<totfact> 0.76448812E+02</totfact>
</mgrwt>
</event>
<event>
 4    1  0.6239849E-005  0.4667133E+03  0.7818608E-02  0.1022852E+00
         -2   -1    0    0    0  501 -0.00000000000E+00  0.00000000000E+00  0.10600061602E+03  0.10600061605E+03  0.25500000000E-02 0. -1.
          2   -1    0    0  501    0  0.00000000000E+00 -0.00000000000E+00 -0.51372647548E+03  0.51372647548E+03  0.25500000000E-02 0.  1.
    5000001    1    1    2    0    0  0.55003973437E+02 -0.10672386350E+03 -0.11286953573E+03  0.24999790445E+03  0.18800000000E+03 0.  0.
   -5000001    1    1    2    0    0 -0.55003973437E+02  0.10672386350E+03 -0.29485632373E+03  0.36972918708E+03  0.18800000000E+03 0.  0.
<mgrwt>
<rscale>  0 0.46671329E+03</rscale>
<asrwt>0</asrwt>
<pdfrwt beam="1">  1        2 0.73389495E-01 0.46671329E+03</pdfrwt>
<pdfrwt beam="2">  1       -2 0.15142945E-01 0.46671329E+03</pdfrwt>
<totfact> 0.22282550E+03</totfact>
</mgrwt>
</event>
<event>
 4    1  0.6239849E-005  0.6529365E+03  0.7818608E-02  0.9801285E-01
         -2   -1    0    0    0  501 -0.00000000000E+00  0.00000000000E+00  0.27268917801E+02  0.27268917920E+02  0.25500000000E-02 0. -1.
          2   -1    0    0  501    0  0.00000000000E+00 -0.00000000000E+00 -0.39085344251E+04  0.39085344251E+04  0.25500000000E-02 0.  1.
    5000001    1    1    2    0    0  0.24314738488E+03  0.10689839176E+02 -0.12802438148E+04  0.13166636430E+04  0.18800000000E+03 0.  0.
   -5000001    1    1    2    0    0 -0.24314738488E+03 -0.10689839176E+02 -0.26010216925E+04  0.26191397001E+04  0.18800000000E+03 0.  0.
<mgrwt>
<rscale>  0 0.65293646E+03</rscale>
<asrwt>0</asrwt>
<pdfrwt beam="1">  1        2 0.55836170E+00 0.65293646E+03</pdfrwt>
<pdfrwt beam="2">  1       -2 0.38955622E-02 0.65293646E+03</pdfrwt>
<totfact> 0.21910673E+02</totfact>
</mgrwt>
</event>
<event>
 4    1  0.6239849E-005  0.6650254E+03  0.7818608E-02  0.9778987E-01
          2   -1    0    0  501    0  0.00000000000E+00  0.00000000000E+00  0.69550871916E+03  0.69550871917E+03  0.25500000000E-02 0.  1.
         -2   -1    0    0    0  501 -0.00000000000E+00 -0.00000000000E+00 -0.15896952485E+03  0.15896952487E+03  0.25500000000E-02 0. -1.
    5000001    1    1    2    0    0  0.17455029819E+03 -0.20107702883E+03  0.35272948925E+03  0.48027270453E+03  0.18800000000E+03 0.  0.
   -5000001    1    1    2    0    0 -0.17455029819E+03  0.20107702883E+03  0.18380970506E+03  0.37420553951E+03  0.18800000000E+03 0.  0.
<mgrwt>
<rscale>  0 0.66502538E+03</rscale>
<asrwt>0</asrwt>
<pdfrwt beam="1">  1        2 0.99358390E-01 0.66502538E+03</pdfrwt>
<pdfrwt beam="2">  1       -2 0.22709932E-01 0.66502538E+03</pdfrwt>
<totfact> 0.77548999E+02</totfact>
</mgrwt>
</event>
<event>
 4    1  0.6239849E-005  0.7039723E+03  0.7818608E-02  0.9710463E-01
         -2   -1    0    0    0  501 -0.00000000000E+00  0.00000000000E+00  0.24735040152E+03  0.24735040153E+03  0.25500000000E-02 0. -1.
          2   -1    0    0  501    0  0.00000000000E+00 -0.00000000000E+00 -0.50088552144E+03  0.50088552144E+03  0.25500000000E-02 0.  1.
    5000001    1    1    2    0    0 -0.25914188872E+03 -0.38756885167E+01 -0.28218291450E+03  0.42677949422E+03  0.18800000000E+03 0.  0.
   -5000001    1    1    2    0    0  0.25914188872E+03  0.38756885167E+01  0.28647794578E+02  0.32145642875E+03  0.18800000000E+03 0.  0.
<mgrwt>
<rscale>  0 0.70397226E+03</rscale>
<asrwt>0</asrwt>
<pdfrwt beam="1">  1        2 0.71555074E-01 0.70397226E+03</pdfrwt>
<pdfrwt beam="2">  1       -2 0.35335772E-01 0.70397226E+03</pdfrwt>
<totfact> 0.50679193E+02</totfact>
</mgrwt>
</event>
<event>
 4    1  0.6239849E-005  0.8121411E+03  0.7818608E-02  0.9542608E-01
          2   -1    0    0  501    0  0.00000000000E+00  0.00000000000E+00  0.33744948227E+04  0.33744948227E+04  0.25500000000E-02 0.  1.
         -2   -1    0    0    0  501 -0.00000000000E+00 -0.00000000000E+00 -0.48864581225E+02  0.48864581291E+02  0.25500000000E-02 0. -1.
    5000001    1    1    2    0    0 -0.18000524906E+03  0.30390516128E+03  0.13711091982E+04  0.14283013233E+04  0.18800000000E+03 0.  0.
   -5000001    1    1    2    0    0  0.18000524906E+03 -0.30390516128E+03  0.19545210433E+04  0.19950580807E+04  0.18800000000E+03 0.  0.
<mgrwt>
<rscale>  0 0.81214106E+03</rscale>
<asrwt>0</asrwt>
<pdfrwt beam="1">  1        2 0.48207067E+00 0.81214106E+03</pdfrwt>
<pdfrwt beam="2">  1       -2 0.69806547E-02 0.81214106E+03</pdfrwt>
<totfact> 0.18442647E+02</totfact>
</mgrwt>
</event>
<event>
 4    1  0.6239849E-005  0.4648122E+03  0.7818608E-02  0.1023395E+00
         -2   -1    0    0    0  501 -0.00000000000E+00  0.00000000000E+00  0.15175680485E+02  0.15175680700E+02  0.25500000000E-02 0. -1.
          2   -1    0    0  501    0  0.00000000000E+00 -0.00000000000E+00 -0.35591541916E+04  0.35591541916E+04  0.25500000000E-02 0.  1.
    5000001    1    1    2    0    0 -0.73370171141E+02  0.11526000989E+03 -0.17776154715E+04  0.17927433771E+04  0.18800000000E+03 0.  0.
   -5000001    1    1    2    0    0  0.73370171141E+02 -0.11526000989E+03 -0.17663630396E+04  0.17815864951E+04  0.18800000000E+03 0.  0.
<mgrwt>
<rscale>  0 0.46481217E+03</rscale>
<asrwt>0</asrwt>
<pdfrwt beam="1">  1        2 0.50845007E+00 0.46481217E+03</pdfrwt>
<pdfrwt beam="2">  1       -2 0.21679566E-02 0.46481217E+03</pdfrwt>
<totfact> 0.90209031E+02</totfact>
</mgrwt>
</event>
<event>
 4    1  0.6239849E-005  0.4847466E+03  0.7818608E-02  0.1017839E+00
         -2   -1    0    0    0  501 -0.00000000000E+00  0.00000000000E+00  0.31793760065E+02  0.31793760167E+02  0.25500000000E-02 0. -1.
          2   -1    0    0  501    0  0.00000000000E+00 -0.00000000000E+00 -0.18476839722E+04  0.18476839722E+04  0.25500000000E-02 0.  1.
    5000001    1    1    2    0    0  0.11501771827E+02  0.12237876260E+03 -0.12610073065E+04  0.12808560728E+04  0.18800000000E+03 0.  0.
   -5000001    1    1    2    0    0 -0.11501771827E+02 -0.12237876260E+03 -0.55488290567E+03  0.59862165956E+03  0.18800000000E+03 0.  0.
<mgrwt>
<rscale>  0 0.48474662E+03</rscale>
<asrwt>0</asrwt>
<pdfrwt beam="1">  1        2 0.26395479E+00 0.48474662E+03</pdfrwt>
<pdfrwt beam="2">  1       -2 0.45419669E-02 0.48474662E+03</pdfrwt>
<totfact> 0.23605137E+03</totfact>
</mgrwt>
</event>
<event>
 4    1  0.6239849E-005  0.1116646E+04  0.7818608E-02  0.9189118E-01
          2   -1    0    0  501    0  0.00000000000E+00  0.00000000000E+00  0.65569447728E+03  0.65569447728E+03  0.25500000000E-02 0.  1.
         -2   -1    0    0    0  501 -0.00000000000E+00 -0.00000000000E+00 -0.47541094797E+03  0.47541094798E+03  0.25500000000E-02 0. -1.
    5000001    1    1    2    0    0  0.51163211949E+03  0.11961963238E+03  0.72478910898E+02  0.56273748291E+03  0.18800000000E+03 0.  0.
   -5000001    1    1    2    0    0 -0.51163211949E+03 -0.11961963238E+03  0.10780461841E+03  0.56836794235E+03  0.18800000000E+03 0.  0.
<mgrwt>
<rscale>  0 0.11166456E+04</rscale>
<asrwt>0</asrwt>
<pdfrwt beam="1">  1        2 0.93670639E-01 0.11166456E+04</pdfrwt>
<pdfrwt beam="2">  1       -2 0.67915850E-01 0.11166456E+04</pdfrwt>
<totfact> 0.96140330E+01</totfact>
</mgrwt>
</event>
<event>
 4    1  0.6239849E-005  0.1015637E+04  0.7818608E-02  0.9291559E-01
          2   -1    0    0  501    0  0.00000000000E+00  0.00000000000E+00  0.20327516930E+03  0.20327516931E+03  0.25500000000E-02 0.  1.
         -2   -1    0    0    0  501 -0.00000000000E+00 -0.00000000000E+00 -0.12686236616E+04  0.12686236616E+04  0.25500000000E-02 0. -1.
    5000001    1    1    2    0    0 -0.38400023429E+03  0.26693602127E+03 -0.44304775537E+03  0.67107848492E+03  0.18800000000E+03 0.  0.
   -5000001    1    1    2    0    0  0.38400023429E+03 -0.26693602127E+03 -0.62230073698E+03  0.80082034604E+03  0.18800000000E+03 0.  0.
<mgrwt>
<rscale>  0 0.10156371E+04</rscale>
<asrwt>0</asrwt>
<pdfrwt beam="1">  1        2 0.29039311E-01 0.10156371E+04</pdfrwt>
<pdfrwt beam="2">  1       -2 0.18123195E+00 0.10156371E+04</pdfrwt>
<totfact> 0.32788919E+01</totfact>
</mgrwt>
</event>
<event>
 4    1  0.6239849E-005  0.5086742E+03  0.7818608E-02  0.1011539E+00
          2   -1    0    0  501    0  0.00000000000E+00  0.00000000000E+00  0.28475119533E+03  0.28475119534E+03  0.25500000000E-02 0.  1.
         -2   -1    0    0    0  501 -0.00000000000E+00 -0.00000000000E+00 -0.22717147757E+03  0.22717147758E+03  0.25500000000E-02 0. -1.
    5000001    1    1    2    0    0  0.12294543100E+03  0.58674244842E+02  0.13330443269E+03  0.26771686123E+03  0.18800000000E+03 0.  0.
   -5000001    1    1    2    0    0 -0.12294543100E+03 -0.58674244842E+02 -0.75724714927E+02  0.24420581169E+03  0.18800000000E+03 0.  0.
<mgrwt>
<rscale>  0 0.50867416E+03</rscale>
<asrwt>0</asrwt>
<pdfrwt beam="1">  1        2 0.40678742E-01 0.50867416E+03</pdfrwt>
<pdfrwt beam="2">  1       -2 0.32453068E-01 0.50867416E+03</pdfrwt>
<totfact> 0.11181176E+03</totfact>
</mgrwt>
</event>
<event>
 4    1  0.6239849E-005  0.5369636E+03  0.7818608E-02  0.1004557E+00
          2   -1    0    0  501    0  0.00000000000E+00  0.00000000000E+00  0.11083972223E+04  0.11083972223E+04  0.25500000000E-02 0.  1.
         -2   -1    0    0    0  501 -0.00000000000E+00 -0.00000000000E+00 -0.65033081976E+02  0.65033082026E+02  0.25500000000E-02 0. -1.
    5000001    1    1    2    0    0 -0.79757063255E+02  0.16950278823E+03  0.61034476696E+03  0.66555023771E+03  0.18800000000E+03 0.  0.
   -5000001    1    1    2    0    0  0.79757063255E+02 -0.16950278823E+03  0.43301937333E+03  0.50788006659E+03  0.18800000000E+03 0.  0.
<mgrwt>
<rscale>  0 0.53696364E+03</rscale>
<asrwt>0</asrwt>
<pdfrwt beam="1">  1        2 0.15834247E+00 0.53696364E+03</pdfrwt>
<pdfrwt beam="2">  1       -2 0.92904400E-02 0.53696364E+03</pdfrwt>
<totfact> 0.18785439E+03</totfact>
</mgrwt>
</event>
<event>
 4    1  0.6239849E-005  0.5167356E+03  0.7818608E-02  0.1009501E+00
          2   -1    0    0  501    0  0.00000000000E+00  0.00000000000E+00  0.59755914796E+03  0.59755914796E+03  0.25500000000E-02 0.  1.
         -2   -1    0    0    0  501 -0.00000000000E+00 -0.00000000000E+00 -0.11171096309E+03  0.11171096312E+03  0.25500000000E-02 0. -1.
    5000001    1    1    2    0    0 -0.23562791533E+02  0.17563383718E+03  0.23917561093E+03  0.35206735544E+03  0.18800000000E+03 0.  0.
   -5000001    1    1    2    0    0  0.23562791533E+02 -0.17563383718E+03  0.24667257393E+03  0.35720275564E+03  0.18800000000E+03 0.  0.
<mgrwt>
<rscale>  0 0.51673555E+03</rscale>
<asrwt>0</asrwt>
<pdfrwt beam="1">  1        2 0.85365591E-01 0.51673555E+03</pdfrwt>
<pdfrwt beam="2">  1       -2 0.15958709E-01 0.51673555E+03</pdfrwt>
<totfact> 0.17152277E+03</totfact>
</mgrwt>
</event>
<event>
 4    1  0.6239849E-005  0.4429887E+03  0.7818608E-02  0.1029834E+00
          2   -1    0    0  501    0  0.00000000000E+00  0.00000000000E+00  0.34638182185E+03  0.34638182186E+03  0.25500000000E-02 0.  1.
         -2   -1    0    0    0  501 -0.00000000000E+00 -0.00000000000E+00 -0.14163485162E+03  0.14163485165E+03  0.25500000000E-02 0. -1.
    5000001    1    1    2    0    0 -0.55782023070E+02 -0.10279254092E+03  0.95600612163E+02  0.24116678381E+03  0.18800000000E+03 0.  0.
   -5000001    1    1    2    0    0  0.55782023070E+02  0.10279254092E+03  0.10914635806E+03  0.24684988970E+03  0.18800000000E+03 0.  0.
<mgrwt>
<rscale>  0 0.44298866E+03</rscale>
<asrwt>0</asrwt>
<pdfrwt beam="1">  1        2 0.49483118E-01 0.44298866E+03</pdfrwt>
<pdfrwt beam="2">  1       -2 0.20233550E-01 0.44298866E+03</pdfrwt>
<totfact> 0.21047749E+03</totfact>
</mgrwt>
</event>
<event>
 4    1  0.6239849E-005  0.6554396E+03  0.7818608E-02  0.9796625E-01
          2   -1    0    0  501    0  0.00000000000E+00  0.00000000000E+00  0.18351557235E+04  0.18351557235E+04  0.25500000000E-02 0.  1.
         -2   -1    0    0    0  501 -0.00000000000E+00 -0.00000000000E+00 -0.58523791610E+02  0.58523791665E+02  0.25500000000E-02 0. -1.
    5000001    1    1    2    0    0 -0.18804732554E+03  0.17907423067E+03  0.69179060936E+03  0.76246155570E+03  0.18800000000E+03 0.  0.
   -5000001    1    1    2    0    0  0.18804732554E+03 -0.17907423067E+03  0.10848413225E+04  0.11312179594E+04  0.18800000000E+03 0.  0.
<mgrwt>
<rscale>  0 0.65543961E+03</rscale>
<asrwt>0</asrwt>
<pdfrwt beam="1">  1        2 0.26216508E+00 0.65543961E+03</pdfrwt>
<pdfrwt beam="2">  1       -2 0.83605426E-02 0.65543961E+03</pdfrwt>
<totfact> 0.91356380E+02</totfact>
</mgrwt>
</event>
<event>
 4    1  0.6239849E-005  0.1308349E+04  0.7818608E-02  0.9022970E-01
          2   -1    0    0  501    0  0.00000000000E+00  0.00000000000E+00  0.14654166081E+04  0.14654166081E+04  0.25500000000E-02 0.  1.
         -2   -1    0    0    0  501 -0.00000000000E+00 -0.00000000000E+00 -0.29202930460E+03  0.29202930461E+03  0.25500000000E-02 0. -1.
    5000001    1    1    2    0    0  0.57336645714E+03  0.63767126894E+02  0.25825426389E+03  0.65943506539E+03  0.18800000000E+03 0.  0.
   -5000001    1    1    2    0    0 -0.57336645714E+03 -0.63767126894E+02  0.91513303962E+03  0.10980108473E+04  0.18800000000E+03 0.  0.
<mgrwt>
<rscale>  0 0.13083495E+04</rscale>
<asrwt>0</asrwt>
<pdfrwt beam="1">  1        2 0.20934523E+00 0.13083495E+04</pdfrwt>
<pdfrwt beam="2">  1       -2 0.41718473E-01 0.13083495E+04</pdfrwt>
<totfact> 0.81357783E+01</totfact>
</mgrwt>
</event>
<event>
 4    1  0.6239849E-005  0.5594049E+03  0.7818608E-02  0.9993402E-01
         -2   -1    0    0    0  501 -0.00000000000E+00  0.00000000000E+00  0.10638493258E+03  0.10638493261E+03  0.25500000000E-02 0. -1.
          2   -1    0    0  501    0  0.00000000000E+00 -0.00000000000E+00 -0.73538112532E+03  0.73538112532E+03  0.25500000000E-02 0.  1.
    5000001    1    1    2    0    0 -0.16525365652E+03 -0.11756407003E+03 -0.25138112368E+03  0.37371988293E+03  0.18800000000E+03 0.  0.
   -5000001    1    1    2    0    0  0.16525365652E+03  0.11756407003E+03 -0.37761506906E+03  0.46804617501E+03  0.18800000000E+03 0.  0.
<mgrwt>
<rscale>  0 0.55940494E+03</rscale>
<asrwt>0</asrwt>
<pdfrwt beam="1">  1        2 0.10505444E+00 0.55940494E+03</pdfrwt>
<pdfrwt beam="2">  1       -2 0.15197848E-01 0.55940494E+03</pdfrwt>
<totfact> 0.14511364E+03</totfact>
</mgrwt>
</event>
<event>
 4    1  0.6239849E-005  0.5191175E+03  0.7818608E-02  0.1008906E+00
          2   -1    0    0  501    0  0.00000000000E+00  0.00000000000E+00  0.22891480324E+03  0.22891480325E+03  0.25500000000E-02 0.  1.
         -2   -1    0    0    0  501 -0.00000000000E+00 -0.00000000000E+00 -0.29430487410E+03  0.29430487411E+03  0.25500000000E-02 0. -1.
    5000001    1    1    2    0    0 -0.25510660636E+02  0.14644429263E+03  0.67741891923E+02  0.24905760091E+03  0.18800000000E+03 0.  0.
   -5000001    1    1    2    0    0  0.25510660636E+02 -0.14644429263E+03 -0.13313196278E+03  0.27416207645E+03  0.18800000000E+03 0.  0.
<mgrwt>
<rscale>  0 0.51911749E+03</rscale>
<asrwt>0</asrwt>
<pdfrwt beam="1">  1        2 0.32702115E-01 0.51911749E+03</pdfrwt>
<pdfrwt beam="2">  1       -2 0.42043553E-01 0.51911749E+03</pdfrwt>
<totfact> 0.86844723E+02</totfact>
</mgrwt>
</event>
<event>
 4    1  0.6239849E-005  0.4777290E+03  0.7818608E-02  0.1019761E+00
         -2   -1    0    0    0  501 -0.00000000000E+00  0.00000000000E+00  0.48404616316E+03  0.48404616317E+03  0.25500000000E-02 0. -1.
          2   -1    0    0  501    0  0.00000000000E+00 -0.00000000000E+00 -0.11787359183E+03  0.11787359186E+03  0.25500000000E-02 0.  1.
    5000001    1    1    2    0    0  0.11672410865E+03 -0.78436695087E+02  0.12765622275E+03  0.26723948788E+03  0.18800000000E+03 0.  0.
   -5000001    1    1    2    0    0 -0.11672410865E+03  0.78436695087E+02  0.23851634858E+03  0.33468026714E+03  0.18800000000E+03 0.  0.
<mgrwt>
<rscale>  0 0.47772904E+03</rscale>
<asrwt>0</asrwt>
<pdfrwt beam="1">  1        2 0.16839084E-01 0.47772904E+03</pdfrwt>
<pdfrwt beam="2">  1       -2 0.69149453E-01 0.47772904E+03</pdfrwt>
<totfact> 0.66975896E+02</totfact>
</mgrwt>
</event>
<event>
 4    1  0.6239849E-005  0.1517188E+04  0.7818608E-02  0.8873103E-01
         -2   -1    0    0    0  501 -0.00000000000E+00  0.00000000000E+00  0.35999312248E+03  0.35999312249E+03  0.25500000000E-02 0. -1.
          2   -1    0    0  501    0  0.00000000000E+00 -0.00000000000E+00 -0.15985447223E+04  0.15985447223E+04  0.25500000000E-02 0.  1.
    5000001    1    1    2    0    0  0.62331347093E+03 -0.35029169489E+03 -0.83871792083E+03  0.11180410123E+04  0.18800000000E+03 0.  0.
   -5000001    1    1    2    0    0 -0.62331347093E+03  0.35029169489E+03 -0.39983367902E+03  0.84049683249E+03  0.18800000000E+03 0.  0.
<mgrwt>
<rscale>  0 0.15171883E+04</rscale>
<asrwt>0</asrwt>
<pdfrwt beam="1">  1        2 0.22836353E+00 0.15171883E+04</pdfrwt>
<pdfrwt beam="2">  1       -2 0.51427590E-01 0.15171883E+04</pdfrwt>
<totfact> 0.44744690E+01</totfact>
</mgrwt>
</event>
<event>
 4    1  0.6239849E-005  0.7500632E+03  0.7818608E-02  0.9635251E-01
          2   -1    0    0  501    0  0.00000000000E+00  0.00000000000E+00  0.17751019999E+04  0.17751019999E+04  0.25500000000E-02 0.  1.
         -2   -1    0    0    0  501 -0.00000000000E+00 -0.00000000000E+00 -0.79234151285E+02  0.79234151326E+02  0.25500000000E-02 0. -1.
    5000001    1    1    2    0    0 -0.26156273087E+03  0.38045940427E+02  0.13133598859E+04  0.13528195540E+04  0.18800000000E+03 0.  0.
   -5000001    1    1    2    0    0  0.26156273087E+03 -0.38045940427E+02  0.38250796269E+03  0.50151659722E+03  0.18800000000E+03 0.  0.
<mgrwt>
<rscale>  0 0.75006320E+03</rscale>
<asrwt>0</asrwt>
<pdfrwt beam="1">  1        2 0.25358600E+00 0.75006320E+03</pdfrwt>
<pdfrwt beam="2">  1       -2 0.11319165E-01 0.75006320E+03</pdfrwt>
<totfact> 0.59629966E+02</totfact>
</mgrwt>
</event>
<event>
 4    1  0.6239849E-005  0.5537022E+03  0.7818608E-02  0.1000641E+00
         -2   -1    0    0    0  501 -0.00000000000E+00  0.00000000000E+00  0.92682131851E+02  0.92682131886E+02  0.25500000000E-02 0. -1.
          2   -1    0    0  501    0  0.00000000000E+00 -0.00000000000E+00 -0.82698289770E+03  0.82698289771E+03  0.25500000000E-02 0.  1.
    5000001    1    1    2    0    0 -0.14990193436E+03  0.90761025871E+02 -0.19619165981E+03  0.32333159623E+03  0.18800000000E+03 0.  0.
   -5000001    1    1    2    0    0  0.14990193436E+03 -0.90761025871E+02 -0.53810910604E+03  0.59633343336E+03  0.18800000000E+03 0.  0.
<mgrwt>
<rscale>  0 0.55370222E+03</rscale>
<asrwt>0</asrwt>
<pdfrwt beam="1">  1        2 0.11814041E+00 0.55370222E+03</pdfrwt>
<pdfrwt beam="2">  1       -2 0.13240305E-01 0.55370222E+03</pdfrwt>
<totfact> 0.15754031E+03</totfact>
</mgrwt>
</event>
<event>
 4    1  0.6239849E-005  0.4760557E+03  0.7818608E-02  0.1020225E+00
          2   -1    0    0  501    0  0.00000000000E+00  0.00000000000E+00  0.40162904661E+03  0.40162904661E+03  0.25500000000E-02 0.  1.
         -2   -1    0    0    0  501 -0.00000000000E+00 -0.00000000000E+00 -0.14106863180E+03  0.14106863183E+03  0.25500000000E-02 0. -1.
    5000001    1    1    2    0    0 -0.62301256639E+02  0.13060357811E+03  0.15234181016E+03  0.28194107242E+03  0.18800000000E+03 0.  0.
   -5000001    1    1    2    0    0  0.62301256639E+02 -0.13060357811E+03  0.10821860464E+03  0.26075660602E+03  0.18800000000E+03 0.  0.
<mgrwt>
<rscale>  0 0.47605571E+03</rscale>
<asrwt>0</asrwt>
<pdfrwt beam="1">  1        2 0.57375579E-01 0.47605571E+03</pdfrwt>
<pdfrwt beam="2">  1       -2 0.20152662E-01 0.47605571E+03</pdfrwt>
<totfact> 0.18024387E+03</totfact>
</mgrwt>
</event>
<event>
 4    1  0.6239849E-005  0.8134301E+03  0.7818608E-02  0.9540778E-01
          2   -1    0    0  501    0  0.00000000000E+00  0.00000000000E+00  0.50476482474E+03  0.50476482475E+03  0.25500000000E-02 0.  1.
         -2   -1    0    0    0  501 -0.00000000000E+00 -0.00000000000E+00 -0.32771131842E+03  0.32771131843E+03  0.25500000000E-02 0. -1.
    5000001    1    1    2    0    0  0.76594595972E+01 -0.32089485404E+03  0.25681844808E+03  0.45203085066E+03  0.18800000000E+03 0.  0.
   -5000001    1    1    2    0    0 -0.76594595972E+01  0.32089485404E+03 -0.79764941767E+02  0.38044529253E+03  0.18800000000E+03 0.  0.
<mgrwt>
<rscale>  0 0.81343014E+03</rscale>
<asrwt>0</asrwt>
<pdfrwt beam="1">  1        2 0.72109260E-01 0.81343014E+03</pdfrwt>
<pdfrwt beam="2">  1       -2 0.46815903E-01 0.81343014E+03</pdfrwt>
<totfact> 0.28883021E+02</totfact>
</mgrwt>
</event>
<event>
 4    1  0.6239849E-005  0.7985425E+03  0.7818608E-02  0.9562129E-01
         -2   -1    0    0    0  501 -0.00000000000E+00  0.00000000000E+00  0.14744821154E+03  0.14744821157E+03  0.25500000000E-02 0. -1.
          2   -1    0    0  501    0  0.00000000000E+00 -0.00000000000E+00 -0.10811764560E+04  0.10811764560E+04  0.25500000000E-02 0.  1.
    5000001    1    1    2    0    0 -0.25788340851E+03  0.23379602178E+03 -0.54984933511E+03  0.67737930549E+03  0.18800000000E+03 0.  0.
   -5000001    1    1    2    0    0  0.25788340851E+03 -0.23379602178E+03 -0.38387890938E+03  0.55124536212E+03  0.18800000000E+03 0.  0.
<mgrwt>
<rscale>  0 0.79854251E+03</rscale>
<asrwt>0</asrwt>
<pdfrwt beam="1">  1        2 0.15445377E+00 0.79854251E+03</pdfrwt>
<pdfrwt beam="2">  1       -2 0.21064031E-01 0.79854251E+03</pdfrwt>
<totfact> 0.48967999E+02</totfact>
</mgrwt>
</event>
<event>
 4    1  0.6239849E-005  0.4728090E+03  0.7818608E-02  0.1021130E+00
         -2   -1    0    0    0  501 -0.00000000000E+00  0.00000000000E+00  0.11682735193E+03  0.11682735196E+03  0.25500000000E-02 0. -1.
          2   -1    0    0  501    0  0.00000000000E+00 -0.00000000000E+00 -0.47837326394E+03  0.47837326395E+03  0.25500000000E-02 0.  1.
    5000001    1    1    2    0    0  0.10483203349E+03 -0.82300306477E+02 -0.24714710455E+03  0.33791831406E+03  0.18800000000E+03 0.  0.
   -5000001    1    1    2    0    0 -0.10483203349E+03  0.82300306477E+02 -0.11439880746E+03  0.25728230184E+03  0.18800000000E+03 0.  0.
<mgrwt>
<rscale>  0 0.47280897E+03</rscale>
<asrwt>0</asrwt>
<pdfrwt beam="1">  1        2 0.68339036E-01 0.47280897E+03</pdfrwt>
<pdfrwt beam="2">  1       -2 0.16689622E-01 0.47280897E+03</pdfrwt>
<totfact> 0.20500431E+03</totfact>
</mgrwt>
</event>
<event>
 4    1  0.6239849E-005  0.4709255E+03  0.7818608E-02  0.1021659E+00
          2   -1    0    0  501    0  0.00000000000E+00  0.00000000000E+00  0.37614743375E+03  0.37614743376E+03  0.25500000000E-02 0.  1.
         -2   -1    0    0    0  501 -0.00000000000E+00 -0.00000000000E+00 -0.14739621226E+03  0.14739621228E+03  0.25500000000E-02 0. -1.
    5000001    1    1    2    0    0 -0.11628381257E+03 -0.79583962928E+02  0.97039169827E+02  0.25419703519E+03  0.18800000000E+03 0.  0.
   -5000001    1    1    2    0    0  0.11628381257E+03  0.79583962928E+02  0.13171205166E+03  0.26934661085E+03  0.18800000000E+03 0.  0.
<mgrwt>
<rscale>  0 0.47092550E+03</rscale>
<asrwt>0</asrwt>
<pdfrwt beam="1">  1        2 0.53735347E-01 0.47092550E+03</pdfrwt>
<pdfrwt beam="2">  1       -2 0.21056602E-01 0.47092550E+03</pdfrwt>
<totfact> 0.17949816E+03</totfact>
</mgrwt>
</event>
<event>
 4    1  0.6239849E-005  0.5930188E+03  0.7818608E-02  0.9919997E-01
         -2   -1    0    0    0  501 -0.00000000000E+00  0.00000000000E+00  0.90797232369E+02  0.90797232405E+02  0.25500000000E-02 0. -1.
          2   -1    0    0  501    0  0.00000000000E+00 -0.00000000000E+00 -0.96828742455E+03  0.96828742455E+03  0.25500000000E-02 0.  1.
    5000001    1    1    2    0    0  0.11361879873E+03 -0.68592094419E+02 -0.77266795449E+03  0.80620957246E+03  0.18800000000E+03 0.  0.
   -5000001    1    1    2    0    0 -0.11361879873E+03  0.68592094419E+02 -0.10482223769E+03  0.25287508449E+03  0.18800000000E+03 0.  0.
<mgrwt>
<rscale>  0 0.59301878E+03</rscale>
<asrwt>0</asrwt>
<pdfrwt beam="1">  1        2 0.13832677E+00 0.59301878E+03</pdfrwt>
<pdfrwt beam="2">  1       -2 0.12971034E-01 0.59301878E+03</pdfrwt>
<totfact> 0.13201255E+03</totfact>
</mgrwt>
</event>
<event>
 4    1  0.6239849E-005  0.4728042E+03  0.7818608E-02  0.1021132E+00
          2   -1    0    0  501    0  0.00000000000E+00  0.00000000000E+00  0.14992028619E+04  0.14992028619E+04  0.25500000000E-02 0.  1.
         -2   -1    0    0    0  501 -0.00000000000E+00 -0.00000000000E+00 -0.37277108404E+02  0.37277108492E+02  0.25500000000E-02 0. -1.
    5000001    1    1    2    0    0 -0.13435680021E+03 -0.49786147792E+02  0.74200110987E+03  0.77874261301E+03  0.18800000000E+03 0.  0.
   -5000001    1    1    2    0    0  0.13435680021E+03  0.49786147792E+02  0.71992464365E+03  0.75773735741E+03  0.18800000000E+03 0.  0.
<mgrwt>
<rscale>  0 0.47280418E+03</rscale>
<asrwt>0</asrwt>
<pdfrwt beam="1">  1        2 0.21417188E+00 0.47280418E+03</pdfrwt>
<pdfrwt beam="2">  1       -2 0.53253002E-02 0.47280418E+03</pdfrwt>
<totfact> 0.27738385E+03</totfact>
</mgrwt>
</event>
<event>
 4    1  0.6239849E-005  0.5021250E+03  0.7818608E-02  0.1013226E+00
         -2   -1    0    0    0  501 -0.00000000000E+00  0.00000000000E+00  0.32121962195E+03  0.32121962196E+03  0.25500000000E-02 0. -1.
          2   -1    0    0  501    0  0.00000000000E+00 -0.00000000000E+00 -0.19622826108E+03  0.19622826110E+03  0.25500000000E-02 0.  1.
    5000001    1    1    2    0    0 -0.13709912668E+03  0.85843483853E+02  0.22277899596E+02  0.24900919474E+03  0.18800000000E+03 0.  0.
   -5000001    1    1    2    0    0  0.13709912668E+03 -0.85843483853E+02  0.10271346127E+03  0.26843868831E+03  0.18800000000E+03 0.  0.
<mgrwt>
<rscale>  0 0.50212496E+03</rscale>
<asrwt>0</asrwt>
<pdfrwt beam="1">  1        2 0.28032609E-01 0.50212496E+03</pdfrwt>
<pdfrwt beam="2">  1       -2 0.45888517E-01 0.50212496E+03</pdfrwt>
<totfact> 0.86844523E+02</totfact>
</mgrwt>
</event>
<event>
 4    1  0.6239849E-005  0.4633507E+03  0.7818608E-02  0.1023814E+00
          2   -1    0    0  501    0  0.00000000000E+00  0.00000000000E+00  0.48900197353E+03  0.48900197353E+03  0.25500000000E-02 0.  1.
         -2   -1    0    0    0  501 -0.00000000000E+00 -0.00000000000E+00 -0.10976124293E+03  0.10976124296E+03  0.25500000000E-02 0. -1.
    5000001    1    1    2    0    0 -0.11225271436E+03 -0.31519545957E+02  0.27854447907E+03  0.35570378193E+03  0.18800000000E+03 0.  0.
   -5000001    1    1    2    0    0  0.11225271436E+03  0.31519545957E+02  0.10069625153E+03  0.24305943456E+03  0.18800000000E+03 0.  0.
<mgrwt>
<rscale>  0 0.46335069E+03</rscale>
<asrwt>0</asrwt>
<pdfrwt beam="1">  1        2 0.69857426E-01 0.46335069E+03</pdfrwt>
<pdfrwt beam="2">  1       -2 0.15680177E-01 0.46335069E+03</pdfrwt>
<totfact> 0.22217868E+03</totfact>
</mgrwt>
</event>
<event>
 4    1  0.6239849E-005  0.4389603E+03  0.7818608E-02  0.1031066E+00
          2   -1    0    0  501    0  0.00000000000E+00  0.00000000000E+00  0.73286831587E+03  0.73286831588E+03  0.25500000000E-02 0.  1.
         -2   -1    0    0    0  501 -0.00000000000E+00 -0.00000000000E+00 -0.65730153552E+02  0.65730153602E+02  0.25500000000E-02 0. -1.
    5000001    1    1    2    0    0  0.55827908987E+02 -0.92825270376E+01  0.15508679606E+03  0.25019759200E+03  0.18800000000E+03 0.  0.
   -5000001    1    1    2    0    0 -0.55827908987E+02  0.92825270376E+01  0.51205136626E+03  0.54840087748E+03  0.18800000000E+03 0.  0.
<mgrwt>
<rscale>  0 0.43896035E+03</rscale>
<asrwt>0</asrwt>
<pdfrwt beam="1">  1        2 0.10469547E+00 0.43896035E+03</pdfrwt>
<pdfrwt beam="2">  1       -2 0.93900219E-02 0.43896035E+03</pdfrwt>
<totfact> 0.32071816E+03</totfact>
</mgrwt>
</event>
<event>
 4    1  0.6239849E-005  0.5826502E+03  0.7818608E-02  0.9942070E-01
         -2   -1    0    0    0  501 -0.00000000000E+00  0.00000000000E+00  0.98401139657E+02  0.98401139690E+02  0.25500000000E-02 0. -1.
          2   -1    0    0  501    0  0.00000000000E+00 -0.00000000000E+00 -0.86249312928E+03  0.86249312928E+03  0.25500000000E-02 0.  1.
    5000001    1    1    2    0    0 -0.20566455883E+03  0.84648380836E+02 -0.36895108523E+03  0.47003421411E+03  0.18800000000E+03 0.  0.
   -5000001    1    1    2    0    0  0.20566455883E+03 -0.84648380836E+02 -0.39514090439E+03  0.49086005486E+03  0.18800000000E+03 0.  0.
<mgrwt>
<rscale>  0 0.58265018E+03</rscale>
<asrwt>0</asrwt>
<pdfrwt beam="1">  1        2 0.12321330E+00 0.58265018E+03</pdfrwt>
<pdfrwt beam="2">  1       -2 0.14057306E-01 0.58265018E+03</pdfrwt>
<totfact> 0.13495367E+03</totfact>
</mgrwt>
</event>
<event>
 4    1  0.6239849E-005  0.8252889E+03  0.7818608E-02  0.9524117E-01
          2   -1    0    0  501    0  0.00000000000E+00  0.00000000000E+00  0.67100573511E+03  0.67100573512E+03  0.25500000000E-02 0.  1.
         -2   -1    0    0    0  501 -0.00000000000E+00 -0.00000000000E+00 -0.25376150700E+03  0.25376150701E+03  0.25500000000E-02 0. -1.
    5000001    1    1    2    0    0 -0.11104428928E+03 -0.33855210500E+03  0.10850431946E+03  0.41721163613E+03  0.18800000000E+03 0.  0.
   -5000001    1    1    2    0    0  0.11104428928E+03  0.33855210500E+03  0.30873990866E+03  0.50755560600E+03  0.18800000000E+03 0.  0.
<mgrwt>
<rscale>  0 0.82528886E+03</rscale>
<asrwt>0</asrwt>
<pdfrwt beam="1">  1        2 0.95857960E-01 0.82528886E+03</pdfrwt>
<pdfrwt beam="2">  1       -2 0.36251645E-01 0.82528886E+03</pdfrwt>
<totfact> 0.34063851E+02</totfact>
</mgrwt>
</event>
<event>
 4    1  0.6239849E-005  0.6010957E+03  0.7818608E-02  0.9903135E-01
         -2   -1    0    0    0  501 -0.00000000000E+00  0.00000000000E+00  0.67759862548E+02  0.67759862596E+02  0.25500000000E-02 0. -1.
          2   -1    0    0  501    0  0.00000000000E+00 -0.00000000000E+00 -0.13330753887E+04  0.13330753887E+04  0.25500000000E-02 0.  1.
    5000001    1    1    2    0    0 -0.20500684145E+03 -0.11112004470E+03 -0.57512131497E+03  0.64844737359E+03  0.18800000000E+03 0.  0.
   -5000001    1    1    2    0    0  0.20500684145E+03  0.11112004470E+03 -0.69019421116E+03  0.75238787769E+03  0.18800000000E+03 0.  0.
<mgrwt>
<rscale>  0 0.60109568E+03</rscale>
<asrwt>0</asrwt>
<pdfrwt beam="1">  1        2 0.19043933E+00 0.60109568E+03</pdfrwt>
<pdfrwt beam="2">  1       -2 0.96799812E-02 0.60109568E+03</pdfrwt>
<totfact> 0.13164752E+03</totfact>
</mgrwt>
</event>
<event>
 4    1  0.6239849E-005  0.6185456E+03  0.7818608E-02  0.9867660E-01
          2   -1    0    0  501    0  0.00000000000E+00  0.00000000000E+00  0.12942776732E+04  0.12942776732E+04  0.25500000000E-02 0.  1.
         -2   -1    0    0    0  501 -0.00000000000E+00 -0.00000000000E+00 -0.73901971193E+02  0.73901971237E+02  0.25500000000E-02 0. -1.
    5000001    1    1    2    0    0 -0.21917978710E+02 -0.22603096818E+03  0.40345491210E+03  0.49969016647E+03  0.18800000000E+03 0.  0.
   -5000001    1    1    2    0    0  0.21917978710E+02  0.22603096818E+03  0.81692078989E+03  0.86848947796E+03  0.18800000000E+03 0.  0.
<mgrwt>
<rscale>  0 0.61854562E+03</rscale>
<asrwt>0</asrwt>
<pdfrwt beam="1">  1        2 0.18489679E+00 0.61854562E+03</pdfrwt>
<pdfrwt beam="2">  1       -2 0.10557426E-01 0.61854562E+03</pdfrwt>
<totfact> 0.11996596E+03</totfact>
</mgrwt>
</event>
<event>
 4    1  0.6239849E-005  0.6272980E+03  0.7818608E-02  0.9850336E-01
         -2   -1    0    0    0  501 -0.00000000000E+00  0.00000000000E+00  0.11513478780E+03  0.11513478783E+03  0.25500000000E-02 0. -1.
          2   -1    0    0  501    0  0.00000000000E+00 -0.00000000000E+00 -0.85443930990E+03  0.85443930990E+03  0.25500000000E-02 0.  1.
    5000001    1    1    2    0    0 -0.52634749052E+02 -0.22834809422E+03 -0.23038697798E+03  0.37859665683E+03  0.18800000000E+03 0.  0.
   -5000001    1    1    2    0    0  0.52634749052E+02  0.22834809422E+03 -0.50891754412E+03  0.59097744090E+03  0.18800000000E+03 0.  0.
<mgrwt>
<rscale>  0 0.62729798E+03</rscale>
<asrwt>0</asrwt>
<pdfrwt beam="1">  1        2 0.12206275E+00 0.62729798E+03</pdfrwt>
<pdfrwt beam="2">  1       -2 0.16447827E-01 0.62729798E+03</pdfrwt>
<totfact> 0.10475283E+03</totfact>
</mgrwt>
</event>
<event>
 4    1  0.6239849E-005  0.6237406E+03  0.7818608E-02  0.9857340E-01
          2   -1    0    0  501    0  0.00000000000E+00  0.00000000000E+00  0.16542348443E+04  0.16542348443E+04  0.25500000000E-02 0.  1.
         -2   -1    0    0    0  501 -0.00000000000E+00 -0.00000000000E+00 -0.58796415458E+02  0.58796415513E+02  0.25500000000E-02 0. -1.
    5000001    1    1    2    0    0  0.18919595466E+03  0.13690798166E+03  0.56178300323E+03  0.63677550787E+03  0.18800000000E+03 0.  0.
   -5000001    1    1    2    0    0 -0.18919595466E+03 -0.13690798166E+03  0.10336554256E+04  0.10762557519E+04  0.18800000000E+03 0.  0.
<mgrwt>
<rscale>  0 0.62374058E+03</rscale>
<asrwt>0</asrwt>
<pdfrwt beam="1">  1        2 0.23631923E+00 0.62374058E+03</pdfrwt>
<pdfrwt beam="2">  1       -2 0.83994890E-02 0.62374058E+03</pdfrwt>
<totfact> 0.11223152E+03</totfact>
</mgrwt>
</event>
<event>
 4    1  0.6239849E-005  0.1042578E+04  0.7818608E-02  0.9263041E-01
         -2   -1    0    0    0  501 -0.00000000000E+00  0.00000000000E+00  0.14854114260E+03  0.14854114263E+03  0.25500000000E-02 0. -1.
          2   -1    0    0  501    0  0.00000000000E+00 -0.00000000000E+00 -0.18294069767E+04  0.18294069767E+04  0.25500000000E-02 0.  1.
    5000001    1    1    2    0    0 -0.23845961180E+03 -0.42033923477E+03 -0.73914917303E+03  0.90290285122E+03  0.18800000000E+03 0.  0.
   -5000001    1    1    2    0    0  0.23845961180E+03  0.42033923477E+03 -0.94171666105E+03  0.10750452681E+04  0.18800000000E+03 0.  0.
<mgrwt>
<rscale>  0 0.10425780E+04</rscale>
<asrwt>0</asrwt>
<pdfrwt beam="1">  1        2 0.26134384E+00 0.10425780E+04</pdfrwt>
<pdfrwt beam="2">  1       -2 0.21220164E-01 0.10425780E+04</pdfrwt>
<totfact> 0.18837805E+02</totfact>
</mgrwt>
</event>
<event>
 4    1  0.6239849E-005  0.8547812E+03  0.7818608E-02  0.9483942E-01
         -2   -1    0    0    0  501 -0.00000000000E+00  0.00000000000E+00  0.88149761194E+03  0.88149761195E+03  0.25500000000E-02 0. -1.
          2   -1    0    0  501    0  0.00000000000E+00 -0.00000000000E+00 -0.20721860317E+03  0.20721860319E+03  0.25500000000E-02 0.  1.
    5000001    1    1    2    0    0 -0.60221831505E+02 -0.37734080471E+03  0.29111137166E+03  0.51585131831E+03  0.18800000000E+03 0.  0.
   -5000001    1    1    2    0    0  0.60221831505E+02  0.37734080471E+03  0.38316763711E+03  0.57286489683E+03  0.18800000000E+03 0.  0.
<mgrwt>
<rscale>  0 0.85478115E+03</rscale>
<asrwt>0</asrwt>
<pdfrwt beam="1">  1        2 0.29602657E-01 0.85478115E+03</pdfrwt>
<pdfrwt beam="2">  1       -2 0.12592823E+00 0.85478115E+03</pdfrwt>
<totfact> 0.85483545E+01</totfact>
</mgrwt>
</event>
<event>
 4    1  0.6239849E-005  0.5588174E+03  0.7818608E-02  0.9994734E-01
          2   -1    0    0  501    0  0.00000000000E+00  0.00000000000E+00  0.15529306891E+03  0.15529306893E+03  0.25500000000E-02 0.  1.
         -2   -1    0    0    0  501 -0.00000000000E+00 -0.00000000000E+00 -0.50272185094E+03  0.50272185095E+03  0.25500000000E-02 0. -1.
    5000001    1    1    2    0    0  0.83278664146E+02  0.18897773489E+03 -0.18406706135E+03  0.33447362118E+03  0.18800000000E+03 0.  0.
   -5000001    1    1    2    0    0 -0.83278664146E+02 -0.18897773489E+03 -0.16336172068E+03  0.32354129871E+03  0.18800000000E+03 0.  0.
<mgrwt>
<rscale>  0 0.55881739E+03</rscale>
<asrwt>0</asrwt>
<pdfrwt beam="1">  1        2 0.22184724E-01 0.55881739E+03</pdfrwt>
<pdfrwt beam="2">  1       -2 0.71817407E-01 0.55881739E+03</pdfrwt>
<totfact> 0.44631295E+02</totfact>
</mgrwt>
</event>
<event>
 4    1  0.6239849E-005  0.7076762E+03  0.7818608E-02  0.9704194E-01
          2   -1    0    0  501    0  0.00000000000E+00  0.00000000000E+00  0.56105327667E+03  0.56105327668E+03  0.25500000000E-02 0.  1.
         -2   -1    0    0    0  501 -0.00000000000E+00 -0.00000000000E+00 -0.22315419808E+03  0.22315419809E+03  0.25500000000E-02 0. -1.
    5000001    1    1    2    0    0  0.14021672292E+03  0.23489314073E+03  0.30476790544E+03  0.45062511375E+03  0.18800000000E+03 0.  0.
   -5000001    1    1    2    0    0 -0.14021672292E+03 -0.23489314073E+03  0.33131173150E+02  0.33358236102E+03  0.18800000000E+03 0.  0.
<mgrwt>
<rscale>  0 0.70767618E+03</rscale>
<asrwt>0</asrwt>
<pdfrwt beam="1">  1        2 0.80150467E-01 0.70767618E+03</pdfrwt>
<pdfrwt beam="2">  1       -2 0.31879171E-01 0.70767618E+03</pdfrwt>
<totfact> 0.53985798E+02</totfact>
</mgrwt>
</event>
<event>
 4    1  0.6239849E-005  0.8716832E+03  0.7818608E-02  0.9461688E-01
         -2   -1    0    0    0  501 -0.00000000000E+00  0.00000000000E+00  0.10383485048E+03  0.10383485051E+03  0.25500000000E-02 0. -1.
          2   -1    0    0  501    0  0.00000000000E+00 -0.00000000000E+00 -0.18294232228E+04  0.18294232228E+04  0.25500000000E-02 0.  1.
    5000001    1    1    2    0    0  0.14111219855E+03  0.36371786455E+03 -0.75390389021E+03  0.86943568666E+03  0.18800000000E+03 0.  0.
   -5000001    1    1    2    0    0 -0.14111219855E+03 -0.36371786455E+03 -0.97168448216E+03  0.10638223867E+04  0.18800000000E+03 0.  0.
<mgrwt>
<rscale>  0 0.87168317E+03</rscale>
<asrwt>0</asrwt>
<pdfrwt beam="1">  1        2 0.26134615E+00 0.87168317E+03</pdfrwt>
<pdfrwt beam="2">  1       -2 0.14833551E-01 0.87168317E+03</pdfrwt>
<totfact> 0.35378408E+02</totfact>
</mgrwt>
</event>
<event>
 4    1  0.6239849E-005  0.8741929E+03  0.7818608E-02  0.9458429E-01
         -2   -1    0    0    0  501 -0.00000000000E+00  0.00000000000E+00  0.90173532717E+03  0.90173532718E+03  0.25500000000E-02 0. -1.
          2   -1    0    0  501    0  0.00000000000E+00 -0.00000000000E+00 -0.21187290728E+03  0.21187290729E+03  0.25500000000E-02 0.  1.
    5000001    1    1    2    0    0  0.23618752965E+03  0.10593631500E+02 -0.57524111222E+02  0.30748950805E+03  0.18800000000E+03 0.  0.
   -5000001    1    1    2    0    0 -0.23618752965E+03 -0.10593631500E+02  0.74738653112E+03  0.80611872642E+03  0.18800000000E+03 0.  0.
<mgrwt>
<rscale>  0 0.87419285E+03</rscale>
<asrwt>0</asrwt>
<pdfrwt beam="1">  1        2 0.30267558E-01 0.87419285E+03</pdfrwt>
<pdfrwt beam="2">  1       -2 0.12881933E+00 0.87419285E+03</pdfrwt>
<totfact> 0.78654338E+01</totfact>
</mgrwt>
</event>
<event>
 4    1  0.6239849E-005  0.6238237E+03  0.7818608E-02  0.9857176E-01
          2   -1    0    0  501    0  0.00000000000E+00  0.00000000000E+00  0.32525117698E+04  0.32525117698E+04  0.25500000000E-02 0.  1.
         -2   -1    0    0    0  501 -0.00000000000E+00 -0.00000000000E+00 -0.29911958534E+02  0.29911958643E+02  0.25500000000E-02 0. -1.
    5000001    1    1    2    0    0 -0.90987545042E+02  0.14488666267E+03  0.25624186203E+04  0.25749959347E+04  0.18800000000E+03 0.  0.
   -5000001    1    1    2    0    0  0.90987545042E+02 -0.14488666267E+03  0.66018119100E+03  0.70742779372E+03  0.18800000000E+03 0.  0.
<mgrwt>
<rscale>  0 0.62382368E+03</rscale>
<asrwt>0</asrwt>
<pdfrwt beam="1">  1        2 0.46464437E+00 0.62382368E+03</pdfrwt>
<pdfrwt beam="2">  1       -2 0.42731385E-02 0.62382368E+03</pdfrwt>
<totfact> 0.47673530E+02</totfact>
</mgrwt>
</event>
<event>
 4    1  0.6239849E-005  0.4568966E+03  0.7818608E-02  0.1025685E+00
         -2   -1    0    0    0  501 -0.00000000000E+00  0.00000000000E+00  0.12279184795E+03  0.12279184798E+03  0.25500000000E-02 0. -1.
          2   -1    0    0  501    0  0.00000000000E+00 -0.00000000000E+00 -0.42501699838E+03  0.42501699838E+03  0.25500000000E-02 0.  1.
    5000001    1    1    2    0    0  0.86497898824E+01  0.89059130593E+02 -0.38394157362E+02  0.21171787578E+03  0.18800000000E+03 0.  0.
   -5000001    1    1    2    0    0 -0.86497898824E+01 -0.89059130593E+02 -0.26383099306E+03  0.33609097058E+03  0.18800000000E+03 0.  0.
<mgrwt>
<rscale>  0 0.45689659E+03</rscale>
<asrwt>0</asrwt>
<pdfrwt beam="1">  1        2 0.60716713E-01 0.45689659E+03</pdfrwt>
<pdfrwt beam="2">  1       -2 0.17541693E-01 0.45689659E+03</pdfrwt>
<totfact> 0.21483699E+03</totfact>
</mgrwt>
</event>
<event>
 4    1  0.6239849E-005  0.8425083E+03  0.7818608E-02  0.9500448E-01
         -2   -1    0    0    0  501 -0.00000000000E+00  0.00000000000E+00  0.23804780119E+03  0.23804780120E+03  0.25500000000E-02 0. -1.
          2   -1    0    0  501    0  0.00000000000E+00 -0.00000000000E+00 -0.74545970024E+03  0.74545970025E+03  0.25500000000E-02 0.  1.
    5000001    1    1    2    0    0  0.27647002231E+03  0.15425942640E+03 -0.14812782896E+02  0.36850381600E+03  0.18800000000E+03 0.  0.
   -5000001    1    1    2    0    0 -0.27647002231E+03 -0.15425942640E+03 -0.49259911616E+03  0.61500368545E+03  0.18800000000E+03 0.  0.
<mgrwt>
<rscale>  0 0.84250826E+03</rscale>
<asrwt>0</asrwt>
<pdfrwt beam="1">  1        2 0.10649424E+00 0.84250826E+03</pdfrwt>
<pdfrwt beam="2">  1       -2 0.34006829E-01 0.84250826E+03</pdfrwt>
<totfact> 0.33749652E+02</totfact>
</mgrwt>
</event>
<event>
 4    1  0.6239849E-005  0.6159828E+03  0.7818608E-02  0.9872791E-01
          2   -1    0    0  501    0  0.00000000000E+00  0.00000000000E+00  0.26900618985E+04  0.26900618985E+04  0.25500000000E-02 0.  1.
         -2   -1    0    0    0  501 -0.00000000000E+00 -0.00000000000E+00 -0.35262647501E+02  0.35262647593E+02  0.25500000000E-02 0. -1.
    5000001    1    1    2    0    0 -0.23818713014E+03  0.52664482615E+02  0.13148482492E+04  0.13504356983E+04  0.18800000000E+03 0.  0.
   -5000001    1    1    2    0    0  0.23818713014E+03 -0.52664482615E+02  0.13399510018E+04  0.13748888478E+04  0.18800000000E+03 0.  0.
<mgrwt>
<rscale>  0 0.61598281E+03</rscale>
<asrwt>0</asrwt>
<pdfrwt beam="1">  1        2 0.38429453E+00 0.61598281E+03</pdfrwt>
<pdfrwt beam="2">  1       -2 0.50375214E-02 0.61598281E+03</pdfrwt>
<totfact> 0.74744160E+02</totfact>
</mgrwt>
</event>
<event>
 4    1  0.6239849E-005  0.5248419E+03  0.7818608E-02  0.1007491E+00
         -2   -1    0    0    0  501 -0.00000000000E+00  0.00000000000E+00  0.46219101328E+02  0.46219101398E+02  0.25500000000E-02 0. -1.
          2   -1    0    0  501    0  0.00000000000E+00 -0.00000000000E+00 -0.14899630100E+04  0.14899630100E+04  0.25500000000E-02 0.  1.
    5000001    1    1    2    0    0 -0.87661257890E+02  0.14224974326E+03 -0.94092904058E+03  0.97396660364E+03  0.18800000000E+03 0.  0.
   -5000001    1    1    2    0    0  0.87661257890E+02 -0.14224974326E+03 -0.50281486808E+03  0.56221550775E+03  0.18800000000E+03 0.  0.
<mgrwt>
<rscale>  0 0.52484189E+03</rscale>
<asrwt>0</asrwt>
<pdfrwt beam="1">  1        2 0.21285183E+00 0.52484189E+03</pdfrwt>
<pdfrwt beam="2">  1       -2 0.66027298E-02 0.52484189E+03</pdfrwt>
<totfact> 0.20040552E+03</totfact>
</mgrwt>
</event>
<event>
 4    1  0.6239849E-005  0.5199296E+03  0.7818608E-02  0.1008704E+00
         -2   -1    0    0    0  501 -0.00000000000E+00  0.00000000000E+00  0.29402655256E+02  0.29402655366E+02  0.25500000000E-02 0.  1.
          2   -1    0    0  501    0  0.00000000000E+00 -0.00000000000E+00 -0.22984891693E+04  0.22984891693E+04  0.25500000000E-02 0. -1.
    5000001    1    1    2    0    0 -0.38171216027E+02  0.17457971471E+03 -0.12124237229E+04  0.12398590252E+04  0.18800000000E+03 0.  0.
   -5000001    1    1    2    0    0  0.38171216027E+02 -0.17457971471E+03 -0.10566627911E+04  0.10880327995E+04  0.18800000000E+03 0.  0.
<mgrwt>
<rscale>  0 0.51992955E+03</rscale>
<asrwt>0</asrwt>
<pdfrwt beam="1">  1        2 0.32835548E+00 0.51992955E+03</pdfrwt>
<pdfrwt beam="2">  1       -2 0.42003808E-02 0.51992955E+03</pdfrwt>
<totfact> 0.15814192E+03</totfact>
</mgrwt>
</event>
<event>
 4    1  0.6239849E-005  0.6776016E+03  0.7818608E-02  0.9756322E-01
         -2   -1    0    0    0  501 -0.00000000000E+00  0.00000000000E+00  0.19045456934E+03  0.19045456936E+03  0.25500000000E-02 0. -1.
          2   -1    0    0  501    0  0.00000000000E+00 -0.00000000000E+00 -0.60269480218E+03  0.60269480218E+03  0.25500000000E-02 0.  1.
    5000001    1    1    2    0    0 -0.22790400659E+03 -0.16540215644E+03 -0.22016004276E+03  0.40387195248E+03  0.18800000000E+03 0.  0.
   -5000001    1    1    2    0    0  0.22790400659E+03  0.16540215644E+03 -0.19208019007E+03  0.38927741906E+03  0.18800000000E+03 0.  0.
<mgrwt>
<rscale>  0 0.67760159E+03</rscale>
<asrwt>0</asrwt>
<pdfrwt beam="1">  1        2 0.86099256E-01 0.67760159E+03</pdfrwt>
<pdfrwt beam="2">  1       -2 0.27207796E-01 0.67760159E+03</pdfrwt>
<totfact> 0.66553928E+02</totfact>
</mgrwt>
</event>
<event>
 4    1  0.6239849E-005  0.1003822E+04  0.7818608E-02  0.9304362E-01
         -2   -1    0    0    0  501 -0.00000000000E+00  0.00000000000E+00  0.32975162011E+03  0.32975162012E+03  0.25500000000E-02 0. -1.
          2   -1    0    0  501    0  0.00000000000E+00 -0.00000000000E+00 -0.76395319784E+03  0.76395319784E+03  0.25500000000E-02 0.  1.
    5000001    1    1    2    0    0 -0.27200904070E+03 -0.30756642409E+03  0.21567678155E+02  0.45210086064E+03  0.18800000000E+03 0.  0.
   -5000001    1    1    2    0    0  0.27200904070E+03  0.30756642409E+03 -0.45576925588E+03  0.64160395732E+03  0.18800000000E+03 0.  0.
<mgrwt>
<rscale>  0 0.10038223E+04</rscale>
<asrwt>0</asrwt>
<pdfrwt beam="1">  1        2 0.10913617E+00 0.10038223E+04</pdfrwt>
<pdfrwt beam="2">  1       -2 0.47107374E-01 0.10038223E+04</pdfrwt>
<totfact> 0.17184490E+02</totfact>
</mgrwt>
</event>
<event>
 4    1  0.6239849E-005  0.4852546E+03  0.7818608E-02  0.1017701E+00
         -2   -1    0    0    0  501 -0.00000000000E+00  0.00000000000E+00  0.25994583609E+02  0.25994583734E+02  0.25500000000E-02 0. -1.
          2   -1    0    0  501    0  0.00000000000E+00 -0.00000000000E+00 -0.22646258757E+04  0.22646258757E+04  0.25500000000E-02 0.  1.
    5000001    1    1    2    0    0 -0.18370406060E+02 -0.12907845329E+03 -0.15006301393E+04  0.15179702019E+04  0.18800000000E+03 0.  0.
   -5000001    1    1    2    0    0  0.18370406060E+02  0.12907845329E+03 -0.73800115273E+03  0.77265025747E+03  0.18800000000E+03 0.  0.
<mgrwt>
<rscale>  0 0.48525460E+03</rscale>
<asrwt>0</asrwt>
<pdfrwt beam="1">  1        2 0.32351786E+00 0.48525460E+03</pdfrwt>
<pdfrwt beam="2">  1       -2 0.37135134E-02 0.48525460E+03</pdfrwt>
<totfact> 0.19892850E+03</totfact>
</mgrwt>
</event>
<event>
 4    1  0.6239849E-005  0.5647602E+03  0.7818608E-02  0.9981341E-01
         -2   -1    0    0    0  501 -0.00000000000E+00  0.00000000000E+00  0.36430520492E+02  0.36430520581E+02  0.25500000000E-02 0. -1.
          2   -1    0    0  501    0  0.00000000000E+00 -0.00000000000E+00 -0.21887834578E+04  0.21887834578E+04  0.25500000000E-02 0.  1.
    5000001    1    1    2    0    0  0.90533088485E+02  0.18770240124E+03 -0.11986426861E+04  0.12310632479E+04  0.18800000000E+03 0.  0.
   -5000001    1    1    2    0    0 -0.90533088485E+02 -0.18770240124E+03 -0.95371025129E+03  0.99415073050E+03  0.18800000000E+03 0.  0.
<mgrwt>
<rscale>  0 0.56476020E+03</rscale>
<asrwt>0</asrwt>
<pdfrwt beam="1">  1        2 0.31268327E+00 0.56476020E+03</pdfrwt>
<pdfrwt beam="2">  1       -2 0.52043615E-02 0.56476020E+03</pdfrwt>
<totfact> 0.12866227E+03</totfact>
</mgrwt>
</event>
<event>
 4    1  0.6239849E-005  0.6055736E+03  0.7818608E-02  0.9893910E-01
          2   -1    0    0  501    0  0.00000000000E+00  0.00000000000E+00  0.22540775048E+04  0.22540775048E+04  0.25500000000E-02 0.  1.
         -2   -1    0    0    0  501 -0.00000000000E+00 -0.00000000000E+00 -0.40672894832E+02  0.40672894912E+02  0.25500000000E-02 0. -1.
    5000001    1    1    2    0    0  0.93248405405E+02 -0.19539121149E+03  0.14753231211E+04  0.15029289080E+04  0.18800000000E+03 0.  0.
   -5000001    1    1    2    0    0 -0.93248405405E+02  0.19539121149E+03  0.73808148885E+03  0.79182149177E+03  0.18800000000E+03 0.  0.
<mgrwt>
<rscale>  0 0.60557364E+03</rscale>
<asrwt>0</asrwt>
<pdfrwt beam="1">  1        2 0.32201115E+00 0.60557364E+03</pdfrwt>
<pdfrwt beam="2">  1       -2 0.58104122E-02 0.60557364E+03</pdfrwt>
<totfact> 0.10021474E+03</totfact>
</mgrwt>
</event>
<event>
 4    1  0.6239849E-005  0.6305596E+03  0.7818608E-02  0.9843957E-01
          2   -1    0    0  501    0  0.00000000000E+00  0.00000000000E+00  0.10483480659E+04  0.10483480659E+04  0.25500000000E-02 0.  1.
         -2   -1    0    0    0  501 -0.00000000000E+00 -0.00000000000E+00 -0.94817139629E+02  0.94817139663E+02  0.25500000000E-02 0. -1.
    5000001    1    1    2    0    0 -0.31546663737E+02 -0.22287288341E+03  0.68654865881E+03  0.74656585447E+03  0.18800000000E+03 0.  0.
   -5000001    1    1    2    0    0  0.31546663737E+02  0.22287288341E+03  0.26698226748E+03  0.39659935111E+03  0.18800000000E+03 0.  0.
<mgrwt>
<rscale>  0 0.63055964E+03</rscale>
<asrwt>0</asrwt>
<pdfrwt beam="1">  1        2 0.14976399E+00 0.63055964E+03</pdfrwt>
<pdfrwt beam="2">  1       -2 0.13545307E-01 0.63055964E+03</pdfrwt>
<totfact> 0.10972798E+03</totfact>
</mgrwt>
</event>
<event>
 4    1  0.6239849E-005  0.4188240E+03  0.7818608E-02  0.1037450E+00
         -2   -1    0    0    0  501 -0.00000000000E+00  0.00000000000E+00  0.44690059926E+02  0.44690059999E+02  0.25500000000E-02 0. -1.
          2   -1    0    0  501    0  0.00000000000E+00 -0.00000000000E+00 -0.98127823518E+03  0.98127823518E+03  0.25500000000E-02 0.  1.
    5000001    1    1    2    0    0 -0.63984528100E+02 -0.28379484489E+02 -0.32111229752E+03  0.37862451399E+03  0.18800000000E+03 0.  0.
   -5000001    1    1    2    0    0  0.63984528100E+02  0.28379484489E+02 -0.61547587773E+03  0.64734378119E+03  0.18800000000E+03 0.  0.
<mgrwt>
<rscale>  0 0.41882399E+03</rscale>
<asrwt>0</asrwt>
<pdfrwt beam="1">  1        2 0.14018259E+00 0.41882399E+03</pdfrwt>
<pdfrwt beam="2">  1       -2 0.63842949E-02 0.41882399E+03</pdfrwt>
<totfact> 0.40411573E+03</totfact>
</mgrwt>
</event>
<event>
 4    1  0.6239849E-005  0.4426571E+03  0.7818608E-02  0.1029935E+00
         -2   -1    0    0    0  501 -0.00000000000E+00  0.00000000000E+00  0.55435740962E+02  0.55435741021E+02  0.25500000000E-02 0. -1.
          2   -1    0    0  501    0  0.00000000000E+00 -0.00000000000E+00 -0.88365967735E+03  0.88365967735E+03  0.25500000000E-02 0.  1.
    5000001    1    1    2    0    0  0.37757826212E+02  0.83182237311E+02 -0.56852121037E+03  0.60572708763E+03  0.18800000000E+03 0.  0.
   -5000001    1    1    2    0    0 -0.37757826212E+02 -0.83182237311E+02 -0.25970272601E+03  0.33336833074E+03  0.18800000000E+03 0.  0.
<mgrwt>
<rscale>  0 0.44265711E+03</rscale>
<asrwt>0</asrwt>
<pdfrwt beam="1">  1        2 0.12623709E+00 0.44265711E+03</pdfrwt>
<pdfrwt beam="2">  1       -2 0.79193921E-02 0.44265711E+03</pdfrwt>
<totfact> 0.33180976E+03</totfact>
</mgrwt>
</event>
<event>
 4    1  0.6239849E-005  0.1283373E+04  0.7818608E-02  0.9042856E-01
          2   -1    0    0  501    0  0.00000000000E+00  0.00000000000E+00  0.29367475787E+04  0.29367475787E+04  0.25500000000E-02 0.  1.
         -2   -1    0    0    0  501 -0.00000000000E+00 -0.00000000000E+00 -0.14021002468E+03  0.14021002470E+03  0.25500000000E-02 0. -1.
    5000001    1    1    2    0    0  0.33724107534E+03  0.48919333046E+03  0.17648344990E+04  0.18716373757E+04  0.18800000000E+03 0.  0.
   -5000001    1    1    2    0    0 -0.33724107534E+03 -0.48919333046E+03  0.10317030551E+04  0.12053202277E+04  0.18800000000E+03 0.  0.
<mgrwt>
<rscale>  0 0.12833728E+04</rscale>
<asrwt>0</asrwt>
<pdfrwt beam="1">  1        2 0.41953534E+00 0.12833728E+04</pdfrwt>
<pdfrwt beam="2">  1       -2 0.20030005E-01 0.12833728E+04</pdfrwt>
<totfact> 0.53990982E+01</totfact>
</mgrwt>
</event>
<event>
 4    1  0.6239849E-005  0.9173347E+03  0.7818608E-02  0.9404168E-01
          2   -1    0    0  501    0  0.00000000000E+00  0.00000000000E+00  0.82554173000E+03  0.82554173000E+03  0.25500000000E-02 0.  1.
         -2   -1    0    0    0  501 -0.00000000000E+00 -0.00000000000E+00 -0.25483355166E+03  0.25483355167E+03  0.25500000000E-02 0. -1.
    5000001    1    1    2    0    0  0.53335438042E+02 -0.41171635596E+03  0.34628631318E+03  0.57237508455E+03  0.18800000000E+03 0.  0.
   -5000001    1    1    2    0    0 -0.53335438042E+02  0.41171635596E+03  0.22442186516E+03  0.50800019712E+03  0.18800000000E+03 0.  0.
<mgrwt>
<rscale>  0 0.91733469E+03</rscale>
<asrwt>0</asrwt>
<pdfrwt beam="1">  1        2 0.11793453E+00 0.91733469E+03</pdfrwt>
<pdfrwt beam="2">  1       -2 0.36404793E-01 0.91733469E+03</pdfrwt>
<totfact> 0.25915218E+02</totfact>
</mgrwt>
</event>
<event>
 4    1  0.6239849E-005  0.7230985E+03  0.7818608E-02  0.9678526E-01
          2   -1    0    0  501    0  0.00000000000E+00  0.00000000000E+00  0.45613693286E+03  0.45613693287E+03  0.25500000000E-02 0.  1.
         -2   -1    0    0    0  501 -0.00000000000E+00 -0.00000000000E+00 -0.28657595279E+03  0.28657595280E+03  0.25500000000E-02 0. -1.
    5000001    1    1    2    0    0  0.28702496889E+03  0.53148145424E+02 -0.18780128835E+02  0.34771360538E+03  0.18800000000E+03 0.  0.
   -5000001    1    1    2    0    0 -0.28702496889E+03 -0.53148145424E+02  0.18834110890E+03  0.39499928029E+03  0.18800000000E+03 0.  0.
<mgrwt>
<rscale>  0 0.72309854E+03</rscale>
<asrwt>0</asrwt>
<pdfrwt beam="1">  1        2 0.65162419E-01 0.72309854E+03</pdfrwt>
<pdfrwt beam="2">  1       -2 0.40939422E-01 0.72309854E+03</pdfrwt>
<totfact> 0.42411496E+02</totfact>
</mgrwt>
</event>
<event>
 4    1  0.6239849E-005  0.7474607E+03  0.7818608E-02  0.9639343E-01
          2   -1    0    0  501    0  0.00000000000E+00  0.00000000000E+00  0.89015726348E+03  0.89015726349E+03  0.25500000000E-02 0.  1.
         -2   -1    0    0    0  501 -0.00000000000E+00 -0.00000000000E+00 -0.15690977892E+03  0.15690977894E+03  0.25500000000E-02 0. -1.
    5000001    1    1    2    0    0 -0.23664815999E+03 -0.18064777189E+02  0.67353611048E+03  0.73846027647E+03  0.18800000000E+03 0.  0.
   -5000001    1    1    2    0    0  0.23664815999E+03  0.18064777189E+02  0.59711374077E+02  0.30860676596E+03  0.18800000000E+03 0.  0.
<mgrwt>
<rscale>  0 0.74746071E+03</rscale>
<asrwt>0</asrwt>
<pdfrwt beam="1">  1        2 0.12716533E+00 0.74746071E+03</pdfrwt>
<pdfrwt beam="2">  1       -2 0.22415682E-01 0.74746071E+03</pdfrwt>
<totfact> 0.57745779E+02</totfact>
</mgrwt>
</event>
<event>
 4    1  0.6239849E-005  0.5976159E+03  0.7818608E-02  0.9910365E-01
         -2   -1    0    0    0  501 -0.00000000000E+00  0.00000000000E+00  0.48565106439E+02  0.48565106506E+02  0.25500000000E-02 0. -1.
          2   -1    0    0  501    0  0.00000000000E+00 -0.00000000000E+00 -0.18384846769E+04  0.18384846769E+04  0.25500000000E-02 0.  1.
    5000001    1    1    2    0    0 -0.82399139150E+02  0.13925933237E+03 -0.14210574932E+04  0.14425433022E+04  0.18800000000E+03 0.  0.
   -5000001    1    1    2    0    0  0.82399139150E+02 -0.13925933237E+03 -0.36886207729E+03  0.44450648122E+03  0.18800000000E+03 0.  0.
<mgrwt>
<rscale>  0 0.59761594E+03</rscale>
<asrwt>0</asrwt>
<pdfrwt beam="1">  1        2 0.26264062E+00 0.59761594E+03</pdfrwt>
<pdfrwt beam="2">  1       -2 0.69378735E-02 0.59761594E+03</pdfrwt>
<totfact> 0.12278446E+03</totfact>
</mgrwt>
</event>
<event>
 4    1  0.6239849E-005  0.5798081E+03  0.7818608E-02  0.9948207E-01
         -2   -1    0    0    0  501 -0.00000000000E+00  0.00000000000E+00  0.15766814074E+03  0.15766814076E+03  0.25500000000E-02 0. -1.
          2   -1    0    0  501    0  0.00000000000E+00 -0.00000000000E+00 -0.53304584960E+03  0.53304584961E+03  0.25500000000E-02 0.  1.
    5000001    1    1    2    0    0 -0.20072121923E+03  0.80070083658E+02 -0.24096615755E+03  0.37431125448E+03  0.18800000000E+03 0.  0.
   -5000001    1    1    2    0    0  0.20072121923E+03 -0.80070083658E+02 -0.13441155132E+03  0.31640273589E+03  0.18800000000E+03 0.  0.
<mgrwt>
<rscale>  0 0.57980806E+03</rscale>
<asrwt>0</asrwt>
<pdfrwt beam="1">  1        2 0.76149406E-01 0.57980806E+03</pdfrwt>
<pdfrwt beam="2">  1       -2 0.22524020E-01 0.57980806E+03</pdfrwt>
<totfact> 0.10796036E+03</totfact>
</mgrwt>
</event>
<event>
 4    1  0.6239849E-005  0.4371348E+03  0.7818608E-02  0.1031630E+00
         -2   -1    0    0    0  501 -0.00000000000E+00  0.00000000000E+00  0.53774570321E+02  0.53774570381E+02  0.25500000000E-02 0. -1.
          2   -1    0    0  501    0  0.00000000000E+00 -0.00000000000E+00 -0.88836988932E+03  0.88836988933E+03  0.25500000000E-02 0.  1.
    5000001    1    1    2    0    0 -0.54317579304E+02  0.92849219549E+02 -0.35422760140E+03  0.41520184319E+03  0.18800000000E+03 0.  0.
   -5000001    1    1    2    0    0  0.54317579304E+02 -0.92849219549E+02 -0.48036771760E+03  0.52694261652E+03  0.18800000000E+03 0.  0.
<mgrwt>
<rscale>  0 0.43713480E+03</rscale>
<asrwt>0</asrwt>
<pdfrwt beam="1">  1        2 0.12690998E+00 0.43713480E+03</pdfrwt>
<pdfrwt beam="2">  1       -2 0.76820820E-02 0.43713480E+03</pdfrwt>
<totfact> 0.34568379E+03</totfact>
</mgrwt>
</event>
<event>
 4    1  0.6239849E-005  0.1276913E+04  0.7818608E-02  0.9048076E-01
         -2   -1    0    0    0  501 -0.00000000000E+00  0.00000000000E+00  0.19776466111E+03  0.19776466113E+03  0.25500000000E-02 0. -1.
          2   -1    0    0  501    0  0.00000000000E+00 -0.00000000000E+00 -0.20611705371E+04  0.20611705371E+04  0.25500000000E-02 0.  1.
    5000001    1    1    2    0    0  0.43775785716E+03  0.40942138619E+03 -0.72980618637E+03  0.96292205429E+03  0.18800000000E+03 0.  0.
   -5000001    1    1    2    0    0 -0.43775785716E+03 -0.40942138619E+03 -0.11335996896E+04  0.12960131439E+04  0.18800000000E+03 0.  0.
<mgrwt>
<rscale>  0 0.12769130E+04</rscale>
<asrwt>0</asrwt>
<pdfrwt beam="1">  1        2 0.29445292E+00 0.12769130E+04</pdfrwt>
<pdfrwt beam="2">  1       -2 0.28252096E-01 0.12769130E+04</pdfrwt>
<totfact> 0.84050157E+01</totfact>
</mgrwt>
</event>
<event>
 4    1  0.6239849E-005  0.4981457E+03  0.7818608E-02  0.1014264E+00
         -2   -1    0    0    0  501 -0.00000000000E+00  0.00000000000E+00  0.10224938938E+03  0.10224938942E+03  0.25500000000E-02 0. -1.
          2   -1    0    0  501    0  0.00000000000E+00 -0.00000000000E+00 -0.60672523539E+03  0.60672523539E+03  0.25500000000E-02 0.  1.
    5000001    1    1    2    0    0 -0.11169372127E+03 -0.98108090625E+02 -0.34868823067E+03  0.42311720246E+03  0.18800000000E+03 0.  0.
   -5000001    1    1    2    0    0  0.11169372127E+03  0.98108090625E+02 -0.15578761534E+03  0.28585742234E+03  0.18800000000E+03 0.  0.
<mgrwt>
<rscale>  0 0.49814570E+03</rscale>
<asrwt>0</asrwt>
<pdfrwt beam="1">  1        2 0.86675031E-01 0.49814570E+03</pdfrwt>
<pdfrwt beam="2">  1       -2 0.14607056E-01 0.49814570E+03</pdfrwt>
<totfact> 0.19549557E+03</totfact>
</mgrwt>
</event>
<event>
 4    1  0.6239849E-005  0.8630331E+03  0.7818608E-02  0.9473009E-01
          2   -1    0    0  501    0  0.00000000000E+00  0.00000000000E+00  0.50633531413E+03  0.50633531414E+03  0.25500000000E-02 0.  1.
         -2   -1    0    0    0  501 -0.00000000000E+00 -0.00000000000E+00 -0.36775342014E+03  0.36775342015E+03  0.25500000000E-02 0. -1.
    5000001    1    1    2    0    0  0.49471624763E+02 -0.37606029645E+03  0.15399092048E+03  0.45047307557E+03  0.18800000000E+03 0.  0.
   -5000001    1    1    2    0    0 -0.49471624763E+02  0.37606029645E+03 -0.15409026491E+02  0.42361565872E+03  0.18800000000E+03 0.  0.
<mgrwt>
<rscale>  0 0.86303312E+03</rscale>
<asrwt>0</asrwt>
<pdfrwt beam="1">  1        2 0.72333616E-01 0.86303312E+03</pdfrwt>
<pdfrwt beam="2">  1       -2 0.52536203E-01 0.86303312E+03</pdfrwt>
<totfact> 0.22725541E+02</totfact>
</mgrwt>
</event>
<event>
 4    1  0.6239849E-005  0.5968104E+03  0.7818608E-02  0.9912046E-01
          2   -1    0    0  501    0  0.00000000000E+00  0.00000000000E+00  0.25148492229E+03  0.25148492230E+03  0.25500000000E-02 0.  1.
         -2   -1    0    0    0  501 -0.00000000000E+00 -0.00000000000E+00 -0.35407955488E+03  0.35407955489E+03  0.25500000000E-02 0. -1.
    5000001    1    1    2    0    0 -0.35793757069E+02 -0.20048743023E+03 -0.16348706208E+03  0.32178940659E+03  0.18800000000E+03 0.  0.
   -5000001    1    1    2    0    0  0.35793757069E+02  0.20048743023E+03  0.60892429491E+02  0.28377507060E+03  0.18800000000E+03 0.  0.
<mgrwt>
<rscale>  0 0.59681042E+03</rscale>
<asrwt>0</asrwt>
<pdfrwt beam="1">  1        2 0.35926417E-01 0.59681042E+03</pdfrwt>
<pdfrwt beam="2">  1       -2 0.50582794E-01 0.59681042E+03</pdfrwt>
<totfact> 0.54086978E+02</totfact>
</mgrwt>
</event>
<event>
 4    1  0.6239849E-005  0.8541972E+03  0.7818608E-02  0.9484721E-01
         -2   -1    0    0    0  501 -0.00000000000E+00  0.00000000000E+00  0.10471253889E+03  0.10471253892E+03  0.25500000000E-02 0. -1.
          2   -1    0    0  501    0  0.00000000000E+00 -0.00000000000E+00 -0.17420377896E+04  0.17420377896E+04  0.25500000000E-02 0.  1.
    5000001    1    1    2    0    0  0.21136233962E+02 -0.36625615399E+03 -0.10601742397E+04  0.11374988920E+04  0.18800000000E+03 0.  0.
   -5000001    1    1    2    0    0 -0.21136233962E+02  0.36625615399E+03 -0.57715101093E+03  0.70925143647E+03  0.18800000000E+03 0.  0.
<mgrwt>
<rscale>  0 0.85419717E+03</rscale>
<asrwt>0</asrwt>
<pdfrwt beam="1">  1        2 0.24886252E+00 0.85419717E+03</pdfrwt>
<pdfrwt beam="2">  1       -2 0.14958935E-01 0.85419717E+03</pdfrwt>
<totfact> 0.38700762E+02</totfact>
</mgrwt>
</event>
<event>
 4    1  0.6239849E-005  0.5874073E+03  0.7818608E-02  0.9931882E-01
          2   -1    0    0  501    0  0.00000000000E+00  0.00000000000E+00  0.11678180803E+04  0.11678180803E+04  0.25500000000E-02 0.  1.
         -2   -1    0    0    0  501 -0.00000000000E+00 -0.00000000000E+00 -0.73865808888E+02  0.73865808932E+02  0.25500000000E-02 0. -1.
    5000001    1    1    2    0    0  0.19701704032E+03 -0.90717339672E+02  0.67851865739E+03  0.73673395356E+03  0.18800000000E+03 0.  0.
   -5000001    1    1    2    0    0 -0.19701704032E+03  0.90717339672E+02  0.41543361405E+03  0.50494993571E+03  0.18800000000E+03 0.  0.
<mgrwt>
<rscale>  0 0.58740728E+03</rscale>
<asrwt>0</asrwt>
<pdfrwt beam="1">  1        2 0.16683114E+00 0.58740728E+03</pdfrwt>
<pdfrwt beam="2">  1       -2 0.10552259E-01 0.58740728E+03</pdfrwt>
<totfact> 0.14125183E+03</totfact>
</mgrwt>
</event>
<event>
 4    1  0.6239849E-005  0.5265070E+03  0.7818608E-02  0.1007083E+00
          2   -1    0    0  501    0  0.00000000000E+00  0.00000000000E+00  0.16985511804E+04  0.16985511804E+04  0.25500000000E-02 0.  1.
         -2   -1    0    0    0  501 -0.00000000000E+00 -0.00000000000E+00 -0.40800899420E+02  0.40800899500E+02  0.25500000000E-02 0. -1.
    5000001    1    1    2    0    0  0.61379600485E+01  0.13928604251E+03  0.43079664621E+03  0.49027342022E+03  0.18800000000E+03 0.  0.
   -5000001    1    1    2    0    0 -0.61379600485E+01 -0.13928604251E+03  0.12269536348E+04  0.12490786597E+04  0.18800000000E+03 0.  0.
<mgrwt>
<rscale>  0 0.52650704E+03</rscale>
<asrwt>0</asrwt>
<pdfrwt beam="1">  1        2 0.24265015E+00 0.52650704E+03</pdfrwt>
<pdfrwt beam="2">  1       -2 0.58287003E-02 0.52650704E+03</pdfrwt>
<totfact> 0.19044445E+03</totfact>
</mgrwt>
</event>
<event>
 4    1  0.6239849E-005  0.6341337E+03  0.7818608E-02  0.9837015E-01
          2   -1    0    0  501    0  0.00000000000E+00  0.00000000000E+00  0.39161421781E+04  0.39161421781E+04  0.25500000000E-02 0.  1.
         -2   -1    0    0    0  501 -0.00000000000E+00 -0.00000000000E+00 -0.25671027815E+02  0.25671027941E+02  0.25500000000E-02 0. -1.
    5000001    1    1    2    0    0  0.12373962023E+03  0.21194983843E+03  0.15077570966E+04  0.15391262749E+04  0.18800000000E+03 0.  0.
   -5000001    1    1    2    0    0 -0.12373962023E+03 -0.21194983843E+03  0.23827140536E+04  0.24026869311E+04  0.18800000000E+03 0.  0.
<mgrwt>
<rscale>  0 0.63413372E+03</rscale>
<asrwt>0</asrwt>
<pdfrwt beam="1">  1        2 0.55944805E+00 0.63413372E+03</pdfrwt>
<pdfrwt beam="2">  1       -2 0.36672952E-02 0.63413372E+03</pdfrwt>
<totfact> 0.23826212E+02</totfact>
</mgrwt>
</event>
<event>
 4    1  0.6239849E-005  0.6899509E+03  0.7818608E-02  0.9734573E-01
         -2   -1    0    0    0  501 -0.00000000000E+00  0.00000000000E+00  0.19444147233E+03  0.19444147235E+03  0.25500000000E-02 0. -1.
          2   -1    0    0  501    0  0.00000000000E+00 -0.00000000000E+00 -0.61205082840E+03  0.61205082841E+03  0.25500000000E-02 0.  1.
    5000001    1    1    2    0    0  0.53465577996E+02 -0.28402682349E+03 -0.19526042928E+03  0.39623281002E+03  0.18800000000E+03 0.  0.
   -5000001    1    1    2    0    0 -0.53465577996E+02  0.28402682349E+03 -0.22234892679E+03  0.41025949074E+03  0.18800000000E+03 0.  0.
<mgrwt>
<rscale>  0 0.68995091E+03</rscale>
<asrwt>0</asrwt>
<pdfrwt beam="1">  1        2 0.87435832E-01 0.68995091E+03</pdfrwt>
<pdfrwt beam="2">  1       -2 0.27777353E-01 0.68995091E+03</pdfrwt>
<totfact> 0.62905392E+02</totfact>
</mgrwt>
</event>
<event>
 4    1  0.6239849E-005  0.5634761E+03  0.7818608E-02  0.9984220E-01
         -2   -1    0    0    0  501 -0.00000000000E+00  0.00000000000E+00  0.31682588842E+03  0.31682588843E+03  0.25500000000E-02 0. -1.
          2   -1    0    0  501    0  0.00000000000E+00 -0.00000000000E+00 -0.25053611538E+03  0.25053611540E+03  0.25500000000E-02 0.  1.
    5000001    1    1    2    0    0  0.17295057416E+03 -0.10205627091E+03 -0.28143129767E+02  0.27652019689E+03  0.18800000000E+03 0.  0.
   -5000001    1    1    2    0    0 -0.17295057416E+03  0.10205627091E+03  0.94432902800E+02  0.29084180694E+03  0.18800000000E+03 0.  0.
<mgrwt>
<rscale>  0 0.56347609E+03</rscale>
<asrwt>0</asrwt>
<pdfrwt beam="1">  1        2 0.35790874E-01 0.56347609E+03</pdfrwt>
<pdfrwt beam="2">  1       -2 0.45260841E-01 0.56347609E+03</pdfrwt>
<totfact> 0.67922136E+02</totfact>
</mgrwt>
</event>
<event>
 4    1  0.6239849E-005  0.5545311E+03  0.7818608E-02  0.1000451E+00
         -2   -1    0    0    0  501 -0.00000000000E+00  0.00000000000E+00  0.29327946600E+03  0.29327946601E+03  0.25500000000E-02 0. -1.
          2   -1    0    0  501    0  0.00000000000E+00 -0.00000000000E+00 -0.26212600671E+03  0.26212600672E+03  0.25500000000E-02 0.  1.
    5000001    1    1    2    0    0  0.13495448603E+03 -0.15137665427E+03  0.35722384704E+02  0.27883273396E+03  0.18800000000E+03 0.  0.
   -5000001    1    1    2    0    0 -0.13495448603E+03  0.15137665427E+03 -0.45689254127E+01  0.27657273878E+03  0.18800000000E+03 0.  0.
<mgrwt>
<rscale>  0 0.55453106E+03</rscale>
<asrwt>0</asrwt>
<pdfrwt beam="1">  1        2 0.37446572E-01 0.55453106E+03</pdfrwt>
<pdfrwt beam="2">  1       -2 0.41897067E-01 0.55453106E+03</pdfrwt>
<totfact> 0.75221808E+02</totfact>
</mgrwt>
</event>
<event>
 4    1  0.6239849E-005  0.1386060E+04  0.7818608E-02  0.8963971E-01
         -2   -1    0    0    0  501 -0.00000000000E+00  0.00000000000E+00  0.27173939150E+03  0.27173939151E+03  0.25500000000E-02 0. -1.
          2   -1    0    0  501    0  0.00000000000E+00 -0.00000000000E+00 -0.17674673109E+04  0.17674673109E+04  0.25500000000E-02 0.  1.
    5000001    1    1    2    0    0  0.15673548903E+02  0.55673357058E+03 -0.12879231124E+04  0.14157287425E+04  0.18800000000E+03 0.  0.
   -5000001    1    1    2    0    0 -0.15673548903E+02 -0.55673357058E+03 -0.20780480698E+03  0.62347795995E+03  0.18800000000E+03 0.  0.
<mgrwt>
<rscale>  0 0.13860599E+04</rscale>
<asrwt>0</asrwt>
<pdfrwt beam="1">  1        2 0.25249533E+00 0.13860599E+04</pdfrwt>
<pdfrwt beam="2">  1       -2 0.38819914E-01 0.13860599E+04</pdfrwt>
<totfact> 0.64677761E+01</totfact>
</mgrwt>
</event>
<event>
 4    1  0.6239849E-005  0.4642658E+03  0.7818608E-02  0.1023551E+00
          2   -1    0    0  501    0  0.00000000000E+00  0.00000000000E+00  0.70127618265E+03  0.70127618266E+03  0.25500000000E-02 0.  1.
         -2   -1    0    0    0  501 -0.00000000000E+00 -0.00000000000E+00 -0.76839449869E+02  0.76839449911E+02  0.25500000000E-02 0. -1.
    5000001    1    1    2    0    0  0.11168351019E+03 -0.35340634998E+02  0.42857171378E+03  0.48243121871E+03  0.18800000000E+03 0.  0.
   -5000001    1    1    2    0    0 -0.11168351019E+03  0.35340634998E+02  0.19586501900E+03  0.29568441386E+03  0.18800000000E+03 0.  0.
<mgrwt>
<rscale>  0 0.46426577E+03</rscale>
<asrwt>0</asrwt>
<pdfrwt beam="1">  1        2 0.10018231E+00 0.46426577E+03</pdfrwt>
<pdfrwt beam="2">  1       -2 0.10977064E-01 0.46426577E+03</pdfrwt>
<totfact> 0.26323874E+03</totfact>
</mgrwt>
</event>
<event>
 4    1  0.6239849E-005  0.5477317E+03  0.7818608E-02  0.1002020E+00
          2   -1    0    0  501    0  0.00000000000E+00  0.00000000000E+00  0.21360189920E+03  0.21360189922E+03  0.25500000000E-02 0.  1.
         -2   -1    0    0    0  501 -0.00000000000E+00 -0.00000000000E+00 -0.35113217478E+03  0.35113217479E+03  0.25500000000E-02 0. -1.
    5000001    1    1    2    0    0  0.19072486899E+03  0.42179843481E+02 -0.10874222721E+03  0.29210269911E+03  0.18800000000E+03 0.  0.
   -5000001    1    1    2    0    0 -0.19072486899E+03 -0.42179843481E+02 -0.28788048370E+02  0.27263137490E+03  0.18800000000E+03 0.  0.
<mgrwt>
<rscale>  0 0.54773168E+03</rscale>
<asrwt>0</asrwt>
<pdfrwt beam="1">  1        2 0.30514557E-01 0.54773168E+03</pdfrwt>
<pdfrwt beam="2">  1       -2 0.50161739E-01 0.54773168E+03</pdfrwt>
<totfact> 0.66034245E+02</totfact>
</mgrwt>
</event>
<event>
 4    1  0.6239849E-005  0.7851043E+03  0.7818608E-02  0.9581832E-01
         -2   -1    0    0    0  501 -0.00000000000E+00  0.00000000000E+00  0.35234119667E+03  0.35234119668E+03  0.25500000000E-02 0. -1.
          2   -1    0    0  501    0  0.00000000000E+00 -0.00000000000E+00 -0.43735219214E+03  0.43735219214E+03  0.25500000000E-02 0.  1.
    5000001    1    1    2    0    0 -0.12571439508E+03  0.31002979146E+03  0.40625121031E+02  0.38589763044E+03  0.18800000000E+03 0.  0.
   -5000001    1    1    2    0    0  0.12571439508E+03 -0.31002979146E+03 -0.12563611649E+03  0.40379575838E+03  0.18800000000E+03 0.  0.
<mgrwt>
<rscale>  0 0.78510431E+03</rscale>
<asrwt>0</asrwt>
<pdfrwt beam="1">  1        2 0.62478884E-01 0.78510431E+03</pdfrwt>
<pdfrwt beam="2">  1       -2 0.50334457E-01 0.78510431E+03</pdfrwt>
<totfact> 0.29390641E+02</totfact>
</mgrwt>
</event>
<event>
 4    1  0.6239849E-005  0.5435810E+03  0.7818608E-02  0.1002991E+00
          2   -1    0    0  501    0  0.00000000000E+00  0.00000000000E+00  0.32297795595E+04  0.32297795595E+04  0.25500000000E-02 0.  1.
         -2   -1    0    0    0  501 -0.00000000000E+00 -0.00000000000E+00 -0.22871549671E+02  0.22871549813E+02  0.25500000000E-02 0. -1.
    5000001    1    1    2    0    0 -0.16962939983E+03  0.52259696055E+02  0.21048354326E+04  0.21206558909E+04  0.18800000000E+03 0.  0.
   -5000001    1    1    2    0    0  0.16962939983E+03 -0.52259696055E+02  0.11020725772E+04  0.11319952185E+04  0.18800000000E+03 0.  0.
<mgrwt>
<rscale>  0 0.54358096E+03</rscale>
<asrwt>0</asrwt>
<pdfrwt beam="1">  1        2 0.46139751E+00 0.54358096E+03</pdfrwt>
<pdfrwt beam="2">  1       -2 0.32673612E-02 0.54358096E+03</pdfrwt>
<totfact> 0.74695002E+02</totfact>
</mgrwt>
</event>
<event>
 4    1  0.6239849E-005  0.4402633E+03  0.7818608E-02  0.1030666E+00
         -2   -1    0    0    0  501 -0.00000000000E+00  0.00000000000E+00  0.40810457967E+02  0.40810458047E+02  0.25500000000E-02 0. -1.
          2   -1    0    0  501    0  0.00000000000E+00 -0.00000000000E+00 -0.11873905342E+04  0.11873905342E+04  0.25500000000E-02 0.  1.
    5000001    1    1    2    0    0  0.57334182739E+02  0.47931146891E+02 -0.81535705215E+03  0.84008078531E+03  0.18800000000E+03 0.  0.
   -5000001    1    1    2    0    0 -0.57334182739E+02 -0.47931146891E+02 -0.33122302407E+03  0.38812020693E+03  0.18800000000E+03 0.  0.
<mgrwt>
<rscale>  0 0.44026334E+03</rscale>
<asrwt>0</asrwt>
<pdfrwt beam="1">  1        2 0.16962720E+00 0.44026334E+03</pdfrwt>
<pdfrwt beam="2">  1       -2 0.58300662E-02 0.44026334E+03</pdfrwt>
<totfact> 0.35365734E+03</totfact>
</mgrwt>
</event>
<event>
 4    1  0.6239849E-005  0.1686526E+04  0.7818608E-02  0.8769087E-01
         -2   -1    0    0    0  501 -0.00000000000E+00  0.00000000000E+00  0.35228911903E+03  0.35228911904E+03  0.25500000000E-02 0. -1.
          2   -1    0    0  501    0  0.00000000000E+00 -0.00000000000E+00 -0.20184915208E+04  0.20184915208E+04  0.25500000000E-02 0.  1.
    5000001    1    1    2    0    0  0.73385873914E+03  0.60408964224E+02 -0.31938721004E+03  0.82434827707E+03  0.18800000000E+03 0.  0.
   -5000001    1    1    2    0    0 -0.73385873914E+03 -0.60408964224E+02 -0.13468151918E+04  0.15464323628E+04  0.18800000000E+03 0.  0.
<mgrwt>
<rscale>  0 0.16865261E+04</rscale>
<asrwt>0</asrwt>
<pdfrwt beam="1">  1        2 0.28835593E+00 0.16865261E+04</pdfrwt>
<pdfrwt beam="2">  1       -2 0.50327018E-01 0.16865261E+04</pdfrwt>
<totfact> 0.27980733E+01</totfact>
</mgrwt>
</event>
<event>
 4    1  0.6239849E-005  0.7610324E+03  0.7818608E-02  0.9618199E-01
         -2   -1    0    0    0  501 -0.00000000000E+00  0.00000000000E+00  0.76744396058E+02  0.76744396101E+02  0.25500000000E-02 0. -1.
          2   -1    0    0  501    0  0.00000000000E+00 -0.00000000000E+00 -0.18866860762E+04  0.18866860762E+04  0.25500000000E-02 0.  1.
    5000001    1    1    2    0    0 -0.15840718921E+03 -0.26220343680E+03 -0.12272600023E+04  0.12788098346E+04  0.18800000000E+03 0.  0.
   -5000001    1    1    2    0    0  0.15840718921E+03  0.26220343680E+03 -0.58268167788E+03  0.68462063773E+03  0.18800000000E+03 0.  0.
<mgrwt>
<rscale>  0 0.76103241E+03</rscale>
<asrwt>0</asrwt>
<pdfrwt beam="1">  1        2 0.26952655E+00 0.76103241E+03</pdfrwt>
<pdfrwt beam="2">  1       -2 0.10963486E-01 0.76103241E+03</pdfrwt>
<totfact> 0.55112529E+02</totfact>
</mgrwt>
</event>
<event>
 4    1  0.6239849E-005  0.1665973E+04  0.7818608E-02  0.8781013E-01
          2   -1    0    0  501    0  0.00000000000E+00  0.00000000000E+00  0.85004391122E+03  0.85004391122E+03  0.25500000000E-02 0.  1.
         -2   -1    0    0    0  501 -0.00000000000E+00 -0.00000000000E+00 -0.81627100273E+03  0.81627100274E+03  0.25500000000E-02 0. -1.
    5000001    1    1    2    0    0  0.15996327922E+03  0.42986679279E+03  0.68646293034E+03  0.84672844819E+03  0.18800000000E+03 0.  0.
   -5000001    1    1    2    0    0 -0.15996327922E+03 -0.42986679279E+03 -0.65269002186E+03  0.81958646577E+03  0.18800000000E+03 0.  0.
<mgrwt>
<rscale>  0 0.16659726E+04</rscale>
<asrwt>0</asrwt>
<pdfrwt beam="1">  1        2 0.12143485E+00 0.16659726E+04</pdfrwt>
<pdfrwt beam="2">  1       -2 0.11661014E+00 0.16659726E+04</pdfrwt>
<totfact> 0.19139620E+01</totfact>
</mgrwt>
</event>
<event>
 4    1  0.6239849E-005  0.5118131E+03  0.7818608E-02  0.1010741E+00
          2   -1    0    0  501    0  0.00000000000E+00  0.00000000000E+00  0.66519955063E+03  0.66519955063E+03  0.25500000000E-02 0.  1.
         -2   -1    0    0    0  501 -0.00000000000E+00 -0.00000000000E+00 -0.98448905210E+02  0.98448905243E+02  0.25500000000E-02 0. -1.
    5000001    1    1    2    0    0 -0.40531333256E+02 -0.16265825624E+03  0.35082617963E+03  0.43188367139E+03  0.18800000000E+03 0.  0.
   -5000001    1    1    2    0    0  0.40531333256E+02  0.16265825624E+03  0.21592446579E+03  0.33176478449E+03  0.18800000000E+03 0.  0.
<mgrwt>
<rscale>  0 0.51181312E+03</rscale>
<asrwt>0</asrwt>
<pdfrwt beam="1">  1        2 0.95028507E-01 0.51181312E+03</pdfrwt>
<pdfrwt beam="2">  1       -2 0.14064129E-01 0.51181312E+03</pdfrwt>
<totfact> 0.18674553E+03</totfact>
</mgrwt>
</event>
<event>
 4    1  0.6239849E-005  0.7107059E+03  0.7818608E-02  0.9699097E-01
          2   -1    0    0  501    0  0.00000000000E+00  0.00000000000E+00  0.84232483767E+03  0.84232483767E+03  0.25500000000E-02 0.  1.
         -2   -1    0    0    0  501 -0.00000000000E+00 -0.00000000000E+00 -0.14991333729E+03  0.14991333731E+03  0.25500000000E-02 0. -1.
    5000001    1    1    2    0    0 -0.25752057789E+03 -0.32972468811E+02  0.56035457455E+03  0.64555811586E+03  0.18800000000E+03 0.  0.
   -5000001    1    1    2    0    0  0.25752057789E+03  0.32972468811E+02  0.13205692583E+03  0.34668005912E+03  0.18800000000E+03 0.  0.
<mgrwt>
<rscale>  0 0.71070592E+03</rscale>
<asrwt>0</asrwt>
<pdfrwt beam="1">  1        2 0.12033212E+00 0.71070592E+03</pdfrwt>
<pdfrwt beam="2">  1       -2 0.21416191E-01 0.71070592E+03</pdfrwt>
<totfact> 0.67433450E+02</totfact>
</mgrwt>
</event>
<event>
 4    1  0.6239849E-005  0.7619866E+03  0.7818608E-02  0.9616731E-01
         -2   -1    0    0    0  501 -0.00000000000E+00  0.00000000000E+00  0.13535618031E+03  0.13535618033E+03  0.25500000000E-02 0. -1.
          2   -1    0    0  501    0  0.00000000000E+00 -0.00000000000E+00 -0.10723993514E+04  0.10723993514E+04  0.25500000000E-02 0.  1.
    5000001    1    1    2    0    0  0.17634981798E+03  0.27654318124E+03 -0.39356405661E+03  0.54572159207E+03  0.18800000000E+03 0.  0.
   -5000001    1    1    2    0    0 -0.17634981798E+03 -0.27654318124E+03 -0.54347911449E+03  0.66203393967E+03  0.18800000000E+03 0.  0.
<mgrwt>
<rscale>  0 0.76198656E+03</rscale>
<asrwt>0</asrwt>
<pdfrwt beam="1">  1        2 0.15319990E+00 0.76198656E+03</pdfrwt>
<pdfrwt beam="2">  1       -2 0.19336598E-01 0.76198656E+03</pdfrwt>
<totfact> 0.57658704E+02</totfact>
</mgrwt>
</event>
<event>
 4    1  0.6239849E-005  0.1104967E+04  0.7818608E-02  0.9200364E-01
         -2   -1    0    0    0  501 -0.00000000000E+00  0.00000000000E+00  0.34287572835E+03  0.34287572836E+03  0.25500000000E-02 0. -1.
          2   -1    0    0  501    0  0.00000000000E+00 -0.00000000000E+00 -0.89022987736E+03  0.89022987736E+03  0.25500000000E-02 0.  1.
    5000001    1    1    2    0    0  0.29622909273E+03 -0.20806737076E+03  0.14216129937E+03  0.43196937530E+03  0.18800000000E+03 0.  0.
   -5000001    1    1    2    0    0 -0.29622909273E+03  0.20806737076E+03 -0.68951544837E+03  0.80113623043E+03  0.18800000000E+03 0.  0.
<mgrwt>
<rscale>  0 0.11049674E+04</rscale>
<asrwt>0</asrwt>
<pdfrwt beam="1">  1        2 0.12717570E+00 0.11049674E+04</pdfrwt>
<pdfrwt beam="2">  1       -2 0.48982247E-01 0.11049674E+04</pdfrwt>
<totfact> 0.12923852E+02</totfact>
</mgrwt>
</event>
<event>
 4    1  0.6239849E-005  0.7089955E+03  0.7818608E-02  0.9701971E-01
         -2   -1    0    0    0  501 -0.00000000000E+00  0.00000000000E+00  0.54831747391E+03  0.54831747392E+03  0.25500000000E-02 0. -1.
          2   -1    0    0  501    0  0.00000000000E+00 -0.00000000000E+00 -0.22918956614E+03  0.22918956616E+03  0.25500000000E-02 0.  1.
    5000001    1    1    2    0    0 -0.11509569056E+03 -0.17587108342E+03 -0.76012863396E+02  0.29206097201E+03  0.18800000000E+03 0.  0.
   -5000001    1    1    2    0    0  0.11509569056E+03  0.17587108342E+03  0.39514077117E+03  0.48544606807E+03  0.18800000000E+03 0.  0.
<mgrwt>
<rscale>  0 0.70899547E+03</rscale>
<asrwt>0</asrwt>
<pdfrwt beam="1">  1        2 0.32741367E-01 0.70899547E+03</pdfrwt>
<pdfrwt beam="2">  1       -2 0.78331067E-01 0.70899547E+03</pdfrwt>
<totfact> 0.23585075E+02</totfact>
</mgrwt>
</event>
<event>
 4    1  0.6239849E-005  0.6659668E+03  0.7818608E-02  0.9777271E-01
          2   -1    0    0  501    0  0.00000000000E+00  0.00000000000E+00  0.31966394296E+04  0.31966394296E+04  0.25500000000E-02 0. -1.
         -2   -1    0    0    0  501 -0.00000000000E+00 -0.00000000000E+00 -0.34685783618E+02  0.34685783712E+02  0.25500000000E-02 0.  1.
    5000001    1    1    2    0    0  0.24470789830E+03  0.63773486311E+02  0.10587311967E+04  0.11046287883E+04  0.18800000000E+03 0.  0.
   -5000001    1    1    2    0    0 -0.24470789830E+03 -0.63773486311E+02  0.21032224493E+04  0.21266964251E+04  0.18800000000E+03 0.  0.
<mgrwt>
<rscale>  0 0.66596680E+03</rscale>
<asrwt>0</asrwt>
<pdfrwt beam="1">  1        2 0.45666236E+00 0.66596680E+03</pdfrwt>
<pdfrwt beam="2">  1       -2 0.49551165E-02 0.66596680E+03</pdfrwt>
<totfact> 0.40587013E+02</totfact>
</mgrwt>
</event>
<event>
 4    1  0.6239849E-005  0.4824131E+03  0.7818608E-02  0.1018474E+00
         -2   -1    0    0    0  501 -0.00000000000E+00  0.00000000000E+00  0.49971796392E+03  0.49971796393E+03  0.25500000000E-02 0. -1.
          2   -1    0    0  501    0  0.00000000000E+00 -0.00000000000E+00 -0.11642684941E+03  0.11642684943E+03  0.25500000000E-02 0.  1.
    5000001    1    1    2    0    0 -0.13732588211E+03  0.27689284028E+02  0.26402534271E+03  0.35309839413E+03  0.18800000000E+03 0.  0.
   -5000001    1    1    2    0    0  0.13732588211E+03 -0.27689284028E+02  0.11926577181E+03  0.26304641923E+03  0.18800000000E+03 0.  0.
<mgrwt>
<rscale>  0 0.48241305E+03</rscale>
<asrwt>0</asrwt>
<pdfrwt beam="1">  1        2 0.16632407E-01 0.48241305E+03</pdfrwt>
<pdfrwt beam="2">  1       -2 0.71388281E-01 0.48241305E+03</pdfrwt>
<totfact> 0.63433230E+02</totfact>
</mgrwt>
</event>
<event>
 4    1  0.6239849E-005  0.5500716E+03  0.7818608E-02  0.1001477E+00
          2   -1    0    0  501    0  0.00000000000E+00  0.00000000000E+00  0.50749136966E+03  0.50749136967E+03  0.25500000000E-02 0.  1.
         -2   -1    0    0    0  501 -0.00000000000E+00 -0.00000000000E+00 -0.14905610112E+03  0.14905610114E+03  0.25500000000E-02 0. -1.
    5000001    1    1    2    0    0  0.13370067168E+03 -0.10219680222E+03  0.30986081229E+03  0.39959702074E+03  0.18800000000E+03 0.  0.
   -5000001    1    1    2    0    0 -0.13370067168E+03  0.10219680222E+03  0.48574456252E+02  0.25695045007E+03  0.18800000000E+03 0.  0.
<mgrwt>
<rscale>  0 0.55007158E+03</rscale>
<asrwt>0</asrwt>
<pdfrwt beam="1">  1        2 0.72498766E-01 0.55007158E+03</pdfrwt>
<pdfrwt beam="2">  1       -2 0.21293729E-01 0.55007158E+03</pdfrwt>
<totfact> 0.12608714E+03</totfact>
</mgrwt>
</event>
<event>
 4    1  0.6239849E-005  0.4826729E+03  0.7818608E-02  0.1018403E+00
         -2   -1    0    0    0  501 -0.00000000000E+00  0.00000000000E+00  0.95834894979E+02  0.95834895013E+02  0.25500000000E-02 0.  1.
          2   -1    0    0  501    0  0.00000000000E+00 -0.00000000000E+00 -0.60774602877E+03  0.60774602877E+03  0.25500000000E-02 0. -1.
    5000001    1    1    2    0    0  0.11762220476E+03  0.95073647193E+02 -0.24862424946E+03  0.34645634482E+03  0.18800000000E+03 0.  0.
   -5000001    1    1    2    0    0 -0.11762220476E+03 -0.95073647193E+02 -0.26328688432E+03  0.35712457897E+03  0.18800000000E+03 0.  0.
<mgrwt>
<rscale>  0 0.48267288E+03</rscale>
<asrwt>0</asrwt>
<pdfrwt beam="1">  1        2 0.86820859E-01 0.48267288E+03</pdfrwt>
<pdfrwt beam="2">  1       -2 0.13690700E-01 0.48267288E+03</pdfrwt>
<totfact> 0.21730944E+03</totfact>
</mgrwt>
</event>
<event>
 4    1  0.6239849E-005  0.6330258E+03  0.7818608E-02  0.9839162E-01
         -2   -1    0    0    0  501 -0.00000000000E+00  0.00000000000E+00  0.73566377156E+02  0.73566377200E+02  0.25500000000E-02 0. -1.
          2   -1    0    0  501    0  0.00000000000E+00 -0.00000000000E+00 -0.13617691095E+04  0.13617691095E+04  0.25500000000E-02 0.  1.
    5000001    1    1    2    0    0 -0.12562169364E+03 -0.91591110379E+02 -0.18685385102E+03  0.30729156034E+03  0.18800000000E+03 0.  0.
   -5000001    1    1    2    0    0  0.12562169364E+03  0.91591110379E+02 -0.11013488814E+04  0.11280439264E+04  0.18800000000E+03 0.  0.
<mgrwt>
<rscale>  0 0.63302581E+03</rscale>
<asrwt>0</asrwt>
<pdfrwt beam="1">  1        2 0.19453843E+00 0.63302581E+03</pdfrwt>
<pdfrwt beam="2">  1       -2 0.10509483E-01 0.63302581E+03</pdfrwt>
<totfact> 0.11106200E+03</totfact>
</mgrwt>
</event>
<event>
 4    1  0.6239849E-005  0.4997640E+03  0.7818608E-02  0.1013841E+00
          2   -1    0    0  501    0  0.00000000000E+00  0.00000000000E+00  0.19866526378E+04  0.19866526378E+04  0.25500000000E-02 0.  1.
         -2   -1    0    0    0  501 -0.00000000000E+00 -0.00000000000E+00 -0.31430259517E+02  0.31430259621E+02  0.25500000000E-02 0. -1.
    5000001    1    1    2    0    0  0.13610484396E+03 -0.77961951218E+02  0.11792890818E+04  0.12044373511E+04  0.18800000000E+03 0.  0.
   -5000001    1    1    2    0    0 -0.13610484396E+03  0.77961951218E+02  0.77593329656E+03  0.81364554635E+03  0.18800000000E+03 0.  0.
<mgrwt>
<rscale>  0 0.49976398E+03</rscale>
<asrwt>0</asrwt>
<pdfrwt beam="1">  1        2 0.28380744E+00 0.49976398E+03</pdfrwt>
<pdfrwt beam="2">  1       -2 0.44900384E-02 0.49976398E+03</pdfrwt>
<totfact> 0.20467293E+03</totfact>
</mgrwt>
</event>
<event>
 4    1  0.6239849E-005  0.9560912E+03  0.7818608E-02  0.9358059E-01
         -2   -1    0    0    0  501 -0.00000000000E+00  0.00000000000E+00  0.11863020092E+03  0.11863020095E+03  0.25500000000E-02 0. -1.
          2   -1    0    0  501    0  0.00000000000E+00 -0.00000000000E+00 -0.19263863354E+04  0.19263863354E+04  0.25500000000E-02 0.  1.
    5000001    1    1    2    0    0 -0.36114176058E+03 -0.35878995551E+02 -0.14341998162E+04  0.14913027145E+04  0.18800000000E+03 0.  0.
   -5000001    1    1    2    0    0  0.36114176058E+03  0.35878995551E+02 -0.37355631827E+03  0.55371382183E+03  0.18800000000E+03 0.  0.
<mgrwt>
<rscale>  0 0.95609120E+03</rscale>
<asrwt>0</asrwt>
<pdfrwt beam="1">  1        2 0.27519803E+00 0.95609120E+03</pdfrwt>
<pdfrwt beam="2">  1       -2 0.16947173E-01 0.95609120E+03</pdfrwt>
<totfact> 0.25016822E+02</totfact>
</mgrwt>
</event>
<event>
 4    1  0.6239849E-005  0.5728929E+03  0.7818608E-02  0.9963297E-01
          2   -1    0    0  501    0  0.00000000000E+00  0.00000000000E+00  0.49818254775E+03  0.49818254776E+03  0.25500000000E-02 0.  1.
         -2   -1    0    0    0  501 -0.00000000000E+00 -0.00000000000E+00 -0.16470181979E+03  0.16470181981E+03  0.25500000000E-02 0. -1.
    5000001    1    1    2    0    0  0.77338639544E+02  0.19318457264E+03  0.99211657415E+02  0.29747016193E+03  0.18800000000E+03 0.  0.
   -5000001    1    1    2    0    0 -0.77338639544E+02 -0.19318457264E+03  0.23426907054E+03  0.36541420564E+03  0.18800000000E+03 0.  0.
<mgrwt>
<rscale>  0 0.57289291E+03</rscale>
<asrwt>0</asrwt>
<pdfrwt beam="1">  1        2 0.71168937E-01 0.57289291E+03</pdfrwt>
<pdfrwt beam="2">  1       -2 0.23528831E-01 0.57289291E+03</pdfrwt>
<totfact> 0.10795097E+03</totfact>
</mgrwt>
</event>
<event>
 4    1  0.6239849E-005  0.3986508E+03  0.7818608E-02  0.1044248E+00
          2   -1    0    0  501    0  0.00000000000E+00  0.00000000000E+00  0.69900173256E+02  0.69900173302E+02  0.25500000000E-02 0.  1.
         -2   -1    0    0    0  501 -0.00000000000E+00 -0.00000000000E+00 -0.56839084447E+03  0.56839084447E+03  0.25500000000E-02 0. -1.
    5000001    1    1    2    0    0 -0.45381373118E+02 -0.18277073414E+02 -0.17776437010E+03  0.26332051139E+03  0.18800000000E+03 0.  0.
   -5000001    1    1    2    0    0  0.45381373118E+02  0.18277073414E+02 -0.32072630111E+03  0.37497050639E+03  0.18800000000E+03 0.  0.
<mgrwt>
<rscale>  0 0.39865082E+03</rscale>
<asrwt>0</asrwt>
<pdfrwt beam="1">  1        2 0.99857393E-02 0.39865082E+03</pdfrwt>
<pdfrwt beam="2">  1       -2 0.81198690E-01 0.39865082E+03</pdfrwt>
<totfact> 0.89134582E+02</totfact>
</mgrwt>
</event>
<event>
 4    1  0.6239849E-005  0.4694399E+03  0.7818608E-02  0.1022078E+00
         -2   -1    0    0    0  501 -0.00000000000E+00  0.00000000000E+00  0.95741093074E+02  0.95741093108E+02  0.25500000000E-02 0. -1.
          2   -1    0    0  501    0  0.00000000000E+00 -0.00000000000E+00 -0.57544217586E+03  0.57544217587E+03  0.25500000000E-02 0.  1.
    5000001    1    1    2    0    0 -0.11024568723E+03 -0.71299751436E+02 -0.31150524419E+03  0.38680393388E+03  0.18800000000E+03 0.  0.
   -5000001    1    1    2    0    0  0.11024568723E+03  0.71299751436E+02 -0.16819583860E+03  0.28437933510E+03  0.18800000000E+03 0.  0.
<mgrwt>
<rscale>  0 0.46943993E+03</rscale>
<asrwt>0</asrwt>
<pdfrwt beam="1">  1        2 0.82206023E-01 0.46943993E+03</pdfrwt>
<pdfrwt beam="2">  1       -2 0.13677299E-01 0.46943993E+03</pdfrwt>
<totfact> 0.23189683E+03</totfact>
</mgrwt>
</event>
<event>
 4    1  0.6239849E-005  0.1137554E+04  0.7818608E-02  0.9169342E-01
          2   -1    0    0  501    0  0.00000000000E+00  0.00000000000E+00  0.79776703918E+03  0.79776703918E+03  0.25500000000E-02 0.  1.
         -2   -1    0    0    0  501 -0.00000000000E+00 -0.00000000000E+00 -0.40551630434E+03  0.40551630434E+03  0.25500000000E-02 0. -1.
    5000001    1    1    2    0    0  0.36838803373E+03 -0.22722193446E+03  0.53200034160E+03  0.71113143255E+03  0.18800000000E+03 0.  0.
   -5000001    1    1    2    0    0 -0.36838803373E+03  0.22722193446E+03 -0.13974960676E+03  0.49215191098E+03  0.18800000000E+03 0.  0.
<mgrwt>
<rscale>  0 0.11375545E+04</rscale>
<asrwt>0</asrwt>
<pdfrwt beam="1">  1        2 0.11396672E+00 0.11375545E+04</pdfrwt>
<pdfrwt beam="2">  1       -2 0.57930900E-01 0.11375545E+04</pdfrwt>
<totfact> 0.10545389E+02</totfact>
</mgrwt>
</event>
<event>
 4    1  0.6239849E-005  0.1347742E+04  0.7818608E-02  0.8992539E-01
          2   -1    0    0  501    0  0.00000000000E+00  0.00000000000E+00  0.32673641324E+04  0.32673641324E+04  0.25500000000E-02 0.  1.
         -2   -1    0    0    0  501 -0.00000000000E+00 -0.00000000000E+00 -0.13898125449E+03  0.13898125452E+03  0.25500000000E-02 0. -1.
    5000001    1    1    2    0    0 -0.30413016580E+03  0.21995391488E+03  0.28965256220E+04  0.29267865589E+04  0.18800000000E+03 0.  0.
   -5000001    1    1    2    0    0  0.30413016580E+03 -0.21995391488E+03  0.23185725591E+03  0.47955882803E+03  0.18800000000E+03 0.  0.
<mgrwt>
<rscale>  0 0.13477424E+04</rscale>
<asrwt>0</asrwt>
<pdfrwt beam="1">  1        2 0.46676631E+00 0.13477424E+04</pdfrwt>
<pdfrwt beam="2">  1       -2 0.19854465E-01 0.13477424E+04</pdfrwt>
<totfact> 0.35475908E+01</totfact>
</mgrwt>
</event>
<event>
 4    1  0.6239849E-005  0.6082503E+03  0.7818608E-02  0.9888436E-01
          2   -1    0    0  501    0  0.00000000000E+00  0.00000000000E+00  0.95751152040E+03  0.95751152040E+03  0.25500000000E-02 0.  1.
         -2   -1    0    0    0  501 -0.00000000000E+00 -0.00000000000E+00 -0.96596353025E+02  0.96596353059E+02  0.25500000000E-02 0. -1.
    5000001    1    1    2    0    0  0.58311185782E+01  0.15298425186E+03  0.74864402318E+03  0.78692442884E+03  0.18800000000E+03 0.  0.
   -5000001    1    1    2    0    0 -0.58311185782E+01 -0.15298425186E+03  0.11227114419E+03  0.26718344462E+03  0.18800000000E+03 0.  0.
<mgrwt>
<rscale>  0 0.60825035E+03</rscale>
<asrwt>0</asrwt>
<pdfrwt beam="1">  1        2 0.13678737E+00 0.60825035E+03</pdfrwt>
<pdfrwt beam="2">  1       -2 0.13799478E-01 0.60825035E+03</pdfrwt>
<totfact> 0.12090372E+03</totfact>
</mgrwt>
</event>
<event>
 4    1  0.6239849E-005  0.4977425E+03  0.7818608E-02  0.1014370E+00
         -2   -1    0    0    0  501 -0.00000000000E+00  0.00000000000E+00  0.14860550809E+03  0.14860550812E+03  0.25500000000E-02 0. -1.
          2   -1    0    0  501    0  0.00000000000E+00 -0.00000000000E+00 -0.41678736201E+03  0.41678736202E+03  0.25500000000E-02 0.  1.
    5000001    1    1    2    0    0  0.98683349280E+02 -0.10149381213E+03 -0.42134461043E+02  0.23907887848E+03  0.18800000000E+03 0.  0.
   -5000001    1    1    2    0    0 -0.98683349280E+02  0.10149381213E+03 -0.22604739287E+03  0.32631399166E+03  0.18800000000E+03 0.  0.
<mgrwt>
<rscale>  0 0.49774249E+03</rscale>
<asrwt>0</asrwt>
<pdfrwt beam="1">  1        2 0.59541051E-01 0.49774249E+03</pdfrwt>
<pdfrwt beam="2">  1       -2 0.21229359E-01 0.49774249E+03</pdfrwt>
<totfact> 0.15806059E+03</totfact>
</mgrwt>
</event>
<event>
 4    1  0.6239849E-005  0.5458161E+03  0.7818608E-02  0.1002467E+00
          2   -1    0    0  501    0  0.00000000000E+00  0.00000000000E+00  0.15850016859E+04  0.15850016859E+04  0.25500000000E-02 0.  1.
         -2   -1    0    0    0  501 -0.00000000000E+00 -0.00000000000E+00 -0.46989727545E+02  0.46989727614E+02  0.25500000000E-02 0. -1.
    5000001    1    1    2    0    0  0.11314063552E+03  0.15392046319E+03  0.61530458221E+03  0.67114532054E+03  0.18800000000E+03 0.  0.
   -5000001    1    1    2    0    0 -0.11314063552E+03 -0.15392046319E+03  0.92270737614E+03  0.96084609297E+03  0.18800000000E+03 0.  0.
<mgrwt>
<rscale>  0 0.54581608E+03</rscale>
<asrwt>0</asrwt>
<pdfrwt beam="1">  1        2 0.22642880E+00 0.54581608E+03</pdfrwt>
<pdfrwt beam="2">  1       -2 0.67128185E-02 0.54581608E+03</pdfrwt>
<totfact> 0.17430594E+03</totfact>
</mgrwt>
</event>
<event>
 4    1  0.6239849E-005  0.4093317E+03  0.7818608E-02  0.1040596E+00
         -2   -1    0    0    0  501 -0.00000000000E+00  0.00000000000E+00  0.25784183638E+02  0.25784183764E+02  0.25500000000E-02 0. -1.
          2   -1    0    0  501    0  0.00000000000E+00 -0.00000000000E+00 -0.16245660358E+04  0.16245660358E+04  0.25500000000E-02 0.  1.
    5000001    1    1    2    0    0 -0.53401431226E+02 -0.53567442972E+02 -0.68373152232E+03  0.71312970659E+03  0.18800000000E+03 0.  0.
   -5000001    1    1    2    0    0  0.53401431226E+02  0.53567442972E+02 -0.91505032986E+03  0.93722051299E+03  0.18800000000E+03 0.  0.
<mgrwt>
<rscale>  0 0.40933169E+03</rscale>
<asrwt>0</asrwt>
<pdfrwt beam="1">  1        2 0.23208080E+00 0.40933169E+03</pdfrwt>
<pdfrwt beam="2">  1       -2 0.36834559E-02 0.40933169E+03</pdfrwt>
<totfact> 0.42117257E+03</totfact>
</mgrwt>
</event>
<event>
 4    1  0.6239849E-005  0.5041154E+03  0.7818608E-02  0.1012710E+00
         -2   -1    0    0    0  501 -0.00000000000E+00  0.00000000000E+00  0.81466187953E+02  0.81466187993E+02  0.25500000000E-02 0. -1.
          2   -1    0    0  501    0  0.00000000000E+00 -0.00000000000E+00 -0.77987073253E+03  0.77987073253E+03  0.25500000000E-02 0.  1.
    5000001    1    1    2    0    0  0.14630860801E+03  0.35121046639E+01 -0.48979248863E+03  0.54466432375E+03  0.18800000000E+03 0.  0.
   -5000001    1    1    2    0    0 -0.14630860801E+03 -0.35121046639E+01 -0.20861205595E+03  0.31667259677E+03  0.18800000000E+03 0.  0.
<mgrwt>
<rscale>  0 0.50411545E+03</rscale>
<asrwt>0</asrwt>
<pdfrwt beam="1">  1        2 0.11141010E+00 0.50411545E+03</pdfrwt>
<pdfrwt beam="2">  1       -2 0.11638027E-01 0.50411545E+03</pdfrwt>
<totfact> 0.20997457E+03</totfact>
</mgrwt>
</event>
<event>
 4    1  0.6239849E-005  0.4610454E+03  0.7818608E-02  0.1024478E+00
         -2   -1    0    0    0  501 -0.00000000000E+00  0.00000000000E+00  0.48390534226E+02  0.48390534294E+02  0.25500000000E-02 0. -1.
          2   -1    0    0  501    0  0.00000000000E+00 -0.00000000000E+00 -0.10981633462E+04  0.10981633462E+04  0.25500000000E-02 0.  1.
    5000001    1    1    2    0    0 -0.11532040753E+03 -0.65478092667E+02 -0.48880263388E+03  0.54023901368E+03  0.18800000000E+03 0.  0.
   -5000001    1    1    2    0    0  0.11532040753E+03  0.65478092667E+02 -0.56097017807E+03  0.60631486680E+03  0.18800000000E+03 0.  0.
<mgrwt>
<rscale>  0 0.46104538E+03</rscale>
<asrwt>0</asrwt>
<pdfrwt beam="1">  1        2 0.15688046E+00 0.46104538E+03</pdfrwt>
<pdfrwt beam="2">  1       -2 0.69129341E-02 0.46104538E+03</pdfrwt>
<totfact> 0.30456915E+03</totfact>
</mgrwt>
</event>
<event>
 4    1  0.6239849E-005  0.5769767E+03  0.7818608E-02  0.9954358E-01
         -2   -1    0    0    0  501 -0.00000000000E+00  0.00000000000E+00  0.68794289953E+03  0.68794289954E+03  0.25500000000E-02 0.  1.
          2   -1    0    0  501    0  0.00000000000E+00 -0.00000000000E+00 -0.12097737140E+03  0.12097737143E+03  0.25500000000E-02 0. -1.
    5000001    1    1    2    0    0 -0.20498207632E+03 -0.75304773048E+02  0.26400239323E+03  0.39080650467E+03  0.18800000000E+03 0.  0.
   -5000001    1    1    2    0    0  0.20498207632E+03  0.75304773048E+02  0.30296313490E+03  0.41811376630E+03  0.18800000000E+03 0.  0.
<mgrwt>
<rscale>  0 0.57697668E+03</rscale>
<asrwt>0</asrwt>
<pdfrwt beam="1">  1        2 0.17282481E-01 0.57697668E+03</pdfrwt>
<pdfrwt beam="2">  1       -2 0.98277558E-01 0.57697668E+03</pdfrwt>
<totfact> 0.29420920E+02</totfact>
</mgrwt>
</event>
<event>
 4    1  0.6239849E-005  0.4545031E+03  0.7818608E-02  0.1026388E+00
          2   -1    0    0  501    0  0.00000000000E+00  0.00000000000E+00  0.20557950045E+04  0.20557950045E+04  0.25500000000E-02 0.  1.
         -2   -1    0    0    0  501 -0.00000000000E+00 -0.00000000000E+00 -0.25120820680E+02  0.25120820809E+02  0.25500000000E-02 0. -1.
    5000001    1    1    2    0    0  0.49486580160E+02  0.85761706515E+02  0.64634575626E+03  0.68037550556E+03  0.18800000000E+03 0.  0.
   -5000001    1    1    2    0    0 -0.49486580160E+02 -0.85761706515E+02  0.13843284276E+04  0.14005403198E+04  0.18800000000E+03 0.  0.
<mgrwt>
<rscale>  0 0.45450306E+03</rscale>
<asrwt>0</asrwt>
<pdfrwt beam="1">  1        2 0.29368498E+00 0.45450306E+03</pdfrwt>
<pdfrwt beam="2">  1       -2 0.35886889E-02 0.45450306E+03</pdfrwt>
<totfact> 0.26674593E+03</totfact>
</mgrwt>
</event>
<event>
 4    1  0.6239849E-005  0.4785186E+03  0.7818608E-02  0.1019543E+00
          2   -1    0    0  501    0  0.00000000000E+00  0.00000000000E+00  0.73605495548E+03  0.73605495549E+03  0.25500000000E-02 0.  1.
         -2   -1    0    0    0  501 -0.00000000000E+00 -0.00000000000E+00 -0.77772753141E+02  0.77772753183E+02  0.25500000000E-02 0. -1.
    5000001    1    1    2    0    0 -0.74250722908E+02  0.12098226489E+03  0.25797153571E+03  0.34934680693E+03  0.18800000000E+03 0.  0.
   -5000001    1    1    2    0    0  0.74250722908E+02 -0.12098226489E+03  0.40031066663E+03  0.46448090175E+03  0.18800000000E+03 0.  0.
<mgrwt>
<rscale>  0 0.47851863E+03</rscale>
<asrwt>0</asrwt>
<pdfrwt beam="1">  1        2 0.10515071E+00 0.47851863E+03</pdfrwt>
<pdfrwt beam="2">  1       -2 0.11110393E-01 0.47851863E+03</pdfrwt>
<totfact> 0.24334164E+03</totfact>
</mgrwt>
</event>
<event>
 4    1  0.6239849E-005  0.4076905E+03  0.7818608E-02  0.1041149E+00
          2   -1    0    0  501    0  0.00000000000E+00  0.00000000000E+00  0.21797804661E+03  0.21797804662E+03  0.25500000000E-02 0.  1.
         -2   -1    0    0    0  501 -0.00000000000E+00 -0.00000000000E+00 -0.19062879082E+03  0.19062879084E+03  0.25500000000E-02 0. -1.
    5000001    1    1    2    0    0  0.13367360101E+02  0.63689492096E+02 -0.30853300795E+02  0.20132303368E+03  0.18800000000E+03 0.  0.
   -5000001    1    1    2    0    0 -0.13367360101E+02 -0.63689492096E+02  0.58202556576E+02  0.20728380378E+03  0.18800000000E+03 0.  0.
<mgrwt>
<rscale>  0 0.40769053E+03</rscale>
<asrwt>0</asrwt>
<pdfrwt beam="1">  1        2 0.31139721E-01 0.40769053E+03</pdfrwt>
<pdfrwt beam="2">  1       -2 0.27232684E-01 0.40769053E+03</pdfrwt>
<totfact> 0.20679497E+03</totfact>
</mgrwt>
</event>
<event>
 4    1  0.6239849E-005  0.4676121E+03  0.7818608E-02  0.1022596E+00
          2   -1    0    0  501    0  0.00000000000E+00  0.00000000000E+00  0.10450834864E+04  0.10450834864E+04  0.25500000000E-02 0.  1.
         -2   -1    0    0    0  501 -0.00000000000E+00 -0.00000000000E+00 -0.52307076041E+02  0.52307076103E+02  0.25500000000E-02 0. -1.
    5000001    1    1    2    0    0 -0.13436446671E+03  0.27444376416E+01  0.41308783676E+03  0.47333593011E+03  0.18800000000E+03 0.  0.
   -5000001    1    1    2    0    0  0.13436446671E+03 -0.27444376416E+01  0.57968857355E+03  0.62405463235E+03  0.18800000000E+03 0.  0.
<mgrwt>
<rscale>  0 0.46761207E+03</rscale>
<asrwt>0</asrwt>
<pdfrwt beam="1">  1        2 0.14929765E+00 0.46761207E+03</pdfrwt>
<pdfrwt beam="2">  1       -2 0.74724389E-02 0.46761207E+03</pdfrwt>
<totfact> 0.28938903E+03</totfact>
</mgrwt>
</event>
<event>
 4    1  0.6239849E-005  0.7491282E+03  0.7818608E-02  0.9636719E-01
          2   -1    0    0  501    0  0.00000000000E+00  0.00000000000E+00  0.56549552757E+03  0.56549552757E+03  0.25500000000E-02 0.  1.
         -2   -1    0    0    0  501 -0.00000000000E+00 -0.00000000000E+00 -0.24809790025E+03  0.24809790026E+03  0.25500000000E-02 0. -1.
    5000001    1    1    2    0    0 -0.14573434800E+03  0.27329786758E+03  0.55529264947E+02  0.36654839227E+03  0.18800000000E+03 0.  0.
   -5000001    1    1    2    0    0  0.14573434800E+03 -0.27329786758E+03  0.26186836237E+03  0.44704503556E+03  0.18800000000E+03 0.  0.
<mgrwt>
<rscale>  0 0.74912817E+03</rscale>
<asrwt>0</asrwt>
<pdfrwt beam="1">  1        2 0.80785075E-01 0.74912817E+03</pdfrwt>
<pdfrwt beam="2">  1       -2 0.35442557E-01 0.74912817E+03</pdfrwt>
<totfact> 0.43737408E+02</totfact>
</mgrwt>
</event>
<event>
 4    1  0.6239849E-005  0.5749317E+03  0.7818608E-02  0.9958824E-01
         -2   -1    0    0    0  501 -0.00000000000E+00  0.00000000000E+00  0.33119461754E+02  0.33119461852E+02  0.25500000000E-02 0. -1.
          2   -1    0    0  501    0  0.00000000000E+00 -0.00000000000E+00 -0.24951073102E+04  0.24951073102E+04  0.25500000000E-02 0.  1.
    5000001    1    1    2    0    0  0.10567435795E+03 -0.17417884924E+03 -0.89646271102E+03  0.93834680886E+03  0.18800000000E+03 0.  0.
   -5000001    1    1    2    0    0 -0.10567435795E+03  0.17417884924E+03 -0.15655251374E+04  0.15898799632E+04  0.18800000000E+03 0.  0.
<mgrwt>
<rscale>  0 0.57493169E+03</rscale>
<asrwt>0</asrwt>
<pdfrwt beam="1">  1        2 0.35644378E+00 0.57493169E+03</pdfrwt>
<pdfrwt beam="2">  1       -2 0.47313533E-02 0.57493169E+03</pdfrwt>
<totfact> 0.10424112E+03</totfact>
</mgrwt>
</event>
<event>
 4    1  0.6239849E-005  0.4949918E+03  0.7818608E-02  0.1015094E+00
         -2   -1    0    0    0  501 -0.00000000000E+00  0.00000000000E+00  0.24425729904E+02  0.24425730037E+02  0.25500000000E-02 0. -1.
          2   -1    0    0  501    0  0.00000000000E+00 -0.00000000000E+00 -0.25077745513E+04  0.25077745513E+04  0.25500000000E-02 0.  1.
    5000001    1    1    2    0    0  0.13855296963E+03 -0.18628747949E+02 -0.83350307070E+03  0.86580328280E+03  0.18800000000E+03 0.  0.
   -5000001    1    1    2    0    0 -0.13855296963E+03  0.18628747949E+02 -0.16498457507E+04  0.16663969985E+04  0.18800000000E+03 0.  0.
<mgrwt>
<rscale>  0 0.49499181E+03</rscale>
<asrwt>0</asrwt>
<pdfrwt beam="1">  1        2 0.35825334E+00 0.49499181E+03</pdfrwt>
<pdfrwt beam="2">  1       -2 0.34893916E-02 0.49499181E+03</pdfrwt>
<totfact> 0.16470475E+03</totfact>
</mgrwt>
</event>
<event>
 4    1  0.6239849E-005  0.4451043E+03  0.7818608E-02  0.1029192E+00
         -2   -1    0    0    0  501 -0.00000000000E+00  0.00000000000E+00  0.10804644034E+03  0.10804644037E+03  0.25500000000E-02 0. -1.
          2   -1    0    0  501    0  0.00000000000E+00 -0.00000000000E+00 -0.45840896696E+03  0.45840896697E+03  0.25500000000E-02 0.  1.
    5000001    1    1    2    0    0 -0.97380401612E+02 -0.39227834469E+02 -0.10359972770E+03  0.23895327827E+03  0.18800000000E+03 0.  0.
   -5000001    1    1    2    0    0  0.97380401612E+02  0.39227834469E+02 -0.24676279892E+03  0.32750212907E+03  0.18800000000E+03 0.  0.
<mgrwt>
<rscale>  0 0.44510429E+03</rscale>
<asrwt>0</asrwt>
<pdfrwt beam="1">  1        2 0.65486994E-01 0.44510429E+03</pdfrwt>
<pdfrwt beam="2">  1       -2 0.15435206E-01 0.44510429E+03</pdfrwt>
<totfact> 0.24513881E+03</totfact>
</mgrwt>
</event>
<event>
 4    1  0.6239849E-005  0.8013796E+03  0.7818608E-02  0.9558022E-01
          2   -1    0    0  501    0  0.00000000000E+00  0.00000000000E+00  0.43254553342E+03  0.43254553343E+03  0.25500000000E-02 0.  1.
         -2   -1    0    0    0  501 -0.00000000000E+00 -0.00000000000E+00 -0.37118018916E+03  0.37118018917E+03  0.25500000000E-02 0. -1.
    5000001    1    1    2    0    0 -0.31475821705E+03 -0.13234303985E+03  0.12380338824E+03  0.40897273055E+03  0.18800000000E+03 0.  0.
   -5000001    1    1    2    0    0  0.31475821705E+03  0.13234303985E+03 -0.62438043976E+02  0.39475299205E+03  0.18800000000E+03 0.  0.
<mgrwt>
<rscale>  0 0.80137964E+03</rscale>
<asrwt>0</asrwt>
<pdfrwt beam="1">  1        2 0.61792219E-01 0.80137964E+03</pdfrwt>
<pdfrwt beam="2">  1       -2 0.53025741E-01 0.80137964E+03</pdfrwt>
<totfact> 0.26732800E+02</totfact>
</mgrwt>
</event>
<event>
 4    1  0.6239849E-005  0.4889530E+03  0.7818608E-02  0.1016703E+00
          2   -1    0    0  501    0  0.00000000000E+00  0.00000000000E+00  0.44637143066E+03  0.44637143066E+03  0.25500000000E-02 0.  1.
         -2   -1    0    0    0  501 -0.00000000000E+00 -0.00000000000E+00 -0.13389915843E+03  0.13389915846E+03  0.25500000000E-02 0. -1.
    5000001    1    1    2    0    0  0.20670368432E+02  0.14923141938E+03  0.10691083561E+03  0.26357391266E+03  0.18800000000E+03 0.  0.
   -5000001    1    1    2    0    0 -0.20670368432E+02 -0.14923141938E+03  0.20556143661E+03  0.31669667647E+03  0.18800000000E+03 0.  0.
<mgrwt>
<rscale>  0 0.48895300E+03</rscale>
<asrwt>0</asrwt>
<pdfrwt beam="1">  1        2 0.63767347E-01 0.48895300E+03</pdfrwt>
<pdfrwt beam="2">  1       -2 0.19128451E-01 0.48895300E+03</pdfrwt>
<totfact> 0.17549918E+03</totfact>
</mgrwt>
</event>
<event>
 4    1  0.6239849E-005  0.4581821E+03  0.7818608E-02  0.1025310E+00
         -2   -1    0    0    0  501 -0.00000000000E+00  0.00000000000E+00  0.11955623366E+03  0.11955623369E+03  0.25500000000E-02 0. -1.
          2   -1    0    0  501    0  0.00000000000E+00 -0.00000000000E+00 -0.43897926666E+03  0.43897926667E+03  0.25500000000E-02 0.  1.
    5000001    1    1    2    0    0  0.69308075269E+02 -0.10582135793E+03 -0.11860779036E+03  0.25576078086E+03  0.18800000000E+03 0.  0.
   -5000001    1    1    2    0    0 -0.69308075269E+02  0.10582135793E+03 -0.20081524264E+03  0.30277471950E+03  0.18800000000E+03 0.  0.
<mgrwt>
<rscale>  0 0.45818209E+03</rscale>
<asrwt>0</asrwt>
<pdfrwt beam="1">  1        2 0.62711323E-01 0.45818209E+03</pdfrwt>
<pdfrwt beam="2">  1       -2 0.17079462E-01 0.45818209E+03</pdfrwt>
<totfact> 0.21691084E+03</totfact>
</mgrwt>
</event>
<event>
 4    1  0.6239849E-005  0.5211204E+03  0.7818608E-02  0.1008409E+00
          2   -1    0    0  501    0  0.00000000000E+00  0.00000000000E+00  0.20532537469E+04  0.20532537469E+04  0.25500000000E-02 0.  1.
         -2   -1    0    0    0  501 -0.00000000000E+00 -0.00000000000E+00 -0.33065379373E+02  0.33065379471E+02  0.25500000000E-02 0. -1.
    5000001    1    1    2    0    0 -0.17344389336E+02  0.12951375812E+03  0.15080944303E+04  0.15253745285E+04  0.18800000000E+03 0.  0.
   -5000001    1    1    2    0    0  0.17344389336E+02 -0.12951375812E+03  0.51209393727E+03  0.56094459795E+03  0.18800000000E+03 0.  0.
<mgrwt>
<rscale>  0 0.52112039E+03</rscale>
<asrwt>0</asrwt>
<pdfrwt beam="1">  1        2 0.29332202E+00 0.52112039E+03</pdfrwt>
<pdfrwt beam="2">  1       -2 0.47236247E-02 0.52112039E+03</pdfrwt>
<totfact> 0.17518070E+03</totfact>
</mgrwt>
</event>
<event>
 4    1  0.6239849E-005  0.7313277E+03  0.7818608E-02  0.9665108E-01
         -2   -1    0    0    0  501 -0.00000000000E+00  0.00000000000E+00  0.54499216826E+03  0.54499216826E+03  0.25500000000E-02 0. -1.
          2   -1    0    0  501    0  0.00000000000E+00 -0.00000000000E+00 -0.24534305668E+03  0.24534305670E+03  0.25500000000E-02 0.  1.
    5000001    1    1    2    0    0  0.21036426530E+03 -0.22724238462E+03  0.20357515163E+03  0.41554670958E+03  0.18800000000E+03 0.  0.
   -5000001    1    1    2    0    0 -0.21036426530E+03  0.22724238462E+03  0.96073959946E+02  0.37478851538E+03  0.18800000000E+03 0.  0.
<mgrwt>
<rscale>  0 0.73132768E+03</rscale>
<asrwt>0</asrwt>
<pdfrwt beam="1">  1        2 0.35049008E-01 0.73132768E+03</pdfrwt>
<pdfrwt beam="2">  1       -2 0.77856024E-01 0.73132768E+03</pdfrwt>
<totfact> 0.22136737E+02</totfact>
</mgrwt>
</event>
<event>
 4    1  0.6239849E-005  0.5057285E+03  0.7818608E-02  0.1012294E+00
         -2   -1    0    0    0  501 -0.00000000000E+00  0.00000000000E+00  0.12971867573E+03  0.12971867576E+03  0.25500000000E-02 0. -1.
          2   -1    0    0  501    0  0.00000000000E+00 -0.00000000000E+00 -0.49291533525E+03  0.49291533526E+03  0.25500000000E-02 0.  1.
    5000001    1    1    2    0    0 -0.17959385331E+02 -0.16616625447E+03 -0.21328877404E+03  0.32980276648E+03  0.18800000000E+03 0.  0.
   -5000001    1    1    2    0    0  0.17959385331E+02  0.16616625447E+03 -0.14990788548E+03  0.29283124453E+03  0.18800000000E+03 0.  0.
<mgrwt>
<rscale>  0 0.50572848E+03</rscale>
<asrwt>0</asrwt>
<pdfrwt beam="1">  1        2 0.70416475E-01 0.50572848E+03</pdfrwt>
<pdfrwt beam="2">  1       -2 0.18531240E-01 0.50572848E+03</pdfrwt>
<totfact> 0.16585784E+03</totfact>
</mgrwt>
</event>
<event>
 4    1  0.6239849E-005  0.7245251E+03  0.7818608E-02  0.9676186E-01
          2   -1    0    0  501    0  0.00000000000E+00  0.00000000000E+00  0.11312735009E+04  0.11312735009E+04  0.25500000000E-02 0.  1.
         -2   -1    0    0    0  501 -0.00000000000E+00 -0.00000000000E+00 -0.11600567346E+03  0.11600567348E+03  0.25500000000E-02 0. -1.
    5000001    1    1    2    0    0 -0.14195123551E+03 -0.20633555773E+03  0.82114605960E+03  0.87883409517E+03  0.18800000000E+03 0.  0.
   -5000001    1    1    2    0    0  0.14195123551E+03  0.20633555773E+03  0.19412176785E+03  0.36844507922E+03  0.18800000000E+03 0.  0.
<mgrwt>
<rscale>  0 0.72452507E+03</rscale>
<asrwt>0</asrwt>
<pdfrwt beam="1">  1        2 0.16161050E+00 0.72452507E+03</pdfrwt>
<pdfrwt beam="2">  1       -2 0.16572239E-01 0.72452507E+03</pdfrwt>
<totfact> 0.69588235E+02</totfact>
</mgrwt>
</event>
<event>
 4    1  0.6239849E-005  0.5441963E+03  0.7818608E-02  0.1002846E+00
         -2   -1    0    0    0  501 -0.00000000000E+00  0.00000000000E+00  0.15323381636E+03  0.15323381638E+03  0.25500000000E-02 0. -1.
          2   -1    0    0  501    0  0.00000000000E+00 -0.00000000000E+00 -0.48316621018E+03  0.48316621019E+03  0.25500000000E-02 0.  1.
    5000001    1    1    2    0    0 -0.19477715062E+03 -0.20863475425E+02 -0.14404745496E+03  0.30735499392E+03  0.18800000000E+03 0.  0.
   -5000001    1    1    2    0    0  0.19477715062E+03  0.20863475425E+02 -0.18588493886E+03  0.32904503264E+03  0.18800000000E+03 0.  0.
<mgrwt>
<rscale>  0 0.54419630E+03</rscale>
<asrwt>0</asrwt>
<pdfrwt beam="1">  1        2 0.69023743E-01 0.54419630E+03</pdfrwt>
<pdfrwt beam="2">  1       -2 0.21890545E-01 0.54419630E+03</pdfrwt>
<totfact> 0.12699068E+03</totfact>
</mgrwt>
</event>
<event>
 4    1  0.6239849E-005  0.8032222E+03  0.7818608E-02  0.9555365E-01
         -2   -1    0    0    0  501 -0.00000000000E+00  0.00000000000E+00  0.67054504091E+02  0.67054504140E+02  0.25500000000E-02 0. -1.
          2   -1    0    0  501    0  0.00000000000E+00 -0.00000000000E+00 -0.24053786659E+04  0.24053786659E+04  0.25500000000E-02 0.  1.
    5000001    1    1    2    0    0  0.18982609071E+02 -0.34863915189E+03 -0.97356365814E+03  0.10512277556E+04  0.18800000000E+03 0.  0.
   -5000001    1    1    2    0    0 -0.18982609071E+02  0.34863915189E+03 -0.13647605037E+04  0.14212054144E+04  0.18800000000E+03 0.  0.
<mgrwt>
<rscale>  0 0.80322220E+03</rscale>
<asrwt>0</asrwt>
<pdfrwt beam="1">  1        2 0.34362547E+00 0.80322220E+03</pdfrwt>
<pdfrwt beam="2">  1       -2 0.95792164E-02 0.80322220E+03</pdfrwt>
<totfact> 0.37323657E+02</totfact>
</mgrwt>
</event>
<event>
 4    1  0.6239849E-005  0.5499903E+03  0.7818608E-02  0.1001496E+00
          2   -1    0    0  501    0  0.00000000000E+00  0.00000000000E+00  0.11575955630E+04  0.11575955630E+04  0.25500000000E-02 0.  1.
         -2   -1    0    0    0  501 -0.00000000000E+00 -0.00000000000E+00 -0.65327079709E+02  0.65327079758E+02  0.25500000000E-02 0. -1.
    5000001    1    1    2    0    0  0.63971385883E+02 -0.18644713458E+03  0.46224284872E+03  0.53653268624E+03  0.18800000000E+03 0.  0.
   -5000001    1    1    2    0    0 -0.63971385883E+02  0.18644713458E+03  0.63002563457E+03  0.68638995653E+03  0.18800000000E+03 0.  0.
<mgrwt>
<rscale>  0 0.54999032E+03</rscale>
<asrwt>0</asrwt>
<pdfrwt beam="1">  1        2 0.16537078E+00 0.54999032E+03</pdfrwt>
<pdfrwt beam="2">  1       -2 0.93324410E-02 0.54999032E+03</pdfrwt>
<totfact> 0.17475883E+03</totfact>
</mgrwt>
</event>
<event>
 4    1  0.6239849E-005  0.5431104E+03  0.7818608E-02  0.1003101E+00
         -2   -1    0    0    0  501 -0.00000000000E+00  0.00000000000E+00  0.11889965571E+03  0.11889965573E+03  0.25500000000E-02 0. -1.
          2   -1    0    0  501    0  0.00000000000E+00 -0.00000000000E+00 -0.62020543881E+03  0.62020543882E+03  0.25500000000E-02 0.  1.
    5000001    1    1    2    0    0  0.46943235829E+02  0.18257619847E+03 -0.17786864586E+03  0.32018586917E+03  0.18800000000E+03 0.  0.
   -5000001    1    1    2    0    0 -0.46943235829E+02 -0.18257619847E+03 -0.32343713725E+03  0.41891922538E+03  0.18800000000E+03 0.  0.
<mgrwt>
<rscale>  0 0.54311035E+03</rscale>
<asrwt>0</asrwt>
<pdfrwt beam="1">  1        2 0.88600775E-01 0.54311035E+03</pdfrwt>
<pdfrwt beam="2">  1       -2 0.16985665E-01 0.54311035E+03</pdfrwt>
<totfact> 0.14770386E+03</totfact>
</mgrwt>
</event>
<event>
 4    1  0.6239849E-005  0.4696076E+03  0.7818608E-02  0.1022031E+00
         -2   -1    0    0    0  501 -0.00000000000E+00  0.00000000000E+00  0.36706192039E+02  0.36706192127E+02  0.25500000000E-02 0. -1.
          2   -1    0    0  501    0  0.00000000000E+00 -0.00000000000E+00 -0.15020034422E+04  0.15020034422E+04  0.25500000000E-02 0.  1.
    5000001    1    1    2    0    0  0.87067695306E+02  0.90719710095E+02 -0.93930685622E+03  0.96615331056E+03  0.18800000000E+03 0.  0.
   -5000001    1    1    2    0    0 -0.87067695306E+02 -0.90719710095E+02 -0.52599039390E+03  0.57255632373E+03  0.18800000000E+03 0.  0.
<mgrwt>
<rscale>  0 0.46960761E+03</rscale>
<asrwt>0</asrwt>
<pdfrwt beam="1">  1        2 0.21457188E+00 0.46960761E+03</pdfrwt>
<pdfrwt beam="2">  1       -2 0.52437427E-02 0.46960761E+03</pdfrwt>
<totfact> 0.28315249E+03</totfact>
</mgrwt>
</event>
<event>
 4    1  0.6239849E-005  0.9523202E+03  0.7818608E-02  0.9362443E-01
          2   -1    0    0  501    0  0.00000000000E+00  0.00000000000E+00  0.26278180845E+04  0.26278180845E+04  0.25500000000E-02 0.  1.
         -2   -1    0    0    0  501 -0.00000000000E+00 -0.00000000000E+00 -0.86280117118E+02  0.86280117156E+02  0.25500000000E-02 0. -1.
    5000001    1    1    2    0    0 -0.32842563124E+03 -0.27623759019E+03  0.10287072588E+04  0.11303774705E+04  0.18800000000E+03 0.  0.
   -5000001    1    1    2    0    0  0.32842563124E+03  0.27623759019E+03  0.15128307086E+04  0.15837207311E+04  0.18800000000E+03 0.  0.
<mgrwt>
<rscale>  0 0.95232022E+03</rscale>
<asrwt>0</asrwt>
<pdfrwt beam="1">  1        2 0.37540250E+00 0.95232022E+03</pdfrwt>
<pdfrwt beam="2">  1       -2 0.12325734E-01 0.95232022E+03</pdfrwt>
<totfact> 0.18672778E+02</totfact>
</mgrwt>
</event>
<event>
 4    1  0.6239849E-005  0.2308492E+04  0.7818608E-02  0.8474580E-01
         -2   -1    0    0    0  501 -0.00000000000E+00  0.00000000000E+00  0.67235612527E+03  0.67235612527E+03  0.25500000000E-02 0. -1.
          2   -1    0    0  501    0  0.00000000000E+00 -0.00000000000E+00 -0.19815147039E+04  0.19815147039E+04  0.25500000000E-02 0.  1.
    5000001    1    1    2    0    0 -0.37695077250E+03 -0.98268223239E+03 -0.15455299374E+03  0.10802716707E+04  0.18800000000E+03 0.  0.
   -5000001    1    1    2    0    0  0.37695077250E+03  0.98268223239E+03 -0.11546055849E+04  0.15735991584E+04  0.18800000000E+03 0.  0.
<mgrwt>
<rscale>  0 0.23084918E+04</rscale>
<asrwt>0</asrwt>
<pdfrwt beam="1">  1        2 0.28307353E+00 0.23084918E+04</pdfrwt>
<pdfrwt beam="2">  1       -2 0.96050876E-01 0.23084918E+04</pdfrwt>
<totfact> 0.67837271E+00</totfact>
</mgrwt>
</event>
<event>
 4    1  0.6239849E-005  0.5358925E+03  0.7818608E-02  0.1004813E+00
         -2   -1    0    0    0  501 -0.00000000000E+00  0.00000000000E+00  0.24998520185E+03  0.24998520186E+03  0.25500000000E-02 0. -1.
          2   -1    0    0  501    0  0.00000000000E+00 -0.00000000000E+00 -0.28719777889E+03  0.28719777891E+03  0.25500000000E-02 0.  1.
    5000001    1    1    2    0    0 -0.17121859300E+03 -0.51687752512E+02 -0.85578585067E+02  0.27323089974E+03  0.18800000000E+03 0.  0.
   -5000001    1    1    2    0    0  0.17121859300E+03  0.51687752512E+02  0.48366008025E+02  0.26395208103E+03  0.18800000000E+03 0.  0.
<mgrwt>
<rscale>  0 0.53589251E+03</rscale>
<asrwt>0</asrwt>
<pdfrwt beam="1">  1        2 0.41028254E-01 0.53589251E+03</pdfrwt>
<pdfrwt beam="2">  1       -2 0.35712172E-01 0.53589251E+03</pdfrwt>
<totfact> 0.92511983E+02</totfact>
</mgrwt>
</event>
<event>
 4    1  0.6239849E-005  0.4743824E+03  0.7818608E-02  0.1020691E+00
          2   -1    0    0  501    0  0.00000000000E+00  0.00000000000E+00  0.58343493432E+03  0.58343493433E+03  0.25500000000E-02 0.  1.
         -2   -1    0    0    0  501 -0.00000000000E+00 -0.00000000000E+00 -0.96428331587E+02  0.96428331621E+02  0.25500000000E-02 0. -1.
    5000001    1    1    2    0    0 -0.48133639137E+02 -0.13609352568E+03  0.25610873897E+03  0.34896128887E+03  0.18800000000E+03 0.  0.
   -5000001    1    1    2    0    0  0.48133639137E+02  0.13609352568E+03  0.23089786376E+03  0.33090197708E+03  0.18800000000E+03 0.  0.
<mgrwt>
<rscale>  0 0.47438237E+03</rscale>
<asrwt>0</asrwt>
<pdfrwt beam="1">  1        2 0.83347850E-01 0.47438237E+03</pdfrwt>
<pdfrwt beam="2">  1       -2 0.13775476E-01 0.47438237E+03</pdfrwt>
<totfact> 0.22554711E+03</totfact>
</mgrwt>
</event>
<event>
 4    1  0.6239849E-005  0.4226922E+03  0.7818608E-02  0.1036194E+00
          2   -1    0    0  501    0  0.00000000000E+00  0.00000000000E+00  0.30960944102E+03  0.30960944103E+03  0.25500000000E-02 0.  1.
         -2   -1    0    0    0  501 -0.00000000000E+00 -0.00000000000E+00 -0.14426944831E+03  0.14426944833E+03  0.25500000000E-02 0. -1.
    5000001    1    1    2    0    0 -0.21332164583E+02  0.31201761855E+02 -0.12736951224E+02  0.19218439353E+03  0.18800000000E+03 0.  0.
   -5000001    1    1    2    0    0  0.21332164583E+02 -0.31201761855E+02  0.17807694394E+03  0.26169449584E+03  0.18800000000E+03 0.  0.
<mgrwt>
<rscale>  0 0.42269224E+03</rscale>
<asrwt>0</asrwt>
<pdfrwt beam="1">  1        2 0.44229920E-01 0.42269224E+03</pdfrwt>
<pdfrwt beam="2">  1       -2 0.20609921E-01 0.42269224E+03</pdfrwt>
<totfact> 0.23033309E+03</totfact>
</mgrwt>
</event>
<event>
 4    1  0.6239849E-005  0.7268737E+03  0.7818608E-02  0.9672347E-01
          2   -1    0    0  501    0  0.00000000000E+00  0.00000000000E+00  0.28196073684E+03  0.28196073685E+03  0.25500000000E-02 0.  1.
         -2   -1    0    0    0  501 -0.00000000000E+00 -0.00000000000E+00 -0.46845654184E+03  0.46845654184E+03  0.25500000000E-02 0. -1.
    5000001    1    1    2    0    0 -0.19725509328E+03 -0.10662549560E+03  0.12928854104E+03  0.31990325879E+03  0.18800000000E+03 0.  0.
   -5000001    1    1    2    0    0  0.19725509328E+03  0.10662549560E+03 -0.31578434603E+03  0.43051401991E+03  0.18800000000E+03 0.  0.
<mgrwt>
<rscale>  0 0.72687372E+03</rscale>
<asrwt>0</asrwt>
<pdfrwt beam="1">  1        2 0.40280105E-01 0.72687372E+03</pdfrwt>
<pdfrwt beam="2">  1       -2 0.66922363E-01 0.72687372E+03</pdfrwt>
<totfact> 0.26430038E+02</totfact>
</mgrwt>
</event>
<event>
 4    1  0.6239849E-005  0.5670961E+03  0.7818608E-02  0.9976125E-01
         -2   -1    0    0    0  501 -0.00000000000E+00  0.00000000000E+00  0.40310564029E+03  0.40310564029E+03  0.25500000000E-02 0. -1.
          2   -1    0    0  501    0  0.00000000000E+00 -0.00000000000E+00 -0.19945016325E+03  0.19945016326E+03  0.25500000000E-02 0.  1.
    5000001    1    1    2    0    0  0.10618322251E+03  0.14607465468E+03 -0.16694481513E+02  0.26121904064E+03  0.18800000000E+03 0.  0.
   -5000001    1    1    2    0    0 -0.10618322251E+03 -0.14607465468E+03  0.22034995855E+03  0.34133676291E+03  0.18800000000E+03 0.  0.
<mgrwt>
<rscale>  0 0.56709606E+03</rscale>
<asrwt>0</asrwt>
<pdfrwt beam="1">  1        2 0.28492880E-01 0.56709606E+03</pdfrwt>
<pdfrwt beam="2">  1       -2 0.57586520E-01 0.56709606E+03</pdfrwt>
<totfact> 0.53705599E+02</totfact>
</mgrwt>
</event>
<event>
 4    1  0.6239849E-005  0.1585850E+04  0.7818608E-02  0.8829288E-01
          2   -1    0    0  501    0  0.00000000000E+00  0.00000000000E+00  0.16316378305E+04  0.16316378305E+04  0.25500000000E-02 0.  1.
         -2   -1    0    0    0  501 -0.00000000000E+00 -0.00000000000E+00 -0.38533680653E+03  0.38533680654E+03  0.25500000000E-02 0. -1.
    5000001    1    1    2    0    0 -0.73099146184E+03  0.39341428059E+02  0.92810419534E+03  0.11969200736E+04  0.18800000000E+03 0.  0.
   -5000001    1    1    2    0    0  0.73099146184E+03 -0.39341428059E+02  0.31819682865E+03  0.82005456344E+03  0.18800000000E+03 0.  0.
<mgrwt>
<rscale>  0 0.15858501E+04</rscale>
<asrwt>0</asrwt>
<pdfrwt beam="1">  1        2 0.23309112E+00 0.15858501E+04</pdfrwt>
<pdfrwt beam="2">  1       -2 0.55048116E-01 0.15858501E+04</pdfrwt>
<totfact> 0.37168286E+01</totfact>
</mgrwt>
</event>
<event>
 4    1  0.6239849E-005  0.4477152E+03  0.7818608E-02  0.1028406E+00
         -2   -1    0    0    0  501 -0.00000000000E+00  0.00000000000E+00  0.99491530978E+02  0.99491531011E+02  0.25500000000E-02 0. -1.
          2   -1    0    0  501    0  0.00000000000E+00 -0.00000000000E+00 -0.50368341534E+03  0.50368341534E+03  0.25500000000E-02 0.  1.
    5000001    1    1    2    0    0 -0.70815608869E+02  0.92411422518E+02 -0.24902734889E+03  0.33303654749E+03  0.18800000000E+03 0.  0.
   -5000001    1    1    2    0    0  0.70815608869E+02 -0.92411422518E+02 -0.15516453547E+03  0.27013839886E+03  0.18800000000E+03 0.  0.
<mgrwt>
<rscale>  0 0.44771524E+03</rscale>
<asrwt>0</asrwt>
<pdfrwt beam="1">  1        2 0.71954772E-01 0.44771524E+03</pdfrwt>
<pdfrwt beam="2">  1       -2 0.14213076E-01 0.44771524E+03</pdfrwt>
<totfact> 0.25317768E+03</totfact>
</mgrwt>
</event>
<event>
 4    1  0.6239849E-005  0.6172243E+03  0.7818608E-02  0.9870302E-01
         -2   -1    0    0    0  501 -0.00000000000E+00  0.00000000000E+00  0.18241064938E+03  0.18241064940E+03  0.25500000000E-02 0. -1.
          2   -1    0    0  501    0  0.00000000000E+00 -0.00000000000E+00 -0.52212662294E+03  0.52212662295E+03  0.25500000000E-02 0.  1.
    5000001    1    1    2    0    0 -0.14018723977E+03  0.41745297532E+02 -0.39383551008E+03  0.46026681508E+03  0.18800000000E+03 0.  0.
   -5000001    1    1    2    0    0  0.14018723977E+03 -0.41745297532E+02  0.54119536518E+02  0.24427045727E+03  0.18800000000E+03 0.  0.
<mgrwt>
<rscale>  0 0.61722429E+03</rscale>
<asrwt>0</asrwt>
<pdfrwt beam="1">  1        2 0.74589517E-01 0.61722429E+03</pdfrwt>
<pdfrwt beam="2">  1       -2 0.26058665E-01 0.61722429E+03</pdfrwt>
<totfact> 0.85157887E+02</totfact>
</mgrwt>
</event>
<event>
 4    1  0.6239849E-005  0.5794506E+03  0.7818608E-02  0.9948981E-01
         -2   -1    0    0    0  501 -0.00000000000E+00  0.00000000000E+00  0.16182982305E+04  0.16182982305E+04  0.25500000000E-02 0. -1.
          2   -1    0    0  501    0  0.00000000000E+00 -0.00000000000E+00 -0.51869763981E+02  0.51869764044E+02  0.25500000000E-02 0.  1.
    5000001    1    1    2    0    0  0.70421903836E+02  0.19087585098E+03  0.53857395955E+03  0.60563912104E+03  0.18800000000E+03 0.  0.
   -5000001    1    1    2    0    0 -0.70421903836E+02 -0.19087585098E+03  0.10278545069E+04  0.10645288735E+04  0.18800000000E+03 0.  0.
<mgrwt>
<rscale>  0 0.57945059E+03</rscale>
<asrwt>0</asrwt>
<pdfrwt beam="1">  1        2 0.74099659E-02 0.57945059E+03</pdfrwt>
<pdfrwt beam="2">  1       -2 0.23118547E+00 0.57945059E+03</pdfrwt>
<totfact> 0.85184560E+01</totfact>
</mgrwt>
</event>
<event>
 4    1  0.6239849E-005  0.1057271E+04  0.7818608E-02  0.9247869E-01
          2   -1    0    0  501    0  0.00000000000E+00  0.00000000000E+00  0.44050539425E+04  0.44050539425E+04  0.25500000000E-02 0.  1.
         -2   -1    0    0    0  501 -0.00000000000E+00 -0.00000000000E+00 -0.63439749290E+02  0.63439749341E+02  0.25500000000E-02 0. -1.
    5000001    1    1    2    0    0 -0.39424125843E+03  0.29106710259E+03  0.19046657964E+04  0.19756624266E+04  0.18800000000E+03 0.  0.
   -5000001    1    1    2    0    0  0.39424125843E+03 -0.29106710259E+03  0.24369483969E+04  0.24928312652E+04  0.18800000000E+03 0.  0.
<mgrwt>
<rscale>  0 0.10572710E+04</rscale>
<asrwt>0</asrwt>
<pdfrwt beam="1">  1        2 0.62929367E+00 0.10572710E+04</pdfrwt>
<pdfrwt beam="2">  1       -2 0.90628178E-02 0.10572710E+04</pdfrwt>
<totfact> 0.24508989E+01</totfact>
</mgrwt>
</event>
<event>
 4    1  0.6239849E-005  0.1048293E+04  0.7818608E-02  0.9257108E-01
          2   -1    0    0  501    0  0.00000000000E+00  0.00000000000E+00  0.44768314797E+03  0.44768314798E+03  0.25500000000E-02 0.  1.
         -2   -1    0    0    0  501 -0.00000000000E+00 -0.00000000000E+00 -0.61367012676E+03  0.61367012676E+03  0.25500000000E-02 0. -1.
    5000001    1    1    2    0    0 -0.17893622273E+03 -0.38992034595E+03  0.15515967939E+03  0.49343142796E+03  0.18800000000E+03 0.  0.
   -5000001    1    1    2    0    0  0.17893622273E+03  0.38992034595E+03 -0.32114665817E+03  0.56792184678E+03  0.18800000000E+03 0.  0.
<mgrwt>
<rscale>  0 0.10482934E+04</rscale>
<asrwt>0</asrwt>
<pdfrwt beam="1">  1        2 0.63954736E-01 0.10482934E+04</pdfrwt>
<pdfrwt beam="2">  1       -2 0.87667161E-01 0.10482934E+04</pdfrwt>
<totfact> 0.85241770E+01</totfact>
</mgrwt>
</event>
<event>
 4    1  0.6239849E-005  0.4640837E+03  0.7818608E-02  0.1023603E+00
         -2   -1    0    0    0  501 -0.00000000000E+00  0.00000000000E+00  0.22142664574E+03  0.22142664575E+03  0.25500000000E-02 0. -1.
          2   -1    0    0  501    0  0.00000000000E+00 -0.00000000000E+00 -0.24316592211E+03  0.24316592213E+03  0.25500000000E-02 0.  1.
    5000001    1    1    2    0    0 -0.30066714840E+01  0.46408492848E+02  0.11708532969E+03  0.22630899830E+03  0.18800000000E+03 0.  0.
   -5000001    1    1    2    0    0  0.30066714840E+01 -0.46408492848E+02 -0.13882460607E+03  0.23828356958E+03  0.18800000000E+03 0.  0.
<mgrwt>
<rscale>  0 0.46408368E+03</rscale>
<asrwt>0</asrwt>
<pdfrwt beam="1">  1        2 0.34737989E-01 0.46408368E+03</pdfrwt>
<pdfrwt beam="2">  1       -2 0.31632378E-01 0.46408368E+03</pdfrwt>
<totfact> 0.13950480E+03</totfact>
</mgrwt>
</event>
<event>
 4    1  0.6239849E-005  0.5732159E+03  0.7818608E-02  0.9962588E-01
          2   -1    0    0  501    0  0.00000000000E+00  0.00000000000E+00  0.98258257185E+03  0.98258257185E+03  0.25500000000E-02 0.  1.
         -2   -1    0    0    0  501 -0.00000000000E+00 -0.00000000000E+00 -0.83600206880E+02  0.83600206919E+02  0.25500000000E-02 0. -1.
    5000001    1    1    2    0    0  0.90456708023E+02 -0.13036700342E+03  0.72299459379E+03  0.76370357748E+03  0.18800000000E+03 0.  0.
   -5000001    1    1    2    0    0 -0.90456708023E+02  0.13036700342E+03  0.17598777117E+03  0.30247920128E+03  0.18800000000E+03 0.  0.
<mgrwt>
<rscale>  0 0.57321586E+03</rscale>
<asrwt>0</asrwt>
<pdfrwt beam="1">  1        2 0.14036892E+00 0.57321586E+03</pdfrwt>
<pdfrwt beam="2">  1       -2 0.11942888E-01 0.57321586E+03</pdfrwt>
<totfact> 0.14830251E+03</totfact>
</mgrwt>
</event>
<event>
 4    1  0.6239849E-005  0.4988393E+03  0.7818608E-02  0.1014082E+00
          2   -1    0    0  501    0  0.00000000000E+00  0.00000000000E+00  0.29568190080E+03  0.29568190082E+03  0.25500000000E-02 0.  1.
         -2   -1    0    0    0  501 -0.00000000000E+00 -0.00000000000E+00 -0.21039553614E+03  0.21039553616E+03  0.25500000000E-02 0. -1.
    5000001    1    1    2    0    0 -0.43644270250E+02 -0.15090198226E+03 -0.48324348893E+01  0.24503792156E+03  0.18800000000E+03 0.  0.
   -5000001    1    1    2    0    0  0.43644270250E+02  0.15090198226E+03  0.90118799549E+02  0.26103951541E+03  0.18800000000E+03 0.  0.
<mgrwt>
<rscale>  0 0.49883926E+03</rscale>
<asrwt>0</asrwt>
<pdfrwt beam="1">  1        2 0.42240271E-01 0.49883926E+03</pdfrwt>
<pdfrwt beam="2">  1       -2 0.30056506E-01 0.49883926E+03</pdfrwt>
<totfact> 0.12366245E+03</totfact>
</mgrwt>
</event>
<event>
 4    1  0.6239849E-005  0.4344785E+03  0.7818608E-02  0.1032455E+00
         -2   -1    0    0    0  501 -0.00000000000E+00  0.00000000000E+00  0.17054702790E+03  0.17054702792E+03  0.25500000000E-02 0. -1.
          2   -1    0    0  501    0  0.00000000000E+00 -0.00000000000E+00 -0.27671486834E+03  0.27671486835E+03  0.25500000000E-02 0.  1.
    5000001    1    1    2    0    0 -0.98390240253E+02 -0.43971379628E+02 -0.68857168740E+02  0.22737508942E+03  0.18800000000E+03 0.  0.
   -5000001    1    1    2    0    0  0.98390240253E+02  0.43971379628E+02 -0.37310671695E+02  0.21988680685E+03  0.18800000000E+03 0.  0.
<mgrwt>
<rscale>  0 0.43447853E+03</rscale>
<asrwt>0</asrwt>
<pdfrwt beam="1">  1        2 0.39530696E-01 0.43447853E+03</pdfrwt>
<pdfrwt beam="2">  1       -2 0.24363861E-01 0.43447853E+03</pdfrwt>
<totfact> 0.19420088E+03</totfact>
</mgrwt>
</event>
<event>
 4    1  0.6239849E-005  0.5232825E+03  0.7818608E-02  0.1007874E+00
         -2   -1    0    0    0  501 -0.00000000000E+00  0.00000000000E+00  0.47893600504E+03  0.47893600505E+03  0.25500000000E-02 0. -1.
          2   -1    0    0  501    0  0.00000000000E+00 -0.00000000000E+00 -0.14293382552E+03  0.14293382554E+03  0.25500000000E-02 0.  1.
    5000001    1    1    2    0    0 -0.42438101459E+01  0.17970870847E+03  0.13441059511E+03  0.29278565180E+03  0.18800000000E+03 0.  0.
   -5000001    1    1    2    0    0  0.42438101459E+01 -0.17970870847E+03  0.20159158442E+03  0.32908417879E+03  0.18800000000E+03 0.  0.
<mgrwt>
<rscale>  0 0.52328254E+03</rscale>
<asrwt>0</asrwt>
<pdfrwt beam="1">  1        2 0.20419118E-01 0.52328254E+03</pdfrwt>
<pdfrwt beam="2">  1       -2 0.68419430E-01 0.52328254E+03</pdfrwt>
<totfact> 0.54611804E+02</totfact>
</mgrwt>
</event>
<event>
 4    1  0.6239849E-005  0.8049982E+03  0.7818608E-02  0.9552810E-01
         -2   -1    0    0    0  501 -0.00000000000E+00  0.00000000000E+00  0.12223068129E+03  0.12223068131E+03  0.25500000000E-02 0.  1.
          2   -1    0    0  501    0  0.00000000000E+00 -0.00000000000E+00 -0.13254080774E+04  0.13254080774E+04  0.25500000000E-02 0. -1.
    5000001    1    1    2    0    0 -0.35359446298E+02  0.20936226281E+03 -0.87954852527E+02  0.29692238651E+03  0.18800000000E+03 0.  0.
   -5000001    1    1    2    0    0  0.35359446298E+02 -0.20936226281E+03 -0.11152225436E+04  0.11507163722E+04  0.18800000000E+03 0.  0.
<mgrwt>
<rscale>  0 0.80499822E+03</rscale>
<asrwt>0</asrwt>
<pdfrwt beam="1">  1        2 0.18934400E+00 0.80499822E+03</pdfrwt>
<pdfrwt beam="2">  1       -2 0.17461527E-01 0.80499822E+03</pdfrwt>
<totfact> 0.49349775E+02</totfact>
</mgrwt>
</event>
<event>
 4    1  0.6239849E-005  0.5447849E+03  0.7818608E-02  0.1002708E+00
          2   -1    0    0  501    0  0.00000000000E+00  0.00000000000E+00  0.66795433347E+03  0.66795433348E+03  0.25500000000E-02 0.  1.
         -2   -1    0    0    0  501 -0.00000000000E+00 -0.00000000000E+00 -0.11108191671E+03  0.11108191674E+03  0.25500000000E-02 0. -1.
    5000001    1    1    2    0    0 -0.12840417579E+03  0.10234550788E+03  0.43437326108E+03  0.50098539429E+03  0.18800000000E+03 0.  0.
   -5000001    1    1    2    0    0  0.12840417579E+03 -0.10234550788E+03  0.12249915568E+03  0.27805085593E+03  0.18800000000E+03 0.  0.
<mgrwt>
<rscale>  0 0.54478490E+03</rscale>
<asrwt>0</asrwt>
<pdfrwt beam="1">  1        2 0.95422049E-01 0.54478490E+03</pdfrwt>
<pdfrwt beam="2">  1       -2 0.15868845E-01 0.54478490E+03</pdfrwt>
<totfact> 0.15173733E+03</totfact>
</mgrwt>
</event>
<event>
 4    1  0.6239849E-005  0.6755979E+03  0.7818608E-02  0.9759898E-01
          2   -1    0    0  501    0  0.00000000000E+00  0.00000000000E+00  0.27593684266E+03  0.27593684267E+03  0.25500000000E-02 0.  1.
         -2   -1    0    0    0  501 -0.00000000000E+00 -0.00000000000E+00 -0.41352994280E+03  0.41352994281E+03  0.25500000000E-02 0. -1.
    5000001    1    1    2    0    0  0.27163789678E+03 -0.49582770185E+02 -0.17581193086E+02  0.33451262520E+03  0.18800000000E+03 0.  0.
   -5000001    1    1    2    0    0 -0.27163789678E+03  0.49582770185E+02 -0.12001190706E+03  0.35495416028E+03  0.18800000000E+03 0.  0.
<mgrwt>
<rscale>  0 0.67559795E+03</rscale>
<asrwt>0</asrwt>
<pdfrwt beam="1">  1        2 0.39419549E-01 0.67559795E+03</pdfrwt>
<pdfrwt beam="2">  1       -2 0.59075706E-01 0.67559795E+03</pdfrwt>
<totfact> 0.35351766E+02</totfact>
</mgrwt>
</event>
<event>
 4    1  0.6239849E-005  0.5763463E+03  0.7818608E-02  0.9955733E-01
         -2   -1    0    0    0  501 -0.00000000000E+00  0.00000000000E+00  0.27585783320E+03  0.27585783321E+03  0.25500000000E-02 0. -1.
          2   -1    0    0  501    0  0.00000000000E+00 -0.00000000000E+00 -0.30103830696E+03  0.30103830697E+03  0.25500000000E-02 0.  1.
    5000001    1    1    2    0    0 -0.11233912342E+03  0.18358600793E+03  0.24537924738E+02  0.28682749295E+03  0.18800000000E+03 0.  0.
   -5000001    1    1    2    0    0  0.11233912342E+03 -0.18358600793E+03 -0.49718398499E+02  0.29006864723E+03  0.18800000000E+03 0.  0.
<mgrwt>
<rscale>  0 0.57634634E+03</rscale>
<asrwt>0</asrwt>
<pdfrwt beam="1">  1        2 0.43005472E-01 0.57634634E+03</pdfrwt>
<pdfrwt beam="2">  1       -2 0.39408262E-01 0.57634634E+03</pdfrwt>
<totfact> 0.72713739E+02</totfact>
</mgrwt>
</event>
<event>
 4    1  0.6239849E-005  0.7140727E+03  0.7818608E-02  0.9693464E-01
         -2   -1    0    0    0  501 -0.00000000000E+00  0.00000000000E+00  0.13010414817E+03  0.13010414820E+03  0.25500000000E-02 0. -1.
          2   -1    0    0  501    0  0.00000000000E+00 -0.00000000000E+00 -0.97979153753E+03  0.97979153753E+03  0.25500000000E-02 0.  1.
    5000001    1    1    2    0    0  0.29067885484E+03 -0.71383773121E+02 -0.34649153969E+03  0.49496487430E+03  0.18800000000E+03 0.  0.
   -5000001    1    1    2    0    0 -0.29067885484E+03  0.71383773121E+02 -0.50319584967E+03  0.61493081143E+03  0.18800000000E+03 0.  0.
<mgrwt>
<rscale>  0 0.71407267E+03</rscale>
<asrwt>0</asrwt>
<pdfrwt beam="1">  1        2 0.13997021E+00 0.71407267E+03</pdfrwt>
<pdfrwt beam="2">  1       -2 0.18586308E-01 0.71407267E+03</pdfrwt>
<totfact> 0.70402489E+02</totfact>
</mgrwt>
</event>
<event>
 4    1  0.6239849E-005  0.6086399E+03  0.7818608E-02  0.9887641E-01
         -2   -1    0    0    0  501 -0.00000000000E+00  0.00000000000E+00  0.11422475010E+04  0.11422475010E+04  0.25500000000E-02 0. -1.
          2   -1    0    0  501    0  0.00000000000E+00 -0.00000000000E+00 -0.81077541996E+02  0.81077542036E+02  0.25500000000E-02 0.  1.
    5000001    1    1    2    0    0  0.69668604105E+02 -0.22883727770E+03  0.54427698736E+03  0.62353961625E+03  0.18800000000E+03 0.  0.
   -5000001    1    1    2    0    0 -0.69668604105E+02  0.22883727770E+03  0.51689297168E+03  0.59978542682E+03  0.18800000000E+03 0.  0.
<mgrwt>
<rscale>  0 0.60863986E+03</rscale>
<asrwt>0</asrwt>
<pdfrwt beam="1">  1        2 0.11582507E-01 0.60863986E+03</pdfrwt>
<pdfrwt beam="2">  1       -2 0.16317821E+00 0.60863986E+03</pdfrwt>
<totfact> 0.13413575E+02</totfact>
</mgrwt>
</event>
<event>
 4    1  0.6239849E-005  0.4787732E+03  0.7818608E-02  0.1019473E+00
          2   -1    0    0  501    0  0.00000000000E+00  0.00000000000E+00  0.85841939684E+03  0.85841939684E+03  0.25500000000E-02 0.  1.
         -2   -1    0    0    0  501 -0.00000000000E+00 -0.00000000000E+00 -0.66757525555E+02  0.66757525604E+02  0.25500000000E-02 0. -1.
    5000001    1    1    2    0    0  0.14569721816E+03 -0.20896278421E+02  0.42916795107E+03  0.49111451216E+03  0.18800000000E+03 0.  0.
   -5000001    1    1    2    0    0 -0.14569721816E+03  0.20896278421E+02  0.36249392022E+03  0.43406241029E+03  0.18800000000E+03 0.  0.
<mgrwt>
<rscale>  0 0.47877324E+03</rscale>
<asrwt>0</asrwt>
<pdfrwt beam="1">  1        2 0.12263134E+00 0.47877324E+03</pdfrwt>
<pdfrwt beam="2">  1       -2 0.95367899E-02 0.47877324E+03</pdfrwt>
<totfact> 0.25640955E+03</totfact>
</mgrwt>
</event>
<event>
 4    1  0.6239849E-005  0.4377016E+03  0.7818608E-02  0.1031454E+00
         -2   -1    0    0    0  501 -0.00000000000E+00  0.00000000000E+00  0.20212343760E+02  0.20212343921E+02  0.25500000000E-02 0. -1.
          2   -1    0    0  501    0  0.00000000000E+00 -0.00000000000E+00 -0.23696247492E+04  0.23696247492E+04  0.25500000000E-02 0.  1.
    5000001    1    1    2    0    0  0.10761044585E+03  0.14220413748E+02 -0.13261592844E+04  0.13438097618E+04  0.18800000000E+03 0.  0.
   -5000001    1    1    2    0    0 -0.10761044585E+03 -0.14220413748E+02 -0.10232531210E+04  0.10460273314E+04  0.18800000000E+03 0.  0.
<mgrwt>
<rscale>  0 0.43770159E+03</rscale>
<asrwt>0</asrwt>
<pdfrwt beam="1">  1        2 0.33851764E+00 0.43770159E+03</pdfrwt>
<pdfrwt beam="2">  1       -2 0.28874792E-02 0.43770159E+03</pdfrwt>
<totfact> 0.25858473E+03</totfact>
</mgrwt>
</event>
<event>
 4    1  0.6239849E-005  0.4130479E+03  0.7818608E-02  0.1039353E+00
          2   -1    0    0  501    0  0.00000000000E+00  0.00000000000E+00  0.15760664424E+03  0.15760664426E+03  0.25500000000E-02 0.  1.
         -2   -1    0    0    0  501 -0.00000000000E+00 -0.00000000000E+00 -0.27062400893E+03  0.27062400894E+03  0.25500000000E-02 0. -1.
    5000001    1    1    2    0    0  0.38878197003E+01  0.23961798584E+02 -0.14149031993E+03  0.23654342850E+03  0.18800000000E+03 0.  0.
   -5000001    1    1    2    0    0 -0.38878197003E+01 -0.23961798584E+02  0.28472955239E+02  0.19168722470E+03  0.18800000000E+03 0.  0.
<mgrwt>
<rscale>  0 0.41304790E+03</rscale>
<asrwt>0</asrwt>
<pdfrwt beam="1">  1        2 0.22515235E-01 0.41304790E+03</pdfrwt>
<pdfrwt beam="2">  1       -2 0.38660573E-01 0.41304790E+03</pdfrwt>
<totfact> 0.15538394E+03</totfact>
</mgrwt>
</event>
<event>
 4    1  0.6239849E-005  0.1136980E+04  0.7818608E-02  0.9169880E-01
          2   -1    0    0  501    0  0.00000000000E+00  0.00000000000E+00  0.22828317144E+04  0.22828317144E+04  0.25500000000E-02 0.  1.
         -2   -1    0    0    0  501 -0.00000000000E+00 -0.00000000000E+00 -0.14157014907E+03  0.14157014909E+03  0.25500000000E-02 0. -1.
    5000001    1    1    2    0    0  0.13530507883E+03 -0.45775172502E+03  0.15929080180E+04  0.16734826142E+04  0.18800000000E+03 0.  0.
   -5000001    1    1    2    0    0 -0.13530507883E+03  0.45775172502E+03  0.54835354727E+03  0.75091924927E+03  0.18800000000E+03 0.  0.
<mgrwt>
<rscale>  0 0.11369799E+04</rscale>
<asrwt>0</asrwt>
<pdfrwt beam="1">  1        2 0.32611879E+00 0.11369799E+04</pdfrwt>
<pdfrwt beam="2">  1       -2 0.20224308E-01 0.11369799E+04</pdfrwt>
<totfact> 0.11932275E+02</totfact>
</mgrwt>
</event>
<event>
 4    1  0.6239849E-005  0.8984219E+03  0.7818608E-02  0.9427556E-01
         -2   -1    0    0    0  501 -0.00000000000E+00  0.00000000000E+00  0.17712091818E+04  0.17712091818E+04  0.25500000000E-02 0. -1.
          2   -1    0    0  501    0  0.00000000000E+00 -0.00000000000E+00 -0.11392808062E+03  0.11392808065E+03  0.25500000000E-02 0.  1.
    5000001    1    1    2    0    0 -0.36639709268E+03  0.32933584890E+02  0.45851620670E+03  0.61718114224E+03  0.18800000000E+03 0.  0.
   -5000001    1    1    2    0    0  0.36639709268E+03 -0.32933584890E+02  0.11987648945E+04  0.12679561202E+04  0.18800000000E+03 0.  0.
<mgrwt>
<rscale>  0 0.89842187E+03</rscale>
<asrwt>0</asrwt>
<pdfrwt beam="1">  1        2 0.16275440E-01 0.89842187E+03</pdfrwt>
<pdfrwt beam="2">  1       -2 0.25302988E+00 0.89842187E+03</pdfrwt>
<totfact> 0.22735231E+01</totfact>
</mgrwt>
</event>
<event>
 4    1  0.6239849E-005  0.5825996E+03  0.7818608E-02  0.9942179E-01
          2   -1    0    0  501    0  0.00000000000E+00  0.00000000000E+00  0.52265833565E+03  0.52265833566E+03  0.25500000000E-02 0.  1.
         -2   -1    0    0    0  501 -0.00000000000E+00 -0.00000000000E+00 -0.16235379081E+03  0.16235379083E+03  0.25500000000E-02 0. -1.
    5000001    1    1    2    0    0  0.10360591067E+02 -0.15823631451E+03 -0.33813653984E+01  0.24597054033E+03  0.18800000000E+03 0.  0.
   -5000001    1    1    2    0    0 -0.10360591067E+02  0.15823631451E+03  0.36368591024E+03  0.43904158616E+03  0.18800000000E+03 0.  0.
<mgrwt>
<rscale>  0 0.58259956E+03</rscale>
<asrwt>0</asrwt>
<pdfrwt beam="1">  1        2 0.74665478E-01 0.58259956E+03</pdfrwt>
<pdfrwt beam="2">  1       -2 0.23193398E-01 0.58259956E+03</pdfrwt>
<totfact> 0.10483866E+03</totfact>
</mgrwt>
</event>
<event>
 4    1  0.6239849E-005  0.7038500E+03  0.7818608E-02  0.9710671E-01
         -2   -1    0    0    0  501 -0.00000000000E+00  0.00000000000E+00  0.15102224766E+03  0.15102224768E+03  0.25500000000E-02 0.  1.
          2   -1    0    0  501    0  0.00000000000E+00 -0.00000000000E+00 -0.82008586509E+03  0.82008586509E+03  0.25500000000E-02 0. -1.
    5000001    1    1    2    0    0  0.13023026446E+03  0.26654456161E+03 -0.36542267168E+03  0.50683691073E+03  0.18800000000E+03 0.  0.
   -5000001    1    1    2    0    0 -0.13023026446E+03 -0.26654456161E+03 -0.30364094575E+03  0.46427120204E+03  0.18800000000E+03 0.  0.
<mgrwt>
<rscale>  0 0.70385001E+03</rscale>
<asrwt>0</asrwt>
<pdfrwt beam="1">  1        2 0.11715512E+00 0.70385001E+03</pdfrwt>
<pdfrwt beam="2">  1       -2 0.21574607E-01 0.70385001E+03</pdfrwt>
<totfact> 0.68937912E+02</totfact>
</mgrwt>
</event>
<event>
 4    1  0.6239849E-005  0.5965934E+03  0.7818608E-02  0.9912499E-01
         -2   -1    0    0    0  501 -0.00000000000E+00  0.00000000000E+00  0.47748532984E+02  0.47748533052E+02  0.25500000000E-02 0. -1.
          2   -1    0    0  501    0  0.00000000000E+00 -0.00000000000E+00 -0.18635319382E+04  0.18635319382E+04  0.25500000000E-02 0.  1.
    5000001    1    1    2    0    0  0.22367678854E+03 -0.11885780590E+02 -0.10964545672E+04  0.11347815629E+04  0.18800000000E+03 0.  0.
   -5000001    1    1    2    0    0 -0.22367678854E+03  0.11885780590E+02 -0.71932883801E+03  0.77649890837E+03  0.18800000000E+03 0.  0.
<mgrwt>
<rscale>  0 0.59659338E+03</rscale>
<asrwt>0</asrwt>
<pdfrwt beam="1">  1        2 0.26621880E+00 0.59659338E+03</pdfrwt>
<pdfrwt beam="2">  1       -2 0.68212202E-02 0.59659338E+03</pdfrwt>
<totfact> 0.12250995E+03</totfact>
</mgrwt>
</event>
<event>
 4    1  0.6239849E-005  0.5496590E+03  0.7818608E-02  0.1001573E+00
         -2   -1    0    0    0  501 -0.00000000000E+00  0.00000000000E+00  0.53789694668E+03  0.53789694668E+03  0.25500000000E-02 0. -1.
          2   -1    0    0  501    0  0.00000000000E+00 -0.00000000000E+00 -0.14041958448E+03  0.14041958450E+03  0.25500000000E-02 0.  1.
    5000001    1    1    2    0    0  0.10611952811E+02 -0.19949505786E+03  0.21925444520E+03  0.35118001565E+03  0.18800000000E+03 0.  0.
   -5000001    1    1    2    0    0 -0.10611952811E+02  0.19949505786E+03  0.17822291700E+03  0.32713651554E+03  0.18800000000E+03 0.  0.
<mgrwt>
<rscale>  0 0.54965904E+03</rscale>
<asrwt>0</asrwt>
<pdfrwt beam="1">  1        2 0.20059940E-01 0.54965904E+03</pdfrwt>
<pdfrwt beam="2">  1       -2 0.76842422E-01 0.54965904E+03</pdfrwt>
<totfact> 0.43242165E+02</totfact>
</mgrwt>
</event>
<event>
 4    1  0.6239849E-005  0.4194571E+03  0.7818608E-02  0.1037243E+00
          2   -1    0    0  501    0  0.00000000000E+00  0.00000000000E+00  0.19280680950E+03  0.19280680952E+03  0.25500000000E-02 0.  1.
         -2   -1    0    0    0  501 -0.00000000000E+00 -0.00000000000E+00 -0.22813542672E+03  0.22813542674E+03  0.25500000000E-02 0. -1.
    5000001    1    1    2    0    0 -0.29301137205E+01  0.70424485358E+02 -0.78491372634E+02  0.21557617977E+03  0.18800000000E+03 0.  0.
   -5000001    1    1    2    0    0  0.29301137205E+01 -0.70424485358E+02  0.43162755410E+02  0.20536605649E+03  0.18800000000E+03 0.  0.
<mgrwt>
<rscale>  0 0.41945710E+03</rscale>
<asrwt>0</asrwt>
<pdfrwt beam="1">  1        2 0.27543830E-01 0.41945710E+03</pdfrwt>
<pdfrwt beam="2">  1       -2 0.32590775E-01 0.41945710E+03</pdfrwt>
<totfact> 0.17069839E+03</totfact>
</mgrwt>
</event>
<event>
 4    1  0.6239849E-005  0.1118246E+04  0.7818608E-02  0.9187588E-01
         -2   -1    0    0    0  501 -0.00000000000E+00  0.00000000000E+00  0.81567837166E+02  0.81567837206E+02  0.25500000000E-02 0. -1.
          2   -1    0    0  501    0  0.00000000000E+00 -0.00000000000E+00 -0.38326204874E+04  0.38326204874E+04  0.25500000000E-02 0.  1.
    5000001    1    1    2    0    0  0.12789710951E+02 -0.51812245721E+03 -0.22012624739E+04  0.22692542688E+04  0.18800000000E+03 0.  0.
   -5000001    1    1    2    0    0 -0.12789710951E+02  0.51812245721E+03 -0.15497901764E+04  0.16449340558E+04  0.18800000000E+03 0.  0.
<mgrwt>
<rscale>  0 0.11182461E+04</rscale>
<asrwt>0</asrwt>
<pdfrwt beam="1">  1        2 0.54751710E+00 0.11182461E+04</pdfrwt>
<pdfrwt beam="2">  1       -2 0.11652551E-01 0.11182461E+04</pdfrwt>
<totfact> 0.40595452E+01</totfact>
</mgrwt>
</event>
<event>
 4    1  0.6239849E-005  0.5999221E+03  0.7818608E-02  0.9905568E-01
          2   -1    0    0  501    0  0.00000000000E+00  0.00000000000E+00  0.22638686810E+04  0.22638686810E+04  0.25500000000E-02 0. -1.
         -2   -1    0    0    0  501 -0.00000000000E+00 -0.00000000000E+00 -0.39744628420E+02  0.39744628501E+02  0.25500000000E-02 0.  1.
    5000001    1    1    2    0    0 -0.21432595451E+03 -0.87090925376E+02  0.98400558770E+03  0.10281689748E+04  0.18800000000E+03 0.  0.
   -5000001    1    1    2    0    0  0.21432595451E+03  0.87090925376E+02  0.12401184649E+04  0.12754443348E+04  0.18800000000E+03 0.  0.
<mgrwt>
<rscale>  0 0.59992206E+03</rscale>
<asrwt>0</asrwt>
<pdfrwt beam="1">  1        2 0.32340975E+00 0.59992206E+03</pdfrwt>
<pdfrwt beam="2">  1       -2 0.56778051E-02 0.59992206E+03</pdfrwt>
<totfact> 0.10275596E+03</totfact>
</mgrwt>
</event>
<event>
 4    1  0.6239849E-005  0.4824663E+03  0.7818608E-02  0.1018460E+00
         -2   -1    0    0    0  501 -0.00000000000E+00  0.00000000000E+00  0.47051436475E+02  0.47051436544E+02  0.25500000000E-02 0.  1.
          2   -1    0    0  501    0  0.00000000000E+00 -0.00000000000E+00 -0.12368043900E+04  0.12368043900E+04  0.25500000000E-02 0. -1.
    5000001    1    1    2    0    0  0.35287716471E+02 -0.10150270644E+03 -0.87776507808E+03  0.90408160839E+03  0.18800000000E+03 0.  0.
   -5000001    1    1    2    0    0 -0.35287716471E+02  0.10150270644E+03 -0.31198787547E+03  0.37977421817E+03  0.18800000000E+03 0.  0.
<mgrwt>
<rscale>  0 0.48246626E+03</rscale>
<asrwt>0</asrwt>
<pdfrwt beam="1">  1        2 0.17668632E+00 0.48246626E+03</pdfrwt>
<pdfrwt beam="2">  1       -2 0.67216346E-02 0.48246626E+03</pdfrwt>
<totfact> 0.26600582E+03</totfact>
</mgrwt>
</event>
<event>
 4    1  0.6239849E-005  0.6659325E+03  0.7818608E-02  0.9777334E-01
          2   -1    0    0  501    0  0.00000000000E+00  0.00000000000E+00  0.18954283785E+04  0.18954283785E+04  0.25500000000E-02 0.  1.
         -2   -1    0    0    0  501 -0.00000000000E+00 -0.00000000000E+00 -0.58491543385E+02  0.58491543441E+02  0.25500000000E-02 0. -1.
    5000001    1    1    2    0    0  0.65615454724E+02  0.20166285742E+03  0.40563453931E+03  0.49482994599E+03  0.18800000000E+03 0.  0.
   -5000001    1    1    2    0    0 -0.65615454724E+02 -0.20166285742E+03  0.14313022958E+04  0.14590899760E+04  0.18800000000E+03 0.  0.
<mgrwt>
<rscale>  0 0.66593252E+03</rscale>
<asrwt>0</asrwt>
<pdfrwt beam="1">  1        2 0.27077548E+00 0.66593252E+03</pdfrwt>
<pdfrwt beam="2">  1       -2 0.83559348E-02 0.66593252E+03</pdfrwt>
<totfact> 0.85197073E+02</totfact>
</mgrwt>
</event>
<event>
 4    1  0.6239849E-005  0.1035405E+04  0.7818608E-02  0.9270543E-01
          2   -1    0    0  501    0  0.00000000000E+00  0.00000000000E+00  0.28119245741E+04  0.28119245741E+04  0.25500000000E-02 0.  1.
         -2   -1    0    0    0  501 -0.00000000000E+00 -0.00000000000E+00 -0.95314047522E+02  0.95314047556E+02  0.25500000000E-02 0. -1.
    5000001    1    1    2    0    0  0.28786929164E+03  0.13378217609E+03  0.33853611846E+03  0.50071658971E+03  0.18800000000E+03 0.  0.
   -5000001    1    1    2    0    0 -0.28786929164E+03 -0.13378217609E+03  0.23780744081E+04  0.24065220320E+04  0.18800000000E+03 0.  0.
<mgrwt>
<rscale>  0 0.10354051E+04</rscale>
<asrwt>0</asrwt>
<pdfrwt beam="1">  1        2 0.40170347E+00 0.10354051E+04</pdfrwt>
<pdfrwt beam="2">  1       -2 0.13616294E-01 0.10354051E+04</pdfrwt>
<totfact> 0.12525187E+02</totfact>
</mgrwt>
</event>
<event>
 4    1  0.6239849E-005  0.4718857E+03  0.7818608E-02  0.1021389E+00
         -2   -1    0    0    0  501 -0.00000000000E+00  0.00000000000E+00  0.75161395581E+03  0.75161395581E+03  0.25500000000E-02 0. -1.
          2   -1    0    0  501    0  0.00000000000E+00 -0.00000000000E+00 -0.74065999446E+02  0.74065999490E+02  0.25500000000E-02 0.  1.
    5000001    1    1    2    0    0  0.29285365561E+02  0.13244288853E+03  0.26197853747E+03  0.34982210544E+03  0.18800000000E+03 0.  0.
   -5000001    1    1    2    0    0 -0.29285365561E+02 -0.13244288853E+03  0.41556941889E+03  0.47585784986E+03  0.18800000000E+03 0.  0.
<mgrwt>
<rscale>  0 0.47188574E+03</rscale>
<asrwt>0</asrwt>
<pdfrwt beam="1">  1        2 0.10580857E-01 0.47188574E+03</pdfrwt>
<pdfrwt beam="2">  1       -2 0.10737342E+00 0.47188574E+03</pdfrwt>
<totfact> 0.43530696E+02</totfact>
</mgrwt>
</event>
<event>
 4    1  0.6239849E-005  0.7740370E+03  0.7818608E-02  0.9598377E-01
          2   -1    0    0  501    0  0.00000000000E+00  0.00000000000E+00  0.10773506588E+04  0.10773506588E+04  0.25500000000E-02 0.  1.
         -2   -1    0    0    0  501 -0.00000000000E+00 -0.00000000000E+00 -0.13902930748E+03  0.13902930751E+03  0.25500000000E-02 0. -1.
    5000001    1    1    2    0    0  0.16377199236E+03 -0.29469720885E+03  0.42550856568E+03  0.57451653575E+03  0.18800000000E+03 0.  0.
   -5000001    1    1    2    0    0 -0.16377199236E+03  0.29469720885E+03  0.51281278565E+03  0.64186343057E+03  0.18800000000E+03 0.  0.
<mgrwt>
<rscale>  0 0.77403699E+03</rscale>
<asrwt>0</asrwt>
<pdfrwt beam="1">  1        2 0.15390724E+00 0.77403699E+03</pdfrwt>
<pdfrwt beam="2">  1       -2 0.19861330E-01 0.77403699E+03</pdfrwt>
<totfact> 0.54629828E+02</totfact>
</mgrwt>
</event>
<event>
 4    1  0.6239849E-005  0.9635100E+03  0.7818608E-02  0.9349497E-01
          2   -1    0    0  501    0  0.00000000000E+00  0.00000000000E+00  0.15863208289E+04  0.15863208289E+04  0.25500000000E-02 0.  1.
         -2   -1    0    0    0  501 -0.00000000000E+00 -0.00000000000E+00 -0.14630577684E+03  0.14630577686E+03  0.25500000000E-02 0. -1.
    5000001    1    1    2    0    0 -0.98819542130E+02  0.40040909749E+03  0.42644085931E+03  0.62232511901E+03  0.18800000000E+03 0.  0.
   -5000001    1    1    2    0    0  0.98819542130E+02 -0.40040909749E+03  0.10135741927E+04  0.11103014867E+04  0.18800000000E+03 0.  0.
<mgrwt>
<rscale>  0 0.96351004E+03</rscale>
<asrwt>0</asrwt>
<pdfrwt beam="1">  1        2 0.22661726E+00 0.96351004E+03</pdfrwt>
<pdfrwt beam="2">  1       -2 0.20900825E-01 0.96351004E+03</pdfrwt>
<totfact> 0.25972166E+02</totfact>
</mgrwt>
</event>
<event>
 4    1  0.6239849E-005  0.5295796E+03  0.7818608E-02  0.1006334E+00
         -2   -1    0    0    0  501 -0.00000000000E+00  0.00000000000E+00  0.18944553819E+03  0.18944553821E+03  0.25500000000E-02 0. -1.
          2   -1    0    0  501    0  0.00000000000E+00 -0.00000000000E+00 -0.37009923375E+03  0.37009923376E+03  0.25500000000E-02 0.  1.
    5000001    1    1    2    0    0  0.60407277430E+02 -0.17429093802E+03 -0.11913260434E+03  0.28907256469E+03  0.18800000000E+03 0.  0.
   -5000001    1    1    2    0    0 -0.60407277430E+02  0.17429093802E+03 -0.61521091222E+02  0.27047220727E+03  0.18800000000E+03 0.  0.
<mgrwt>
<rscale>  0 0.52957964E+03</rscale>
<asrwt>0</asrwt>
<pdfrwt beam="1">  1        2 0.52871319E-01 0.52957964E+03</pdfrwt>
<pdfrwt beam="2">  1       -2 0.27063648E-01 0.52957964E+03</pdfrwt>
<totfact> 0.11702509E+03</totfact>
</mgrwt>
</event>
<event>
 4    1  0.6239849E-005  0.6206194E+03  0.7818608E-02  0.9863527E-01
          2   -1    0    0  501    0  0.00000000000E+00  0.00000000000E+00  0.16304942706E+03  0.16304942708E+03  0.25500000000E-02 0.  1.
         -2   -1    0    0    0  501 -0.00000000000E+00 -0.00000000000E+00 -0.59056999771E+03  0.59056999771E+03  0.25500000000E-02 0. -1.
    5000001    1    1    2    0    0 -0.18516253798E+03 -0.15473074187E+03 -0.15041453131E+03  0.34087431581E+03  0.18800000000E+03 0.  0.
   -5000001    1    1    2    0    0  0.18516253798E+03  0.15473074187E+03 -0.27710603933E+03  0.41274510898E+03  0.18800000000E+03 0.  0.
<mgrwt>
<rscale>  0 0.62061937E+03</rscale>
<asrwt>0</asrwt>
<pdfrwt beam="1">  1        2 0.23292776E-01 0.62061937E+03</pdfrwt>
<pdfrwt beam="2">  1       -2 0.84367141E-01 0.62061937E+03</pdfrwt>
<totfact> 0.29451502E+02</totfact>
</mgrwt>
</event>
<event>
 4    1  0.6239849E-005  0.5626743E+03  0.7818608E-02  0.9986022E-01
         -2   -1    0    0    0  501 -0.00000000000E+00  0.00000000000E+00  0.21359200284E+03  0.21359200286E+03  0.25500000000E-02 0. -1.
          2   -1    0    0  501    0  0.00000000000E+00 -0.00000000000E+00 -0.37056906891E+03  0.37056906892E+03  0.25500000000E-02 0.  1.
    5000001    1    1    2    0    0 -0.13527841614E+03  0.15239649483E+03 -0.12807919128E+03  0.30540664817E+03  0.18800000000E+03 0.  0.
   -5000001    1    1    2    0    0  0.13527841614E+03 -0.15239649483E+03 -0.28897874792E+02  0.27875442360E+03  0.18800000000E+03 0.  0.
<mgrwt>
<rscale>  0 0.56267429E+03</rscale>
<asrwt>0</asrwt>
<pdfrwt beam="1">  1        2 0.52938439E-01 0.56267429E+03</pdfrwt>
<pdfrwt beam="2">  1       -2 0.30513143E-01 0.56267429E+03</pdfrwt>
<totfact> 0.93801131E+02</totfact>
</mgrwt>
</event>
<event>
 4    1  0.6239849E-005  0.7945849E+03  0.7818608E-02  0.9567889E-01
         -2   -1    0    0    0  501 -0.00000000000E+00  0.00000000000E+00  0.52002405962E+02  0.52002406025E+02  0.25500000000E-02 0. -1.
          2   -1    0    0  501    0  0.00000000000E+00 -0.00000000000E+00 -0.30352686240E+04  0.30352686240E+04  0.25500000000E-02 0.  1.
    5000001    1    1    2    0    0  0.87108718608E+02  0.31074031293E+03 -0.96531277551E+03  0.10350460016E+04  0.18800000000E+03 0.  0.
   -5000001    1    1    2    0    0 -0.87108718608E+02 -0.31074031293E+03 -0.20179534425E+04  0.20522250283E+04  0.18800000000E+03 0.  0.
<mgrwt>
<rscale>  0 0.79458485E+03</rscale>
<asrwt>0</asrwt>
<pdfrwt beam="1">  1        2 0.43360969E+00 0.79458485E+03</pdfrwt>
<pdfrwt beam="2">  1       -2 0.74289171E-02 0.79458485E+03</pdfrwt>
<totfact> 0.26057575E+02</totfact>
</mgrwt>
</event>
<event>
 4    1  0.6239849E-005  0.1199789E+04  0.7818608E-02  0.9113041E-01
          2   -1    0    0  501    0  0.00000000000E+00  0.00000000000E+00  0.98201548296E+03  0.98201548297E+03  0.25500000000E-02 0.  1.
         -2   -1    0    0    0  501 -0.00000000000E+00 -0.00000000000E+00 -0.36646433243E+03  0.36646433244E+03  0.25500000000E-02 0. -1.
    5000001    1    1    2    0    0  0.55026845954E+03  0.13380173989E+03  0.23820650356E+03  0.64248316827E+03  0.18800000000E+03 0.  0.
   -5000001    1    1    2    0    0 -0.55026845954E+03 -0.13380173989E+03  0.37734464698E+03  0.70599664714E+03  0.18800000000E+03 0.  0.
<mgrwt>
<rscale>  0 0.11997894E+04</rscale>
<asrwt>0</asrwt>
<pdfrwt beam="1">  1        2 0.14028793E+00 0.11997894E+04</pdfrwt>
<pdfrwt beam="2">  1       -2 0.52352047E-01 0.11997894E+04</pdfrwt>
<totfact> 0.97946330E+01</totfact>
</mgrwt>
</event>
<event>
 4    1  0.6239849E-005  0.7998091E+03  0.7818608E-02  0.9560293E-01
         -2   -1    0    0    0  501 -0.00000000000E+00  0.00000000000E+00  0.66200109956E+02  0.66200110005E+02  0.25500000000E-02 0. -1.
          2   -1    0    0  501    0  0.00000000000E+00 -0.00000000000E+00 -0.24157610973E+04  0.24157610973E+04  0.25500000000E-02 0.  1.
    5000001    1    1    2    0    0 -0.30196828610E+03  0.17905488909E+03 -0.12881277925E+04  0.13482813909E+04  0.18800000000E+03 0.  0.
   -5000001    1    1    2    0    0  0.30196828610E+03 -0.17905488909E+03 -0.10614331949E+04  0.11336798165E+04  0.18800000000E+03 0.  0.
<mgrwt>
<rscale>  0 0.79980910E+03</rscale>
<asrwt>0</asrwt>
<pdfrwt beam="1">  1        2 0.34510867E+00 0.79980910E+03</pdfrwt>
<pdfrwt beam="2">  1       -2 0.94571601E-02 0.79980910E+03</pdfrwt>
<totfact> 0.37653152E+02</totfact>
</mgrwt>
</event>
<event>
 4    1  0.6239849E-005  0.1657034E+04  0.7818608E-02  0.8786256E-01
         -2   -1    0    0    0  501 -0.00000000000E+00  0.00000000000E+00  0.59096139378E+03  0.59096139379E+03  0.25500000000E-02 0. -1.
          2   -1    0    0  501    0  0.00000000000E+00 -0.00000000000E+00 -0.11615661244E+04  0.11615661244E+04  0.25500000000E-02 0.  1.
    5000001    1    1    2    0    0  0.69317938900E+03 -0.41266022808E+03 -0.30394205588E+03  0.88233264845E+03  0.18800000000E+03 0.  0.
   -5000001    1    1    2    0    0 -0.69317938900E+03  0.41266022808E+03 -0.26666267469E+03  0.87019486970E+03  0.18800000000E+03 0.  0.
<mgrwt>
<rscale>  0 0.16570344E+04</rscale>
<asrwt>0</asrwt>
<pdfrwt beam="1">  1        2 0.16593802E+00 0.16570344E+04</pdfrwt>
<pdfrwt beam="2">  1       -2 0.84423056E-01 0.16570344E+04</pdfrwt>
<totfact> 0.26342031E+01</totfact>
</mgrwt>
</event>
<event>
 4    1  0.6239849E-005  0.6987956E+03  0.7818608E-02  0.9719294E-01
          2   -1    0    0  501    0  0.00000000000E+00  0.00000000000E+00  0.51316417606E+03  0.51316417607E+03  0.25500000000E-02 0.  1.
         -2   -1    0    0    0  501 -0.00000000000E+00 -0.00000000000E+00 -0.23789431444E+03  0.23789431445E+03  0.25500000000E-02 0. -1.
    5000001    1    1    2    0    0  0.25263168578E+03  0.80596023681E+02  0.27534379548E+03  0.42600081385E+03  0.18800000000E+03 0.  0.
   -5000001    1    1    2    0    0 -0.25263168578E+03 -0.80596023681E+02 -0.73933865666E-01  0.32505767667E+03  0.18800000000E+03 0.  0.
<mgrwt>
<rscale>  0 0.69879565E+03</rscale>
<asrwt>0</asrwt>
<pdfrwt beam="1">  1        2 0.73309166E-01 0.69879565E+03</pdfrwt>
<pdfrwt beam="2">  1       -2 0.33984903E-01 0.69879565E+03</pdfrwt>
<totfact> 0.53082623E+02</totfact>
</mgrwt>
</event>
<event>
 4    1  0.6239849E-005  0.5504669E+03  0.7818608E-02  0.1001386E+00
         -2   -1    0    0    0  501 -0.00000000000E+00  0.00000000000E+00  0.56681374897E+02  0.56681374955E+02  0.25500000000E-02 0. -1.
          2   -1    0    0  501    0  0.00000000000E+00 -0.00000000000E+00 -0.13364786633E+04  0.13364786633E+04  0.25500000000E-02 0.  1.
    5000001    1    1    2    0    0 -0.25188139514E+02 -0.14545579053E+03 -0.29457057769E+03  0.37935162397E+03  0.18800000000E+03 0.  0.
   -5000001    1    1    2    0    0  0.25188139514E+02  0.14545579053E+03 -0.98522671069E+03  0.10138084143E+04  0.18800000000E+03 0.  0.
<mgrwt>
<rscale>  0 0.55046689E+03</rscale>
<asrwt>0</asrwt>
<pdfrwt beam="1">  1        2 0.19092550E+00 0.55046689E+03</pdfrwt>
<pdfrwt beam="2">  1       -2 0.80973401E-02 0.55046689E+03</pdfrwt>
<totfact> 0.17480434E+03</totfact>
</mgrwt>
</event>
<event>
 4    1  0.6239849E-005  0.4222705E+03  0.7818608E-02  0.1036330E+00
          2   -1    0    0  501    0  0.00000000000E+00  0.00000000000E+00  0.96426095370E+03  0.96426095370E+03  0.25500000000E-02 0.  1.
         -2   -1    0    0    0  501 -0.00000000000E+00 -0.00000000000E+00 -0.46230324201E+02  0.46230324271E+02  0.25500000000E-02 0. -1.
    5000001    1    1    2    0    0  0.66658124325E+02 -0.72483243227E+01  0.29429357247E+03  0.35559604967E+03  0.18800000000E+03 0.  0.
   -5000001    1    1    2    0    0 -0.66658124325E+02  0.72483243227E+01  0.62373705703E+03  0.65489522830E+03  0.18800000000E+03 0.  0.
<mgrwt>
<rscale>  0 0.42227051E+03</rscale>
<asrwt>0</asrwt>
<pdfrwt beam="1">  1        2 0.13775155E+00 0.42227051E+03</pdfrwt>
<pdfrwt beam="2">  1       -2 0.66043327E-02 0.42227051E+03</pdfrwt>
<totfact> 0.39261499E+03</totfact>
</mgrwt>
</event>
<event>
 4    1  0.6239849E-005  0.5158489E+03  0.7818608E-02  0.1009723E+00
          2   -1    0    0  501    0  0.00000000000E+00  0.00000000000E+00  0.74691690197E+03  0.74691690198E+03  0.25500000000E-02 0.  1.
         -2   -1    0    0    0  501 -0.00000000000E+00 -0.00000000000E+00 -0.89066170286E+02  0.89066170323E+02  0.25500000000E-02 0. -1.
    5000001    1    1    2    0    0  0.11192633415E+03  0.12158897301E+03  0.22811375885E+03  0.33866099512E+03  0.18800000000E+03 0.  0.
   -5000001    1    1    2    0    0 -0.11192633415E+03 -0.12158897301E+03  0.42973697283E+03  0.49732207718E+03  0.18800000000E+03 0.  0.
<mgrwt>
<rscale>  0 0.51584892E+03</rscale>
<asrwt>0</asrwt>
<pdfrwt beam="1">  1        2 0.10670241E+00 0.51584892E+03</pdfrwt>
<pdfrwt beam="2">  1       -2 0.12723739E-01 0.51584892E+03</pdfrwt>
<totfact> 0.19142118E+03</totfact>
</mgrwt>
</event>
<event>
 4    1  0.6239849E-005  0.9330154E+03  0.7818608E-02  0.9385226E-01
         -2   -1    0    0    0  501 -0.00000000000E+00  0.00000000000E+00  0.23567233808E+03  0.23567233809E+03  0.25500000000E-02 0.  1.
          2   -1    0    0  501    0  0.00000000000E+00 -0.00000000000E+00 -0.92344069278E+03  0.92344069278E+03  0.25500000000E-02 0. -1.
    5000001    1    1    2    0    0  0.25886989443E+03 -0.29342244202E+03 -0.55608300338E+03  0.70546627019E+03  0.18800000000E+03 0.  0.
   -5000001    1    1    2    0    0 -0.25886989443E+03  0.29342244202E+03 -0.13168535131E+03  0.45364676068E+03  0.18800000000E+03 0.  0.
<mgrwt>
<rscale>  0 0.93301538E+03</rscale>
<asrwt>0</asrwt>
<pdfrwt beam="1">  1        2 0.13192010E+00 0.93301538E+03</pdfrwt>
<pdfrwt beam="2">  1       -2 0.33667478E-01 0.93301538E+03</pdfrwt>
<totfact> 0.25872885E+02</totfact>
</mgrwt>
</event>
<event>
 4    1  0.6239849E-005  0.5710070E+03  0.7818608E-02  0.9967453E-01
          2   -1    0    0  501    0  0.00000000000E+00  0.00000000000E+00  0.51649314368E+03  0.51649314368E+03  0.25500000000E-02 0.  1.
         -2   -1    0    0    0  501 -0.00000000000E+00 -0.00000000000E+00 -0.15781867325E+03  0.15781867327E+03  0.25500000000E-02 0. -1.
    5000001    1    1    2    0    0  0.19995120854E+03 -0.40960473019E+02  0.25864365925E+03  0.37933993807E+03  0.18800000000E+03 0.  0.
   -5000001    1    1    2    0    0 -0.19995120854E+03  0.40960473019E+02  0.10003081118E+03  0.29497187888E+03  0.18800000000E+03 0.  0.
<mgrwt>
<rscale>  0 0.57100705E+03</rscale>
<asrwt>0</asrwt>
<pdfrwt beam="1">  1        2 0.73784735E-01 0.57100705E+03</pdfrwt>
<pdfrwt beam="2">  1       -2 0.22545525E-01 0.57100705E+03</pdfrwt>
<totfact> 0.11175095E+03</totfact>
</mgrwt>
</event>
<event>
 4    1  0.6239849E-005  0.4937303E+03  0.7818608E-02  0.1015428E+00
          2   -1    0    0  501    0  0.00000000000E+00  0.00000000000E+00  0.55593393201E+03  0.55593393202E+03  0.25500000000E-02 0.  1.
         -2   -1    0    0    0  501 -0.00000000000E+00 -0.00000000000E+00 -0.10962164560E+03  0.10962164563E+03  0.25500000000E-02 0. -1.
    5000001    1    1    2    0    0 -0.83906852113E+02 -0.81348130172E+01  0.39846694858E+02  0.20985302977E+03  0.18800000000E+03 0.  0.
   -5000001    1    1    2    0    0  0.83906852113E+02  0.81348130172E+01  0.40646559156E+03  0.45570254787E+03  0.18800000000E+03 0.  0.
<mgrwt>
<rscale>  0 0.49373026E+03</rscale>
<asrwt>0</asrwt>
<pdfrwt beam="1">  1        2 0.79419134E-01 0.49373026E+03</pdfrwt>
<pdfrwt beam="2">  1       -2 0.15660235E-01 0.49373026E+03</pdfrwt>
<totfact> 0.19252052E+03</totfact>
</mgrwt>
</event>
<event>
 4    1  0.6239849E-005  0.6714572E+03  0.7818608E-02  0.9767329E-01
         -2   -1    0    0    0  501 -0.00000000000E+00  0.00000000000E+00  0.60953197990E+03  0.60953197991E+03  0.25500000000E-02 0. -1.
          2   -1    0    0  501    0  0.00000000000E+00 -0.00000000000E+00 -0.18491844693E+03  0.18491844695E+03  0.25500000000E-02 0.  1.
    5000001    1    1    2    0    0  0.37894079595E+02 -0.25379946061E+03  0.33929595719E+03  0.46509770376E+03  0.18800000000E+03 0.  0.
   -5000001    1    1    2    0    0 -0.37894079595E+02  0.25379946061E+03  0.85317575786E+02  0.32935272310E+03  0.18800000000E+03 0.  0.
<mgrwt>
<rscale>  0 0.67145724E+03</rscale>
<asrwt>0</asrwt>
<pdfrwt beam="1">  1        2 0.26416921E-01 0.67145724E+03</pdfrwt>
<pdfrwt beam="2">  1       -2 0.87075997E-01 0.67145724E+03</pdfrwt>
<totfact> 0.23693637E+02</totfact>
</mgrwt>
</event>
<event>
 4    1  0.6239849E-005  0.5339301E+03  0.7818608E-02  0.1005283E+00
          2   -1    0    0  501    0  0.00000000000E+00  0.00000000000E+00  0.15037479639E+04  0.15037479639E+04  0.25500000000E-02 0.  1.
         -2   -1    0    0    0  501 -0.00000000000E+00 -0.00000000000E+00 -0.47395133786E+02  0.47395133855E+02  0.25500000000E-02 0. -1.
    5000001    1    1    2    0    0 -0.98291550329E+02 -0.15008759157E+03  0.55053883049E+03  0.60878938713E+03  0.18800000000E+03 0.  0.
   -5000001    1    1    2    0    0  0.98291550329E+02  0.15008759157E+03  0.90581399961E+03  0.94235371061E+03  0.18800000000E+03 0.  0.
<mgrwt>
<rscale>  0 0.53393009E+03</rscale>
<asrwt>0</asrwt>
<pdfrwt beam="1">  1        2 0.21482120E+00 0.53393009E+03</pdfrwt>
<pdfrwt beam="2">  1       -2 0.67707315E-02 0.53393009E+03</pdfrwt>
<totfact> 0.18945407E+03</totfact>
</mgrwt>
</event>
<event>
 4    1  0.6239849E-005  0.6182730E+03  0.7818608E-02  0.9868204E-01
          2   -1    0    0  501    0  0.00000000000E+00  0.00000000000E+00  0.40768128397E+03  0.40768128398E+03  0.25500000000E-02 0.  1.
         -2   -1    0    0    0  501 -0.00000000000E+00 -0.00000000000E+00 -0.23441200002E+03  0.23441200003E+03  0.25500000000E-02 0. -1.
    5000001    1    1    2    0    0 -0.21207477538E+03  0.66998723333E+02  0.19434570140E+03  0.35011254038E+03  0.18800000000E+03 0.  0.
   -5000001    1    1    2    0    0  0.21207477538E+03 -0.66998723333E+02 -0.21076417440E+02  0.29198074363E+03  0.18800000000E+03 0.  0.
<mgrwt>
<rscale>  0 0.61827303E+03</rscale>
<asrwt>0</asrwt>
<pdfrwt beam="1">  1        2 0.58240183E-01 0.61827303E+03</pdfrwt>
<pdfrwt beam="2">  1       -2 0.33487429E-01 0.61827303E+03</pdfrwt>
<totfact> 0.70885207E+02</totfact>
</mgrwt>
</event>
<event>
 4    1  0.6239849E-005  0.4439505E+03  0.7818608E-02  0.1029542E+00
         -2   -1    0    0    0  501 -0.00000000000E+00  0.00000000000E+00  0.12082402746E+03  0.12082402748E+03  0.25500000000E-02 0. -1.
          2   -1    0    0  501    0  0.00000000000E+00 -0.00000000000E+00 -0.40780797021E+03  0.40780797022E+03  0.25500000000E-02 0.  1.
    5000001    1    1    2    0    0 -0.11007394080E+02 -0.80187160144E+02 -0.41213532762E+02  0.20879104066E+03  0.18800000000E+03 0.  0.
   -5000001    1    1    2    0    0  0.11007394080E+02  0.80187160144E+02 -0.24577040999E+03  0.31984095705E+03  0.18800000000E+03 0.  0.
<mgrwt>
<rscale>  0 0.44395045E+03</rscale>
<asrwt>0</asrwt>
<pdfrwt beam="1">  1        2 0.58258281E-01 0.44395045E+03</pdfrwt>
<pdfrwt beam="2">  1       -2 0.17260576E-01 0.44395045E+03</pdfrwt>
<totfact> 0.23106204E+03</totfact>
</mgrwt>
</event>
<event>
 4    1  0.6239849E-005  0.6093599E+03  0.7818608E-02  0.9886175E-01
         -2   -1    0    0    0  501 -0.00000000000E+00  0.00000000000E+00  0.65280436423E+02  0.65280436473E+02  0.25500000000E-02 0. -1.
          2   -1    0    0  501    0  0.00000000000E+00 -0.00000000000E+00 -0.14220169058E+04  0.14220169058E+04  0.25500000000E-02 0.  1.
    5000001    1    1    2    0    0  0.22427578810E+03  0.80780858678E+02 -0.61563052190E+03  0.68641832417E+03  0.18800000000E+03 0.  0.
   -5000001    1    1    2    0    0 -0.22427578810E+03 -0.80780858678E+02 -0.74110594747E+03  0.80087901810E+03  0.18800000000E+03 0.  0.
<mgrwt>
<rscale>  0 0.60935994E+03</rscale>
<asrwt>0</asrwt>
<pdfrwt beam="1">  1        2 0.20314525E+00 0.60935994E+03</pdfrwt>
<pdfrwt beam="2">  1       -2 0.93257775E-02 0.60935994E+03</pdfrwt>
<totfact> 0.12529912E+03</totfact>
</mgrwt>
</event>
<event>
 4    1  0.6239849E-005  0.4190416E+03  0.7818608E-02  0.1037379E+00
          2   -1    0    0  501    0  0.00000000000E+00  0.00000000000E+00  0.11956484849E+04  0.11956484849E+04  0.25500000000E-02 0.  1.
         -2   -1    0    0    0  501 -0.00000000000E+00 -0.00000000000E+00 -0.36715611047E+02  0.36715611136E+02  0.25500000000E-02 0. -1.
    5000001    1    1    2    0    0  0.71065218343E+02  0.42540171925E+02  0.45838682564E+03  0.50231704471E+03  0.18800000000E+03 0.  0.
   -5000001    1    1    2    0    0 -0.71065218343E+02 -0.42540171925E+02  0.70054604819E+03  0.73004705130E+03  0.18800000000E+03 0.  0.
<mgrwt>
<rscale>  0 0.41904160E+03</rscale>
<asrwt>0</asrwt>
<pdfrwt beam="1">  1        2 0.17080695E+00 0.41904160E+03</pdfrwt>
<pdfrwt beam="2">  1       -2 0.52450866E-02 0.41904160E+03</pdfrwt>
<totfact> 0.41200845E+03</totfact>
</mgrwt>
</event>
<event>
 4    1  0.6239849E-005  0.1026838E+04  0.7818608E-02  0.9279589E-01
          2   -1    0    0  501    0  0.00000000000E+00  0.00000000000E+00  0.73344096920E+03  0.73344096921E+03  0.25500000000E-02 0.  1.
         -2   -1    0    0    0  501 -0.00000000000E+00 -0.00000000000E+00 -0.35940070107E+03  0.35940070108E+03  0.25500000000E-02 0. -1.
    5000001    1    1    2    0    0  0.23889964014E+03 -0.99652201353E+02 -0.24035300552E+03  0.40014643139E+03  0.18800000000E+03 0.  0.
   -5000001    1    1    2    0    0 -0.23889964014E+03  0.99652201353E+02  0.61439327364E+03  0.69269523890E+03  0.18800000000E+03 0.  0.
<mgrwt>
<rscale>  0 0.10268383E+04</rscale>
<asrwt>0</asrwt>
<pdfrwt beam="1">  1        2 0.10477728E+00 0.10268383E+04</pdfrwt>
<pdfrwt beam="2">  1       -2 0.51342957E-01 0.10268383E+04</pdfrwt>
<totfact> 0.15172337E+02</totfact>
</mgrwt>
</event>
<event>
 4    1  0.6239849E-005  0.6361623E+03  0.7818608E-02  0.9833097E-01
         -2   -1    0    0    0  501 -0.00000000000E+00  0.00000000000E+00  0.30149482385E+02  0.30149482493E+02  0.25500000000E-02 0.  1.
          2   -1    0    0  501    0  0.00000000000E+00 -0.00000000000E+00 -0.33557994709E+04  0.33557994709E+04  0.25500000000E-02 0. -1.
    5000001    1    1    2    0    0 -0.13391757311E+03  0.26095587564E+02 -0.50628570197E+03  0.55703151445E+03  0.18800000000E+03 0.  0.
   -5000001    1    1    2    0    0  0.13391757311E+03 -0.26095587564E+02 -0.28193642866E+04  0.28289174390E+04  0.18800000000E+03 0.  0.
<mgrwt>
<rscale>  0 0.63616230E+03</rscale>
<asrwt>0</asrwt>
<pdfrwt beam="1">  1        2 0.47939969E+00 0.63616230E+03</pdfrwt>
<pdfrwt beam="2">  1       -2 0.43070711E-02 0.63616230E+03</pdfrwt>
<totfact> 0.41043656E+02</totfact>
</mgrwt>
</event>
<event>
 4    1  0.6239849E-005  0.9589419E+03  0.7818608E-02  0.9354759E-01
         -2   -1    0    0    0  501 -0.00000000000E+00  0.00000000000E+00  0.67395830311E+02  0.67395830359E+02  0.25500000000E-02 0. -1.
          2   -1    0    0  501    0  0.00000000000E+00 -0.00000000000E+00 -0.34110776318E+04  0.34110776318E+04  0.25500000000E-02 0.  1.
    5000001    1    1    2    0    0 -0.22372619249E+03  0.23668877127E+03 -0.59288721097E+03  0.70209274927E+03  0.18800000000E+03 0.  0.
   -5000001    1    1    2    0    0  0.22372619249E+03 -0.23668877127E+03 -0.27507945905E+04  0.27763807129E+04  0.18800000000E+03 0.  0.
<mgrwt>
<rscale>  0 0.95894194E+03</rscale>
<asrwt>0</asrwt>
<pdfrwt beam="1">  1        2 0.48729670E+00 0.95894194E+03</pdfrwt>
<pdfrwt beam="2">  1       -2 0.96279779E-02 0.95894194E+03</pdfrwt>
<totfact> 0.10303399E+02</totfact>
</mgrwt>
</event>
<event>
 4    1  0.6239849E-005  0.5981757E+03  0.7818608E-02  0.9909198E-01
         -2   -1    0    0    0  501 -0.00000000000E+00  0.00000000000E+00  0.10309740479E+03  0.10309740482E+03  0.25500000000E-02 0. -1.
          2   -1    0    0  501    0  0.00000000000E+00 -0.00000000000E+00 -0.86766031909E+03  0.86766031909E+03  0.25500000000E-02 0.  1.
    5000001    1    1    2    0    0  0.89572663766E+02  0.18278026695E+03 -0.56500786475E+03  0.62929307585E+03  0.18800000000E+03 0.  0.
   -5000001    1    1    2    0    0 -0.89572663766E+02 -0.18278026695E+03 -0.19955504954E+03  0.34146464807E+03  0.18800000000E+03 0.  0.
<mgrwt>
<rscale>  0 0.59817565E+03</rscale>
<asrwt>0</asrwt>
<pdfrwt beam="1">  1        2 0.12395147E+00 0.59817565E+03</pdfrwt>
<pdfrwt beam="2">  1       -2 0.14728201E-01 0.59817565E+03</pdfrwt>
<totfact> 0.12380597E+03</totfact>
</mgrwt>
</event>
<event>
 4    1  0.6239849E-005  0.5280284E+03  0.7818608E-02  0.1006711E+00
         -2   -1    0    0    0  501 -0.00000000000E+00  0.00000000000E+00  0.90411574081E+02  0.90411574117E+02  0.25500000000E-02 0. -1.
          2   -1    0    0  501    0  0.00000000000E+00 -0.00000000000E+00 -0.77095761886E+03  0.77095761886E+03  0.25500000000E-02 0.  1.
    5000001    1    1    2    0    0 -0.76862373111E+02 -0.16286363369E+03 -0.41188483772E+03  0.48726328317E+03  0.18800000000E+03 0.  0.
   -5000001    1    1    2    0    0  0.76862373111E+02  0.16286363369E+03 -0.26866120706E+03  0.37410590981E+03  0.18800000000E+03 0.  0.
<mgrwt>
<rscale>  0 0.52802838E+03</rscale>
<asrwt>0</asrwt>
<pdfrwt beam="1">  1        2 0.11013680E+00 0.52802838E+03</pdfrwt>
<pdfrwt beam="2">  1       -2 0.12915940E-01 0.52802838E+03</pdfrwt>
<totfact> 0.17949599E+03</totfact>
</mgrwt>
</event>
<event>
 4    1  0.6239849E-005  0.8369885E+03  0.7818608E-02  0.9507969E-01
          2   -1    0    0  501    0  0.00000000000E+00  0.00000000000E+00  0.17913689057E+03  0.17913689059E+03  0.25500000000E-02 0.  1.
         -2   -1    0    0    0  501 -0.00000000000E+00 -0.00000000000E+00 -0.97767368993E+03  0.97767368993E+03  0.25500000000E-02 0. -1.
    5000001    1    1    2    0    0 -0.12719120142E+03 -0.35159031177E+03 -0.39888796448E+03  0.57814267898E+03  0.18800000000E+03 0.  0.
   -5000001    1    1    2    0    0  0.12719120142E+03  0.35159031177E+03 -0.39964883488E+03  0.57866790154E+03  0.18800000000E+03 0.  0.
<mgrwt>
<rscale>  0 0.83698847E+03</rscale>
<asrwt>0</asrwt>
<pdfrwt beam="1">  1        2 0.25590985E-01 0.83698847E+03</pdfrwt>
<pdfrwt beam="2">  1       -2 0.13966767E+00 0.83698847E+03</pdfrwt>
<totfact> 0.77596144E+01</totfact>
</mgrwt>
</event>
<event>
 4    1  0.6239849E-005  0.7754024E+03  0.7818608E-02  0.9596320E-01
          2   -1    0    0  501    0  0.00000000000E+00  0.00000000000E+00  0.11458799766E+04  0.11458799766E+04  0.25500000000E-02 0.  1.
         -2   -1    0    0    0  501 -0.00000000000E+00 -0.00000000000E+00 -0.13117622820E+03  0.13117622823E+03  0.25500000000E-02 0. -1.
    5000001    1    1    2    0    0 -0.21381630712E+03 -0.26262589818E+03  0.47986996341E+03  0.61669194690E+03  0.18800000000E+03 0.  0.
   -5000001    1    1    2    0    0  0.21381630712E+03  0.26262589818E+03  0.53483378498E+03  0.66036425793E+03  0.18800000000E+03 0.  0.
<mgrwt>
<rscale>  0 0.77540238E+03</rscale>
<asrwt>0</asrwt>
<pdfrwt beam="1">  1        2 0.16369714E+00 0.77540238E+03</pdfrwt>
<pdfrwt beam="2">  1       -2 0.18739461E-01 0.77540238E+03</pdfrwt>
<totfact> 0.55126364E+02</totfact>
</mgrwt>
</event>
<event>
 4    1  0.6239849E-005  0.4635840E+03  0.7818608E-02  0.1023747E+00
          2   -1    0    0  501    0  0.00000000000E+00  0.00000000000E+00  0.72790430522E+03  0.72790430523E+03  0.25500000000E-02 0. -1.
         -2   -1    0    0    0  501 -0.00000000000E+00 -0.00000000000E+00 -0.73811267457E+02  0.73811267501E+02  0.25500000000E-02 0.  1.
    5000001    1    1    2    0    0  0.11658802581E+03  0.90207405650E+01  0.20836733831E+03  0.30403139509E+03  0.18800000000E+03 0.  0.
   -5000001    1    1    2    0    0 -0.11658802581E+03 -0.90207405650E+01  0.44572569945E+03  0.49768417764E+03  0.18800000000E+03 0.  0.
<mgrwt>
<rscale>  0 0.46358403E+03</rscale>
<asrwt>0</asrwt>
<pdfrwt beam="1">  1        2 0.10398634E+00 0.46358403E+03</pdfrwt>
<pdfrwt beam="2">  1       -2 0.10544466E-01 0.46358403E+03</pdfrwt>
<totfact> 0.26847609E+03</totfact>
</mgrwt>
</event>
<event>
 4    1  0.6239849E-005  0.4313558E+03  0.7818608E-02  0.1033433E+00
          2   -1    0    0  501    0  0.00000000000E+00  0.00000000000E+00  0.89494172506E+03  0.89494172506E+03  0.25500000000E-02 0.  1.
         -2   -1    0    0    0  501 -0.00000000000E+00 -0.00000000000E+00 -0.51977644881E+02  0.51977644944E+02  0.25500000000E-02 0. -1.
    5000001    1    1    2    0    0  0.99009344765E+01 -0.10412267157E+03  0.45501959871E+03  0.50331540256E+03  0.18800000000E+03 0.  0.
   -5000001    1    1    2    0    0 -0.99009344765E+01  0.10412267157E+03  0.38794448147E+03  0.44360396745E+03  0.18800000000E+03 0.  0.
<mgrwt>
<rscale>  0 0.43135583E+03</rscale>
<asrwt>0</asrwt>
<pdfrwt beam="1">  1        2 0.12784881E+00 0.43135583E+03</pdfrwt>
<pdfrwt beam="2">  1       -2 0.74253780E-02 0.43135583E+03</pdfrwt>
<totfact> 0.36113435E+03</totfact>
</mgrwt>
</event>
<event>
 4    1  0.6239849E-005  0.5944571E+03  0.7818608E-02  0.9916973E-01
         -2   -1    0    0    0  501 -0.00000000000E+00  0.00000000000E+00  0.69127071123E+02  0.69127071170E+02  0.25500000000E-02 0. -1.
          2   -1    0    0  501    0  0.00000000000E+00 -0.00000000000E+00 -0.12780059559E+04  0.12780059559E+04  0.25500000000E-02 0.  1.
    5000001    1    1    2    0    0 -0.12759431964E+03 -0.12434120899E+03 -0.93486160542E+03  0.97007797004E+03  0.18800000000E+03 0.  0.
   -5000001    1    1    2    0    0  0.12759431964E+03  0.12434120899E+03 -0.27401727938E+03  0.37705505706E+03  0.18800000000E+03 0.  0.
<mgrwt>
<rscale>  0 0.59445709E+03</rscale>
<asrwt>0</asrwt>
<pdfrwt beam="1">  1        2 0.18257227E+00 0.59445709E+03</pdfrwt>
<pdfrwt beam="2">  1       -2 0.98752966E-02 0.59445709E+03</pdfrwt>
<totfact> 0.13657399E+03</totfact>
</mgrwt>
</event>
<event>
 4    1  0.6239849E-005  0.6861968E+03  0.7818608E-02  0.9741133E-01
          2   -1    0    0  501    0  0.00000000000E+00  0.00000000000E+00  0.50698662430E+03  0.50698662431E+03  0.25500000000E-02 0.  1.
         -2   -1    0    0    0  501 -0.00000000000E+00 -0.00000000000E+00 -0.23218857338E+03  0.23218857339E+03  0.25500000000E-02 0. -1.
    5000001    1    1    2    0    0  0.17323854983E+03  0.17619086415E+03 -0.19879250940E+02  0.31111734181E+03  0.18800000000E+03 0.  0.
   -5000001    1    1    2    0    0 -0.17323854983E+03 -0.17619086415E+03  0.29467730187E+03  0.42805785589E+03  0.18800000000E+03 0.  0.
<mgrwt>
<rscale>  0 0.68619677E+03</rscale>
<asrwt>0</asrwt>
<pdfrwt beam="1">  1        2 0.72426661E-01 0.68619677E+03</pdfrwt>
<pdfrwt beam="2">  1       -2 0.33169796E-01 0.68619677E+03</pdfrwt>
<totfact> 0.56364487E+02</totfact>
</mgrwt>
</event>
<event>
 4    1  0.6239849E-005  0.4113600E+03  0.7818608E-02  0.1039916E+00
         -2   -1    0    0    0  501 -0.00000000000E+00  0.00000000000E+00  0.98543931896E+02  0.98543931929E+02  0.25500000000E-02 0. -1.
          2   -1    0    0  501    0  0.00000000000E+00 -0.00000000000E+00 -0.42929338865E+03  0.42929338865E+03  0.25500000000E-02 0.  1.
    5000001    1    1    2    0    0  0.44834244234E+02 -0.67943369238E+02 -0.14192962380E+03  0.24922766498E+03  0.18800000000E+03 0.  0.
   -5000001    1    1    2    0    0 -0.44834244234E+02  0.67943369238E+02 -0.18881983295E+03  0.27860965560E+03  0.18800000000E+03 0.  0.
<mgrwt>
<rscale>  0 0.41135998E+03</rscale>
<asrwt>0</asrwt>
<pdfrwt beam="1">  1        2 0.61327626E-01 0.41135998E+03</pdfrwt>
<pdfrwt beam="2">  1       -2 0.14077705E-01 0.41135998E+03</pdfrwt>
<totfact> 0.30705765E+03</totfact>
</mgrwt>
</event>
<event>
 4    1  0.6239849E-005  0.4319817E+03  0.7818608E-02  0.1033236E+00
          2   -1    0    0  501    0  0.00000000000E+00  0.00000000000E+00  0.20213218611E+04  0.20213218611E+04  0.25500000000E-02 0.  1.
         -2   -1    0    0    0  501 -0.00000000000E+00 -0.00000000000E+00 -0.23079972889E+02  0.23079973030E+02  0.25500000000E-02 0. -1.
    5000001    1    1    2    0    0  0.96128950198E+02  0.29648845922E+02  0.83598480404E+03  0.86274817978E+03  0.18800000000E+03 0.  0.
   -5000001    1    1    2    0    0 -0.96128950198E+02 -0.29648845922E+02  0.11622570841E+04  0.11816536543E+04  0.18800000000E+03 0.  0.
<mgrwt>
<rscale>  0 0.43198173E+03</rscale>
<asrwt>0</asrwt>
<pdfrwt beam="1">  1        2 0.28876015E+00 0.43198173E+03</pdfrwt>
<pdfrwt beam="2">  1       -2 0.32971403E-02 0.43198173E+03</pdfrwt>
<totfact> 0.31573682E+03</totfact>
</mgrwt>
</event>
<event>
 4    1  0.6239849E-005  0.4373911E+03  0.7818608E-02  0.1031550E+00
          2   -1    0    0  501    0  0.00000000000E+00  0.00000000000E+00  0.24997239837E+04  0.24997239837E+04  0.25500000000E-02 0.  1.
         -2   -1    0    0    0  501 -0.00000000000E+00 -0.00000000000E+00 -0.19133211088E+02  0.19133211258E+02  0.25500000000E-02 0. -1.
    5000001    1    1    2    0    0 -0.21984292180E+02 -0.10159181029E+03  0.14763046242E+04  0.14918523883E+04  0.18800000000E+03 0.  0.
   -5000001    1    1    2    0    0  0.21984292180E+02  0.10159181029E+03  0.10042861484E+04  0.10270048067E+04  0.18800000000E+03 0.  0.
<mgrwt>
<rscale>  0 0.43739111E+03</rscale>
<asrwt>0</asrwt>
<pdfrwt beam="1">  1        2 0.35710349E+00 0.43739111E+03</pdfrwt>
<pdfrwt beam="2">  1       -2 0.27333154E-02 0.43739111E+03</pdfrwt>
<totfact> 0.24141878E+03</totfact>
</mgrwt>
</event>
<event>
 4    1  0.6239849E-005  0.4474688E+03  0.7818608E-02  0.1028480E+00
          2   -1    0    0  501    0  0.00000000000E+00  0.00000000000E+00  0.27739939232E+04  0.27739939232E+04  0.25500000000E-02 0.  1.
         -2   -1    0    0    0  501 -0.00000000000E+00 -0.00000000000E+00 -0.18045132225E+02  0.18045132405E+02  0.25500000000E-02 0. -1.
    5000001    1    1    2    0    0 -0.76070046556E+02 -0.90752612137E+02  0.12140254159E+04  0.12341897744E+04  0.18800000000E+03 0.  0.
   -5000001    1    1    2    0    0  0.76070046556E+02  0.90752612137E+02  0.15419233751E+04  0.15578492813E+04  0.18800000000E+03 0.  0.
<mgrwt>
<rscale>  0 0.44746883E+03</rscale>
<asrwt>0</asrwt>
<pdfrwt beam="1">  1        2 0.39628475E+00 0.44746883E+03</pdfrwt>
<pdfrwt beam="2">  1       -2 0.25778767E-02 0.44746883E+03</pdfrwt>
<totfact> 0.19033702E+03</totfact>
</mgrwt>
</event>
<event>
 4    1  0.6239849E-005  0.4945151E+03  0.7818608E-02  0.1015221E+00
          2   -1    0    0  501    0  0.00000000000E+00  0.00000000000E+00  0.20773908535E+03  0.20773908537E+03  0.25500000000E-02 0.  1.
         -2   -1    0    0    0  501 -0.00000000000E+00 -0.00000000000E+00 -0.29429367269E+03  0.29429367270E+03  0.25500000000E-02 0. -1.
    5000001    1    1    2    0    0  0.14416478141E+03 -0.49477969841E+02 -0.94650376907E+02  0.25987352222E+03  0.18800000000E+03 0.  0.
   -5000001    1    1    2    0    0 -0.14416478141E+03  0.49477969841E+02  0.80957895722E+01  0.24215923585E+03  0.18800000000E+03 0.  0.
<mgrwt>
<rscale>  0 0.49451511E+03</rscale>
<asrwt>0</asrwt>
<pdfrwt beam="1">  1        2 0.29677012E-01 0.49451511E+03</pdfrwt>
<pdfrwt beam="2">  1       -2 0.42041953E-01 0.49451511E+03</pdfrwt>
<totfact> 0.96788081E+02</totfact>
</mgrwt>
</event>
<event>
 4    1  0.6239849E-005  0.4985812E+03  0.7818608E-02  0.1014150E+00
         -2   -1    0    0    0  501 -0.00000000000E+00  0.00000000000E+00  0.39010280893E+02  0.39010280976E+02  0.25500000000E-02 0. -1.
          2   -1    0    0  501    0  0.00000000000E+00 -0.00000000000E+00 -0.15930618883E+04  0.15930618883E+04  0.25500000000E-02 0.  1.
    5000001    1    1    2    0    0  0.96997094021E+02  0.79524587904E+02 -0.43262708336E+03  0.48810120834E+03  0.18800000000E+03 0.  0.
   -5000001    1    1    2    0    0 -0.96997094021E+02 -0.79524587904E+02 -0.11214245241E+04  0.11439709610E+04  0.18800000000E+03 0.  0.
<mgrwt>
<rscale>  0 0.49858115E+03</rscale>
<asrwt>0</asrwt>
<pdfrwt beam="1">  1        2 0.22758023E+00 0.49858115E+03</pdfrwt>
<pdfrwt beam="2">  1       -2 0.55728983E-02 0.49858115E+03</pdfrwt>
<totfact> 0.23124326E+03</totfact>
</mgrwt>
</event>
<event>
 4    1  0.6239849E-005  0.4575556E+03  0.7818608E-02  0.1025493E+00
          2   -1    0    0  501    0  0.00000000000E+00  0.00000000000E+00  0.87148214034E+03  0.87148214034E+03  0.25500000000E-02 0.  1.
         -2   -1    0    0    0  501 -0.00000000000E+00 -0.00000000000E+00 -0.60057765924E+02  0.60057765978E+02  0.25500000000E-02 0. -1.
    5000001    1    1    2    0    0  0.12227992571E+03 -0.39768314246E+02  0.36198183693E+03  0.42767832458E+03  0.18800000000E+03 0.  0.
   -5000001    1    1    2    0    0 -0.12227992571E+03  0.39768314246E+02  0.44944253749E+03  0.50386158174E+03  0.18800000000E+03 0.  0.
<mgrwt>
<rscale>  0 0.45755555E+03</rscale>
<asrwt>0</asrwt>
<pdfrwt beam="1">  1        2 0.12449744E+00 0.45755555E+03</pdfrwt>
<pdfrwt beam="2">  1       -2 0.85796812E-02 0.45755555E+03</pdfrwt>
<totfact> 0.29765720E+03</totfact>
</mgrwt>
</event>
<event>
 4    1  0.6239849E-005  0.4224755E+03  0.7818608E-02  0.1036264E+00
         -2   -1    0    0    0  501 -0.00000000000E+00  0.00000000000E+00  0.28806561723E+02  0.28806561836E+02  0.25500000000E-02 0. -1.
          2   -1    0    0  501    0  0.00000000000E+00 -0.00000000000E+00 -0.15490004875E+04  0.15490004875E+04  0.25500000000E-02 0.  1.
    5000001    1    1    2    0    0  0.41077973720E+02 -0.81062407009E+02 -0.64088753081E+03  0.67404698716E+03  0.18800000000E+03 0.  0.
   -5000001    1    1    2    0    0 -0.41077973720E+02  0.81062407009E+02 -0.87930639499E+03  0.90376006220E+03  0.18800000000E+03 0.  0.
<mgrwt>
<rscale>  0 0.42247546E+03</rscale>
<asrwt>0</asrwt>
<pdfrwt beam="1">  1        2 0.22128573E+00 0.42247546E+03</pdfrwt>
<pdfrwt beam="2">  1       -2 0.41152241E-02 0.42247546E+03</pdfrwt>
<totfact> 0.38870469E+03</totfact>
</mgrwt>
</event>
<event>
 4    1  0.6239849E-005  0.1655331E+04  0.7818608E-02  0.8787259E-01
         -2   -1    0    0    0  501 -0.00000000000E+00  0.00000000000E+00  0.33725963771E+03  0.33725963772E+03  0.25500000000E-02 0. -1.
          2   -1    0    0  501    0  0.00000000000E+00 -0.00000000000E+00 -0.20311648790E+04  0.20311648790E+04  0.25500000000E-02 0.  1.
    5000001    1    1    2    0    0  0.69893310378E+03  0.36719011485E+03 -0.61469819720E+03  0.10181031076E+04  0.18800000000E+03 0.  0.
   -5000001    1    1    2    0    0 -0.69893310378E+03 -0.36719011485E+03 -0.10792070441E+04  0.13503214092E+04  0.18800000000E+03 0.  0.
<mgrwt>
<rscale>  0 0.16553307E+04</rscale>
<asrwt>0</asrwt>
<pdfrwt beam="1">  1        2 0.29016640E+00 0.16553307E+04</pdfrwt>
<pdfrwt beam="2">  1       -2 0.48179949E-01 0.16553307E+04</pdfrwt>
<totfact> 0.30192030E+01</totfact>
</mgrwt>
</event>
<event>
 4    1  0.6239849E-005  0.4638956E+03  0.7818608E-02  0.1023657E+00
          2   -1    0    0  501    0  0.00000000000E+00  0.00000000000E+00  0.38001841994E+03  0.38001841995E+03  0.25500000000E-02 0.  1.
         -2   -1    0    0    0  501 -0.00000000000E+00 -0.00000000000E+00 -0.14157149569E+03  0.14157149572E+03  0.25500000000E-02 0. -1.
    5000001    1    1    2    0    0  0.10617862812E+03 -0.83895739553E+02  0.13268681196E+03  0.26694978227E+03  0.18800000000E+03 0.  0.
   -5000001    1    1    2    0    0 -0.10617862812E+03  0.83895739553E+02  0.10576011229E+03  0.25464013340E+03  0.18800000000E+03 0.  0.
<mgrwt>
<rscale>  0 0.46389557E+03</rscale>
<asrwt>0</asrwt>
<pdfrwt beam="1">  1        2 0.54288344E-01 0.46389557E+03</pdfrwt>
<pdfrwt beam="2">  1       -2 0.20224500E-01 0.46389557E+03</pdfrwt>
<totfact> 0.19035803E+03</totfact>
</mgrwt>
</event>
<event>
 4    1  0.6239849E-005  0.6618703E+03  0.7818608E-02  0.9784757E-01
         -2   -1    0    0    0  501 -0.00000000000E+00  0.00000000000E+00  0.65132199190E+02  0.65132199240E+02  0.25500000000E-02 0. -1.
          2   -1    0    0  501    0  0.00000000000E+00 -0.00000000000E+00 -0.16814734840E+04  0.16814734840E+04  0.25500000000E-02 0.  1.
    5000001    1    1    2    0    0  0.24648499020E+03 -0.99791995362E+02 -0.65292888146E+03  0.72963923755E+03  0.18800000000E+03 0.  0.
   -5000001    1    1    2    0    0 -0.24648499020E+03  0.99791995362E+02 -0.96341240332E+03  0.10169664457E+04  0.18800000000E+03 0.  0.
<mgrwt>
<rscale>  0 0.66187028E+03</rscale>
<asrwt>0</asrwt>
<pdfrwt beam="1">  1        2 0.24021047E+00 0.66187028E+03</pdfrwt>
<pdfrwt beam="2">  1       -2 0.93046009E-02 0.66187028E+03</pdfrwt>
<totfact> 0.92038542E+02</totfact>
</mgrwt>
</event>
<event>
 4    1  0.6239849E-005  0.5145800E+03  0.7818608E-02  0.1010042E+00
          2   -1    0    0  501    0  0.00000000000E+00  0.00000000000E+00  0.13618416267E+03  0.13618416270E+03  0.25500000000E-02 0.  1.
         -2   -1    0    0    0  501 -0.00000000000E+00 -0.00000000000E+00 -0.48609277326E+03  0.48609277327E+03  0.25500000000E-02 0. -1.
    5000001    1    1    2    0    0  0.14616438601E+03 -0.93878989787E+02 -0.20641551304E+03  0.32882922085E+03  0.18800000000E+03 0.  0.
   -5000001    1    1    2    0    0 -0.14616438601E+03  0.93878989787E+02 -0.14349309755E+03  0.29344771511E+03  0.18800000000E+03 0.  0.
<mgrwt>
<rscale>  0 0.51457997E+03</rscale>
<asrwt>0</asrwt>
<pdfrwt beam="1">  1        2 0.19454881E-01 0.51457997E+03</pdfrwt>
<pdfrwt beam="2">  1       -2 0.69441824E-01 0.51457997E+03</pdfrwt>
<totfact> 0.55966120E+02</totfact>
</mgrwt>
</event>
<event>
 4    1  0.6239849E-005  0.3902594E+03  0.7818608E-02  0.1047206E+00
         -2   -1    0    0    0  501 -0.00000000000E+00  0.00000000000E+00  0.79901454664E+02  0.79901454705E+02  0.25500000000E-02 0. -1.
          2   -1    0    0  501    0  0.00000000000E+00 -0.00000000000E+00 -0.47653210683E+03  0.47653210684E+03  0.25500000000E-02 0.  1.
    5000001    1    1    2    0    0  0.40692794702E+02 -0.19311785517E+02 -0.16051779839E+03  0.25127437633E+03  0.18800000000E+03 0.  0.
   -5000001    1    1    2    0    0 -0.40692794702E+02  0.19311785517E+02 -0.23611285377E+03  0.30515918521E+03  0.18800000000E+03 0.  0.
<mgrwt>
<rscale>  0 0.39025944E+03</rscale>
<asrwt>0</asrwt>
<pdfrwt beam="1">  1        2 0.68076014E-01 0.39025944E+03</pdfrwt>
<pdfrwt beam="2">  1       -2 0.11414494E-01 0.39025944E+03</pdfrwt>
<totfact> 0.38535926E+03</totfact>
</mgrwt>
</event>
<event>
 4    1  0.6239849E-005  0.5708214E+03  0.7818608E-02  0.9967863E-01
          2   -1    0    0  501    0  0.00000000000E+00  0.00000000000E+00  0.18935011046E+03  0.18935011047E+03  0.25500000000E-02 0.  1.
         -2   -1    0    0    0  501 -0.00000000000E+00 -0.00000000000E+00 -0.43020451031E+03  0.43020451032E+03  0.25500000000E-02 0. -1.
    5000001    1    1    2    0    0 -0.17189405266E+03  0.12239144424E+03 -0.77174806633E+02  0.29296276511E+03  0.18800000000E+03 0.  0.
   -5000001    1    1    2    0    0  0.17189405266E+03 -0.12239144424E+03 -0.16367959322E+03  0.32659185568E+03  0.18800000000E+03 0.  0.
<mgrwt>
<rscale>  0 0.57082141E+03</rscale>
<asrwt>0</asrwt>
<pdfrwt beam="1">  1        2 0.27050016E-01 0.57082141E+03</pdfrwt>
<pdfrwt beam="2">  1       -2 0.61457787E-01 0.57082141E+03</pdfrwt>
<totfact> 0.49688159E+02</totfact>
</mgrwt>
</event>
<event>
 4    1  0.6239849E-005  0.1066967E+04  0.7818608E-02  0.9238000E-01
         -2   -1    0    0    0  501 -0.00000000000E+00  0.00000000000E+00  0.21515965105E+03  0.21515965106E+03  0.25500000000E-02 0. -1.
          2   -1    0    0  501    0  0.00000000000E+00 -0.00000000000E+00 -0.13227607588E+04  0.13227607589E+04  0.25500000000E-02 0.  1.
    5000001    1    1    2    0    0  0.45252989091E+03  0.20352237800E+03 -0.47411761281E+03  0.71157302597E+03  0.18800000000E+03 0.  0.
   -5000001    1    1    2    0    0 -0.45252989091E+03 -0.20352237800E+03 -0.63348349499E+03  0.82634738394E+03  0.18800000000E+03 0.  0.
<mgrwt>
<rscale>  0 0.10669672E+04</rscale>
<asrwt>0</asrwt>
<pdfrwt beam="1">  1        2 0.18896582E+00 0.10669672E+04</pdfrwt>
<pdfrwt beam="2">  1       -2 0.30737094E-01 0.10669672E+04</pdfrwt>
<totfact> 0.17737788E+02</totfact>
</mgrwt>
</event>
<event>
 4    1  0.6239849E-005  0.9426039E+03  0.7818608E-02  0.9373837E-01
         -2   -1    0    0    0  501 -0.00000000000E+00  0.00000000000E+00  0.48832272621E+03  0.48832272621E+03  0.25500000000E-02 0. -1.
          2   -1    0    0  501    0  0.00000000000E+00 -0.00000000000E+00 -0.45487445198E+03  0.45487445198E+03  0.25500000000E-02 0.  1.
    5000001    1    1    2    0    0  0.31671511171E+03  0.28217713815E+03 -0.66087441250E+02  0.46866187083E+03  0.18800000000E+03 0.  0.
   -5000001    1    1    2    0    0 -0.31671511171E+03 -0.28217713815E+03  0.99535715478E+02  0.47453530737E+03  0.18800000000E+03 0.  0.
<mgrwt>
<rscale>  0 0.94260391E+03</rscale>
<asrwt>0</asrwt>
<pdfrwt beam="1">  1        2 0.64982064E-01 0.94260391E+03</pdfrwt>
<pdfrwt beam="2">  1       -2 0.69760390E-01 0.94260391E+03</pdfrwt>
<totfact> 0.14038546E+02</totfact>
</mgrwt>
</event>
<event>
 4    1  0.6239849E-005  0.5649325E+03  0.7818608E-02  0.9980955E-01
         -2   -1    0    0    0  501 -0.00000000000E+00  0.00000000000E+00  0.10728801103E+03  0.10728801106E+03  0.25500000000E-02 0. -1.
          2   -1    0    0  501    0  0.00000000000E+00 -0.00000000000E+00 -0.74367280717E+03  0.74367280718E+03  0.25500000000E-02 0.  1.
    5000001    1    1    2    0    0 -0.11858778072E+03 -0.17123627761E+03 -0.36719369087E+03  0.46212566594E+03  0.18800000000E+03 0.  0.
   -5000001    1    1    2    0    0  0.11858778072E+03  0.17123627761E+03 -0.26919110527E+03  0.38883515230E+03  0.18800000000E+03 0.  0.
<mgrwt>
<rscale>  0 0.56493248E+03</rscale>
<asrwt>0</asrwt>
<pdfrwt beam="1">  1        2 0.10623897E+00 0.56493248E+03</pdfrwt>
<pdfrwt beam="2">  1       -2 0.15326859E-01 0.56493248E+03</pdfrwt>
<totfact> 0.14107832E+03</totfact>
</mgrwt>
</event>
<event>
 4    1  0.6239849E-005  0.5348019E+03  0.7818608E-02  0.1005074E+00
          2   -1    0    0  501    0  0.00000000000E+00  0.00000000000E+00  0.20518685069E+03  0.20518685071E+03  0.25500000000E-02 0.  1.
         -2   -1    0    0    0  501 -0.00000000000E+00 -0.00000000000E+00 -0.34847882669E+03  0.34847882670E+03  0.25500000000E-02 0. -1.
    5000001    1    1    2    0    0  0.66827332950E+02 -0.17621558218E+03 -0.45425802225E+02  0.27004689841E+03  0.18800000000E+03 0.  0.
   -5000001    1    1    2    0    0 -0.66827332950E+02  0.17621558218E+03 -0.97866173769E+02  0.28361877900E+03  0.18800000000E+03 0.  0.
<mgrwt>
<rscale>  0 0.53480192E+03</rscale>
<asrwt>0</asrwt>
<pdfrwt beam="1">  1        2 0.29312407E-01 0.53480192E+03</pdfrwt>
<pdfrwt beam="2">  1       -2 0.49782690E-01 0.53480192E+03</pdfrwt>
<totfact> 0.70153015E+02</totfact>
</mgrwt>
</event>
<event>
 4    1  0.6239849E-005  0.4746945E+03  0.7818608E-02  0.1020604E+00
          2   -1    0    0  501    0  0.00000000000E+00  0.00000000000E+00  0.54230241497E+02  0.54230241557E+02  0.25500000000E-02 0.  1.
         -2   -1    0    0    0  501 -0.00000000000E+00 -0.00000000000E+00 -0.10387877930E+04  0.10387877930E+04  0.25500000000E-02 0. -1.
    5000001    1    1    2    0    0 -0.60073758243E+01  0.14466116081E+03 -0.50419286562E+03  0.55724086870E+03  0.18800000000E+03 0.  0.
   -5000001    1    1    2    0    0  0.60073758243E+01 -0.14466116081E+03 -0.48036468590E+03  0.53577716587E+03  0.18800000000E+03 0.  0.
<mgrwt>
<rscale>  0 0.47469448E+03</rscale>
<asrwt>0</asrwt>
<pdfrwt beam="1">  1        2 0.77471780E-02 0.47469448E+03</pdfrwt>
<pdfrwt beam="2">  1       -2 0.14839824E+00 0.47469448E+03</pdfrwt>
<totfact> 0.28939658E+02</totfact>
</mgrwt>
</event>
<event>
 4    1  0.6239849E-005  0.8103489E+03  0.7818608E-02  0.9545157E-01
         -2   -1    0    0    0  501 -0.00000000000E+00  0.00000000000E+00  0.12034088145E+03  0.12034088147E+03  0.25500000000E-02 0. -1.
          2   -1    0    0  501    0  0.00000000000E+00 -0.00000000000E+00 -0.13641775427E+04  0.13641775427E+04  0.25500000000E-02 0.  1.
    5000001    1    1    2    0    0 -0.73111271111E+02 -0.34610982717E+03 -0.51071041769E+03  0.64908119767E+03  0.18800000000E+03 0.  0.
   -5000001    1    1    2    0    0  0.73111271111E+02  0.34610982717E+03 -0.73312624351E+03  0.83543722646E+03  0.18800000000E+03 0.  0.
<mgrwt>
<rscale>  0 0.81034888E+03</rscale>
<asrwt>0</asrwt>
<pdfrwt beam="1">  1        2 0.19488250E+00 0.81034888E+03</pdfrwt>
<pdfrwt beam="2">  1       -2 0.17191555E-01 0.81034888E+03</pdfrwt>
<totfact> 0.48278369E+02</totfact>
</mgrwt>
</event>
<event>
 4    1  0.6239849E-005  0.6489252E+03  0.7818608E-02  0.9808798E-01
          2   -1    0    0  501    0  0.00000000000E+00  0.00000000000E+00  0.11168616870E+03  0.11168616872E+03  0.25500000000E-02 0.  1.
         -2   -1    0    0    0  501 -0.00000000000E+00 -0.00000000000E+00 -0.94260528232E+03  0.94260528233E+03  0.25500000000E-02 0. -1.
    5000001    1    1    2    0    0 -0.20556070776E+03  0.11032337250E+03 -0.61776578208E+03  0.68658940612E+03  0.18800000000E+03 0.  0.
   -5000001    1    1    2    0    0  0.20556070776E+03 -0.11032337250E+03 -0.21315333155E+03  0.36770204493E+03  0.18800000000E+03 0.  0.
<mgrwt>
<rscale>  0 0.64892518E+03</rscale>
<asrwt>0</asrwt>
<pdfrwt beam="1">  1        2 0.15955168E-01 0.64892518E+03</pdfrwt>
<pdfrwt beam="2">  1       -2 0.13465789E+00 0.64892518E+03</pdfrwt>
<totfact> 0.14972961E+02</totfact>
</mgrwt>
</event>
<event>
 4    1  0.6239849E-005  0.5399922E+03  0.7818608E-02  0.1003837E+00
         -2   -1    0    0    0  501 -0.00000000000E+00  0.00000000000E+00  0.34673456416E+02  0.34673456510E+02  0.25500000000E-02 0. -1.
          2   -1    0    0  501    0  0.00000000000E+00 -0.00000000000E+00 -0.21024121985E+04  0.21024121985E+04  0.25500000000E-02 0.  1.
    5000001    1    1    2    0    0  0.82529140392E+02  0.17187502291E+03 -0.11710691146E+04  0.12012905367E+04  0.18800000000E+03 0.  0.
   -5000001    1    1    2    0    0 -0.82529140392E+02 -0.17187502291E+03 -0.89666962757E+03  0.93579511835E+03  0.18800000000E+03 0.  0.
<mgrwt>
<rscale>  0 0.53999221E+03</rscale>
<asrwt>0</asrwt>
<pdfrwt beam="1">  1        2 0.30034452E+00 0.53999221E+03</pdfrwt>
<pdfrwt beam="2">  1       -2 0.49533523E-02 0.53999221E+03</pdfrwt>
<totfact> 0.15368640E+03</totfact>
</mgrwt>
</event>
<event>
 4    1  0.6239849E-005  0.7313746E+03  0.7818608E-02  0.9665032E-01
         -2   -1    0    0    0  501 -0.00000000000E+00  0.00000000000E+00  0.11092642663E+04  0.11092642663E+04  0.25500000000E-02 0. -1.
          2   -1    0    0  501    0  0.00000000000E+00 -0.00000000000E+00 -0.12055486286E+03  0.12055486289E+03  0.25500000000E-02 0.  1.
    5000001    1    1    2    0    0  0.22391023619E+03 -0.12895595771E+03  0.79335180347E+03  0.85528738853E+03  0.18800000000E+03 0.  0.
   -5000001    1    1    2    0    0 -0.22391023619E+03  0.12895595771E+03  0.19535759996E+03  0.37453174066E+03  0.18800000000E+03 0.  0.
<mgrwt>
<rscale>  0 0.73137460E+03</rscale>
<asrwt>0</asrwt>
<pdfrwt beam="1">  1        2 0.17222123E-01 0.73137460E+03</pdfrwt>
<pdfrwt beam="2">  1       -2 0.15846633E+00 0.73137460E+03</pdfrwt>
<totfact> 0.88881978E+01</totfact>
</mgrwt>
</event>
<event>
 4    1  0.6239849E-005  0.4364683E+03  0.7818608E-02  0.1031836E+00
         -2   -1    0    0    0  501 -0.00000000000E+00  0.00000000000E+00  0.10419789337E+03  0.10419789340E+03  0.25500000000E-02 0. -1.
          2   -1    0    0  501    0  0.00000000000E+00 -0.00000000000E+00 -0.45707390757E+03  0.45707390757E+03  0.25500000000E-02 0.  1.
    5000001    1    1    2    0    0  0.50333766214E+02 -0.95867482325E+02 -0.20681657222E+03  0.29973514431E+03  0.18800000000E+03 0.  0.
   -5000001    1    1    2    0    0 -0.50333766214E+02  0.95867482325E+02 -0.14605944198E+03  0.26153665667E+03  0.18800000000E+03 0.  0.
<mgrwt>
<rscale>  0 0.43646827E+03</rscale>
<asrwt>0</asrwt>
<pdfrwt beam="1">  1        2 0.65296272E-01 0.43646827E+03</pdfrwt>
<pdfrwt beam="2">  1       -2 0.14885414E-01 0.43646827E+03</pdfrwt>
<totfact> 0.26126705E+03</totfact>
</mgrwt>
</event>
<event>
 4    1  0.6239849E-005  0.4966710E+03  0.7818608E-02  0.1014652E+00
          2   -1    0    0  501    0  0.00000000000E+00  0.00000000000E+00  0.10886668358E+04  0.10886668358E+04  0.25500000000E-02 0.  1.
         -2   -1    0    0    0  501 -0.00000000000E+00 -0.00000000000E+00 -0.56647744941E+02  0.56647744998E+02  0.25500000000E-02 0. -1.
    5000001    1    1    2    0    0  0.55633860383E+02  0.12761720008E+03  0.70818582116E+03  0.74582332591E+03  0.18800000000E+03 0.  0.
   -5000001    1    1    2    0    0 -0.55633860383E+02 -0.12761720008E+03  0.32383326974E+03  0.39949125493E+03  0.18800000000E+03 0.  0.
<mgrwt>
<rscale>  0 0.49667100E+03</rscale>
<asrwt>0</asrwt>
<pdfrwt beam="1">  1        2 0.15552385E+00 0.49667100E+03</pdfrwt>
<pdfrwt beam="2">  1       -2 0.80925343E-02 0.49667100E+03</pdfrwt>
<totfact> 0.24054022E+03</totfact>
</mgrwt>
</event>
<event>
 4    1  0.6239849E-005  0.6756844E+03  0.7818608E-02  0.9759743E-01
          2   -1    0    0  501    0  0.00000000000E+00  0.00000000000E+00  0.28960521481E+04  0.28960521481E+04  0.25500000000E-02 0.  1.
         -2   -1    0    0    0  501 -0.00000000000E+00 -0.00000000000E+00 -0.39411361177E+02  0.39411361259E+02  0.25500000000E-02 0. -1.
    5000001    1    1    2    0    0 -0.27446246393E+03  0.28905702713E+02  0.12056000922E+04  0.12509919129E+04  0.18800000000E+03 0.  0.
   -5000001    1    1    2    0    0  0.27446246393E+03 -0.28905702713E+02  0.16510406947E+04  0.16844715965E+04  0.18800000000E+03 0.  0.
<mgrwt>
<rscale>  0 0.67568442E+03</rscale>
<asrwt>0</asrwt>
<pdfrwt beam="1">  1        2 0.41372178E+00 0.67568442E+03</pdfrwt>
<pdfrwt beam="2">  1       -2 0.56301938E-02 0.67568442E+03</pdfrwt>
<totfact> 0.48615809E+02</totfact>
</mgrwt>
</event>
<event>
 4    1  0.6239849E-005  0.4993186E+03  0.7818608E-02  0.1013957E+00
         -2   -1    0    0    0  501 -0.00000000000E+00  0.00000000000E+00  0.15730382687E+02  0.15730382894E+02  0.25500000000E-02 0. -1.
          2   -1    0    0  501    0  0.00000000000E+00 -0.00000000000E+00 -0.39623801190E+04  0.39623801190E+04  0.25500000000E-02 0.  1.
    5000001    1    1    2    0    0 -0.12203199485E+02 -0.16013112143E+03 -0.16979286377E+04  0.17158369832E+04  0.18800000000E+03 0.  0.
   -5000001    1    1    2    0    0  0.12203199485E+02  0.16013112143E+03 -0.22487210986E+04  0.22622735187E+04  0.18800000000E+03 0.  0.
<mgrwt>
<rscale>  0 0.49931856E+03</rscale>
<asrwt>0</asrwt>
<pdfrwt beam="1">  1        2 0.56605366E+00 0.49931856E+03</pdfrwt>
<pdfrwt beam="2">  1       -2 0.22472001E-02 0.49931856E+03</pdfrwt>
<totfact> 0.47601700E+02</totfact>
</mgrwt>
</event>
<event>
 4    1  0.6239849E-005  0.5721233E+03  0.7818608E-02  0.9964991E-01
         -2   -1    0    0    0  501 -0.00000000000E+00  0.00000000000E+00  0.14197295476E+03  0.14197295478E+03  0.25500000000E-02 0. -1.
          2   -1    0    0  501    0  0.00000000000E+00 -0.00000000000E+00 -0.57638629072E+03  0.57638629072E+03  0.25500000000E-02 0.  1.
    5000001    1    1    2    0    0 -0.18404009667E+03 -0.10117749476E+03 -0.27845666335E+03  0.39621932814E+03  0.18800000000E+03 0.  0.
   -5000001    1    1    2    0    0  0.18404009667E+03  0.10117749476E+03 -0.15595667261E+03  0.32213991736E+03  0.18800000000E+03 0.  0.
<mgrwt>
<rscale>  0 0.57212329E+03</rscale>
<asrwt>0</asrwt>
<pdfrwt beam="1">  1        2 0.82340897E-01 0.57212329E+03</pdfrwt>
<pdfrwt beam="2">  1       -2 0.20281851E-01 0.57212329E+03</pdfrwt>
<totfact> 0.11856764E+03</totfact>
</mgrwt>
</event>
<event>
 4    1  0.6239849E-005  0.1309869E+04  0.7818608E-02  0.9021775E-01
         -2   -1    0    0    0  501 -0.00000000000E+00  0.00000000000E+00  0.69485912009E+03  0.69485912009E+03  0.25500000000E-02 0. -1.
          2   -1    0    0  501    0  0.00000000000E+00 -0.00000000000E+00 -0.61730416420E+03  0.61730416421E+03  0.25500000000E-02 0.  1.
    5000001    1    1    2    0    0  0.31483769336E+03  0.51551963047E+03  0.20852087063E+03  0.66611426651E+03  0.18800000000E+03 0.  0.
   -5000001    1    1    2    0    0 -0.31483769336E+03 -0.51551963047E+03 -0.13096591474E+03  0.64604901779E+03  0.18800000000E+03 0.  0.
<mgrwt>
<rscale>  0 0.13098693E+04</rscale>
<asrwt>0</asrwt>
<pdfrwt beam="1">  1        2 0.88186309E-01 0.13098693E+04</pdfrwt>
<pdfrwt beam="2">  1       -2 0.99265589E-01 0.13098693E+04</pdfrwt>
<totfact> 0.43253058E+01</totfact>
</mgrwt>
</event>
<event>
 4    1  0.6239849E-005  0.5774854E+03  0.7818608E-02  0.9953250E-01
         -2   -1    0    0    0  501 -0.00000000000E+00  0.00000000000E+00  0.34322978679E+02  0.34322978774E+02  0.25500000000E-02 0. -1.
          2   -1    0    0  501    0  0.00000000000E+00 -0.00000000000E+00 -0.24290533015E+04  0.24290533015E+04  0.25500000000E-02 0.  1.
    5000001    1    1    2    0    0  0.16488443270E+03 -0.13809565614E+03 -0.13768824141E+04  0.14062028547E+04  0.18800000000E+03 0.  0.
   -5000001    1    1    2    0    0 -0.16488443270E+03  0.13809565614E+03 -0.10178479088E+04  0.10571734256E+04  0.18800000000E+03 0.  0.
<mgrwt>
<rscale>  0 0.57748539E+03</rscale>
<asrwt>0</asrwt>
<pdfrwt beam="1">  1        2 0.34700750E+00 0.57748539E+03</pdfrwt>
<pdfrwt beam="2">  1       -2 0.49032842E-02 0.57748539E+03</pdfrwt>
<totfact> 0.10659089E+03</totfact>
</mgrwt>
</event>
<event>
 4    1  0.6239849E-005  0.1564222E+04  0.7818608E-02  0.8842834E-01
          2   -1    0    0  501    0  0.00000000000E+00  0.00000000000E+00  0.14867221621E+04  0.14867221621E+04  0.25500000000E-02 0.  1.
         -2   -1    0    0    0  501 -0.00000000000E+00 -0.00000000000E+00 -0.41144067571E+03  0.41144067572E+03  0.25500000000E-02 0. -1.
    5000001    1    1    2    0    0  0.58629903271E+03  0.73069238143E+02 -0.40860616688E+02  0.62136885931E+03  0.18800000000E+03 0.  0.
   -5000001    1    1    2    0    0 -0.58629903271E+03 -0.73069238143E+02  0.11161421031E+04  0.12767939785E+04  0.18800000000E+03 0.  0.
<mgrwt>
<rscale>  0 0.15642225E+04</rscale>
<asrwt>0</asrwt>
<pdfrwt beam="1">  1        2 0.21238888E+00 0.15642225E+04</pdfrwt>
<pdfrwt beam="2">  1       -2 0.58777239E-01 0.15642225E+04</pdfrwt>
<totfact> 0.38717294E+01</totfact>
</mgrwt>
</event>
<event>
 4    1  0.6239849E-005  0.7505083E+03  0.7818608E-02  0.9634553E-01
         -2   -1    0    0    0  501 -0.00000000000E+00  0.00000000000E+00  0.77607255211E+02  0.77607255253E+02  0.25500000000E-02 0. -1.
          2   -1    0    0  501    0  0.00000000000E+00 -0.00000000000E+00 -0.18144651780E+04  0.18144651780E+04  0.25500000000E-02 0.  1.
    5000001    1    1    2    0    0  0.39778474468E+02 -0.31056223445E+03 -0.10858899744E+04  0.11456580053E+04  0.18800000000E+03 0.  0.
   -5000001    1    1    2    0    0 -0.39778474468E+02  0.31056223445E+03 -0.65096794839E+03  0.74641442800E+03  0.18800000000E+03 0.  0.
<mgrwt>
<rscale>  0 0.75050826E+03</rscale>
<asrwt>0</asrwt>
<pdfrwt beam="1">  1        2 0.25920929E+00 0.75050826E+03</pdfrwt>
<pdfrwt beam="2">  1       -2 0.11086752E-01 0.75050826E+03</pdfrwt>
<totfact> 0.58914425E+02</totfact>
</mgrwt>
</event>
<event>
 4    1  0.6239849E-005  0.5613506E+03  0.7818608E-02  0.9989003E-01
         -2   -1    0    0    0  501 -0.00000000000E+00  0.00000000000E+00  0.39907961856E+02  0.39907961937E+02  0.25500000000E-02 0. -1.
          2   -1    0    0  501    0  0.00000000000E+00 -0.00000000000E+00 -0.19740076549E+04  0.19740076549E+04  0.25500000000E-02 0.  1.
    5000001    1    1    2    0    0  0.14739826873E+03 -0.66108832141E+02 -0.14394461815E+04  0.14606320333E+04  0.18800000000E+03 0.  0.
   -5000001    1    1    2    0    0 -0.14739826873E+03  0.66108832141E+02 -0.49465351150E+03  0.55328358348E+03  0.18800000000E+03 0.  0.
<mgrwt>
<rscale>  0 0.56135059E+03</rscale>
<asrwt>0</asrwt>
<pdfrwt beam="1">  1        2 0.28200103E+00 0.56135059E+03</pdfrwt>
<pdfrwt beam="2">  1       -2 0.57011387E-02 0.56135059E+03</pdfrwt>
<totfact> 0.14309475E+03</totfact>
</mgrwt>
</event>
<event>
 4    1  0.6239849E-005  0.2037074E+04  0.7818608E-02  0.8589481E-01
          2   -1    0    0  501    0  0.00000000000E+00  0.00000000000E+00  0.10575260151E+04  0.10575260151E+04  0.25500000000E-02 0.  1.
         -2   -1    0    0    0  501 -0.00000000000E+00 -0.00000000000E+00 -0.98098510574E+03  0.98098510574E+03  0.25500000000E-02 0. -1.
    5000001    1    1    2    0    0 -0.67872985637E+03 -0.49842992919E+03  0.57991634309E+03  0.10395929863E+04  0.18800000000E+03 0.  0.
   -5000001    1    1    2    0    0  0.67872985637E+03  0.49842992919E+03 -0.50337543372E+03  0.99891813454E+03  0.18800000000E+03 0.  0.
<mgrwt>
<rscale>  0 0.20370737E+04</rscale>
<asrwt>0</asrwt>
<pdfrwt beam="1">  1        2 0.15107514E+00 0.20370737E+04</pdfrwt>
<pdfrwt beam="2">  1       -2 0.14014073E+00 0.20370737E+04</pdfrwt>
<totfact> 0.86293942E+00</totfact>
</mgrwt>
</event>
<event>
 4    1  0.6239849E-005  0.4455697E+03  0.7818608E-02  0.1029051E+00
          2   -1    0    0  501    0  0.00000000000E+00  0.00000000000E+00  0.42310785720E+02  0.42310785797E+02  0.25500000000E-02 0.  1.
         -2   -1    0    0    0  501 -0.00000000000E+00 -0.00000000000E+00 -0.11730600340E+04  0.11730600340E+04  0.25500000000E-02 0. -1.
    5000001    1    1    2    0    0  0.24174727584E+02  0.78729472144E+02 -0.80169838649E+03  0.82755486232E+03  0.18800000000E+03 0.  0.
   -5000001    1    1    2    0    0 -0.24174727584E+02 -0.78729472144E+02 -0.32905086180E+03  0.38781595750E+03  0.18800000000E+03 0.  0.
<mgrwt>
<rscale>  0 0.44556971E+03</rscale>
<asrwt>0</asrwt>
<pdfrwt beam="1">  1        2 0.60443987E-02 0.44556971E+03</pdfrwt>
<pdfrwt beam="2">  1       -2 0.16757998E+00 0.44556971E+03</pdfrwt>
<totfact> 0.28985980E+02</totfact>
</mgrwt>
</event>
<event>
 4    1  0.6239849E-005  0.4572214E+03  0.7818608E-02  0.1025590E+00
         -2   -1    0    0    0  501 -0.00000000000E+00  0.00000000000E+00  0.98788245644E+02  0.98788245677E+02  0.25500000000E-02 0.  1.
          2   -1    0    0  501    0  0.00000000000E+00 -0.00000000000E+00 -0.52903927186E+03  0.52903927187E+03  0.25500000000E-02 0. -1.
    5000001    1    1    2    0    0 -0.38227350727E+02  0.11115443666E+03 -0.13864510001E+03  0.26150163076E+03  0.18800000000E+03 0.  0.
   -5000001    1    1    2    0    0  0.38227350727E+02 -0.11115443666E+03 -0.29160592621E+03  0.36632588679E+03  0.18800000000E+03 0.  0.
<mgrwt>
<rscale>  0 0.45722144E+03</rscale>
<asrwt>0</asrwt>
<pdfrwt beam="1">  1        2 0.75577037E-01 0.45722144E+03</pdfrwt>
<pdfrwt beam="2">  1       -2 0.14112607E-01 0.45722144E+03</pdfrwt>
<totfact> 0.24236942E+03</totfact>
</mgrwt>
</event>
<event>
 4    1  0.6239849E-005  0.6129356E+03  0.7818608E-02  0.9878926E-01
          2   -1    0    0  501    0  0.00000000000E+00  0.00000000000E+00  0.15760973964E+03  0.15760973966E+03  0.25500000000E-02 0.  1.
         -2   -1    0    0    0  501 -0.00000000000E+00 -0.00000000000E+00 -0.59591815260E+03  0.59591815260E+03  0.25500000000E-02 0. -1.
    5000001    1    1    2    0    0 -0.77328607828E+02 -0.22215386818E+03 -0.28920109891E+03  0.41750847937E+03  0.18800000000E+03 0.  0.
   -5000001    1    1    2    0    0  0.77328607828E+02  0.22215386818E+03 -0.14910731406E+03  0.33601941289E+03  0.18800000000E+03 0.  0.
<mgrwt>
<rscale>  0 0.61293558E+03</rscale>
<asrwt>0</asrwt>
<pdfrwt beam="1">  1        2 0.22515677E-01 0.61293558E+03</pdfrwt>
<pdfrwt beam="2">  1       -2 0.85131163E-01 0.61293558E+03</pdfrwt>
<totfact> 0.30014483E+02</totfact>
</mgrwt>
</event>
<event>
 4    1  0.6239849E-005  0.8779470E+03  0.7818608E-02  0.9453577E-01
          2   -1    0    0  501    0  0.00000000000E+00  0.00000000000E+00  0.20483435622E+04  0.20483435622E+04  0.25500000000E-02 0.  1.
         -2   -1    0    0    0  501 -0.00000000000E+00 -0.00000000000E+00 -0.94074907210E+02  0.94074907245E+02  0.25500000000E-02 0. -1.
    5000001    1    1    2    0    0  0.22171966534E+03  0.30923823903E+03  0.70358753011E+03  0.82168565218E+03  0.18800000000E+03 0.  0.
   -5000001    1    1    2    0    0 -0.22171966534E+03 -0.30923823903E+03  0.12506811249E+04  0.13207328173E+04  0.18800000000E+03 0.  0.
<mgrwt>
<rscale>  0 0.87794699E+03</rscale>
<asrwt>0</asrwt>
<pdfrwt beam="1">  1        2 0.29262049E+00 0.87794699E+03</pdfrwt>
<pdfrwt beam="2">  1       -2 0.13439273E-01 0.87794699E+03</pdfrwt>
<totfact> 0.32311013E+02</totfact>
</mgrwt>
</event>
<event>
 4    1  0.6239849E-005  0.7361115E+03  0.7818608E-02  0.9657395E-01
         -2   -1    0    0    0  501 -0.00000000000E+00  0.00000000000E+00  0.10224822440E+03  0.10224822443E+03  0.25500000000E-02 0. -1.
          2   -1    0    0  501    0  0.00000000000E+00 -0.00000000000E+00 -0.13248645865E+04  0.13248645865E+04  0.25500000000E-02 0.  1.
    5000001    1    1    2    0    0 -0.14352758386E+03  0.27595176491E+03 -0.72387924033E+03  0.80999672744E+03  0.18800000000E+03 0.  0.
   -5000001    1    1    2    0    0  0.14352758386E+03 -0.27595176491E+03 -0.49873712179E+03  0.61711608352E+03  0.18800000000E+03 0.  0.
<mgrwt>
<rscale>  0 0.73611154E+03</rscale>
<asrwt>0</asrwt>
<pdfrwt beam="1">  1        2 0.18926636E+00 0.73611154E+03</pdfrwt>
<pdfrwt beam="2">  1       -2 0.14606890E-01 0.73611154E+03</pdfrwt>
<totfact> 0.67135947E+02</totfact>
</mgrwt>
</event>
<event>
 4    1  0.6239849E-005  0.9227823E+03  0.7818608E-02  0.9397542E-01
          2   -1    0    0  501    0  0.00000000000E+00  0.00000000000E+00  0.81661014633E+03  0.81661014633E+03  0.25500000000E-02 0.  1.
         -2   -1    0    0    0  501 -0.00000000000E+00 -0.00000000000E+00 -0.26068963845E+03  0.26068963847E+03  0.25500000000E-02 0. -1.
    5000001    1    1    2    0    0  0.24251055924E+03  0.33371139068E+03  0.37813744308E+03  0.59034446679E+03  0.18800000000E+03 0.  0.
   -5000001    1    1    2    0    0 -0.24251055924E+03 -0.33371139068E+03  0.17778306479E+03  0.48695531801E+03  0.18800000000E+03 0.  0.
<mgrwt>
<rscale>  0 0.92278232E+03</rscale>
<asrwt>0</asrwt>
<pdfrwt beam="1">  1        2 0.11665859E+00 0.92278232E+03</pdfrwt>
<pdfrwt beam="2">  1       -2 0.37241377E-01 0.92278232E+03</pdfrwt>
<totfact> 0.25155449E+02</totfact>
</mgrwt>
</event>
<event>
 4    1  0.6239849E-005  0.6403112E+03  0.7818608E-02  0.9825131E-01
          2   -1    0    0  501    0  0.00000000000E+00  0.00000000000E+00  0.23425932171E+04  0.23425932171E+04  0.25500000000E-02 0.  1.
         -2   -1    0    0    0  501 -0.00000000000E+00 -0.00000000000E+00 -0.43754759784E+02  0.43754759858E+02  0.25500000000E-02 0. -1.
    5000001    1    1    2    0    0 -0.16527428795E+03 -0.41768875657E+02  0.42200999950E+03  0.49243950787E+03  0.18800000000E+03 0.  0.
   -5000001    1    1    2    0    0  0.16527428795E+03  0.41768875657E+02  0.18768284578E+04  0.18939084691E+04  0.18800000000E+03 0.  0.
<mgrwt>
<rscale>  0 0.64031119E+03</rscale>
<asrwt>0</asrwt>
<pdfrwt beam="1">  1        2 0.33465623E+00 0.64031119E+03</pdfrwt>
<pdfrwt beam="2">  1       -2 0.62506789E-02 0.64031119E+03</pdfrwt>
<totfact> 0.80418080E+02</totfact>
</mgrwt>
</event>
<event>
 4    1  0.6239849E-005  0.8141995E+03  0.7818608E-02  0.9539688E-01
         -2   -1    0    0    0  501 -0.00000000000E+00  0.00000000000E+00  0.16486774441E+03  0.16486774443E+03  0.25500000000E-02 0. -1.
          2   -1    0    0  501    0  0.00000000000E+00 -0.00000000000E+00 -0.10052312452E+04  0.10052312452E+04  0.25500000000E-02 0.  1.
    5000001    1    1    2    0    0  0.35399215349E+03 -0.56821729230E+02 -0.35841829125E+03  0.54069106258E+03  0.18800000000E+03 0.  0.
   -5000001    1    1    2    0    0 -0.35399215349E+03  0.56821729230E+02 -0.48194520950E+03  0.62940792703E+03  0.18800000000E+03 0.  0.
<mgrwt>
<rscale>  0 0.81419950E+03</rscale>
<asrwt>0</asrwt>
<pdfrwt beam="1">  1        2 0.14360446E+00 0.81419950E+03</pdfrwt>
<pdfrwt beam="2">  1       -2 0.23552535E-01 0.81419950E+03</pdfrwt>
<totfact> 0.44593928E+02</totfact>
</mgrwt>
</event>
<event>
 4    1  0.6239849E-005  0.4560410E+03  0.7818608E-02  0.1025936E+00
         -2   -1    0    0    0  501 -0.00000000000E+00  0.00000000000E+00  0.55232373439E+02  0.55232373498E+02  0.25500000000E-02 0. -1.
          2   -1    0    0  501    0  0.00000000000E+00 -0.00000000000E+00 -0.94135633686E+03  0.94135633686E+03  0.25500000000E-02 0.  1.
    5000001    1    1    2    0    0 -0.16099376719E+02 -0.11397158328E+03 -0.57049793560E+03  0.61160494295E+03  0.18800000000E+03 0.  0.
   -5000001    1    1    2    0    0  0.16099376719E+02  0.11397158328E+03 -0.31562602782E+03  0.38498376741E+03  0.18800000000E+03 0.  0.
<mgrwt>
<rscale>  0 0.45604098E+03</rscale>
<asrwt>0</asrwt>
<pdfrwt beam="1">  1        2 0.13447947E+00 0.45604098E+03</pdfrwt>
<pdfrwt beam="2">  1       -2 0.78903396E-02 0.45604098E+03</pdfrwt>
<totfact> 0.30686429E+03</totfact>
</mgrwt>
</event>
<event>
 4    1  0.6239849E-005  0.5774905E+03  0.7818608E-02  0.9953239E-01
          2   -1    0    0  501    0  0.00000000000E+00  0.00000000000E+00  0.86612167085E+03  0.86612167086E+03  0.25500000000E-02 0.  1.
         -2   -1    0    0    0  501 -0.00000000000E+00 -0.00000000000E+00 -0.96261085621E+02  0.96261085655E+02  0.25500000000E-02 0. -1.
    5000001    1    1    2    0    0  0.15540771149E+03 -0.99071717921E+01  0.64191653676E+03  0.68676819161E+03  0.18800000000E+03 0.  0.
   -5000001    1    1    2    0    0 -0.15540771149E+03  0.99071717921E+01  0.12794404847E+03  0.27561456490E+03  0.18800000000E+03 0.  0.
<mgrwt>
<rscale>  0 0.57749048E+03</rscale>
<asrwt>0</asrwt>
<pdfrwt beam="1">  1        2 0.12373166E+00 0.57749048E+03</pdfrwt>
<pdfrwt beam="2">  1       -2 0.13751584E-01 0.57749048E+03</pdfrwt>
<totfact> 0.13923812E+03</totfact>
</mgrwt>
</event>
<event>
 4    1  0.6239849E-005  0.4578174E+03  0.7818608E-02  0.1025416E+00
         -2   -1    0    0    0  501 -0.00000000000E+00  0.00000000000E+00  0.86087297601E+02  0.86087297638E+02  0.25500000000E-02 0. -1.
          2   -1    0    0  501    0  0.00000000000E+00 -0.00000000000E+00 -0.60867502831E+03  0.60867502832E+03  0.25500000000E-02 0.  1.
    5000001    1    1    2    0    0 -0.11018413790E+03  0.54177384205E+02 -0.32881143704E+03  0.39816666652E+03  0.18800000000E+03 0.  0.
   -5000001    1    1    2    0    0  0.11018413790E+03 -0.54177384205E+02 -0.19377629367E+03  0.29659565943E+03  0.18800000000E+03 0.  0.
<mgrwt>
<rscale>  0 0.45781738E+03</rscale>
<asrwt>0</asrwt>
<pdfrwt beam="1">  1        2 0.86953573E-01 0.45781738E+03</pdfrwt>
<pdfrwt beam="2">  1       -2 0.12298186E-01 0.45781738E+03</pdfrwt>
<totfact> 0.25880048E+03</totfact>
</mgrwt>
</event>
<event>
 4    1  0.6239849E-005  0.6658570E+03  0.7818608E-02  0.9777471E-01
          2   -1    0    0  501    0  0.00000000000E+00  0.00000000000E+00  0.26814738821E+04  0.26814738821E+04  0.25500000000E-02 0.  1.
         -2   -1    0    0    0  501 -0.00000000000E+00 -0.00000000000E+00 -0.41335997846E+02  0.41335997925E+02  0.25500000000E-02 0. -1.
    5000001    1    1    2    0    0 -0.23604854580E+03 -0.25981930518E+02  0.18852556097E+04  0.19094309861E+04  0.18800000000E+03 0.  0.
   -5000001    1    1    2    0    0  0.23604854580E+03  0.25981930518E+02  0.75488227459E+03  0.81337889398E+03  0.18800000000E+03 0.  0.
<mgrwt>
<rscale>  0 0.66585704E+03</rscale>
<asrwt>0</asrwt>
<pdfrwt beam="1">  1        2 0.38306769E+00 0.66585704E+03</pdfrwt>
<pdfrwt beam="2">  1       -2 0.59051427E-02 0.66585704E+03</pdfrwt>
<totfact> 0.58695377E+02</totfact>
</mgrwt>
</event>
<event>
 4    1  0.6239849E-005  0.5418617E+03  0.7818608E-02  0.1003395E+00
         -2   -1    0    0    0  501 -0.00000000000E+00  0.00000000000E+00  0.24214938825E+03  0.24214938826E+03  0.25500000000E-02 0. -1.
          2   -1    0    0  501    0  0.00000000000E+00 -0.00000000000E+00 -0.30313322381E+03  0.30313322382E+03  0.25500000000E-02 0.  1.
    5000001    1    1    2    0    0 -0.15502689785E+03  0.11203085919E+03 -0.69143678438E+02  0.27696407842E+03  0.18800000000E+03 0.  0.
   -5000001    1    1    2    0    0  0.15502689785E+03 -0.11203085919E+03  0.81598428696E+01  0.26831853366E+03  0.18800000000E+03 0.  0.
<mgrwt>
<rscale>  0 0.54186170E+03</rscale>
<asrwt>0</asrwt>
<pdfrwt beam="1">  1        2 0.43304746E-01 0.54186170E+03</pdfrwt>
<pdfrwt beam="2">  1       -2 0.34592770E-01 0.54186170E+03</pdfrwt>
<totfact> 0.92588181E+02</totfact>
</mgrwt>
</event>
<event>
 4    1  0.6239849E-005  0.5393889E+03  0.7818608E-02  0.1003980E+00
          2   -1    0    0  501    0  0.00000000000E+00  0.00000000000E+00  0.13732061817E+04  0.13732061817E+04  0.25500000000E-02 0.  1.
         -2   -1    0    0    0  501 -0.00000000000E+00 -0.00000000000E+00 -0.52967353608E+02  0.52967353669E+02  0.25500000000E-02 0. -1.
    5000001    1    1    2    0    0 -0.48068530065E+02 -0.18578106910E+03  0.59722046764E+03  0.65485989050E+03  0.18800000000E+03 0.  0.
   -5000001    1    1    2    0    0  0.48068530065E+02  0.18578106910E+03  0.72301836049E+03  0.77131364490E+03  0.18800000000E+03 0.  0.
<mgrwt>
<rscale>  0 0.53938890E+03</rscale>
<asrwt>0</asrwt>
<pdfrwt beam="1">  1        2 0.19617228E+00 0.53938890E+03</pdfrwt>
<pdfrwt beam="2">  1       -2 0.75667659E-02 0.53938890E+03</pdfrwt>
<totfact> 0.18611208E+03</totfact>
</mgrwt>
</event>
<event>
 4    1  0.6239849E-005  0.6463771E+03  0.7818608E-02  0.9813601E-01
         -2   -1    0    0    0  501 -0.00000000000E+00  0.00000000000E+00  0.20855951289E+03  0.20855951291E+03  0.25500000000E-02 0. -1.
          2   -1    0    0  501    0  0.00000000000E+00 -0.00000000000E+00 -0.50082022828E+03  0.50082022828E+03  0.25500000000E-02 0.  1.
    5000001    1    1    2    0    0  0.25366270057E+03 -0.47284092516E+02 -0.20129145411E+03  0.37741595165E+03  0.18800000000E+03 0.  0.
   -5000001    1    1    2    0    0 -0.25366270057E+03  0.47284092516E+02 -0.90969261272E+02  0.33196378953E+03  0.18800000000E+03 0.  0.
<mgrwt>
<rscale>  0 0.64637705E+03</rscale>
<asrwt>0</asrwt>
<pdfrwt beam="1">  1        2 0.71545746E-01 0.64637705E+03</pdfrwt>
<pdfrwt beam="2">  1       -2 0.29794216E-01 0.64637705E+03</pdfrwt>
<totfact> 0.69883976E+02</totfact>
</mgrwt>
</event>
<event>
 4    1  0.6239849E-005  0.4941455E+03  0.7818608E-02  0.1015318E+00
         -2   -1    0    0    0  501 -0.00000000000E+00  0.00000000000E+00  0.26163149129E+02  0.26163149253E+02  0.25500000000E-02 0. -1.
          2   -1    0    0  501    0  0.00000000000E+00 -0.00000000000E+00 -0.23332410966E+04  0.23332410966E+04  0.25500000000E-02 0.  1.
    5000001    1    1    2    0    0  0.13499388229E+03 -0.16864583647E+02 -0.74858302756E+03  0.78372719207E+03  0.18800000000E+03 0.  0.
   -5000001    1    1    2    0    0 -0.13499388229E+03  0.16864583647E+02 -0.15584949199E+04  0.15756770537E+04  0.18800000000E+03 0.  0.
<mgrwt>
<rscale>  0 0.49414546E+03</rscale>
<asrwt>0</asrwt>
<pdfrwt beam="1">  1        2 0.33332003E+00 0.49414546E+03</pdfrwt>
<pdfrwt beam="2">  1       -2 0.37375942E-02 0.49414546E+03</pdfrwt>
<totfact> 0.18185263E+03</totfact>
</mgrwt>
</event>
<event>
 4    1  0.6239849E-005  0.5562731E+03  0.7818608E-02  0.1000052E+00
         -2   -1    0    0    0  501 -0.00000000000E+00  0.00000000000E+00  0.88036267133E+02  0.88036267170E+02  0.25500000000E-02 0. -1.
          2   -1    0    0  501    0  0.00000000000E+00 -0.00000000000E+00 -0.87872800437E+03  0.87872800438E+03  0.25500000000E-02 0.  1.
    5000001    1    1    2    0    0 -0.69418234237E+02 -0.19271047301E+03 -0.38191584426E+03  0.47239806282E+03  0.18800000000E+03 0.  0.
   -5000001    1    1    2    0    0  0.69418234237E+02  0.19271047301E+03 -0.40877589298E+03  0.49436620873E+03  0.18800000000E+03 0.  0.
<mgrwt>
<rscale>  0 0.55627307E+03</rscale>
<asrwt>0</asrwt>
<pdfrwt beam="1">  1        2 0.12553257E+00 0.55627307E+03</pdfrwt>
<pdfrwt beam="2">  1       -2 0.12576610E-01 0.55627307E+03</pdfrwt>
<totfact> 0.15846864E+03</totfact>
</mgrwt>
</event>
<event>
 4    1  0.6239849E-005  0.4107204E+03  0.7818608E-02  0.1040130E+00
         -2   -1    0    0    0  501 -0.00000000000E+00  0.00000000000E+00  0.26367524423E+02  0.26367524546E+02  0.25500000000E-02 0. -1.
          2   -1    0    0  501    0  0.00000000000E+00 -0.00000000000E+00 -0.15994222108E+04  0.15994222108E+04  0.25500000000E-02 0.  1.
    5000001    1    1    2    0    0  0.29605031591E+02 -0.47730055044E+02 -0.10264652378E+04  0.10450499990E+04  0.18800000000E+03 0.  0.
   -5000001    1    1    2    0    0 -0.29605031591E+02  0.47730055044E+02 -0.54658944858E+03  0.58073973632E+03  0.18800000000E+03 0.  0.
<mgrwt>
<rscale>  0 0.41072036E+03</rscale>
<asrwt>0</asrwt>
<pdfrwt beam="1">  1        2 0.22848883E+00 0.41072036E+03</pdfrwt>
<pdfrwt beam="2">  1       -2 0.37667902E-02 0.41072036E+03</pdfrwt>
<totfact> 0.41921265E+03</totfact>
</mgrwt>
</event>
<event>
 4    1  0.6239849E-005  0.4166675E+03  0.7818608E-02  0.1038156E+00
         -2   -1    0    0    0  501 -0.00000000000E+00  0.00000000000E+00  0.74147272110E+02  0.74147272154E+02  0.25500000000E-02 0. -1.
          2   -1    0    0  501    0  0.00000000000E+00 -0.00000000000E+00 -0.58536146118E+03  0.58536146119E+03  0.25500000000E-02 0.  1.
    5000001    1    1    2    0    0  0.28198290365E+02 -0.63831925104E+02 -0.16621926192E+03  0.26046593112E+03  0.18800000000E+03 0.  0.
   -5000001    1    1    2    0    0 -0.28198290365E+02  0.63831925104E+02 -0.34499492715E+03  0.39904280222E+03  0.18800000000E+03 0.  0.
<mgrwt>
<rscale>  0 0.41666752E+03</rscale>
<asrwt>0</asrwt>
<pdfrwt beam="1">  1        2 0.83623064E-01 0.41666752E+03</pdfrwt>
<pdfrwt beam="2">  1       -2 0.10592468E-01 0.41666752E+03</pdfrwt>
<totfact> 0.34489161E+03</totfact>
</mgrwt>
</event>
<event>
 4    1  0.6239849E-005  0.4581346E+03  0.7818608E-02  0.1025324E+00
         -2   -1    0    0    0  501 -0.00000000000E+00  0.00000000000E+00  0.61405252567E+02  0.61405252619E+02  0.25500000000E-02 0. -1.
          2   -1    0    0  501    0  0.00000000000E+00 -0.00000000000E+00 -0.85451680707E+03  0.85451680707E+03  0.25500000000E-02 0.  1.
    5000001    1    1    2    0    0 -0.75318667263E+02 -0.64666417661E+02 -0.22605458436E+03  0.31032132109E+03  0.18800000000E+03 0.  0.
   -5000001    1    1    2    0    0  0.75318667263E+02  0.64666417661E+02 -0.56705697014E+03  0.60560073861E+03  0.18800000000E+03 0.  0.
<mgrwt>
<rscale>  0 0.45813457E+03</rscale>
<asrwt>0</asrwt>
<pdfrwt beam="1">  1        2 0.12207382E+00 0.45813457E+03</pdfrwt>
<pdfrwt beam="2">  1       -2 0.87721795E-02 0.45813457E+03</pdfrwt>
<totfact> 0.29477142E+03</totfact>
</mgrwt>
</event>
<event>
 4    1  0.6239849E-005  0.5157188E+03  0.7818608E-02  0.1009756E+00
         -2   -1    0    0    0  501 -0.00000000000E+00  0.00000000000E+00  0.33363194056E+02  0.33363194153E+02  0.25500000000E-02 0. -1.
          2   -1    0    0  501    0  0.00000000000E+00 -0.00000000000E+00 -0.19929585205E+04  0.19929585205E+04  0.25500000000E-02 0.  1.
    5000001    1    1    2    0    0  0.61949108379E+02 -0.10683355371E+03 -0.14751843492E+04  0.14922345541E+04  0.18800000000E+03 0.  0.
   -5000001    1    1    2    0    0 -0.61949108379E+02  0.10683355371E+03 -0.48441097724E+03  0.53408716058E+03  0.18800000000E+03 0.  0.
<mgrwt>
<rscale>  0 0.51571877E+03</rscale>
<asrwt>0</asrwt>
<pdfrwt beam="1">  1        2 0.28470828E+00 0.51571877E+03</pdfrwt>
<pdfrwt beam="2">  1       -2 0.47661719E-02 0.51571877E+03</pdfrwt>
<totfact> 0.18522772E+03</totfact>
</mgrwt>
</event>
<event>
 4    1  0.6239849E-005  0.6534620E+03  0.7818608E-02  0.9800305E-01
          2   -1    0    0  501    0  0.00000000000E+00  0.00000000000E+00  0.56979804754E+03  0.56979804755E+03  0.25500000000E-02 0.  1.
         -2   -1    0    0    0  501 -0.00000000000E+00 -0.00000000000E+00 -0.18735258189E+03  0.18735258191E+03  0.25500000000E-02 0. -1.
    5000001    1    1    2    0    0  0.15950611729E+03 -0.18250784256E+03  0.32158186270E+03  0.44442120613E+03  0.18800000000E+03 0.  0.
   -5000001    1    1    2    0    0 -0.15950611729E+03  0.18250784256E+03  0.60863602952E+02  0.31272942332E+03  0.18800000000E+03 0.  0.
<mgrwt>
<rscale>  0 0.65346197E+03</rscale>
<asrwt>0</asrwt>
<pdfrwt beam="1">  1        2 0.81399721E-01 0.65346197E+03</pdfrwt>
<pdfrwt beam="2">  1       -2 0.26764655E-01 0.65346197E+03</pdfrwt>
<totfact> 0.73284004E+02</totfact>
</mgrwt>
</event>
<event>
 4    1  0.6239849E-005  0.8071911E+03  0.7818608E-02  0.9549666E-01
         -2   -1    0    0    0  501 -0.00000000000E+00  0.00000000000E+00  0.23788286028E+03  0.23788286029E+03  0.25500000000E-02 0. -1.
          2   -1    0    0  501    0  0.00000000000E+00 -0.00000000000E+00 -0.68474612747E+03  0.68474612747E+03  0.25500000000E-02 0.  1.
    5000001    1    1    2    0    0 -0.66394711169E+01 -0.34546201151E+03 -0.32666581228E+03  0.51131461634E+03  0.18800000000E+03 0.  0.
   -5000001    1    1    2    0    0  0.66394711169E+01  0.34546201151E+03 -0.12019745491E+03  0.41131437143E+03  0.18800000000E+03 0.  0.
<mgrwt>
<rscale>  0 0.80719110E+03</rscale>
<asrwt>0</asrwt>
<pdfrwt beam="1">  1        2 0.97820875E-01 0.80719110E+03</pdfrwt>
<pdfrwt beam="2">  1       -2 0.33983266E-01 0.80719110E+03</pdfrwt>
<totfact> 0.37608258E+02</totfact>
</mgrwt>
</event>
<event>
 4    1  0.6239849E-005  0.7017171E+03  0.7818608E-02  0.9714300E-01
          2   -1    0    0  501    0  0.00000000000E+00  0.00000000000E+00  0.58966765789E+03  0.58966765790E+03  0.25500000000E-02 0.  1.
         -2   -1    0    0    0  501 -0.00000000000E+00 -0.00000000000E+00 -0.20876455321E+03  0.20876455323E+03  0.25500000000E-02 0. -1.
    5000001    1    1    2    0    0  0.23830042321E+03 -0.17203693379E+03  0.14827659365E+03  0.37909595951E+03  0.18800000000E+03 0.  0.
   -5000001    1    1    2    0    0 -0.23830042321E+03  0.17203693379E+03  0.23262651103E+03  0.41933625162E+03  0.18800000000E+03 0.  0.
<mgrwt>
<rscale>  0 0.70171705E+03</rscale>
<asrwt>0</asrwt>
<pdfrwt beam="1">  1        2 0.84238237E-01 0.70171705E+03</pdfrwt>
<pdfrwt beam="2">  1       -2 0.29823507E-01 0.70171705E+03</pdfrwt>
<totfact> 0.57662309E+02</totfact>
</mgrwt>
</event>
<event>
 4    1  0.6239849E-005  0.9823640E+03  0.7818608E-02  0.9328102E-01
         -2   -1    0    0    0  501 -0.00000000000E+00  0.00000000000E+00  0.25978284510E+03  0.25978284512E+03  0.25500000000E-02 0. -1.
          2   -1    0    0  501    0  0.00000000000E+00 -0.00000000000E+00 -0.92869782389E+03  0.92869782389E+03  0.25500000000E-02 0.  1.
    5000001    1    1    2    0    0  0.38446846768E+03 -0.15383163339E+03 -0.55896115438E+03  0.72059818636E+03  0.18800000000E+03 0.  0.
   -5000001    1    1    2    0    0 -0.38446846768E+03  0.15383163339E+03 -0.10995382441E+03  0.46788248265E+03  0.18800000000E+03 0.  0.
<mgrwt>
<rscale>  0 0.98236401E+03</rscale>
<asrwt>0</asrwt>
<pdfrwt beam="1">  1        2 0.13267112E+00 0.98236401E+03</pdfrwt>
<pdfrwt beam="2">  1       -2 0.37111836E-01 0.98236401E+03</pdfrwt>
<totfact> 0.21260718E+02</totfact>
</mgrwt>
</event>
<event>
 4    1  0.6239849E-005  0.6941911E+03  0.7818608E-02  0.9727218E-01
          2   -1    0    0  501    0  0.00000000000E+00  0.00000000000E+00  0.29691356678E+04  0.29691356678E+04  0.25500000000E-02 0.  1.
         -2   -1    0    0    0  501 -0.00000000000E+00 -0.00000000000E+00 -0.40575890275E+02  0.40575890356E+02  0.25500000000E-02 0. -1.
    5000001    1    1    2    0    0 -0.29741887491E+02 -0.26459017109E+03  0.94693246382E+03  0.10014577523E+04  0.18800000000E+03 0.  0.
   -5000001    1    1    2    0    0  0.29741887491E+02  0.26459017109E+03  0.19816273137E+04  0.20082538059E+04  0.18800000000E+03 0.  0.
<mgrwt>
<rscale>  0 0.69419111E+03</rscale>
<asrwt>0</asrwt>
<pdfrwt beam="1">  1        2 0.42416232E+00 0.69419111E+03</pdfrwt>
<pdfrwt beam="2">  1       -2 0.57965547E-02 0.69419111E+03</pdfrwt>
<totfact> 0.42332931E+02</totfact>
</mgrwt>
</event>
<event>
 4    1  0.6239849E-005  0.5062206E+03  0.7818608E-02  0.1012168E+00
         -2   -1    0    0    0  501 -0.00000000000E+00  0.00000000000E+00  0.40022967905E+02  0.40022967987E+02  0.25500000000E-02 0. -1.
          2   -1    0    0  501    0  0.00000000000E+00 -0.00000000000E+00 -0.16007015790E+04  0.16007015790E+04  0.25500000000E-02 0.  1.
    5000001    1    1    2    0    0 -0.78640635163E+01  0.13336814383E+03 -0.44239197069E+03  0.49890235620E+03  0.18800000000E+03 0.  0.
   -5000001    1    1    2    0    0  0.78640635163E+01 -0.13336814383E+03 -0.11182866404E+04  0.11418221908E+04  0.18800000000E+03 0.  0.
<mgrwt>
<rscale>  0 0.50622062E+03</rscale>
<asrwt>0</asrwt>
<pdfrwt beam="1">  1        2 0.22867161E+00 0.50622062E+03</pdfrwt>
<pdfrwt beam="2">  1       -2 0.57175678E-02 0.50622062E+03</pdfrwt>
<totfact> 0.22018364E+03</totfact>
</mgrwt>
</event>
<event>
 4    1  0.6239849E-005  0.4750674E+03  0.7818608E-02  0.1020500E+00
         -2   -1    0    0    0  501 -0.00000000000E+00  0.00000000000E+00  0.70819178463E+02  0.70819178509E+02  0.25500000000E-02 0. -1.
          2   -1    0    0  501    0  0.00000000000E+00 -0.00000000000E+00 -0.79670864522E+03  0.79670864523E+03  0.25500000000E-02 0.  1.
    5000001    1    1    2    0    0 -0.73022023365E+02  0.12437775234E+03 -0.33259545544E+03  0.40836965871E+03  0.18800000000E+03 0.  0.
   -5000001    1    1    2    0    0  0.73022023365E+02 -0.12437775234E+03 -0.39329401132E+03  0.45915816503E+03  0.18800000000E+03 0.  0.
<mgrwt>
<rscale>  0 0.47506737E+03</rscale>
<asrwt>0</asrwt>
<pdfrwt beam="1">  1        2 0.11381552E+00 0.47506737E+03</pdfrwt>
<pdfrwt beam="2">  1       -2 0.10117026E-01 0.47506737E+03</pdfrwt>
<totfact> 0.25655138E+03</totfact>
</mgrwt>
</event>
<event>
 4    1  0.6239849E-005  0.5772246E+03  0.7818608E-02  0.9953818E-01
          2   -1    0    0  501    0  0.00000000000E+00  0.00000000000E+00  0.27734352652E+04  0.27734352652E+04  0.25500000000E-02 0.  1.
         -2   -1    0    0    0  501 -0.00000000000E+00 -0.00000000000E+00 -0.30033894992E+02  0.30033895101E+02  0.25500000000E-02 0. -1.
    5000001    1    1    2    0    0 -0.21174765412E+02 -0.15821508040E+03  0.20997794888E+04  0.21142133960E+04  0.18800000000E+03 0.  0.
   -5000001    1    1    2    0    0  0.21174765412E+02  0.15821508040E+03  0.64362188138E+03  0.68925576425E+03  0.18800000000E+03 0.  0.
<mgrwt>
<rscale>  0 0.57722461E+03</rscale>
<asrwt>0</asrwt>
<pdfrwt beam="1">  1        2 0.39620497E+00 0.57722461E+03</pdfrwt>
<pdfrwt beam="2">  1       -2 0.42905571E-02 0.57722461E+03</pdfrwt>
<totfact> 0.86890586E+02</totfact>
</mgrwt>
</event>
<event>
 4    1  0.6239849E-005  0.8770033E+03  0.7818608E-02  0.9454794E-01
         -2   -1    0    0    0  501 -0.00000000000E+00  0.00000000000E+00  0.21093869441E+03  0.21093869443E+03  0.25500000000E-02 0. -1.
          2   -1    0    0  501    0  0.00000000000E+00 -0.00000000000E+00 -0.91156194520E+03  0.91156194520E+03  0.25500000000E-02 0.  1.
    5000001    1    1    2    0    0 -0.57495398992E+01  0.35444222498E+03 -0.12395131701E+03  0.41996461404E+03  0.18800000000E+03 0.  0.
   -5000001    1    1    2    0    0  0.57495398992E+01 -0.35444222498E+03 -0.57667193377E+03  0.70253602559E+03  0.18800000000E+03 0.  0.
<mgrwt>
<rscale>  0 0.87700328E+03</rscale>
<asrwt>0</asrwt>
<pdfrwt beam="1">  1        2 0.13022313E+00 0.87700328E+03</pdfrwt>
<pdfrwt beam="2">  1       -2 0.30134100E-01 0.87700328E+03</pdfrwt>
<totfact> 0.32509889E+02</totfact>
</mgrwt>
</event>
<event>
 4    1  0.6239849E-005  0.6702568E+03  0.7818608E-02  0.9769494E-01
         -2   -1    0    0    0  501 -0.00000000000E+00  0.00000000000E+00  0.10166729795E+04  0.10166729795E+04  0.25500000000E-02 0. -1.
          2   -1    0    0  501    0  0.00000000000E+00 -0.00000000000E+00 -0.11046919879E+03  0.11046919882E+03  0.25500000000E-02 0.  1.
    5000001    1    1    2    0    0 -0.26027946408E+03 -0.47134955474E+02  0.31240489936E+03  0.45045302152E+03  0.18800000000E+03 0.  0.
   -5000001    1    1    2    0    0  0.26027946408E+03  0.47134955474E+02  0.59379888137E+03  0.67668915683E+03  0.18800000000E+03 0.  0.
<mgrwt>
<rscale>  0 0.67025681E+03</rscale>
<asrwt>0</asrwt>
<pdfrwt beam="1">  1        2 0.15781314E-01 0.67025681E+03</pdfrwt>
<pdfrwt beam="2">  1       -2 0.14523900E+00 0.67025681E+03</pdfrwt>
<totfact> 0.12471596E+02</totfact>
</mgrwt>
</event>
<event>
 4    1  0.6239849E-005  0.6606440E+03  0.7818608E-02  0.9787009E-01
         -2   -1    0    0    0  501 -0.00000000000E+00  0.00000000000E+00  0.57614800102E+02  0.57614800159E+02  0.25500000000E-02 0. -1.
          2   -1    0    0  501    0  0.00000000000E+00 -0.00000000000E+00 -0.18938296964E+04  0.18938296964E+04  0.25500000000E-02 0.  1.
    5000001    1    1    2    0    0 -0.15534906152E+03  0.22187575784E+03 -0.85855698743E+03  0.91968814470E+03  0.18800000000E+03 0.  0.
   -5000001    1    1    2    0    0  0.15534906152E+03 -0.22187575784E+03 -0.97765790886E+03  0.10317563519E+04  0.18800000000E+03 0.  0.
<mgrwt>
<rscale>  0 0.66064399E+03</rscale>
<asrwt>0</asrwt>
<pdfrwt beam="1">  1        2 0.27054706E+00 0.66064399E+03</pdfrwt>
<pdfrwt beam="2">  1       -2 0.82306869E-02 0.66064399E+03</pdfrwt>
<totfact> 0.87470298E+02</totfact>
</mgrwt>
</event>
<event>
 4    1  0.6239849E-005  0.4738186E+03  0.7818608E-02  0.1020848E+00
         -2   -1    0    0    0  501 -0.00000000000E+00  0.00000000000E+00  0.31637198754E+02  0.31637198857E+02  0.25500000000E-02 0. -1.
          2   -1    0    0  501    0  0.00000000000E+00 -0.00000000000E+00 -0.17740513758E+04  0.17740513758E+04  0.25500000000E-02 0.  1.
    5000001    1    1    2    0    0  0.38061142322E+02 -0.13633958541E+03 -0.97521700965E+03  0.10032095240E+04  0.18800000000E+03 0.  0.
   -5000001    1    1    2    0    0 -0.38061142322E+02  0.13633958541E+03 -0.76719716735E+03  0.80247905063E+03  0.18800000000E+03 0.  0.
<mgrwt>
<rscale>  0 0.47381860E+03</rscale>
<asrwt>0</asrwt>
<pdfrwt beam="1">  1        2 0.25343585E+00 0.47381860E+03</pdfrwt>
<pdfrwt beam="2">  1       -2 0.45196010E-02 0.47381860E+03</pdfrwt>
<totfact> 0.25900344E+03</totfact>
</mgrwt>
</event>
<event>
 4    1  0.6239849E-005  0.4460372E+03  0.7818608E-02  0.1028910E+00
          2   -1    0    0  501    0  0.00000000000E+00  0.00000000000E+00  0.40302847129E+03  0.40302847130E+03  0.25500000000E-02 0.  1.
         -2   -1    0    0    0  501 -0.00000000000E+00 -0.00000000000E+00 -0.12340886952E+03  0.12340886955E+03  0.25500000000E-02 0. -1.
    5000001    1    1    2    0    0 -0.10057377259E+03 -0.65141798527E+02  0.13285226474E+03  0.25952314327E+03  0.18800000000E+03 0.  0.
   -5000001    1    1    2    0    0  0.10057377259E+03  0.65141798527E+02  0.14676733703E+03  0.26691419757E+03  0.18800000000E+03 0.  0.
<mgrwt>
<rscale>  0 0.44603716E+03</rscale>
<asrwt>0</asrwt>
<pdfrwt beam="1">  1        2 0.57575496E-01 0.44603716E+03</pdfrwt>
<pdfrwt beam="2">  1       -2 0.17629838E-01 0.44603716E+03</pdfrwt>
<totfact> 0.22581708E+03</totfact>
</mgrwt>
</event>
<event>
 4    1  0.6239849E-005  0.4546098E+03  0.7818608E-02  0.1026356E+00
          2   -1    0    0  501    0  0.00000000000E+00  0.00000000000E+00  0.39299731508E+03  0.39299731509E+03  0.25500000000E-02 0.  1.
         -2   -1    0    0    0  501 -0.00000000000E+00 -0.00000000000E+00 -0.13147043527E+03  0.13147043529E+03  0.25500000000E-02 0. -1.
    5000001    1    1    2    0    0 -0.97426756564E+02  0.41333949962E+02  0.21333769452E+03  0.30340969038E+03  0.18800000000E+03 0.  0.
   -5000001    1    1    2    0    0  0.97426756564E+02 -0.41333949962E+02  0.48189185298E+02  0.22105806001E+03  0.18800000000E+03 0.  0.
<mgrwt>
<rscale>  0 0.45460985E+03</rscale>
<asrwt>0</asrwt>
<pdfrwt beam="1">  1        2 0.56142474E-01 0.45460985E+03</pdfrwt>
<pdfrwt beam="2">  1       -2 0.18781491E-01 0.45460985E+03</pdfrwt>
<totfact> 0.20840980E+03</totfact>
</mgrwt>
</event>
<event>
 4    1  0.6239849E-005  0.4305038E+03  0.7818608E-02  0.1033701E+00
         -2   -1    0    0    0  501 -0.00000000000E+00  0.00000000000E+00  0.19608495443E+02  0.19608495608E+02  0.25500000000E-02 0. -1.
          2   -1    0    0  501    0  0.00000000000E+00 -0.00000000000E+00 -0.23629236337E+04  0.23629236337E+04  0.25500000000E-02 0.  1.
    5000001    1    1    2    0    0 -0.11402287047E+02  0.15592686520E+02 -0.60143156170E+03  0.63042609989E+03  0.18800000000E+03 0.  0.
   -5000001    1    1    2    0    0  0.11402287047E+02 -0.15592686520E+02 -0.17418835766E+04  0.17521060294E+04  0.18800000000E+03 0.  0.
<mgrwt>
<rscale>  0 0.43050379E+03</rscale>
<asrwt>0</asrwt>
<pdfrwt beam="1">  1        2 0.33756034E+00 0.43050379E+03</pdfrwt>
<pdfrwt beam="2">  1       -2 0.28012151E-02 0.43050379E+03</pdfrwt>
<totfact> 0.27286504E+03</totfact>
</mgrwt>
</event>
<event>
 4    1  0.6239849E-005  0.4241690E+03  0.7818608E-02  0.1035718E+00
         -2   -1    0    0    0  501 -0.00000000000E+00  0.00000000000E+00  0.21307720711E+03  0.21307720712E+03  0.25500000000E-02 0. -1.
          2   -1    0    0  501    0  0.00000000000E+00 -0.00000000000E+00 -0.21109642546E+03  0.21109642548E+03  0.25500000000E-02 0.  1.
    5000001    1    1    2    0    0 -0.88000459052E+02  0.29190591648E+02  0.33234584288E+02  0.21223738838E+03  0.18800000000E+03 0.  0.
   -5000001    1    1    2    0    0  0.88000459052E+02 -0.29190591648E+02 -0.31253802641E+02  0.21193624422E+03  0.18800000000E+03 0.  0.
<mgrwt>
<rscale>  0 0.42416901E+03</rscale>
<asrwt>0</asrwt>
<pdfrwt beam="1">  1        2 0.30156632E-01 0.42416901E+03</pdfrwt>
<pdfrwt beam="2">  1       -2 0.30439601E-01 0.42416901E+03</pdfrwt>
<totfact> 0.17504783E+03</totfact>
</mgrwt>
</event>
<event>
 4    1  0.6239849E-005  0.5608644E+03  0.7818608E-02  0.9990101E-01
          2   -1    0    0  501    0  0.00000000000E+00  0.00000000000E+00  0.14517042407E+04  0.14517042407E+04  0.25500000000E-02 0.  1.
         -2   -1    0    0    0  501 -0.00000000000E+00 -0.00000000000E+00 -0.54172345630E+02  0.54172345690E+02  0.25500000000E-02 0. -1.
    5000001    1    1    2    0    0 -0.20719304070E+03  0.18743879963E+01  0.64741761773E+03  0.70528436902E+03  0.18800000000E+03 0.  0.
   -5000001    1    1    2    0    0  0.20719304070E+03 -0.18743879963E+01  0.75011427737E+03  0.80059221739E+03  0.18800000000E+03 0.  0.
<mgrwt>
<rscale>  0 0.56086442E+03</rscale>
<asrwt>0</asrwt>
<pdfrwt beam="1">  1        2 0.20738630E+00 0.56086442E+03</pdfrwt>
<pdfrwt beam="2">  1       -2 0.77389073E-02 0.56086442E+03</pdfrwt>
<totfact> 0.16314918E+03</totfact>
</mgrwt>
</event>
<event>
 4    1  0.6239849E-005  0.5615303E+03  0.7818608E-02  0.9988598E-01
          2   -1    0    0  501    0  0.00000000000E+00  0.00000000000E+00  0.27351258318E+03  0.27351258320E+03  0.25500000000E-02 0.  1.
         -2   -1    0    0    0  501 -0.00000000000E+00 -0.00000000000E+00 -0.28821004913E+03  0.28821004914E+03  0.25500000000E-02 0. -1.
    5000001    1    1    2    0    0  0.79969496402E+02 -0.16289769542E+03 -0.11011801830E+03  0.28355027329E+03  0.18800000000E+03 0.  0.
   -5000001    1    1    2    0    0 -0.79969496402E+02  0.16289769542E+03  0.95420552354E+02  0.27817235905E+03  0.18800000000E+03 0.  0.
<mgrwt>
<rscale>  0 0.56153032E+03</rscale>
<asrwt>0</asrwt>
<pdfrwt beam="1">  1        2 0.39073226E-01 0.56153032E+03</pdfrwt>
<pdfrwt beam="2">  1       -2 0.41172864E-01 0.56153032E+03</pdfrwt>
<totfact> 0.74246176E+02</totfact>
</mgrwt>
</event>
<event>
 4    1  0.6239849E-005  0.1263946E+04  0.7818608E-02  0.9058655E-01
          2   -1    0    0  501    0  0.00000000000E+00  0.00000000000E+00  0.12345670863E+04  0.12345670863E+04  0.25500000000E-02 0.  1.
         -2   -1    0    0    0  501 -0.00000000000E+00 -0.00000000000E+00 -0.32350605076E+03  0.32350605077E+03  0.25500000000E-02 0. -1.
    5000001    1    1    2    0    0 -0.29654797425E+03  0.52173979273E+03  0.53244195109E+03  0.82400943176E+03  0.18800000000E+03 0.  0.
   -5000001    1    1    2    0    0  0.29654797425E+03 -0.52173979273E+03  0.37861908443E+03  0.73406370530E+03  0.18800000000E+03 0.  0.
<mgrwt>
<rscale>  0 0.12639461E+04</rscale>
<asrwt>0</asrwt>
<pdfrwt beam="1">  1        2 0.17636673E+00 0.12639461E+04</pdfrwt>
<pdfrwt beam="2">  1       -2 0.46215149E-01 0.12639461E+04</pdfrwt>
<totfact> 0.89095652E+01</totfact>
</mgrwt>
</event>
<event>
 4    1  0.6239849E-005  0.4509875E+03  0.7818608E-02  0.1027428E+00
         -2   -1    0    0    0  501 -0.00000000000E+00  0.00000000000E+00  0.28208110634E+02  0.28208110749E+02  0.25500000000E-02 0. -1.
          2   -1    0    0  501    0  0.00000000000E+00 -0.00000000000E+00 -0.18025820257E+04  0.18025820257E+04  0.25500000000E-02 0.  1.
    5000001    1    1    2    0    0  0.69520224949E+02  0.10284016094E+03 -0.84777141009E+03  0.87719411999E+03  0.18800000000E+03 0.  0.
   -5000001    1    1    2    0    0 -0.69520224949E+02 -0.10284016094E+03 -0.92660250499E+03  0.95359601647E+03  0.18800000000E+03 0.  0.
<mgrwt>
<rscale>  0 0.45098751E+03</rscale>
<asrwt>0</asrwt>
<pdfrwt beam="1">  1        2 0.25751165E+00 0.45098751E+03</pdfrwt>
<pdfrwt beam="2">  1       -2 0.40297312E-02 0.45098751E+03</pdfrwt>
<totfact> 0.29890685E+03</totfact>
</mgrwt>
</event>
<event>
 4    1  0.6239849E-005  0.7619206E+03  0.7818608E-02  0.9616832E-01
         -2   -1    0    0    0  501 -0.00000000000E+00  0.00000000000E+00  0.49481431320E+02  0.49481431385E+02  0.25500000000E-02 0. -1.
          2   -1    0    0  501    0  0.00000000000E+00 -0.00000000000E+00 -0.29330349645E+04  0.29330349645E+04  0.25500000000E-02 0.  1.
    5000001    1    1    2    0    0 -0.21505882332E+03  0.16614939031E+03 -0.21837817941E+04  0.22086427601E+04  0.18800000000E+03 0.  0.
   -5000001    1    1    2    0    0  0.21505882332E+03 -0.16614939031E+03 -0.69977173905E+03  0.77387363578E+03  0.18800000000E+03 0.  0.
<mgrwt>
<rscale>  0 0.76192065E+03</rscale>
<asrwt>0</asrwt>
<pdfrwt beam="1">  1        2 0.41900489E+00 0.76192065E+03</pdfrwt>
<pdfrwt beam="2">  1       -2 0.70687778E-02 0.76192065E+03</pdfrwt>
<totfact> 0.32176893E+02</totfact>
</mgrwt>
</event>
<event>
 4    1  0.6239849E-005  0.5923251E+03  0.7818608E-02  0.9921458E-01
          2   -1    0    0  501    0  0.00000000000E+00  0.00000000000E+00  0.14862038190E+03  0.14862038192E+03  0.25500000000E-02 0.  1.
         -2   -1    0    0    0  501 -0.00000000000E+00 -0.00000000000E+00 -0.59017646596E+03  0.59017646597E+03  0.25500000000E-02 0. -1.
    5000001    1    1    2    0    0  0.90620269891E+02  0.18621599638E+03 -0.99337141285E+02  0.29681694403E+03  0.18800000000E+03 0.  0.
   -5000001    1    1    2    0    0 -0.90620269891E+02 -0.18621599638E+03 -0.34221894278E+03  0.44197990386E+03  0.18800000000E+03 0.  0.
<mgrwt>
<rscale>  0 0.59232509E+03</rscale>
<asrwt>0</asrwt>
<pdfrwt beam="1">  1        2 0.21231483E-01 0.59232509E+03</pdfrwt>
<pdfrwt beam="2">  1       -2 0.84310922E-01 0.59232509E+03</pdfrwt>
<totfact> 0.32857961E+02</totfact>
</mgrwt>
</event>
<event>
 4    1  0.6239849E-005  0.5896221E+03  0.7818608E-02  0.9927174E-01
          2   -1    0    0  501    0  0.00000000000E+00  0.00000000000E+00  0.15336057470E+04  0.15336057470E+04  0.25500000000E-02 0.  1.
         -2   -1    0    0    0  501 -0.00000000000E+00 -0.00000000000E+00 -0.56672685913E+02  0.56672685970E+02  0.25500000000E-02 0. -1.
    5000001    1    1    2    0    0  0.22231700746E+03  0.42669989816E+02  0.78701287299E+03  0.84022547099E+03  0.18800000000E+03 0.  0.
   -5000001    1    1    2    0    0 -0.22231700746E+03 -0.42669989816E+02  0.68992018805E+03  0.75005296194E+03  0.18800000000E+03 0.  0.
<mgrwt>
<rscale>  0 0.58962211E+03</rscale>
<asrwt>0</asrwt>
<pdfrwt beam="1">  1        2 0.21908650E+00 0.58962211E+03</pdfrwt>
<pdfrwt beam="2">  1       -2 0.80960993E-02 0.58962211E+03</pdfrwt>
<totfact> 0.13750307E+03</totfact>
</mgrwt>
</event>
<event>
 4    1  0.6239849E-005  0.5213236E+03  0.7818608E-02  0.1008358E+00
          2   -1    0    0  501    0  0.00000000000E+00  0.00000000000E+00  0.26136569156E+04  0.26136569156E+04  0.25500000000E-02 0.  1.
         -2   -1    0    0    0  501 -0.00000000000E+00 -0.00000000000E+00 -0.25995976057E+02  0.25995976182E+02  0.25500000000E-02 0. -1.
    5000001    1    1    2    0    0  0.25186742820E+02  0.17263963455E+03  0.15292497015E+04  0.15506087402E+04  0.18800000000E+03 0.  0.
   -5000001    1    1    2    0    0 -0.25186742820E+02 -0.17263963455E+03  0.10584112380E+04  0.10890441516E+04  0.18800000000E+03 0.  0.
<mgrwt>
<rscale>  0 0.52132356E+03</rscale>
<asrwt>0</asrwt>
<pdfrwt beam="1">  1        2 0.37337937E+00 0.52132356E+03</pdfrwt>
<pdfrwt beam="2">  1       -2 0.37137128E-02 0.52132356E+03</pdfrwt>
<totfact> 0.13193372E+03</totfact>
</mgrwt>
</event>
<event>
 4    1  0.6239849E-005  0.5918268E+03  0.7818608E-02  0.9922509E-01
          2   -1    0    0  501    0  0.00000000000E+00  0.00000000000E+00  0.44353113209E+03  0.44353113210E+03  0.25500000000E-02 0.  1.
         -2   -1    0    0    0  501 -0.00000000000E+00 -0.00000000000E+00 -0.19742638940E+03  0.19742638942E+03  0.25500000000E-02 0. -1.
    5000001    1    1    2    0    0  0.98574271118E+02  0.13862595152E+03 -0.42215582902E+02  0.25702178274E+03  0.18800000000E+03 0.  0.
   -5000001    1    1    2    0    0 -0.98574271118E+02 -0.13862595152E+03  0.28832032559E+03  0.38393573878E+03  0.18800000000E+03 0.  0.
<mgrwt>
<rscale>  0 0.59182683E+03</rscale>
<asrwt>0</asrwt>
<pdfrwt beam="1">  1        2 0.63361590E-01 0.59182683E+03</pdfrwt>
<pdfrwt beam="2">  1       -2 0.28203770E-01 0.59182683E+03</pdfrwt>
<totfact> 0.88751201E+02</totfact>
</mgrwt>
</event>
<event>
 4    1  0.6239849E-005  0.6733035E+03  0.7818608E-02  0.9764008E-01
         -2   -1    0    0    0  501 -0.00000000000E+00  0.00000000000E+00  0.23226850164E+03  0.23226850165E+03  0.25500000000E-02 0. -1.
          2   -1    0    0  501    0  0.00000000000E+00 -0.00000000000E+00 -0.48794562870E+03  0.48794562870E+03  0.25500000000E-02 0.  1.
    5000001    1    1    2    0    0  0.52330748537E+02 -0.17625269509E+03 -0.35269091688E+03  0.43992999740E+03  0.18800000000E+03 0.  0.
   -5000001    1    1    2    0    0 -0.52330748537E+02  0.17625269509E+03  0.97013789822E+02  0.28028413295E+03  0.18800000000E+03 0.  0.
<mgrwt>
<rscale>  0 0.67330350E+03</rscale>
<asrwt>0</asrwt>
<pdfrwt beam="1">  1        2 0.69706518E-01 0.67330350E+03</pdfrwt>
<pdfrwt beam="2">  1       -2 0.33181215E-01 0.67330350E+03</pdfrwt>
<totfact> 0.58861149E+02</totfact>
</mgrwt>
</event>
<event>
 4    1  0.6239849E-005  0.4383122E+03  0.7818608E-02  0.1031266E+00
          2   -1    0    0  501    0  0.00000000000E+00  0.00000000000E+00  0.30505284198E+03  0.30505284199E+03  0.25500000000E-02 0.  1.
         -2   -1    0    0    0  501 -0.00000000000E+00 -0.00000000000E+00 -0.15744617265E+03  0.15744617267E+03  0.25500000000E-02 0. -1.
    5000001    1    1    2    0    0 -0.55075226266E+02 -0.87905110704E+02  0.27509672181E+02  0.21647487406E+03  0.18800000000E+03 0.  0.
   -5000001    1    1    2    0    0  0.55075226266E+02  0.87905110704E+02  0.12009699714E+03  0.24602414060E+03  0.18800000000E+03 0.  0.
<mgrwt>
<rscale>  0 0.43831223E+03</rscale>
<asrwt>0</asrwt>
<pdfrwt beam="1">  1        2 0.43578976E-01 0.43831223E+03</pdfrwt>
<pdfrwt beam="2">  1       -2 0.22492311E-01 0.43831223E+03</pdfrwt>
<totfact> 0.20104953E+03</totfact>
</mgrwt>
</event>
<event>
 4    1  0.6239849E-005  0.4778855E+03  0.7818608E-02  0.1019718E+00
          2   -1    0    0  501    0  0.00000000000E+00  0.00000000000E+00  0.37859731120E+03  0.37859731121E+03  0.25500000000E-02 0.  1.
         -2   -1    0    0    0  501 -0.00000000000E+00 -0.00000000000E+00 -0.15080309222E+03  0.15080309224E+03  0.25500000000E-02 0. -1.
    5000001    1    1    2    0    0  0.12489932721E+03  0.24714692997E+02  0.19634424457E+03  0.30017614890E+03  0.18800000000E+03 0.  0.
   -5000001    1    1    2    0    0 -0.12489932721E+03 -0.24714692997E+02  0.31449974406E+02  0.22922425456E+03  0.18800000000E+03 0.  0.
<mgrwt>
<rscale>  0 0.47788553E+03</rscale>
<asrwt>0</asrwt>
<pdfrwt beam="1">  1        2 0.54085330E-01 0.47788553E+03</pdfrwt>
<pdfrwt beam="2">  1       -2 0.21543299E-01 0.47788553E+03</pdfrwt>
<totfact> 0.17126340E+03</totfact>
</mgrwt>
</event>
<event>
 4    1  0.6239849E-005  0.6454653E+03  0.7818608E-02  0.9815326E-01
          2   -1    0    0  501    0  0.00000000000E+00  0.00000000000E+00  0.12719274132E+04  0.12719274132E+04  0.25500000000E-02 0.  1.
         -2   -1    0    0    0  501 -0.00000000000E+00 -0.00000000000E+00 -0.81888603674E+02  0.81888603714E+02  0.25500000000E-02 0. -1.
    5000001    1    1    2    0    0  0.19723254158E+03 -0.16939237295E+03  0.52182227229E+03  0.61256586204E+03  0.18800000000E+03 0.  0.
   -5000001    1    1    2    0    0 -0.19723254158E+03  0.16939237295E+03  0.66821653719E+03  0.74125015484E+03  0.18800000000E+03 0.  0.
<mgrwt>
<rscale>  0 0.64546529E+03</rscale>
<asrwt>0</asrwt>
<pdfrwt beam="1">  1        2 0.18170392E+00 0.64546529E+03</pdfrwt>
<pdfrwt beam="2">  1       -2 0.11698372E-01 0.64546529E+03</pdfrwt>
<totfact> 0.10422130E+03</totfact>
</mgrwt>
</event>
<event>
 4    1  0.6239849E-005  0.5942666E+03  0.7818608E-02  0.9917373E-01
          2   -1    0    0  501    0  0.00000000000E+00  0.00000000000E+00  0.10027031876E+04  0.10027031876E+04  0.25500000000E-02 0.  1.
         -2   -1    0    0    0  501 -0.00000000000E+00 -0.00000000000E+00 -0.88050182305E+02  0.88050182342E+02  0.25500000000E-02 0. -1.
    5000001    1    1    2    0    0  0.53584274042E+02 -0.21367471585E+03  0.57929894867E+03  0.64765687717E+03  0.18800000000E+03 0.  0.
   -5000001    1    1    2    0    0 -0.53584274042E+02  0.21367471585E+03  0.33535405663E+03  0.44309649278E+03  0.18800000000E+03 0.  0.
<mgrwt>
<rscale>  0 0.59426660E+03</rscale>
<asrwt>0</asrwt>
<pdfrwt beam="1">  1        2 0.14324331E+00 0.59426660E+03</pdfrwt>
<pdfrwt beam="2">  1       -2 0.12578598E-01 0.59426660E+03</pdfrwt>
<totfact> 0.13230172E+03</totfact>
</mgrwt>
</event>
<event>
 4    1  0.6239849E-005  0.7446309E+03  0.7818608E-02  0.9643811E-01
         -2   -1    0    0    0  501 -0.00000000000E+00  0.00000000000E+00  0.57249976950E+03  0.57249976951E+03  0.25500000000E-02 0.  1.
          2   -1    0    0  501    0  0.00000000000E+00 -0.00000000000E+00 -0.24212898375E+03  0.24212898377E+03  0.25500000000E-02 0. -1.
    5000001    1    1    2    0    0  0.22504315493E+03 -0.21586635096E+03  0.80217980133E+02  0.37285604111E+03  0.18800000000E+03 0.  0.
   -5000001    1    1    2    0    0 -0.22504315493E+03  0.21586635096E+03  0.25015280561E+03  0.44177271216E+03  0.18800000000E+03 0.  0.
<mgrwt>
<rscale>  0 0.74463088E+03</rscale>
<asrwt>0</asrwt>
<pdfrwt beam="1">  1        2 0.34589855E-01 0.74463088E+03</pdfrwt>
<pdfrwt beam="2">  1       -2 0.81785682E-01 0.74463088E+03</pdfrwt>
<totfact> 0.20106188E+02</totfact>
</mgrwt>
</event>
<event>
 4    1  0.6239849E-005  0.6258332E+03  0.7818608E-02  0.9853214E-01
          2   -1    0    0  501    0  0.00000000000E+00  0.00000000000E+00  0.57523354349E+03  0.57523354350E+03  0.25500000000E-02 0.  1.
         -2   -1    0    0    0  501 -0.00000000000E+00 -0.00000000000E+00 -0.17022093838E+03  0.17022093840E+03  0.25500000000E-02 0. -1.
    5000001    1    1    2    0    0 -0.21279621877E+03 -0.42333105482E+02  0.54217973765E+02  0.29216076263E+03  0.18800000000E+03 0.  0.
   -5000001    1    1    2    0    0  0.21279621877E+03  0.42333105482E+02  0.35079463134E+03  0.45329371926E+03  0.18800000000E+03 0.  0.
<mgrwt>
<rscale>  0 0.62583318E+03</rscale>
<asrwt>0</asrwt>
<pdfrwt beam="1">  1        2 0.82176223E-01 0.62583318E+03</pdfrwt>
<pdfrwt beam="2">  1       -2 0.24317276E-01 0.62583318E+03</pdfrwt>
<totfact> 0.86200637E+02</totfact>
</mgrwt>
</event>
<event>
 4    1  0.6239849E-005  0.1786417E+04  0.7818608E-02  0.8713556E-01
          2   -1    0    0  501    0  0.00000000000E+00  0.00000000000E+00  0.19573365611E+04  0.19573365611E+04  0.25500000000E-02 0.  1.
         -2   -1    0    0    0  501 -0.00000000000E+00 -0.00000000000E+00 -0.40760561724E+03  0.40760561725E+03  0.25500000000E-02 0. -1.
    5000001    1    1    2    0    0 -0.79923104595E+03 -0.11808909089E+03  0.33627028755E+03  0.89506257016E+03  0.18800000000E+03 0.  0.
   -5000001    1    1    2    0    0  0.79923104595E+03  0.11808909089E+03  0.12134606563E+04  0.14698796082E+04  0.18800000000E+03 0.  0.
<mgrwt>
<rscale>  0 0.17864169E+04</rscale>
<asrwt>0</asrwt>
<pdfrwt beam="1">  1        2 0.27961951E+00 0.17864169E+04</pdfrwt>
<pdfrwt beam="2">  1       -2 0.58229373E-01 0.17864169E+04</pdfrwt>
<totfact> 0.22066601E+01</totfact>
</mgrwt>
</event>
<event>
 4    1  0.6239849E-005  0.9082581E+03  0.7818608E-02  0.9415317E-01
         -2   -1    0    0    0  501 -0.00000000000E+00  0.00000000000E+00  0.30608646066E+03  0.30608646067E+03  0.25500000000E-02 0. -1.
          2   -1    0    0  501    0  0.00000000000E+00 -0.00000000000E+00 -0.67377436243E+03  0.67377436244E+03  0.25500000000E-02 0.  1.
    5000001    1    1    2    0    0 -0.38806412532E+02  0.38756167760E+03 -0.33325081441E+03  0.54599459421E+03  0.18800000000E+03 0.  0.
   -5000001    1    1    2    0    0  0.38806412532E+02 -0.38756167760E+03 -0.34437087363E+02  0.43386622891E+03  0.18800000000E+03 0.  0.
<mgrwt>
<rscale>  0 0.90825813E+03</rscale>
<asrwt>0</asrwt>
<pdfrwt beam="1">  1        2 0.96253480E-01 0.90825813E+03</pdfrwt>
<pdfrwt beam="2">  1       -2 0.43726637E-01 0.90825813E+03</pdfrwt>
<totfact> 0.23435110E+02</totfact>
</mgrwt>
</event>
<event>
 4    1  0.6239849E-005  0.5440694E+03  0.7818608E-02  0.1002876E+00
         -2   -1    0    0    0  501 -0.00000000000E+00  0.00000000000E+00  0.38090256344E+02  0.38090256429E+02  0.25500000000E-02 0. -1.
          2   -1    0    0  501    0  0.00000000000E+00 -0.00000000000E+00 -0.19428293333E+04  0.19428293333E+04  0.25500000000E-02 0.  1.
    5000001    1    1    2    0    0  0.18266828214E+03 -0.71375252300E+02 -0.10034386543E+04  0.10395649383E+04  0.18800000000E+03 0.  0.
   -5000001    1    1    2    0    0 -0.18266828214E+03  0.71375252300E+02 -0.90130042260E+03  0.94135465141E+03  0.18800000000E+03 0.  0.
<mgrwt>
<rscale>  0 0.54406936E+03</rscale>
<asrwt>0</asrwt>
<pdfrwt beam="1">  1        2 0.27754698E+00 0.54406936E+03</pdfrwt>
<pdfrwt beam="2">  1       -2 0.54414664E-02 0.54406936E+03</pdfrwt>
<totfact> 0.15963105E+03</totfact>
</mgrwt>
</event>
<event>
 4    1  0.6239849E-005  0.6330650E+03  0.7818608E-02  0.9839086E-01
         -2   -1    0    0    0  501 -0.00000000000E+00  0.00000000000E+00  0.57061928252E+02  0.57061928309E+02  0.25500000000E-02 0. -1.
          2   -1    0    0  501    0  0.00000000000E+00 -0.00000000000E+00 -0.17558611127E+04  0.17558611127E+04  0.25500000000E-02 0.  1.
    5000001    1    1    2    0    0 -0.17151153360E+03 -0.14106393260E+03 -0.12063162957E+04  0.12409102484E+04  0.18800000000E+03 0.  0.
   -5000001    1    1    2    0    0  0.17151153360E+03  0.14106393260E+03 -0.49248288876E+03  0.57201279266E+03  0.18800000000E+03 0.  0.
<mgrwt>
<rscale>  0 0.63306499E+03</rscale>
<asrwt>0</asrwt>
<pdfrwt beam="1">  1        2 0.25083727E+00 0.63306499E+03</pdfrwt>
<pdfrwt beam="2">  1       -2 0.81517052E-02 0.63306499E+03</pdfrwt>
<totfact> 0.10446337E+03</totfact>
</mgrwt>
</event>
<event>
 4    1  0.6239849E-005  0.6763397E+03  0.7818608E-02  0.9758572E-01
          2   -1    0    0  501    0  0.00000000000E+00  0.00000000000E+00  0.46997804991E+03  0.46997804991E+03  0.25500000000E-02 0.  1.
         -2   -1    0    0    0  501 -0.00000000000E+00 -0.00000000000E+00 -0.24332804774E+03  0.24332804776E+03  0.25500000000E-02 0. -1.
    5000001    1    1    2    0    0  0.27044278746E+03 -0.50648806362E+02  0.52645680376E+02  0.33737245077E+03  0.18800000000E+03 0.  0.
   -5000001    1    1    2    0    0 -0.27044278746E+03  0.50648806362E+02  0.17400432179E+03  0.37593364690E+03  0.18800000000E+03 0.  0.
<mgrwt>
<rscale>  0 0.67633968E+03</rscale>
<asrwt>0</asrwt>
<pdfrwt beam="1">  1        2 0.67139720E-01 0.67633968E+03</pdfrwt>
<pdfrwt beam="2">  1       -2 0.34761150E-01 0.67633968E+03</pdfrwt>
<totfact> 0.56250147E+02</totfact>
</mgrwt>
</event>
<event>
 4    1  0.6239849E-005  0.9044357E+03  0.7818608E-02  0.9420054E-01
          2   -1    0    0  501    0  0.00000000000E+00  0.00000000000E+00  0.17689307053E+04  0.17689307053E+04  0.25500000000E-02 0.  1.
         -2   -1    0    0    0  501 -0.00000000000E+00 -0.00000000000E+00 -0.11560711547E+03  0.11560711550E+03  0.25500000000E-02 0. -1.
    5000001    1    1    2    0    0 -0.11578755371E+03  0.32152391419E+03  0.13035089552E+04  0.13606116203E+04  0.18800000000E+03 0.  0.
   -5000001    1    1    2    0    0  0.11578755371E+03 -0.32152391419E+03  0.34981463466E+03  0.52392620054E+03  0.18800000000E+03 0.  0.
<mgrwt>
<rscale>  0 0.90443568E+03</rscale>
<asrwt>0</asrwt>
<pdfrwt beam="1">  1        2 0.25270437E+00 0.90443568E+03</pdfrwt>
<pdfrwt beam="2">  1       -2 0.16515303E-01 0.90443568E+03</pdfrwt>
<totfact> 0.31578495E+02</totfact>
</mgrwt>
</event>
<event>
 4    1  0.6239849E-005  0.5614910E+03  0.7818608E-02  0.9988687E-01
         -2   -1    0    0    0  501 -0.00000000000E+00  0.00000000000E+00  0.92735088789E+02  0.92735088824E+02  0.25500000000E-02 0. -1.
          2   -1    0    0  501    0  0.00000000000E+00 -0.00000000000E+00 -0.84992691770E+03  0.84992691770E+03  0.25500000000E-02 0.  1.
    5000001    1    1    2    0    0  0.17642144124E+03  0.10662407566E+03 -0.32601719731E+03  0.42909722836E+03  0.18800000000E+03 0.  0.
   -5000001    1    1    2    0    0 -0.17642144124E+03 -0.10662407566E+03 -0.43117463159E+03  0.51356477816E+03  0.18800000000E+03 0.  0.
<mgrwt>
<rscale>  0 0.56149104E+03</rscale>
<asrwt>0</asrwt>
<pdfrwt beam="1">  1        2 0.12141813E+00 0.56149104E+03</pdfrwt>
<pdfrwt beam="2">  1       -2 0.13247870E-01 0.56149104E+03</pdfrwt>
<totfact> 0.15189212E+03</totfact>
</mgrwt>
</event>
<event>
 4    1  0.6239849E-005  0.5465163E+03  0.7818608E-02  0.1002303E+00
         -2   -1    0    0    0  501 -0.00000000000E+00  0.00000000000E+00  0.14642722845E+03  0.14642722847E+03  0.25500000000E-02 0. -1.
          2   -1    0    0  501    0  0.00000000000E+00 -0.00000000000E+00 -0.50994627858E+03  0.50994627859E+03  0.25500000000E-02 0.  1.
    5000001    1    1    2    0    0  0.19531579262E+03 -0.30793525896E+02 -0.16356426234E+03  0.31810967920E+03  0.18800000000E+03 0.  0.
   -5000001    1    1    2    0    0 -0.19531579262E+03  0.30793525896E+02 -0.19995478779E+03  0.33826382787E+03  0.18800000000E+03 0.  0.
<mgrwt>
<rscale>  0 0.54651631E+03</rscale>
<asrwt>0</asrwt>
<pdfrwt beam="1">  1        2 0.72849468E-01 0.54651631E+03</pdfrwt>
<pdfrwt beam="2">  1       -2 0.20918176E-01 0.54651631E+03</pdfrwt>
<totfact> 0.12936596E+03</totfact>
</mgrwt>
</event>
<event>
 4    1  0.6239849E-005  0.4864214E+03  0.7818608E-02  0.1017385E+00
         -2   -1    0    0    0  501 -0.00000000000E+00  0.00000000000E+00  0.14784338151E+03  0.14784338154E+03  0.25500000000E-02 0. -1.
          2   -1    0    0  501    0  0.00000000000E+00 -0.00000000000E+00 -0.40009534280E+03  0.40009534281E+03  0.25500000000E-02 0.  1.
    5000001    1    1    2    0    0  0.67898675006E+02 -0.12906361528E+03 -0.69355940739E+02  0.24783440716E+03  0.18800000000E+03 0.  0.
   -5000001    1    1    2    0    0 -0.67898675006E+02  0.12906361528E+03 -0.18289602055E+03  0.30010431718E+03  0.18800000000E+03 0.  0.
<mgrwt>
<rscale>  0 0.48642142E+03</rscale>
<asrwt>0</asrwt>
<pdfrwt beam="1">  1        2 0.57156477E-01 0.48642142E+03</pdfrwt>
<pdfrwt beam="2">  1       -2 0.21120483E-01 0.48642142E+03</pdfrwt>
<totfact> 0.16684105E+03</totfact>
</mgrwt>
</event>
<event>
 4    1  0.6239849E-005  0.6403138E+03  0.7818608E-02  0.9825126E-01
          2   -1    0    0  501    0  0.00000000000E+00  0.00000000000E+00  0.17341003782E+03  0.17341003784E+03  0.25500000000E-02 0.  1.
         -2   -1    0    0    0  501 -0.00000000000E+00 -0.00000000000E+00 -0.59108709461E+03  0.59108709462E+03  0.25500000000E-02 0. -1.
    5000001    1    1    2    0    0 -0.19381895816E+03  0.15406727627E+03 -0.11748897066E+03  0.33234044651E+03  0.18800000000E+03 0.  0.
   -5000001    1    1    2    0    0  0.19381895816E+03 -0.15406727627E+03 -0.30018808613E+03  0.43215668595E+03  0.18800000000E+03 0.  0.
<mgrwt>
<rscale>  0 0.64031378E+03</rscale>
<asrwt>0</asrwt>
<pdfrwt beam="1">  1        2 0.24772863E-01 0.64031378E+03</pdfrwt>
<pdfrwt beam="2">  1       -2 0.84441012E-01 0.64031378E+03</pdfrwt>
<totfact> 0.27369788E+02</totfact>
</mgrwt>
</event>
<event>
 4    1  0.6239849E-005  0.5945102E+03  0.7818608E-02  0.9916861E-01
          2   -1    0    0  501    0  0.00000000000E+00  0.00000000000E+00  0.59782935370E+03  0.59782935370E+03  0.25500000000E-02 0.  1.
         -2   -1    0    0    0  501 -0.00000000000E+00 -0.00000000000E+00 -0.14780238381E+03  0.14780238383E+03  0.25500000000E-02 0. -1.
    5000001    1    1    2    0    0  0.19605939441E+03 -0.69575101513E+02  0.10125664156E+03  0.29812227080E+03  0.18800000000E+03 0.  0.
   -5000001    1    1    2    0    0 -0.19605939441E+03  0.69575101513E+02  0.34877032833E+03  0.44750946673E+03  0.18800000000E+03 0.  0.
<mgrwt>
<rscale>  0 0.59451023E+03</rscale>
<asrwt>0</asrwt>
<pdfrwt beam="1">  1        2 0.85404193E-01 0.59451023E+03</pdfrwt>
<pdfrwt beam="2">  1       -2 0.21114626E-01 0.59451023E+03</pdfrwt>
<totfact> 0.10586711E+03</totfact>
</mgrwt>
</event>
<event>
 4    1  0.6239849E-005  0.4586992E+03  0.7818608E-02  0.1025159E+00
         -2   -1    0    0    0  501 -0.00000000000E+00  0.00000000000E+00  0.13945072033E+03  0.13945072035E+03  0.25500000000E-02 0. -1.
          2   -1    0    0  501    0  0.00000000000E+00 -0.00000000000E+00 -0.37720308890E+03  0.37720308891E+03  0.25500000000E-02 0.  1.
    5000001    1    1    2    0    0  0.24557507265E+02 -0.56962641266E+02  0.11553600660E+02  0.19830607492E+03  0.18800000000E+03 0.  0.
   -5000001    1    1    2    0    0 -0.24557507265E+02  0.56962641266E+02 -0.24930596923E+03  0.31834773434E+03  0.18800000000E+03 0.  0.
<mgrwt>
<rscale>  0 0.45869922E+03</rscale>
<asrwt>0</asrwt>
<pdfrwt beam="1">  1        2 0.53886155E-01 0.45869922E+03</pdfrwt>
<pdfrwt beam="2">  1       -2 0.19921532E-01 0.45869922E+03</pdfrwt>
<totfact> 0.19698674E+03</totfact>
</mgrwt>
</event>
<event>
 4    1  0.6239849E-005  0.4478626E+03  0.7818608E-02  0.1028361E+00
          2   -1    0    0  501    0  0.00000000000E+00  0.00000000000E+00  0.65359570637E+03  0.65359570637E+03  0.25500000000E-02 0.  1.
         -2   -1    0    0    0  501 -0.00000000000E+00 -0.00000000000E+00 -0.76722073608E+02  0.76722073651E+02  0.25500000000E-02 0. -1.
    5000001    1    1    2    0    0 -0.61053495714E+02 -0.81771340380E+02  0.18042837759E+03  0.27984367223E+03  0.18800000000E+03 0.  0.
   -5000001    1    1    2    0    0  0.61053495714E+02  0.81771340380E+02  0.39644525517E+03  0.45047410780E+03  0.18800000000E+03 0.  0.
<mgrwt>
<rscale>  0 0.44786256E+03</rscale>
<asrwt>0</asrwt>
<pdfrwt beam="1">  1        2 0.93370811E-01 0.44786256E+03</pdfrwt>
<pdfrwt beam="2">  1       -2 0.10960297E-01 0.44786256E+03</pdfrwt>
<totfact> 0.28707646E+03</totfact>
</mgrwt>
</event>
<event>
 4    1  0.6239849E-005  0.5575757E+03  0.7818608E-02  0.9997555E-01
          2   -1    0    0  501    0  0.00000000000E+00  0.00000000000E+00  0.89660588488E+03  0.89660588488E+03  0.25500000000E-02 0.  1.
         -2   -1    0    0    0  501 -0.00000000000E+00 -0.00000000000E+00 -0.86685443550E+02  0.86685443588E+02  0.25500000000E-02 0. -1.
    5000001    1    1    2    0    0  0.76192259221E+02  0.15211559278E+03  0.60936228943E+03  0.66000819216E+03  0.18800000000E+03 0.  0.
   -5000001    1    1    2    0    0 -0.76192259221E+02 -0.15211559278E+03  0.20055815190E+03  0.32328313632E+03  0.18800000000E+03 0.  0.
<mgrwt>
<rscale>  0 0.55757575E+03</rscale>
<asrwt>0</asrwt>
<pdfrwt beam="1">  1        2 0.12808656E+00 0.55757575E+03</pdfrwt>
<pdfrwt beam="2">  1       -2 0.12383635E-01 0.55757575E+03</pdfrwt>
<totfact> 0.15827442E+03</totfact>
</mgrwt>
</event>
<event>
 4    1  0.6239849E-005  0.9464560E+03  0.7818608E-02  0.9369303E-01
         -2   -1    0    0    0  501 -0.00000000000E+00  0.00000000000E+00  0.46616716887E+03  0.46616716888E+03  0.25500000000E-02 0. -1.
          2   -1    0    0  501    0  0.00000000000E+00 -0.00000000000E+00 -0.48039574700E+03  0.48039574700E+03  0.25500000000E-02 0.  1.
    5000001    1    1    2    0    0  0.29791305704E+03 -0.13272720163E+03 -0.29390796183E+03  0.47759249328E+03  0.18800000000E+03 0.  0.
   -5000001    1    1    2    0    0 -0.29791305704E+03  0.13272720163E+03  0.27967938371E+03  0.46897042261E+03  0.18800000000E+03 0.  0.
<mgrwt>
<rscale>  0 0.94645597E+03</rscale>
<asrwt>0</asrwt>
<pdfrwt beam="1">  1        2 0.68627964E-01 0.94645597E+03</pdfrwt>
<pdfrwt beam="2">  1       -2 0.66595310E-01 0.94645597E+03</pdfrwt>
<totfact> 0.14589876E+02</totfact>
</mgrwt>
</event>
<event>
 4    1  0.6239849E-005  0.5478409E+03  0.7818608E-02  0.1001995E+00
          2   -1    0    0  501    0  0.00000000000E+00  0.00000000000E+00  0.12858381588E+04  0.12858381588E+04  0.25500000000E-02 0.  1.
         -2   -1    0    0    0  501 -0.00000000000E+00 -0.00000000000E+00 -0.58352912932E+02  0.58352912988E+02  0.25500000000E-02 0. -1.
    5000001    1    1    2    0    0 -0.14001493189E+03  0.14168438614E+03  0.60607895596E+03  0.66509724648E+03  0.18800000000E+03 0.  0.
   -5000001    1    1    2    0    0  0.14001493189E+03 -0.14168438614E+03  0.62140628990E+03  0.67909382530E+03  0.18800000000E+03 0.  0.
<mgrwt>
<rscale>  0 0.54784086E+03</rscale>
<asrwt>0</asrwt>
<pdfrwt beam="1">  1        2 0.18369113E+00 0.54784086E+03</pdfrwt>
<pdfrwt beam="2">  1       -2 0.83361318E-02 0.54784086E+03</pdfrwt>
<totfact> 0.17776069E+03</totfact>
</mgrwt>
</event>
<event>
 4    1  0.6239849E-005  0.7178285E+03  0.7818608E-02  0.9687220E-01
          2   -1    0    0  501    0  0.00000000000E+00  0.00000000000E+00  0.13985726619E+04  0.13985726619E+04  0.25500000000E-02 0.  1.
         -2   -1    0    0    0  501 -0.00000000000E+00 -0.00000000000E+00 -0.92107785615E+02  0.92107785650E+02  0.25500000000E-02 0. -1.
    5000001    1    1    2    0    0 -0.26529168325E+03 -0.14987165247E+03  0.70553117597E+03  0.79117597896E+03  0.18800000000E+03 0.  0.
   -5000001    1    1    2    0    0  0.26529168325E+03  0.14987165247E+03  0.60093370035E+03  0.69950446862E+03  0.18800000000E+03 0.  0.
<mgrwt>
<rscale>  0 0.71782848E+03</rscale>
<asrwt>0</asrwt>
<pdfrwt beam="1">  1        2 0.19979610E+00 0.71782848E+03</pdfrwt>
<pdfrwt beam="2">  1       -2 0.13158255E-01 0.71782848E+03</pdfrwt>
<totfact> 0.73043424E+02</totfact>
</mgrwt>
</event>
<event>
 4    1  0.6239849E-005  0.6126085E+03  0.7818608E-02  0.9879587E-01
         -2   -1    0    0    0  501 -0.00000000000E+00  0.00000000000E+00  0.21780478570E+03  0.21780478571E+03  0.25500000000E-02 0. -1.
          2   -1    0    0  501    0  0.00000000000E+00 -0.00000000000E+00 -0.43076318551E+03  0.43076318552E+03  0.25500000000E-02 0.  1.
    5000001    1    1    2    0    0  0.19413290202E+03  0.14109907628E+03 -0.75041894021E+02  0.31396149259E+03  0.18800000000E+03 0.  0.
   -5000001    1    1    2    0    0 -0.19413290202E+03 -0.14109907628E+03 -0.13791650579E+03  0.33460647863E+03  0.18800000000E+03 0.  0.
<mgrwt>
<rscale>  0 0.61260847E+03</rscale>
<asrwt>0</asrwt>
<pdfrwt beam="1">  1        2 0.61537598E-01 0.61260847E+03</pdfrwt>
<pdfrwt beam="2">  1       -2 0.31114969E-01 0.61260847E+03</pdfrwt>
<totfact> 0.76488409E+02</totfact>
</mgrwt>
</event>
<event>
 4    1  0.6239849E-005  0.1213689E+04  0.7818608E-02  0.9100958E-01
          2   -1    0    0  501    0  0.00000000000E+00  0.00000000000E+00  0.20460485067E+04  0.20460485067E+04  0.25500000000E-02 0.  1.
         -2   -1    0    0    0  501 -0.00000000000E+00 -0.00000000000E+00 -0.17998608410E+03  0.17998608412E+03  0.25500000000E-02 0. -1.
    5000001    1    1    2    0    0 -0.40879212922E+03  0.40439099460E+03  0.10204774493E+04  0.11863225977E+04  0.18800000000E+03 0.  0.
   -5000001    1    1    2    0    0  0.40879212922E+03 -0.40439099460E+03  0.84558497330E+03  0.10397119930E+04  0.18800000000E+03 0.  0.
<mgrwt>
<rscale>  0 0.12136890E+04</rscale>
<asrwt>0</asrwt>
<pdfrwt beam="1">  1        2 0.29229264E+00 0.12136890E+04</pdfrwt>
<pdfrwt beam="2">  1       -2 0.25712298E-01 0.12136890E+04</pdfrwt>
<totfact> 0.10215861E+02</totfact>
</mgrwt>
</event>
<event>
 4    1  0.6239849E-005  0.5190433E+03  0.7818608E-02  0.1008924E+00
          2   -1    0    0  501    0  0.00000000000E+00  0.00000000000E+00  0.33113158323E+03  0.33113158324E+03  0.25500000000E-02 0. -1.
         -2   -1    0    0    0  501 -0.00000000000E+00 -0.00000000000E+00 -0.20339798783E+03  0.20339798785E+03  0.25500000000E-02 0.  1.
    5000001    1    1    2    0    0  0.13823780483E+03  0.51097829599E+02 -0.40583253677E+02  0.24230493052E+03  0.18800000000E+03 0.  0.
   -5000001    1    1    2    0    0 -0.13823780483E+03 -0.51097829599E+02  0.16831684908E+03  0.29222464057E+03  0.18800000000E+03 0.  0.
<mgrwt>
<rscale>  0 0.51904334E+03</rscale>
<asrwt>0</asrwt>
<pdfrwt beam="1">  1        2 0.47304512E-01 0.51904334E+03</pdfrwt>
<pdfrwt beam="2">  1       -2 0.29056856E-01 0.51904334E+03</pdfrwt>
<totfact> 0.11620634E+03</totfact>
</mgrwt>
</event>
<event>
 4    1  0.6239849E-005  0.4068581E+03  0.7818608E-02  0.1041431E+00
         -2   -1    0    0    0  501 -0.00000000000E+00  0.00000000000E+00  0.17675690892E+03  0.17675690893E+03  0.25500000000E-02 0. -1.
          2   -1    0    0  501    0  0.00000000000E+00 -0.00000000000E+00 -0.23412591098E+03  0.23412591099E+03  0.25500000000E-02 0.  1.
    5000001    1    1    2    0    0 -0.60779848033E+02 -0.52306287750E+01 -0.77304525684E+02  0.21222992036E+03  0.18800000000E+03 0.  0.
   -5000001    1    1    2    0    0  0.60779848033E+02  0.52306287750E+01  0.19935523622E+02  0.19865289957E+03  0.18800000000E+03 0.  0.
<mgrwt>
<rscale>  0 0.40685807E+03</rscale>
<asrwt>0</asrwt>
<pdfrwt beam="1">  1        2 0.33446559E-01 0.40685807E+03</pdfrwt>
<pdfrwt beam="2">  1       -2 0.25250987E-01 0.40685807E+03</pdfrwt>
<totfact> 0.21880280E+03</totfact>
</mgrwt>
</event>
<event>
 4    1  0.6239849E-005  0.4883600E+03  0.7818608E-02  0.1016863E+00
         -2   -1    0    0    0  501 -0.00000000000E+00  0.00000000000E+00  0.17381121953E+03  0.17381121954E+03  0.25500000000E-02 0. -1.
          2   -1    0    0  501    0  0.00000000000E+00 -0.00000000000E+00 -0.34303810271E+03  0.34303810272E+03  0.25500000000E-02 0.  1.
    5000001    1    1    2    0    0 -0.88482509931E+02 -0.10183102940E+03 -0.20824600402E+01  0.23140235468E+03  0.18800000000E+03 0.  0.
   -5000001    1    1    2    0    0  0.88482509931E+02  0.10183102940E+03 -0.16714442314E+03  0.28544696758E+03  0.18800000000E+03 0.  0.
<mgrwt>
<rscale>  0 0.48835999E+03</rscale>
<asrwt>0</asrwt>
<pdfrwt beam="1">  1        2 0.49005443E-01 0.48835999E+03</pdfrwt>
<pdfrwt beam="2">  1       -2 0.24830174E-01 0.48835999E+03</pdfrwt>
<totfact> 0.14852412E+03</totfact>
</mgrwt>
</event>
<event>
 4    1  0.6239849E-005  0.5808101E+03  0.7818608E-02  0.9946039E-01
         -2   -1    0    0    0  501 -0.00000000000E+00  0.00000000000E+00  0.16115988729E+03  0.16115988731E+03  0.25500000000E-02 0. -1.
          2   -1    0    0  501    0  0.00000000000E+00 -0.00000000000E+00 -0.52330076801E+03  0.52330076801E+03  0.25500000000E-02 0.  1.
    5000001    1    1    2    0    0 -0.21167782821E+03  0.11637046356E+02 -0.10609074927E+03  0.30255936754E+03  0.18800000000E+03 0.  0.
   -5000001    1    1    2    0    0  0.21167782821E+03 -0.11637046356E+02 -0.25605013144E+03  0.38190128779E+03  0.18800000000E+03 0.  0.
<mgrwt>
<rscale>  0 0.58081010E+03</rscale>
<asrwt>0</asrwt>
<pdfrwt beam="1">  1        2 0.74757252E-01 0.58081010E+03</pdfrwt>
<pdfrwt beam="2">  1       -2 0.23022841E-01 0.58081010E+03</pdfrwt>
<totfact> 0.10607309E+03</totfact>
</mgrwt>
</event>
<event>
 4    1  0.6239849E-005  0.4516982E+03  0.7818608E-02  0.1027217E+00
          2   -1    0    0  501    0  0.00000000000E+00  0.00000000000E+00  0.29156665328E+04  0.29156665328E+04  0.25500000000E-02 0.  1.
         -2   -1    0    0    0  501 -0.00000000000E+00 -0.00000000000E+00 -0.17494394212E+02  0.17494394398E+02  0.25500000000E-02 0. -1.
    5000001    1    1    2    0    0  0.16015646267E+02  0.68714073800E+02  0.21203431867E+04  0.21298303581E+04  0.18800000000E+03 0.  0.
   -5000001    1    1    2    0    0 -0.16015646267E+02 -0.68714073800E+02  0.77782895179E+03  0.80333056901E+03  0.18800000000E+03 0.  0.
<mgrwt>
<rscale>  0 0.45169822E+03</rscale>
<asrwt>0</asrwt>
<pdfrwt beam="1">  1        2 0.41652348E+00 0.45169822E+03</pdfrwt>
<pdfrwt beam="2">  1       -2 0.24992011E-02 0.45169822E+03</pdfrwt>
<totfact> 0.16782095E+03</totfact>
</mgrwt>
</event>
<event>
 4    1  0.6239849E-005  0.5071917E+03  0.7818608E-02  0.1011919E+00
          2   -1    0    0  501    0  0.00000000000E+00  0.00000000000E+00  0.16835070533E+03  0.16835070535E+03  0.25500000000E-02 0.  1.
         -2   -1    0    0    0  501 -0.00000000000E+00 -0.00000000000E+00 -0.38200518654E+03  0.38200518655E+03  0.25500000000E-02 0. -1.
    5000001    1    1    2    0    0 -0.11766584275E+03  0.66833711186E+02  0.51797517654E+01  0.23169554448E+03  0.18800000000E+03 0.  0.
   -5000001    1    1    2    0    0  0.11766584275E+03 -0.66833711186E+02 -0.21883423297E+03  0.31866034742E+03  0.18800000000E+03 0.  0.
<mgrwt>
<rscale>  0 0.50719165E+03</rscale>
<asrwt>0</asrwt>
<pdfrwt beam="1">  1        2 0.24050101E-01 0.50719165E+03</pdfrwt>
<pdfrwt beam="2">  1       -2 0.54572169E-01 0.50719165E+03</pdfrwt>
<totfact> 0.72800006E+02</totfact>
</mgrwt>
</event>
<event>
 4    1  0.6239849E-005  0.5250660E+03  0.7818608E-02  0.1007436E+00
         -2   -1    0    0    0  501 -0.00000000000E+00  0.00000000000E+00  0.18950788066E+03  0.18950788068E+03  0.25500000000E-02 0. -1.
          2   -1    0    0  501    0  0.00000000000E+00 -0.00000000000E+00 -0.36369762701E+03  0.36369762702E+03  0.25500000000E-02 0.  1.
    5000001    1    1    2    0    0 -0.16772883172E+03 -0.33408653746E+02 -0.15642787659E+03  0.29843387829E+03  0.18800000000E+03 0.  0.
   -5000001    1    1    2    0    0  0.16772883172E+03  0.33408653746E+02 -0.17761869761E+02  0.25477162941E+03  0.18800000000E+03 0.  0.
<mgrwt>
<rscale>  0 0.52506596E+03</rscale>
<asrwt>0</asrwt>
<pdfrwt beam="1">  1        2 0.51956803E-01 0.52506596E+03</pdfrwt>
<pdfrwt beam="2">  1       -2 0.27072555E-01 0.52506596E+03</pdfrwt>
<totfact> 0.11922819E+03</totfact>
</mgrwt>
</event>
<event>
 4    1  0.6239849E-005  0.3887604E+03  0.7818608E-02  0.1047743E+00
          2   -1    0    0  501    0  0.00000000000E+00  0.00000000000E+00  0.23504446660E+04  0.23504446660E+04  0.25500000000E-02 0.  1.
         -2   -1    0    0    0  501 -0.00000000000E+00 -0.00000000000E+00 -0.16075109818E+02  0.16075110020E+02  0.25500000000E-02 0. -1.
    5000001    1    1    2    0    0  0.31799809167E+02 -0.37680847520E+02  0.11850179407E+04  0.12008507792E+04  0.18800000000E+03 0.  0.
   -5000001    1    1    2    0    0 -0.31799809167E+02  0.37680847520E+02  0.11493516155E+04  0.11656689969E+04  0.18800000000E+03 0.  0.
<mgrwt>
<rscale>  0 0.38876037E+03</rscale>
<asrwt>0</asrwt>
<pdfrwt beam="1">  1        2 0.33577774E+00 0.38876037E+03</pdfrwt>
<pdfrwt beam="2">  1       -2 0.22964448E-02 0.38876037E+03</pdfrwt>
<totfact> 0.37343321E+03</totfact>
</mgrwt>
</event>
<event>
 4    1  0.6239849E-005  0.1246699E+04  0.7818608E-02  0.9072935E-01
          2   -1    0    0  501    0  0.00000000000E+00  0.00000000000E+00  0.69503765796E+03  0.69503765796E+03  0.25500000000E-02 0.  1.
         -2   -1    0    0    0  501 -0.00000000000E+00 -0.00000000000E+00 -0.55905588878E+03  0.55905588878E+03  0.25500000000E-02 0. -1.
    5000001    1    1    2    0    0 -0.40782001784E+02  0.47059568238E+03 -0.29483854923E+03  0.58770506043E+03  0.18800000000E+03 0.  0.
   -5000001    1    1    2    0    0  0.40782001784E+02 -0.47059568238E+03  0.43082031841E+03  0.66638848632E+03  0.18800000000E+03 0.  0.
<mgrwt>
<rscale>  0 0.12466995E+04</rscale>
<asrwt>0</asrwt>
<pdfrwt beam="1">  1        2 0.99291095E-01 0.12466995E+04</pdfrwt>
<pdfrwt beam="2">  1       -2 0.79865126E-01 0.12466995E+04</pdfrwt>
<totfact> 0.62069185E+01</totfact>
</mgrwt>
</event>
<event>
 4    1  0.6239849E-005  0.4368029E+03  0.7818608E-02  0.1031732E+00
         -2   -1    0    0    0  501 -0.00000000000E+00  0.00000000000E+00  0.18035392439E+02  0.18035392619E+02  0.25500000000E-02 0. -1.
          2   -1    0    0  501    0  0.00000000000E+00 -0.00000000000E+00 -0.26447544376E+04  0.26447544376E+04  0.25500000000E-02 0.  1.
    5000001    1    1    2    0    0  0.81874223941E+02  0.60876410872E+02 -0.10444494666E+04  0.10661275788E+04  0.18800000000E+03 0.  0.
   -5000001    1    1    2    0    0 -0.81874223941E+02 -0.60876410872E+02 -0.15822695786E+04  0.15966622515E+04  0.18800000000E+03 0.  0.
<mgrwt>
<rscale>  0 0.43680286E+03</rscale>
<asrwt>0</asrwt>
<pdfrwt beam="1">  1        2 0.37782182E+00 0.43680286E+03</pdfrwt>
<pdfrwt beam="2">  1       -2 0.25764863E-02 0.43680286E+03</pdfrwt>
<totfact> 0.22244722E+03</totfact>
</mgrwt>
</event>
<event>
 4    1  0.6239849E-005  0.8375501E+03  0.7818608E-02  0.9507201E-01
         -2   -1    0    0    0  501 -0.00000000000E+00  0.00000000000E+00  0.64045281641E+02  0.64045281692E+02  0.25500000000E-02 0. -1.
          2   -1    0    0  501    0  0.00000000000E+00 -0.00000000000E+00 -0.27382587507E+04  0.27382587507E+04  0.25500000000E-02 0.  1.
    5000001    1    1    2    0    0 -0.65489476253E+02 -0.25848022404E+03 -0.22155246739E+04  0.22394183348E+04  0.18800000000E+03 0.  0.
   -5000001    1    1    2    0    0  0.65489476253E+02  0.25848022404E+03 -0.45868879519E+03  0.56288569759E+03  0.18800000000E+03 0.  0.
<mgrwt>
<rscale>  0 0.83755012E+03</rscale>
<asrwt>0</asrwt>
<pdfrwt beam="1">  1        2 0.39117975E+00 0.83755012E+03</pdfrwt>
<pdfrwt beam="2">  1       -2 0.91493277E-02 0.83755012E+03</pdfrwt>
<totfact> 0.26879450E+02</totfact>
</mgrwt>
</event>
<event>
 4    1  0.6239849E-005  0.6174113E+03  0.7818608E-02  0.9869927E-01
          2   -1    0    0  501    0  0.00000000000E+00  0.00000000000E+00  0.59405784213E+03  0.59405784213E+03  0.25500000000E-02 0.  1.
         -2   -1    0    0    0  501 -0.00000000000E+00 -0.00000000000E+00 -0.16042072499E+03  0.16042072501E+03  0.25500000000E-02 0. -1.
    5000001    1    1    2    0    0 -0.19601625647E+03  0.12753881319E+03  0.30550153912E+03  0.42820989254E+03  0.18800000000E+03 0.  0.
   -5000001    1    1    2    0    0  0.19601625647E+03 -0.12753881319E+03  0.12813557802E+03  0.32626867460E+03  0.18800000000E+03 0.  0.
<mgrwt>
<rscale>  0 0.61741134E+03</rscale>
<asrwt>0</asrwt>
<pdfrwt beam="1">  1        2 0.84865405E-01 0.61741134E+03</pdfrwt>
<pdfrwt beam="2">  1       -2 0.22917247E-01 0.61741134E+03</pdfrwt>
<totfact> 0.92274841E+02</totfact>
</mgrwt>
</event>
<event>
 4    1  0.6239849E-005  0.5405414E+03  0.7818608E-02  0.1003707E+00
         -2   -1    0    0    0  501 -0.00000000000E+00  0.00000000000E+00  0.82120827563E+02  0.82120827603E+02  0.25500000000E-02 0. -1.
          2   -1    0    0  501    0  0.00000000000E+00 -0.00000000000E+00 -0.88949712860E+03  0.88949712860E+03  0.25500000000E-02 0.  1.
    5000001    1    1    2    0    0  0.18475297714E+03 -0.59395038905E+02 -0.41517060186E+03  0.49535044348E+03  0.18800000000E+03 0.  0.
   -5000001    1    1    2    0    0 -0.18475297714E+03  0.59395038905E+02 -0.39220569918E+03  0.47626751272E+03  0.18800000000E+03 0.  0.
<mgrwt>
<rscale>  0 0.54054136E+03</rscale>
<asrwt>0</asrwt>
<pdfrwt beam="1">  1        2 0.12707101E+00 0.54054136E+03</pdfrwt>
<pdfrwt beam="2">  1       -2 0.11731547E-01 0.54054136E+03</pdfrwt>
<totfact> 0.17485938E+03</totfact>
</mgrwt>
</event>
<event>
 4    1  0.6239849E-005  0.1013015E+04  0.7818608E-02  0.9294384E-01
          2   -1    0    0  501    0  0.00000000000E+00  0.00000000000E+00  0.27242262524E+04  0.27242262524E+04  0.25500000000E-02 0.  1.
         -2   -1    0    0    0  501 -0.00000000000E+00 -0.00000000000E+00 -0.94173482510E+02  0.94173482545E+02  0.25500000000E-02 0. -1.
    5000001    1    1    2    0    0  0.27074378911E+03 -0.36676365241E+03  0.99310774700E+03  0.11087942881E+04  0.18800000000E+03 0.  0.
   -5000001    1    1    2    0    0 -0.27074378911E+03  0.36676365241E+03  0.16369450228E+04  0.17096054468E+04  0.18800000000E+03 0.  0.
<mgrwt>
<rscale>  0 0.10130151E+04</rscale>
<asrwt>0</asrwt>
<pdfrwt beam="1">  1        2 0.38917511E+00 0.10130151E+04</pdfrwt>
<pdfrwt beam="2">  1       -2 0.13453357E-01 0.10130151E+04</pdfrwt>
<totfact> 0.14268927E+02</totfact>
</mgrwt>
</event>
<event>
 4    1  0.6239849E-005  0.7230406E+03  0.7818608E-02  0.9678621E-01
         -2   -1    0    0    0  501 -0.00000000000E+00  0.00000000000E+00  0.36958883923E+03  0.36958883924E+03  0.25500000000E-02 0. -1.
          2   -1    0    0  501    0  0.00000000000E+00 -0.00000000000E+00 -0.35362793390E+03  0.35362793391E+03  0.25500000000E-02 0.  1.
    5000001    1    1    2    0    0 -0.12502199120E+03  0.27623040847E+03  0.66468630243E+02  0.36289918112E+03  0.18800000000E+03 0.  0.
   -5000001    1    1    2    0    0  0.12502199120E+03 -0.27623040847E+03 -0.50507724914E+02  0.36031759203E+03  0.18800000000E+03 0.  0.
<mgrwt>
<rscale>  0 0.72304063E+03</rscale>
<asrwt>0</asrwt>
<pdfrwt beam="1">  1        2 0.50518276E-01 0.72304063E+03</pdfrwt>
<pdfrwt beam="2">  1       -2 0.52798405E-01 0.72304063E+03</pdfrwt>
<totfact> 0.33866470E+02</totfact>
</mgrwt>
</event>
<event>
 4    1  0.6239849E-005  0.6971365E+03  0.7818608E-02  0.9722142E-01
          2   -1    0    0  501    0  0.00000000000E+00  0.00000000000E+00  0.24288567818E+04  0.24288567818E+04  0.25500000000E-02 0.  1.
         -2   -1    0    0    0  501 -0.00000000000E+00 -0.00000000000E+00 -0.50023466461E+02  0.50023466526E+02  0.25500000000E-02 0. -1.
    5000001    1    1    2    0    0  0.17702621863E+03 -0.22990252366E+03  0.10318988589E+04  0.10882797009E+04  0.18800000000E+03 0.  0.
   -5000001    1    1    2    0    0 -0.17702621863E+03  0.22990252366E+03  0.13469344565E+04  0.13906005475E+04  0.18800000000E+03 0.  0.
<mgrwt>
<rscale>  0 0.69713653E+03</rscale>
<asrwt>0</asrwt>
<pdfrwt beam="1">  1        2 0.34697966E+00 0.69713653E+03</pdfrwt>
<pdfrwt beam="2">  1       -2 0.71462071E-02 0.69713653E+03</pdfrwt>
<totfact> 0.58569141E+02</totfact>
</mgrwt>
</event>
<event>
 4    1  0.6239849E-005  0.4706553E+03  0.7818608E-02  0.1021735E+00
          2   -1    0    0  501    0  0.00000000000E+00  0.00000000000E+00  0.49692175745E+03  0.49692175746E+03  0.25500000000E-02 0.  1.
         -2   -1    0    0    0  501 -0.00000000000E+00 -0.00000000000E+00 -0.11144429144E+03  0.11144429147E+03  0.25500000000E-02 0. -1.
    5000001    1    1    2    0    0 -0.11367708742E+03 -0.63227072465E+02  0.26488063911E+03  0.34989412094E+03  0.18800000000E+03 0.  0.
   -5000001    1    1    2    0    0  0.11367708742E+03  0.63227072465E+02  0.12059682690E+03  0.25847192798E+03  0.18800000000E+03 0.  0.
<mgrwt>
<rscale>  0 0.47065526E+03</rscale>
<asrwt>0</asrwt>
<pdfrwt beam="1">  1        2 0.70988822E-01 0.47065526E+03</pdfrwt>
<pdfrwt beam="2">  1       -2 0.15920613E-01 0.47065526E+03</pdfrwt>
<totfact> 0.21270474E+03</totfact>
</mgrwt>
</event>
<event>
 4    1  0.6239849E-005  0.5925810E+03  0.7818608E-02  0.9920919E-01
          2   -1    0    0  501    0  0.00000000000E+00  0.00000000000E+00  0.65407471492E+02  0.65407471542E+02  0.25500000000E-02 0.  1.
         -2   -1    0    0    0  501 -0.00000000000E+00 -0.00000000000E+00 -0.13421715773E+04  0.13421715773E+04  0.25500000000E-02 0. -1.
    5000001    1    1    2    0    0 -0.12913178381E+03 -0.10580758324E+03 -0.10107404426E+04  0.10415423681E+04  0.18800000000E+03 0.  0.
   -5000001    1    1    2    0    0  0.12913178381E+03  0.10580758324E+03 -0.26602366324E+03  0.36603668076E+03  0.18800000000E+03 0.  0.
<mgrwt>
<rscale>  0 0.59258096E+03</rscale>
<asrwt>0</asrwt>
<pdfrwt beam="1">  1        2 0.93439253E-02 0.59258096E+03</pdfrwt>
<pdfrwt beam="2">  1       -2 0.19173878E+00 0.59258096E+03</pdfrwt>
<totfact> 0.11199989E+02</totfact>
</mgrwt>
</event>
<event>
 4    1  0.6239849E-005  0.7487145E+03  0.7818608E-02  0.9637369E-01
         -2   -1    0    0    0  501 -0.00000000000E+00  0.00000000000E+00  0.34894453082E+03  0.34894453083E+03  0.25500000000E-02 0. -1.
          2   -1    0    0  501    0  0.00000000000E+00 -0.00000000000E+00 -0.40162075080E+03  0.40162075080E+03  0.25500000000E-02 0.  1.
    5000001    1    1    2    0    0  0.26354599046E+03  0.97555647106E+02 -0.18743933949E+03  0.38658905748E+03  0.18800000000E+03 0.  0.
   -5000001    1    1    2    0    0 -0.26354599046E+03 -0.97555647106E+02  0.13476311952E+03  0.36397622416E+03  0.18800000000E+03 0.  0.
<mgrwt>
<rscale>  0 0.74871454E+03</rscale>
<asrwt>0</asrwt>
<pdfrwt beam="1">  1        2 0.57374393E-01 0.74871454E+03</pdfrwt>
<pdfrwt beam="2">  1       -2 0.49849219E-01 0.74871454E+03</pdfrwt>
<totfact> 0.33023367E+02</totfact>
</mgrwt>
</event>
<event>
 4    1  0.6239849E-005  0.4910548E+03  0.7818608E-02  0.1016140E+00
         -2   -1    0    0    0  501 -0.00000000000E+00  0.00000000000E+00  0.66187447233E+02  0.66187447282E+02  0.25500000000E-02 0. -1.
          2   -1    0    0  501    0  0.00000000000E+00 -0.00000000000E+00 -0.91080280446E+03  0.91080280446E+03  0.25500000000E-02 0.  1.
    5000001    1    1    2    0    0  0.95710206330E+02  0.11939689291E+03 -0.49996867949E+03  0.55563364019E+03  0.18800000000E+03 0.  0.
   -5000001    1    1    2    0    0 -0.95710206330E+02 -0.11939689291E+03 -0.34464667773E+03  0.42135661156E+03  0.18800000000E+03 0.  0.
<mgrwt>
<rscale>  0 0.49105483E+03</rscale>
<asrwt>0</asrwt>
<pdfrwt beam="1">  1        2 0.13011468E+00 0.49105483E+03</pdfrwt>
<pdfrwt beam="2">  1       -2 0.94553502E-02 0.49105483E+03</pdfrwt>
<totfact> 0.24046746E+03</totfact>
</mgrwt>
</event>
<event>
 4    1  0.6239849E-005  0.6619377E+03  0.7818608E-02  0.9784633E-01
          2   -1    0    0  501    0  0.00000000000E+00  0.00000000000E+00  0.90222114301E+03  0.90222114301E+03  0.25500000000E-02 0.  1.
         -2   -1    0    0    0  501 -0.00000000000E+00 -0.00000000000E+00 -0.12141188636E+03  0.12141188639E+03  0.25500000000E-02 0. -1.
    5000001    1    1    2    0    0  0.21732142046E+03 -0.16018667950E+03  0.44633283177E+03  0.55447756383E+03  0.18800000000E+03 0.  0.
   -5000001    1    1    2    0    0 -0.21732142046E+03  0.16018667950E+03  0.33447642487E+03  0.46915546557E+03  0.18800000000E+03 0.  0.
<mgrwt>
<rscale>  0 0.66193767E+03</rscale>
<asrwt>0</asrwt>
<pdfrwt beam="1">  1        2 0.12888874E+00 0.66193767E+03</pdfrwt>
<pdfrwt beam="2">  1       -2 0.17344555E-01 0.66193767E+03</pdfrwt>
<totfact> 0.88931882E+02</totfact>
</mgrwt>
</event>
<event>
 4    1  0.6239849E-005  0.7313327E+03  0.7818608E-02  0.9665100E-01
          2   -1    0    0  501    0  0.00000000000E+00  0.00000000000E+00  0.12025468346E+04  0.12025468346E+04  0.25500000000E-02 0.  1.
         -2   -1    0    0    0  501 -0.00000000000E+00 -0.00000000000E+00 -0.11119056770E+03  0.11119056773E+03  0.25500000000E-02 0. -1.
    5000001    1    1    2    0    0  0.70074082073E+02  0.30372068204E+03  0.48315972648E+03  0.60493301362E+03  0.18800000000E+03 0.  0.
   -5000001    1    1    2    0    0 -0.70074082073E+02 -0.30372068204E+03  0.60819654043E+03  0.70880438872E+03  0.18800000000E+03 0.  0.
<mgrwt>
<rscale>  0 0.73133266E+03</rscale>
<asrwt>0</asrwt>
<pdfrwt beam="1">  1        2 0.17179240E+00 0.73133266E+03</pdfrwt>
<pdfrwt beam="2">  1       -2 0.15884367E-01 0.73133266E+03</pdfrwt>
<totfact> 0.68094179E+02</totfact>
</mgrwt>
</event>
<event>
 4    1  0.6239849E-005  0.7905659E+03  0.7818608E-02  0.9573774E-01
          2   -1    0    0  501    0  0.00000000000E+00  0.00000000000E+00  0.60577806515E+03  0.60577806515E+03  0.25500000000E-02 0.  1.
         -2   -1    0    0    0  501 -0.00000000000E+00 -0.00000000000E+00 -0.25793047752E+03  0.25793047753E+03  0.25500000000E-02 0. -1.
    5000001    1    1    2    0    0  0.22614489881E+03  0.20675826084E+03 -0.56424196683E+01  0.35953627159E+03  0.18800000000E+03 0.  0.
   -5000001    1    1    2    0    0 -0.22614489881E+03 -0.20675826084E+03  0.35349000730E+03  0.50417227110E+03  0.18800000000E+03 0.  0.
<mgrwt>
<rscale>  0 0.79056594E+03</rscale>
<asrwt>0</asrwt>
<pdfrwt beam="1">  1        2 0.86539723E-01 0.79056594E+03</pdfrwt>
<pdfrwt beam="2">  1       -2 0.36847211E-01 0.79056594E+03</pdfrwt>
<totfact> 0.37387884E+02</totfact>
</mgrwt>
</event>
<event>
 4    1  0.6239849E-005  0.9813588E+03  0.7818608E-02  0.9329230E-01
         -2   -1    0    0    0  501 -0.00000000000E+00  0.00000000000E+00  0.46839442679E+03  0.46839442680E+03  0.25500000000E-02 0. -1.
          2   -1    0    0  501    0  0.00000000000E+00 -0.00000000000E+00 -0.51402459444E+03  0.51402459445E+03  0.25500000000E-02 0.  1.
    5000001    1    1    2    0    0 -0.24233952867E+03  0.31211062068E+03  0.19941747869E+03  0.48088753103E+03  0.18800000000E+03 0.  0.
   -5000001    1    1    2    0    0  0.24233952867E+03 -0.31211062068E+03 -0.24504764634E+03  0.50153149021E+03  0.18800000000E+03 0.  0.
<mgrwt>
<rscale>  0 0.98135876E+03</rscale>
<asrwt>0</asrwt>
<pdfrwt beam="1">  1        2 0.73432085E-01 0.98135876E+03</pdfrwt>
<pdfrwt beam="2">  1       -2 0.66913490E-01 0.98135876E+03</pdfrwt>
<totfact> 0.13338294E+02</totfact>
</mgrwt>
</event>
<event>
 4    1  0.6239849E-005  0.1007519E+04  0.7818608E-02  0.9300337E-01
         -2   -1    0    0    0  501 -0.00000000000E+00  0.00000000000E+00  0.27407892518E+03  0.27407892519E+03  0.25500000000E-02 0. -1.
          2   -1    0    0  501    0  0.00000000000E+00 -0.00000000000E+00 -0.92591371459E+03  0.92591371460E+03  0.25500000000E-02 0.  1.
    5000001    1    1    2    0    0  0.34755454819E+03 -0.21145689397E+03 -0.51923699744E+02  0.45116322165E+03  0.18800000000E+03 0.  0.
   -5000001    1    1    2    0    0 -0.34755454819E+03  0.21145689397E+03 -0.59991108967E+03  0.74882941814E+03  0.18800000000E+03 0.  0.
<mgrwt>
<rscale>  0 0.10075186E+04</rscale>
<asrwt>0</asrwt>
<pdfrwt beam="1">  1        2 0.13227339E+00 0.10075186E+04</pdfrwt>
<pdfrwt beam="2">  1       -2 0.39154133E-01 0.10075186E+04</pdfrwt>
<totfact> 0.19220082E+02</totfact>
</mgrwt>
</event>
<event>
 4    1  0.6239849E-005  0.5530500E+03  0.7818608E-02  0.1000790E+00
         -2   -1    0    0    0  501 -0.00000000000E+00  0.00000000000E+00  0.84636561879E+02  0.84636561918E+02  0.25500000000E-02 0. -1.
          2   -1    0    0  501    0  0.00000000000E+00 -0.00000000000E+00 -0.90346399114E+03  0.90346399115E+03  0.25500000000E-02 0.  1.
    5000001    1    1    2    0    0  0.14146383254E+03  0.12705703703E+03 -0.28350221128E+03  0.38970887901E+03  0.18800000000E+03 0.  0.
   -5000001    1    1    2    0    0 -0.14146383254E+03 -0.12705703703E+03 -0.53532521798E+03  0.59839167406E+03  0.18800000000E+03 0.  0.
<mgrwt>
<rscale>  0 0.55305004E+03</rscale>
<asrwt>0</asrwt>
<pdfrwt beam="1">  1        2 0.12906628E+00 0.55305004E+03</pdfrwt>
<pdfrwt beam="2">  1       -2 0.12090938E-01 0.55305004E+03</pdfrwt>
<totfact> 0.16297427E+03</totfact>
</mgrwt>
</event>
<event>
 4    1  0.6239849E-005  0.5818752E+03  0.7818608E-02  0.9943740E-01
         -2   -1    0    0    0  501 -0.00000000000E+00  0.00000000000E+00  0.93388907271E+02  0.93388907306E+02  0.25500000000E-02 0. -1.
          2   -1    0    0  501    0  0.00000000000E+00 -0.00000000000E+00 -0.90636758865E+03  0.90636758865E+03  0.25500000000E-02 0.  1.
    5000001    1    1    2    0    0  0.14280693514E+03  0.12764103083E+03 -0.21351410283E+03  0.34295528219E+03  0.18800000000E+03 0.  0.
   -5000001    1    1    2    0    0 -0.14280693514E+03 -0.12764103083E+03 -0.59946457854E+03  0.65680121376E+03  0.18800000000E+03 0.  0.
<mgrwt>
<rscale>  0 0.58187517E+03</rscale>
<asrwt>0</asrwt>
<pdfrwt beam="1">  1        2 0.12948108E+00 0.58187517E+03</pdfrwt>
<pdfrwt beam="2">  1       -2 0.13341273E-01 0.58187517E+03</pdfrwt>
<totfact> 0.13786212E+03</totfact>
</mgrwt>
</event>
<event>
 4    1  0.6239849E-005  0.5160927E+03  0.7818608E-02  0.1009662E+00
          2   -1    0    0  501    0  0.00000000000E+00  0.00000000000E+00  0.59145514167E+03  0.59145514168E+03  0.25500000000E-02 0.  1.
         -2   -1    0    0    0  501 -0.00000000000E+00 -0.00000000000E+00 -0.11258319015E+03  0.11258319017E+03  0.25500000000E-02 0. -1.
    5000001    1    1    2    0    0 -0.14519703009E+03  0.10059440897E+03  0.24832865369E+03  0.35806777697E+03  0.18800000000E+03 0.  0.
   -5000001    1    1    2    0    0  0.14519703009E+03 -0.10059440897E+03  0.23054329784E+03  0.34597055488E+03  0.18800000000E+03 0.  0.
<mgrwt>
<rscale>  0 0.51609265E+03</rscale>
<asrwt>0</asrwt>
<pdfrwt beam="1">  1        2 0.84493592E-01 0.51609265E+03</pdfrwt>
<pdfrwt beam="2">  1       -2 0.16083313E-01 0.51609265E+03</pdfrwt>
<totfact> 0.17132537E+03</totfact>
</mgrwt>
</event>
<event>
 4    1  0.6239849E-005  0.5109629E+03  0.7818608E-02  0.1010956E+00
         -2   -1    0    0    0  501 -0.00000000000E+00  0.00000000000E+00  0.80930154219E+02  0.80930154259E+02  0.25500000000E-02 0. -1.
          2   -1    0    0  501    0  0.00000000000E+00 -0.00000000000E+00 -0.80650738961E+03  0.80650738962E+03  0.25500000000E-02 0.  1.
    5000001    1    1    2    0    0  0.60921911569E+02  0.12987802965E+03 -0.53070158189E+03  0.58100598182E+03  0.18800000000E+03 0.  0.
   -5000001    1    1    2    0    0 -0.60921911569E+02 -0.12987802965E+03 -0.19487565351E+03  0.30643156206E+03  0.18800000000E+03 0.  0.
<mgrwt>
<rscale>  0 0.51096288E+03</rscale>
<asrwt>0</asrwt>
<pdfrwt beam="1">  1        2 0.11521534E+00 0.51096288E+03</pdfrwt>
<pdfrwt beam="2">  1       -2 0.11561451E-01 0.51096288E+03</pdfrwt>
<totfact> 0.20341927E+03</totfact>
</mgrwt>
</event>
<event>
 4    1  0.6239849E-005  0.5201598E+03  0.7818608E-02  0.1008647E+00
          2   -1    0    0  501    0  0.00000000000E+00  0.00000000000E+00  0.64527446025E+03  0.64527446026E+03  0.25500000000E-02 0.  1.
         -2   -1    0    0    0  501 -0.00000000000E+00 -0.00000000000E+00 -0.10482603352E+03  0.10482603355E+03  0.25500000000E-02 0. -1.
    5000001    1    1    2    0    0 -0.17762737767E+03  0.76885239983E+01  0.30802052979E+03  0.40228254433E+03  0.18800000000E+03 0.  0.
   -5000001    1    1    2    0    0  0.17762737767E+03 -0.76885239983E+01  0.23242789695E+03  0.34781794948E+03  0.18800000000E+03 0.  0.
<mgrwt>
<rscale>  0 0.52015983E+03</rscale>
<asrwt>0</asrwt>
<pdfrwt beam="1">  1        2 0.92182066E-01 0.52015983E+03</pdfrwt>
<pdfrwt beam="2">  1       -2 0.14975148E-01 0.52015983E+03</pdfrwt>
<totfact> 0.17436764E+03</totfact>
</mgrwt>
</event>
<event>
 4    1  0.6239849E-005  0.6844999E+03  0.7818608E-02  0.9744113E-01
          2   -1    0    0  501    0  0.00000000000E+00  0.00000000000E+00  0.36749139253E+03  0.36749139254E+03  0.25500000000E-02 0.  1.
         -2   -1    0    0    0  501 -0.00000000000E+00 -0.00000000000E+00 -0.31874224224E+03  0.31874224225E+03  0.25500000000E-02 0. -1.
    5000001    1    1    2    0    0  0.23146192373E+03 -0.16768462166E+03  0.34313108806E+02  0.34382283798E+03  0.18800000000E+03 0.  0.
   -5000001    1    1    2    0    0 -0.23146192373E+03  0.16768462166E+03  0.14436041486E+02  0.34241079681E+03  0.18800000000E+03 0.  0.
<mgrwt>
<rscale>  0 0.68449991E+03</rscale>
<asrwt>0</asrwt>
<pdfrwt beam="1">  1        2 0.52498770E-01 0.68449991E+03</pdfrwt>
<pdfrwt beam="2">  1       -2 0.45534606E-01 0.68449991E+03</pdfrwt>
<totfact> 0.43826000E+02</totfact>
</mgrwt>
</event>
<event>
 4    1  0.6239849E-005  0.7350018E+03  0.7818608E-02  0.9659178E-01
         -2   -1    0    0    0  501 -0.00000000000E+00  0.00000000000E+00  0.30751384338E+03  0.30751384339E+03  0.25500000000E-02 0. -1.
          2   -1    0    0  501    0  0.00000000000E+00 -0.00000000000E+00 -0.43918975217E+03  0.43918975218E+03  0.25500000000E-02 0.  1.
    5000001    1    1    2    0    0 -0.21110788837E+03 -0.20279038165E+03 -0.18613965060E+03  0.39456615282E+03  0.18800000000E+03 0.  0.
   -5000001    1    1    2    0    0  0.21110788837E+03  0.20279038165E+03  0.54463741811E+02  0.35213744276E+03  0.18800000000E+03 0.  0.
<mgrwt>
<rscale>  0 0.73500185E+03</rscale>
<asrwt>0</asrwt>
<pdfrwt beam="1">  1        2 0.62741393E-01 0.73500185E+03</pdfrwt>
<pdfrwt beam="2">  1       -2 0.43930549E-01 0.73500185E+03</pdfrwt>
<totfact> 0.38511613E+02</totfact>
</mgrwt>
</event>
<event>
 4    1  0.6239849E-005  0.5302732E+03  0.7818608E-02  0.1006166E+00
          2   -1    0    0  501    0  0.00000000000E+00  0.00000000000E+00  0.12300907657E+04  0.12300907657E+04  0.25500000000E-02 0.  1.
         -2   -1    0    0    0  501 -0.00000000000E+00 -0.00000000000E+00 -0.57148148676E+02  0.57148148733E+02  0.25500000000E-02 0. -1.
    5000001    1    1    2    0    0  0.16924335316E+03 -0.64615772347E+02  0.69863394462E+03  0.74582296773E+03  0.18800000000E+03 0.  0.
   -5000001    1    1    2    0    0 -0.16924335316E+03  0.64615772347E+02  0.47430867241E+03  0.54141594670E+03  0.18800000000E+03 0.  0.
<mgrwt>
<rscale>  0 0.53027317E+03</rscale>
<asrwt>0</asrwt>
<pdfrwt beam="1">  1        2 0.17572725E+00 0.53027317E+03</pdfrwt>
<pdfrwt beam="2">  1       -2 0.81640214E-02 0.53027317E+03</pdfrwt>
<totfact> 0.19723061E+03</totfact>
</mgrwt>
</event>
<event>
 4    1  0.6239849E-005  0.6268069E+03  0.7818608E-02  0.9851300E-01
          2   -1    0    0  501    0  0.00000000000E+00  0.00000000000E+00  0.15475574323E+04  0.15475574323E+04  0.25500000000E-02 0.  1.
         -2   -1    0    0    0  501 -0.00000000000E+00 -0.00000000000E+00 -0.63468864574E+02  0.63468864625E+02  0.25500000000E-02 0. -1.
    5000001    1    1    2    0    0 -0.34198741871E+02 -0.24742761873E+03  0.79880656088E+03  0.85780295066E+03  0.18800000000E+03 0.  0.
   -5000001    1    1    2    0    0  0.34198741871E+02  0.24742761873E+03  0.68528200688E+03  0.75322334630E+03  0.18800000000E+03 0.  0.
<mgrwt>
<rscale>  0 0.62680687E+03</rscale>
<asrwt>0</asrwt>
<pdfrwt beam="1">  1        2 0.22107965E+00 0.62680687E+03</pdfrwt>
<pdfrwt beam="2">  1       -2 0.90669801E-02 0.62680687E+03</pdfrwt>
<totfact> 0.11263184E+03</totfact>
</mgrwt>
</event>
<event>
 4    1  0.6239849E-005  0.6813903E+03  0.7818608E-02  0.9749597E-01
         -2   -1    0    0    0  501 -0.00000000000E+00  0.00000000000E+00  0.16834339420E+03  0.16834339422E+03  0.25500000000E-02 0. -1.
          2   -1    0    0  501    0  0.00000000000E+00 -0.00000000000E+00 -0.68950251880E+03  0.68950251881E+03  0.25500000000E-02 0.  1.
    5000001    1    1    2    0    0 -0.97113100315E+02  0.67353072750E+02  0.64715411772E+02  0.23129953563E+03  0.18800000000E+03 0.  0.
   -5000001    1    1    2    0    0  0.97113100315E+02 -0.67353072750E+02 -0.58587453637E+03  0.62654637740E+03  0.18800000000E+03 0.  0.
<mgrwt>
<rscale>  0 0.68139033E+03</rscale>
<asrwt>0</asrwt>
<pdfrwt beam="1">  1        2 0.98500358E-01 0.68139033E+03</pdfrwt>
<pdfrwt beam="2">  1       -2 0.24049057E-01 0.68139033E+03</pdfrwt>
<totfact> 0.70741634E+02</totfact>
</mgrwt>
</event>
<event>
 4    1  0.6239849E-005  0.6221120E+03  0.7818608E-02  0.9860564E-01
          2   -1    0    0  501    0  0.00000000000E+00  0.00000000000E+00  0.14049913784E+04  0.14049913784E+04  0.25500000000E-02 0.  1.
         -2   -1    0    0    0  501 -0.00000000000E+00 -0.00000000000E+00 -0.68865788032E+02  0.68865788080E+02  0.25500000000E-02 0. -1.
    5000001    1    1    2    0    0  0.65507023147E+02  0.22596995948E+03  0.85246251511E+03  0.90409619639E+03  0.18800000000E+03 0.  0.
   -5000001    1    1    2    0    0 -0.65507023147E+02 -0.22596995948E+03  0.48366307527E+03  0.56976097010E+03  0.18800000000E+03 0.  0.
<mgrwt>
<rscale>  0 0.62211201E+03</rscale>
<asrwt>0</asrwt>
<pdfrwt beam="1">  1        2 0.20071305E+00 0.62211201E+03</pdfrwt>
<pdfrwt beam="2">  1       -2 0.98379701E-02 0.62211201E+03</pdfrwt>
<totfact> 0.11728613E+03</totfact>
</mgrwt>
</event>
<event>
 4    1  0.6239849E-005  0.5540864E+03  0.7818608E-02  0.1000552E+00
         -2   -1    0    0    0  501 -0.00000000000E+00  0.00000000000E+00  0.70696219923E+02  0.70696219969E+02  0.25500000000E-02 0. -1.
          2   -1    0    0  501    0  0.00000000000E+00 -0.00000000000E+00 -0.10856722964E+04  0.10856722964E+04  0.25500000000E-02 0.  1.
    5000001    1    1    2    0    0  0.20122071855E+03  0.18978170794E+02 -0.55683001037E+03  0.62149304822E+03  0.18800000000E+03 0.  0.
   -5000001    1    1    2    0    0 -0.20122071855E+03 -0.18978170794E+02 -0.45814606610E+03  0.53487546814E+03  0.18800000000E+03 0.  0.
<mgrwt>
<rscale>  0 0.55408637E+03</rscale>
<asrwt>0</asrwt>
<pdfrwt beam="1">  1        2 0.15509603E+00 0.55408637E+03</pdfrwt>
<pdfrwt beam="2">  1       -2 0.10099461E-01 0.55408637E+03</pdfrwt>
<totfact> 0.16919886E+03</totfact>
</mgrwt>
</event>
<event>
 4    1  0.6239849E-005  0.4525774E+03  0.7818608E-02  0.1026956E+00
          2   -1    0    0  501    0  0.00000000000E+00  0.00000000000E+00  0.45093384951E+03  0.45093384952E+03  0.25500000000E-02 0.  1.
         -2   -1    0    0    0  501 -0.00000000000E+00 -0.00000000000E+00 -0.11355673258E+03  0.11355673261E+03  0.25500000000E-02 0. -1.
    5000001    1    1    2    0    0 -0.82187701307E+02  0.93521383751E+02  0.14497360587E+03  0.26807165808E+03  0.18800000000E+03 0.  0.
   -5000001    1    1    2    0    0  0.82187701307E+02 -0.93521383751E+02  0.19240351106E+03  0.29641892405E+03  0.18800000000E+03 0.  0.
<mgrwt>
<rscale>  0 0.45257739E+03</rscale>
<asrwt>0</asrwt>
<pdfrwt beam="1">  1        2 0.64419122E-01 0.45257739E+03</pdfrwt>
<pdfrwt beam="2">  1       -2 0.16222390E-01 0.45257739E+03</pdfrwt>
<totfact> 0.22966767E+03</totfact>
</mgrwt>
</event>
<event>
 4    1  0.6239849E-005  0.6063166E+03  0.7818608E-02  0.9892387E-01
         -2   -1    0    0    0  501 -0.00000000000E+00  0.00000000000E+00  0.25683131424E+02  0.25683131551E+02  0.25500000000E-02 0. -1.
          2   -1    0    0  501    0  0.00000000000E+00 -0.00000000000E+00 -0.35784164527E+04  0.35784164527E+04  0.25500000000E-02 0.  1.
    5000001    1    1    2    0    0  0.10100886153E+03  0.21498109271E+03 -0.17057125204E+04  0.17324026272E+04  0.18800000000E+03 0.  0.
   -5000001    1    1    2    0    0 -0.10100886153E+03 -0.21498109271E+03 -0.18470208009E+04  0.18716969571E+04  0.18800000000E+03 0.  0.
<mgrwt>
<rscale>  0 0.60631655E+03</rscale>
<asrwt>0</asrwt>
<pdfrwt beam="1">  1        2 0.51120203E+00 0.60631655E+03</pdfrwt>
<pdfrwt beam="2">  1       -2 0.36690210E-02 0.60631655E+03</pdfrwt>
<totfact> 0.38928201E+02</totfact>
</mgrwt>
</event>
<event>
 4    1  0.6239849E-005  0.5761635E+03  0.7818608E-02  0.9956132E-01
         -2   -1    0    0    0  501 -0.00000000000E+00  0.00000000000E+00  0.99064095705E+02  0.99064095737E+02  0.25500000000E-02 0. -1.
          2   -1    0    0  501    0  0.00000000000E+00 -0.00000000000E+00 -0.83775147621E+03  0.83775147622E+03  0.25500000000E-02 0.  1.
    5000001    1    1    2    0    0  0.95465628310E+02 -0.15338281626E+03 -0.17015851491E+03  0.31134851005E+03  0.18800000000E+03 0.  0.
   -5000001    1    1    2    0    0 -0.95465628310E+02  0.15338281626E+03 -0.56852886559E+03  0.62546706190E+03  0.18800000000E+03 0.  0.
<mgrwt>
<rscale>  0 0.57616349E+03</rscale>
<asrwt>0</asrwt>
<pdfrwt beam="1">  1        2 0.11967878E+00 0.57616349E+03</pdfrwt>
<pdfrwt beam="2">  1       -2 0.14152014E-01 0.57616349E+03</pdfrwt>
<totfact> 0.13862796E+03</totfact>
</mgrwt>
</event>
<event>
 4    1  0.6239849E-005  0.4268199E+03  0.7818608E-02  0.1034869E+00
          2   -1    0    0  501    0  0.00000000000E+00  0.00000000000E+00  0.26822598645E+04  0.26822598645E+04  0.25500000000E-02 0.  1.
         -2   -1    0    0    0  501 -0.00000000000E+00 -0.00000000000E+00 -0.16979638900E+02  0.16979639091E+02  0.25500000000E-02 0. -1.
    5000001    1    1    2    0    0 -0.61648002563E+02  0.79291781203E+02  0.12656701931E+04  0.12834923843E+04  0.18800000000E+03 0.  0.
   -5000001    1    1    2    0    0  0.61648002563E+02 -0.79291781203E+02  0.13996100325E+04  0.14157471194E+04  0.18800000000E+03 0.  0.
<mgrwt>
<rscale>  0 0.42681989E+03</rscale>
<asrwt>0</asrwt>
<pdfrwt beam="1">  1        2 0.38317962E+00 0.42681989E+03</pdfrwt>
<pdfrwt beam="2">  1       -2 0.24256650E-02 0.42681989E+03</pdfrwt>
<totfact> 0.23305121E+03</totfact>
</mgrwt>
</event>
<event>
 4    1  0.6239849E-005  0.6559454E+03  0.7818608E-02  0.9795687E-01
          2   -1    0    0  501    0  0.00000000000E+00  0.00000000000E+00  0.84210007738E+03  0.84210007738E+03  0.25500000000E-02 0.  1.
         -2   -1    0    0    0  501 -0.00000000000E+00 -0.00000000000E+00 -0.12773552062E+03  0.12773552065E+03  0.25500000000E-02 0. -1.
    5000001    1    1    2    0    0 -0.16977983684E+03  0.14617154267E+03  0.13772734077E+03  0.32327099047E+03  0.18800000000E+03 0.  0.
   -5000001    1    1    2    0    0  0.16977983684E+03 -0.14617154267E+03  0.57663721599E+03  0.64656460756E+03  0.18800000000E+03 0.  0.
<mgrwt>
<rscale>  0 0.65594540E+03</rscale>
<asrwt>0</asrwt>
<pdfrwt beam="1">  1        2 0.12030001E+00 0.65594540E+03</pdfrwt>
<pdfrwt beam="2">  1       -2 0.18247932E-01 0.65594540E+03</pdfrwt>
<totfact> 0.89308390E+02</totfact>
</mgrwt>
</event>
<event>
 4    1  0.6239849E-005  0.4125045E+03  0.7818608E-02  0.1039534E+00
          2   -1    0    0  501    0  0.00000000000E+00  0.00000000000E+00  0.22138206377E+04  0.22138206377E+04  0.25500000000E-02 0.  1.
         -2   -1    0    0    0  501 -0.00000000000E+00 -0.00000000000E+00 -0.19215647004E+02  0.19215647173E+02  0.25500000000E-02 0. -1.
    5000001    1    1    2    0    0  0.95786188384E+01 -0.26097672485E+02  0.66345074679E+03  0.69013312619E+03  0.18800000000E+03 0.  0.
   -5000001    1    1    2    0    0 -0.95786188384E+01  0.26097672485E+02  0.15311542439E+04  0.15429031587E+04  0.18800000000E+03 0.  0.
<mgrwt>
<rscale>  0 0.41250453E+03</rscale>
<asrwt>0</asrwt>
<pdfrwt beam="1">  1        2 0.31625994E+00 0.41250453E+03</pdfrwt>
<pdfrwt beam="2">  1       -2 0.27450938E-02 0.41250453E+03</pdfrwt>
<totfact> 0.33416426E+03</totfact>
</mgrwt>
</event>
<event>
 4    1  0.6239849E-005  0.4550542E+03  0.7818608E-02  0.1026225E+00
         -2   -1    0    0    0  501 -0.00000000000E+00  0.00000000000E+00  0.59311494533E+03  0.59311494534E+03  0.25500000000E-02 0. -1.
          2   -1    0    0  501    0  0.00000000000E+00 -0.00000000000E+00 -0.87282529648E+02  0.87282529685E+02  0.25500000000E-02 0.  1.
    5000001    1    1    2    0    0  0.58990347721E+02 -0.63442553673E+02  0.11170276489E+03  0.23521548934E+03  0.18800000000E+03 0.  0.
   -5000001    1    1    2    0    0 -0.58990347721E+02  0.63442553673E+02  0.39412965080E+03  0.44518198569E+03  0.18800000000E+03 0.  0.
<mgrwt>
<rscale>  0 0.45505416E+03</rscale>
<asrwt>0</asrwt>
<pdfrwt beam="1">  1        2 0.12468933E-01 0.45505416E+03</pdfrwt>
<pdfrwt beam="2">  1       -2 0.84730705E-01 0.45505416E+03</pdfrwt>
<totfact> 0.61505663E+02</totfact>
</mgrwt>
</event>
<event>
 4    1  0.6239849E-005  0.8182584E+03  0.7818608E-02  0.9533958E-01
         -2   -1    0    0    0  501 -0.00000000000E+00  0.00000000000E+00  0.30884617542E+03  0.30884617543E+03  0.25500000000E-02 0. -1.
          2   -1    0    0  501    0  0.00000000000E+00 -0.00000000000E+00 -0.54197437056E+03  0.54197437056E+03  0.25500000000E-02 0.  1.
    5000001    1    1    2    0    0 -0.35284338812E+03 -0.58417345030E+02 -0.49728130804E+02  0.40709695373E+03  0.18800000000E+03 0.  0.
   -5000001    1    1    2    0    0  0.35284338812E+03  0.58417345030E+02 -0.18340006433E+03  0.44372359227E+03  0.18800000000E+03 0.  0.
<mgrwt>
<rscale>  0 0.81825842E+03</rscale>
<asrwt>0</asrwt>
<pdfrwt beam="1">  1        2 0.77424910E-01 0.81825842E+03</pdfrwt>
<pdfrwt beam="2">  1       -2 0.44120882E-01 0.81825842E+03</pdfrwt>
<totfact> 0.29943676E+02</totfact>
</mgrwt>
</event>
<event>
 4    1  0.6239849E-005  0.8438964E+03  0.7818608E-02  0.9498566E-01
         -2   -1    0    0    0  501 -0.00000000000E+00  0.00000000000E+00  0.91618904743E+03  0.91618904744E+03  0.25500000000E-02 0. -1.
          2   -1    0    0  501    0  0.00000000000E+00 -0.00000000000E+00 -0.19432701903E+03  0.19432701904E+03  0.25500000000E-02 0.  1.
    5000001    1    1    2    0    0 -0.35760388723E+03  0.33260959207E+02  0.20685118025E+03  0.45510245258E+03  0.18800000000E+03 0.  0.
   -5000001    1    1    2    0    0  0.35760388723E+03 -0.33260959207E+02  0.51501084815E+03  0.65541361390E+03  0.18800000000E+03 0.  0.
<mgrwt>
<rscale>  0 0.84389641E+03</rscale>
<asrwt>0</asrwt>
<pdfrwt beam="1">  1        2 0.27761002E-01 0.84389641E+03</pdfrwt>
<pdfrwt beam="2">  1       -2 0.13088415E+00 0.84389641E+03</pdfrwt>
<totfact> 0.83459811E+01</totfact>
</mgrwt>
</event>
<event>
 4    1  0.6239849E-005  0.6017442E+03  0.7818608E-02  0.9901794E-01
          2   -1    0    0  501    0  0.00000000000E+00  0.00000000000E+00  0.23056479278E+03  0.23056479280E+03  0.25500000000E-02 0.  1.
         -2   -1    0    0    0  501 -0.00000000000E+00 -0.00000000000E+00 -0.39261863844E+03  0.39261863845E+03  0.25500000000E-02 0. -1.
    5000001    1    1    2    0    0 -0.88775444916E+02 -0.17209163027E+03  0.56689951589E+02  0.27577954862E+03  0.18800000000E+03 0.  0.
   -5000001    1    1    2    0    0  0.88775444916E+02  0.17209163027E+03 -0.21874379725E+03  0.34740388263E+03  0.18800000000E+03 0.  0.
<mgrwt>
<rscale>  0 0.60174425E+03</rscale>
<asrwt>0</asrwt>
<pdfrwt beam="1">  1        2 0.32937827E-01 0.60174425E+03</pdfrwt>
<pdfrwt beam="2">  1       -2 0.56088377E-01 0.60174425E+03</pdfrwt>
<totfact> 0.48192575E+02</totfact>
</mgrwt>
</event>
<event>
 4    1  0.6239849E-005  0.9884216E+03  0.7818608E-02  0.9321336E-01
         -2   -1    0    0    0  501 -0.00000000000E+00  0.00000000000E+00  0.13037127495E+04  0.13037127495E+04  0.25500000000E-02 0. -1.
          2   -1    0    0  501    0  0.00000000000E+00 -0.00000000000E+00 -0.18734518103E+03  0.18734518105E+03  0.25500000000E-02 0.  1.
    5000001    1    1    2    0    0  0.40490783466E+03 -0.15262592159E+03  0.33619340710E+03  0.57932290952E+03  0.18800000000E+03 0.  0.
   -5000001    1    1    2    0    0 -0.40490783466E+03  0.15262592159E+03  0.78017416133E+03  0.91173502100E+03  0.18800000000E+03 0.  0.
<mgrwt>
<rscale>  0 0.98842157E+03</rscale>
<asrwt>0</asrwt>
<pdfrwt beam="1">  1        2 0.26763596E-01 0.98842157E+03</pdfrwt>
<pdfrwt beam="2">  1       -2 0.18624469E+00 0.98842157E+03</pdfrwt>
<totfact> 0.33323006E+01</totfact>
</mgrwt>
</event>
<event>
 4    1  0.6239849E-005  0.8400567E+03  0.7818608E-02  0.9503781E-01
         -2   -1    0    0    0  501 -0.00000000000E+00  0.00000000000E+00  0.10263859789E+03  0.10263859792E+03  0.25500000000E-02 0. -1.
          2   -1    0    0  501    0  0.00000000000E+00 -0.00000000000E+00 -0.17188837224E+04  0.17188837224E+04  0.25500000000E-02 0.  1.
    5000001    1    1    2    0    0 -0.34891357128E+03 -0.76926922792E+02 -0.55691972479E+03  0.68786772823E+03  0.18800000000E+03 0.  0.
   -5000001    1    1    2    0    0  0.34891357128E+03  0.76926922792E+02 -0.10593253997E+04  0.11336545921E+04  0.18800000000E+03 0.  0.
<mgrwt>
<rscale>  0 0.84005670E+03</rscale>
<asrwt>0</asrwt>
<pdfrwt beam="1">  1        2 0.24555480E+00 0.84005670E+03</pdfrwt>
<pdfrwt beam="2">  1       -2 0.14662658E-01 0.84005670E+03</pdfrwt>
<totfact> 0.41177801E+02</totfact>
</mgrwt>
</event>
<event>
 4    1  0.6239849E-005  0.4413241E+03  0.7818608E-02  0.1030341E+00
         -2   -1    0    0    0  501 -0.00000000000E+00  0.00000000000E+00  0.74089921666E+02  0.74089921710E+02  0.25500000000E-02 0. -1.
          2   -1    0    0  501    0  0.00000000000E+00 -0.00000000000E+00 -0.65719793847E+03  0.65719793847E+03  0.25500000000E-02 0.  1.
    5000001    1    1    2    0    0  0.80011236124E+02  0.63624622443E+02 -0.38075483996E+03  0.43677012105E+03  0.18800000000E+03 0.  0.
   -5000001    1    1    2    0    0 -0.80011236124E+02 -0.63624622443E+02 -0.20235317684E+03  0.29451773913E+03  0.18800000000E+03 0.  0.
<mgrwt>
<rscale>  0 0.44132412E+03</rscale>
<asrwt>0</asrwt>
<pdfrwt beam="1">  1        2 0.93885416E-01 0.44132412E+03</pdfrwt>
<pdfrwt beam="2">  1       -2 0.10584275E-01 0.44132412E+03</pdfrwt>
<totfact> 0.30174812E+03</totfact>
</mgrwt>
</event>
<event>
 4    1  0.6239849E-005  0.5236476E+03  0.7818608E-02  0.1007784E+00
          2   -1    0    0  501    0  0.00000000000E+00  0.00000000000E+00  0.26179857192E+03  0.26179857194E+03  0.25500000000E-02 0.  1.
         -2   -1    0    0    0  501 -0.00000000000E+00 -0.00000000000E+00 -0.26184901634E+03  0.26184901636E+03  0.25500000000E-02 0. -1.
    5000001    1    1    2    0    0 -0.13043644610E+03 -0.11583321817E+03  0.52669157645E+02  0.26181871795E+03  0.18800000000E+03 0.  0.
   -5000001    1    1    2    0    0  0.13043644610E+03  0.11583321817E+03 -0.52719602064E+02  0.26182887034E+03  0.18800000000E+03 0.  0.
<mgrwt>
<rscale>  0 0.52364759E+03</rscale>
<asrwt>0</asrwt>
<pdfrwt beam="1">  1        2 0.37399796E-01 0.52364759E+03</pdfrwt>
<pdfrwt beam="2">  1       -2 0.37407003E-01 0.52364759E+03</pdfrwt>
<totfact> 0.93800478E+02</totfact>
</mgrwt>
</event>
<event>
 4    1  0.6239849E-005  0.4712031E+03  0.7818608E-02  0.1021581E+00
         -2   -1    0    0    0  501 -0.00000000000E+00  0.00000000000E+00  0.18203821160E+03  0.18203821162E+03  0.25500000000E-02 0. -1.
          2   -1    0    0  501    0  0.00000000000E+00 -0.00000000000E+00 -0.30492553137E+03  0.30492553138E+03  0.25500000000E-02 0.  1.
    5000001    1    1    2    0    0 -0.11123387478E+02  0.14121949147E+03 -0.71644153428E+02  0.24605600834E+03  0.18800000000E+03 0.  0.
   -5000001    1    1    2    0    0  0.11123387478E+02 -0.14121949147E+03 -0.51243166346E+02  0.24090773466E+03  0.18800000000E+03 0.  0.
<mgrwt>
<rscale>  0 0.47120313E+03</rscale>
<asrwt>0</asrwt>
<pdfrwt beam="1">  1        2 0.43560790E-01 0.47120313E+03</pdfrwt>
<pdfrwt beam="2">  1       -2 0.26005459E-01 0.47120313E+03</pdfrwt>
<totfact> 0.15552507E+03</totfact>
</mgrwt>
</event>
<event>
 4    1  0.6239849E-005  0.5870837E+03  0.7818608E-02  0.9932572E-01
         -2   -1    0    0    0  501 -0.00000000000E+00  0.00000000000E+00  0.27532224493E+02  0.27532224611E+02  0.25500000000E-02 0. -1.
          2   -1    0    0  501    0  0.00000000000E+00 -0.00000000000E+00 -0.31296714084E+04  0.31296714084E+04  0.25500000000E-02 0.  1.
    5000001    1    1    2    0    0  0.17060195581E+03  0.49716888629E+02 -0.22971283588E+04  0.23116486526E+04  0.18800000000E+03 0.  0.
   -5000001    1    1    2    0    0 -0.17060195581E+03 -0.49716888629E+02 -0.80501082519E+03  0.84555498048E+03  0.18800000000E+03 0.  0.
<mgrwt>
<rscale>  0 0.58708369E+03</rscale>
<asrwt>0</asrwt>
<pdfrwt beam="1">  1        2 0.44709569E+00 0.58708369E+03</pdfrwt>
<pdfrwt beam="2">  1       -2 0.39331769E-02 0.58708369E+03</pdfrwt>
<totfact> 0.63708063E+02</totfact>
</mgrwt>
</event>
<event>
 4    1  0.6239849E-005  0.5487885E+03  0.7818608E-02  0.1001775E+00
         -2   -1    0    0    0  501 -0.00000000000E+00  0.00000000000E+00  0.65558552090E+02  0.65558552140E+02  0.25500000000E-02 0. -1.
          2   -1    0    0  501    0  0.00000000000E+00 -0.00000000000E+00 -0.11484725985E+04  0.11484725985E+04  0.25500000000E-02 0.  1.
    5000001    1    1    2    0    0  0.25417346944E+02  0.19758211229E+03 -0.50554921935E+03  0.57498586575E+03  0.18800000000E+03 0.  0.
   -5000001    1    1    2    0    0 -0.25417346944E+02 -0.19758211229E+03 -0.57736482709E+03  0.63904528493E+03  0.18800000000E+03 0.  0.
<mgrwt>
<rscale>  0 0.54878849E+03</rscale>
<asrwt>0</asrwt>
<pdfrwt beam="1">  1        2 0.16406750E+00 0.54878849E+03</pdfrwt>
<pdfrwt beam="2">  1       -2 0.93655081E-02 0.54878849E+03</pdfrwt>
<totfact> 0.17585598E+03</totfact>
</mgrwt>
</event>
<event>
 4    1  0.6239849E-005  0.4004190E+03  0.7818608E-02  0.1043635E+00
          2   -1    0    0  501    0  0.00000000000E+00  0.00000000000E+00  0.21825755903E+04  0.21825755903E+04  0.25500000000E-02 0.  1.
         -2   -1    0    0    0  501 -0.00000000000E+00 -0.00000000000E+00 -0.18365386223E+02  0.18365386400E+02  0.25500000000E-02 0. -1.
    5000001    1    1    2    0    0 -0.18243613016E+02  0.66378663162E+02  0.10769268124E+04  0.10953786174E+04  0.18800000000E+03 0.  0.
   -5000001    1    1    2    0    0  0.18243613016E+02 -0.66378663162E+02  0.10872833917E+04  0.11055623592E+04  0.18800000000E+03 0.  0.
<mgrwt>
<rscale>  0 0.40041900E+03</rscale>
<asrwt>0</asrwt>
<pdfrwt beam="1">  1        2 0.31179639E+00 0.40041900E+03</pdfrwt>
<pdfrwt beam="2">  1       -2 0.26236276E-02 0.40041900E+03</pdfrwt>
<totfact> 0.37079553E+03</totfact>
</mgrwt>
</event>
<event>
 4    1  0.6239849E-005  0.6138534E+03  0.7818608E-02  0.9877074E-01
         -2   -1    0    0    0  501 -0.00000000000E+00  0.00000000000E+00  0.42725339659E+03  0.42725339660E+03  0.25500000000E-02 0. -1.
          2   -1    0    0  501    0  0.00000000000E+00 -0.00000000000E+00 -0.22048745329E+03  0.22048745330E+03  0.25500000000E-02 0.  1.
    5000001    1    1    2    0    0 -0.20741502724E+03 -0.91472715311E+02  0.19459415875E+03  0.35298603059E+03  0.18800000000E+03 0.  0.
   -5000001    1    1    2    0    0  0.20741502724E+03  0.91472715311E+02  0.12171784552E+02  0.29475481931E+03  0.18800000000E+03 0.  0.
<mgrwt>
<rscale>  0 0.61385345E+03</rscale>
<asrwt>0</asrwt>
<pdfrwt beam="1">  1        2 0.31498208E-01 0.61385345E+03</pdfrwt>
<pdfrwt beam="2">  1       -2 0.61036199E-01 0.61385345E+03</pdfrwt>
<totfact> 0.42440528E+02</totfact>
</mgrwt>
</event>
<event>
 4    1  0.6239849E-005  0.8118003E+03  0.7818608E-02  0.9543092E-01
         -2   -1    0    0    0  501 -0.00000000000E+00  0.00000000000E+00  0.16577858741E+03  0.16577858743E+03  0.25500000000E-02 0. -1.
          2   -1    0    0  501    0  0.00000000000E+00 -0.00000000000E+00 -0.99382509223E+03  0.99382509223E+03  0.25500000000E-02 0.  1.
    5000001    1    1    2    0    0  0.28324469347E+02 -0.34139641262E+03 -0.25717400707E+03  0.46779937583E+03  0.18800000000E+03 0.  0.
   -5000001    1    1    2    0    0 -0.28324469347E+02  0.34139641262E+03 -0.57087249775E+03  0.69180430383E+03  0.18800000000E+03 0.  0.
<mgrwt>
<rscale>  0 0.81180027E+03</rscale>
<asrwt>0</asrwt>
<pdfrwt beam="1">  1        2 0.14197501E+00 0.81180027E+03</pdfrwt>
<pdfrwt beam="2">  1       -2 0.23682656E-01 0.81180027E+03</pdfrwt>
<totfact> 0.44880422E+02</totfact>
</mgrwt>
</event>
<event>
 4    1  0.6239849E-005  0.8063580E+03  0.7818608E-02  0.9550859E-01
         -2   -1    0    0    0  501 -0.00000000000E+00  0.00000000000E+00  0.11696678253E+03  0.11696678256E+03  0.25500000000E-02 0. -1.
          2   -1    0    0  501    0  0.00000000000E+00 -0.00000000000E+00 -0.13897391256E+04  0.13897391256E+04  0.25500000000E-02 0.  1.
    5000001    1    1    2    0    0  0.11915838038E+03  0.26893042290E+03 -0.10132882514E+04  0.10717366152E+04  0.18800000000E+03 0.  0.
   -5000001    1    1    2    0    0 -0.11915838038E+03 -0.26893042290E+03 -0.25948409168E+03  0.43496929295E+03  0.18800000000E+03 0.  0.
<mgrwt>
<rscale>  0 0.80635802E+03</rscale>
<asrwt>0</asrwt>
<pdfrwt beam="1">  1        2 0.19853415E+00 0.80635802E+03</pdfrwt>
<pdfrwt beam="2">  1       -2 0.16709541E-01 0.80635802E+03</pdfrwt>
<totfact> 0.49118194E+02</totfact>
</mgrwt>
</event>
<event>
 4    1  0.6239849E-005  0.4733280E+03  0.7818608E-02  0.1020985E+00
         -2   -1    0    0    0  501 -0.00000000000E+00  0.00000000000E+00  0.60216314054E+03  0.60216314054E+03  0.25500000000E-02 0. -1.
          2   -1    0    0  501    0  0.00000000000E+00 -0.00000000000E+00 -0.93014398943E+02  0.93014398978E+02  0.25500000000E-02 0.  1.
    5000001    1    1    2    0    0  0.88526624844E+02  0.79538641834E+02  0.13614124331E+03  0.26084822595E+03  0.18800000000E+03 0.  0.
   -5000001    1    1    2    0    0 -0.88526624844E+02 -0.79538641834E+02  0.37300749829E+03  0.43432931357E+03  0.18800000000E+03 0.  0.
<mgrwt>
<rscale>  0 0.47332797E+03</rscale>
<asrwt>0</asrwt>
<pdfrwt beam="1">  1        2 0.13287771E-01 0.47332797E+03</pdfrwt>
<pdfrwt beam="2">  1       -2 0.86023308E-01 0.47332797E+03</pdfrwt>
<totfact> 0.54978733E+02</totfact>
</mgrwt>
</event>
<event>
 4    1  0.6239849E-005  0.5293806E+03  0.7818608E-02  0.1006382E+00
         -2   -1    0    0    0  501 -0.00000000000E+00  0.00000000000E+00  0.66291708340E+02  0.66291708389E+02  0.25500000000E-02 0. -1.
          2   -1    0    0  501    0  0.00000000000E+00 -0.00000000000E+00 -0.10568583245E+04  0.10568583245E+04  0.25500000000E-02 0.  1.
    5000001    1    1    2    0    0 -0.15546753924E+03 -0.50178173131E+01 -0.71290935735E+03  0.75351117181E+03  0.18800000000E+03 0.  0.
   -5000001    1    1    2    0    0  0.15546753924E+03  0.50178173131E+01 -0.27765725878E+03  0.36963886105E+03  0.18800000000E+03 0.  0.
<mgrwt>
<rscale>  0 0.52938056E+03</rscale>
<asrwt>0</asrwt>
<pdfrwt beam="1">  1        2 0.15097975E+00 0.52938056E+03</pdfrwt>
<pdfrwt beam="2">  1       -2 0.94702447E-02 0.52938056E+03</pdfrwt>
<totfact> 0.19522985E+03</totfact>
</mgrwt>
</event>
<event>
 4    1  0.6239849E-005  0.5909449E+03  0.7818608E-02  0.9924373E-01
          2   -1    0    0  501    0  0.00000000000E+00  0.00000000000E+00  0.11442673571E+04  0.11442673571E+04  0.25500000000E-02 0.  1.
         -2   -1    0    0    0  501 -0.00000000000E+00 -0.00000000000E+00 -0.76296820710E+02  0.76296820752E+02  0.25500000000E-02 0. -1.
    5000001    1    1    2    0    0  0.64853200563E+02 -0.20852913643E+03  0.39902422818E+03  0.49219373527E+03  0.18800000000E+03 0.  0.
   -5000001    1    1    2    0    0 -0.64853200563E+02  0.20852913643E+03  0.66894630822E+03  0.72837044259E+03  0.18800000000E+03 0.  0.
<mgrwt>
<rscale>  0 0.59094488E+03</rscale>
<asrwt>0</asrwt>
<pdfrwt beam="1">  1        2 0.16346675E+00 0.59094488E+03</pdfrwt>
<pdfrwt beam="2">  1       -2 0.10899547E-01 0.59094488E+03</pdfrwt>
<totfact> 0.13817780E+03</totfact>
</mgrwt>
</event>
<event>
 4    1  0.6239849E-005  0.4231357E+03  0.7818608E-02  0.1036051E+00
         -2   -1    0    0    0  501 -0.00000000000E+00  0.00000000000E+00  0.75360057707E+02  0.75360057750E+02  0.25500000000E-02 0. -1.
          2   -1    0    0  501    0  0.00000000000E+00 -0.00000000000E+00 -0.59396129456E+03  0.59396129456E+03  0.25500000000E-02 0.  1.
    5000001    1    1    2    0    0  0.90146827475E+02  0.35223697019E+02 -0.27046311782E+03  0.34330956503E+03  0.18800000000E+03 0.  0.
   -5000001    1    1    2    0    0 -0.90146827475E+02 -0.35223697019E+02 -0.24813811903E+03  0.32601178729E+03  0.18800000000E+03 0.  0.
<mgrwt>
<rscale>  0 0.42313571E+03</rscale>
<asrwt>0</asrwt>
<pdfrwt beam="1">  1        2 0.84851610E-01 0.42313571E+03</pdfrwt>
<pdfrwt beam="2">  1       -2 0.10765723E-01 0.42313571E+03</pdfrwt>
<totfact> 0.33041563E+03</totfact>
</mgrwt>
</event>
<event>
 4    1  0.6239849E-005  0.5149529E+03  0.7818608E-02  0.1009948E+00
         -2   -1    0    0    0  501 -0.00000000000E+00  0.00000000000E+00  0.43682258879E+03  0.43682258879E+03  0.25500000000E-02 0. -1.
          2   -1    0    0  501    0  0.00000000000E+00 -0.00000000000E+00 -0.15176443195E+03  0.15176443197E+03  0.25500000000E-02 0.  1.
    5000001    1    1    2    0    0 -0.16867859511E+02  0.16202520159E+03  0.21846229972E+03  0.33106867419E+03  0.18800000000E+03 0.  0.
   -5000001    1    1    2    0    0  0.16867859511E+02 -0.16202520159E+03  0.66595857119E+02  0.25751834657E+03  0.18800000000E+03 0.  0.
<mgrwt>
<rscale>  0 0.51495294E+03</rscale>
<asrwt>0</asrwt>
<pdfrwt beam="1">  1        2 0.21680633E-01 0.51495294E+03</pdfrwt>
<pdfrwt beam="2">  1       -2 0.62403229E-01 0.51495294E+03</pdfrwt>
<totfact> 0.62012476E+02</totfact>
</mgrwt>
</event>
<event>
 4    1  0.6239849E-005  0.6726701E+03  0.7818608E-02  0.9765146E-01
         -2   -1    0    0    0  501 -0.00000000000E+00  0.00000000000E+00  0.93442908424E+02  0.93442908459E+02  0.25500000000E-02 0. -1.
          2   -1    0    0  501    0  0.00000000000E+00 -0.00000000000E+00 -0.12105924334E+04  0.12105924334E+04  0.25500000000E-02 0.  1.
    5000001    1    1    2    0    0  0.24720165143E+03 -0.18711645624E+02 -0.80621845807E+03  0.86417069163E+03  0.18800000000E+03 0.  0.
   -5000001    1    1    2    0    0 -0.24720165143E+03  0.18711645624E+02 -0.31093106690E+03  0.43986465022E+03  0.18800000000E+03 0.  0.
<mgrwt>
<rscale>  0 0.67267014E+03</rscale>
<asrwt>0</asrwt>
<pdfrwt beam="1">  1        2 0.17294177E+00 0.67267014E+03</pdfrwt>
<pdfrwt beam="2">  1       -2 0.13348988E-01 0.67267014E+03</pdfrwt>
<totfact> 0.90506174E+02</totfact>
</mgrwt>
</event>
<event>
 4    1  0.6239849E-005  0.5972261E+03  0.7818608E-02  0.9911178E-01
          2   -1    0    0  501    0  0.00000000000E+00  0.00000000000E+00  0.17018732476E+04  0.17018732476E+04  0.25500000000E-02 0.  1.
         -2   -1    0    0    0  501 -0.00000000000E+00 -0.00000000000E+00 -0.52395064788E+02  0.52395064850E+02  0.25500000000E-02 0. -1.
    5000001    1    1    2    0    0  0.77408967466E+02  0.14889097345E+03  0.12953138335E+04  0.13195994080E+04  0.18800000000E+03 0.  0.
   -5000001    1    1    2    0    0 -0.77408967466E+02 -0.14889097345E+03  0.35416434934E+03  0.43466890453E+03  0.18800000000E+03 0.  0.
<mgrwt>
<rscale>  0 0.59722612E+03</rscale>
<asrwt>0</asrwt>
<pdfrwt beam="1">  1        2 0.24312474E+00 0.59722612E+03</pdfrwt>
<pdfrwt beam="2">  1       -2 0.74850095E-02 0.59722612E+03</pdfrwt>
<totfact> 0.12767126E+03</totfact>
</mgrwt>
</event>
<event>
 4    1  0.6239849E-005  0.4169241E+03  0.7818608E-02  0.1038072E+00
         -2   -1    0    0    0  501 -0.00000000000E+00  0.00000000000E+00  0.11235514619E+03  0.11235514622E+03  0.25500000000E-02 0. -1.
          2   -1    0    0  501    0  0.00000000000E+00 -0.00000000000E+00 -0.38677736242E+03  0.38677736243E+03  0.25500000000E-02 0.  1.
    5000001    1    1    2    0    0  0.39111346651E+01 -0.87387648715E+02 -0.16290248248E+03  0.26369132887E+03  0.18800000000E+03 0.  0.
   -5000001    1    1    2    0    0 -0.39111346651E+01  0.87387648715E+02 -0.11151973374E+03  0.23544117978E+03  0.18800000000E+03 0.  0.
<mgrwt>
<rscale>  0 0.41692410E+03</rscale>
<asrwt>0</asrwt>
<pdfrwt beam="1">  1        2 0.55253908E-01 0.41692410E+03</pdfrwt>
<pdfrwt beam="2">  1       -2 0.16050735E-01 0.41692410E+03</pdfrwt>
<totfact> 0.27669995E+03</totfact>
</mgrwt>
</event>
<event>
 4    1  0.6239849E-005  0.7912920E+03  0.7818608E-02  0.9572708E-01
         -2   -1    0    0    0  501 -0.00000000000E+00  0.00000000000E+00  0.20450155427E+03  0.20450155429E+03  0.25500000000E-02 0. -1.
          2   -1    0    0  501    0  0.00000000000E+00 -0.00000000000E+00 -0.76545019301E+03  0.76545019302E+03  0.25500000000E-02 0.  1.
    5000001    1    1    2    0    0 -0.42083832561E+02  0.34478523491E+03 -0.30906021067E+03  0.50150784739E+03  0.18800000000E+03 0.  0.
   -5000001    1    1    2    0    0  0.42083832561E+02 -0.34478523491E+03 -0.25188842807E+03  0.46844389991E+03  0.18800000000E+03 0.  0.
<mgrwt>
<rscale>  0 0.79129199E+03</rscale>
<asrwt>0</asrwt>
<pdfrwt beam="1">  1        2 0.10935003E+00 0.79129199E+03</pdfrwt>
<pdfrwt beam="2">  1       -2 0.29214508E-01 0.79129199E+03</pdfrwt>
<totfact> 0.43454840E+02</totfact>
</mgrwt>
</event>
<event>
 4    1  0.6239849E-005  0.5673593E+03  0.7818608E-02  0.9975539E-01
         -2   -1    0    0    0  501 -0.00000000000E+00  0.00000000000E+00  0.10042757747E+03  0.10042757750E+03  0.25500000000E-02 0.  1.
          2   -1    0    0  501    0  0.00000000000E+00 -0.00000000000E+00 -0.80131525609E+03  0.80131525610E+03  0.25500000000E-02 0. -1.
    5000001    1    1    2    0    0  0.25932011527E+02  0.10384107080E+03 -0.64210355955E+03  0.67756654167E+03  0.18800000000E+03 0.  0.
   -5000001    1    1    2    0    0 -0.25932011527E+02 -0.10384107080E+03 -0.58784119074E+02  0.22417629193E+03  0.18800000000E+03 0.  0.
<mgrwt>
<rscale>  0 0.56735932E+03</rscale>
<asrwt>0</asrwt>
<pdfrwt beam="1">  1        2 0.11447360E+00 0.56735932E+03</pdfrwt>
<pdfrwt beam="2">  1       -2 0.14346797E-01 0.56735932E+03</pdfrwt>
<totfact> 0.14348634E+03</totfact>
</mgrwt>
</event>
<event>
 4    1  0.6239849E-005  0.4642784E+03  0.7818608E-02  0.1023548E+00
          2   -1    0    0  501    0  0.00000000000E+00  0.00000000000E+00  0.40941835894E+03  0.40941835895E+03  0.25500000000E-02 0.  1.
         -2   -1    0    0    0  501 -0.00000000000E+00 -0.00000000000E+00 -0.13162235899E+03  0.13162235901E+03  0.25500000000E-02 0. -1.
    5000001    1    1    2    0    0 -0.10749385741E+02 -0.11982536817E+03  0.21325107335E+03  0.30869675806E+03  0.18800000000E+03 0.  0.
   -5000001    1    1    2    0    0  0.10749385741E+02  0.11982536817E+03  0.64544926601E+02  0.23234395990E+03  0.18800000000E+03 0.  0.
<mgrwt>
<rscale>  0 0.46427841E+03</rscale>
<asrwt>0</asrwt>
<pdfrwt beam="1">  1        2 0.58488337E-01 0.46427841E+03</pdfrwt>
<pdfrwt beam="2">  1       -2 0.18803194E-01 0.46427841E+03</pdfrwt>
<totfact> 0.19885644E+03</totfact>
</mgrwt>
</event>
<event>
 4    1  0.6239849E-005  0.8893552E+03  0.7818608E-02  0.9438987E-01
          2   -1    0    0  501    0  0.00000000000E+00  0.00000000000E+00  0.12208476322E+04  0.12208476322E+04  0.25500000000E-02 0.  1.
         -2   -1    0    0    0  501 -0.00000000000E+00 -0.00000000000E+00 -0.16196792572E+03  0.16196792574E+03  0.25500000000E-02 0. -1.
    5000001    1    1    2    0    0 -0.33778928496E+03 -0.20004685651E+03  0.67086995825E+03  0.79970672544E+03  0.18800000000E+03 0.  0.
   -5000001    1    1    2    0    0  0.33778928496E+03  0.20004685651E+03  0.38800974822E+03  0.58310883250E+03  0.18800000000E+03 0.  0.
<mgrwt>
<rscale>  0 0.88935518E+03</rscale>
<asrwt>0</asrwt>
<pdfrwt beam="1">  1        2 0.17440680E+00 0.88935518E+03</pdfrwt>
<pdfrwt beam="2">  1       -2 0.23138275E-01 0.88935518E+03</pdfrwt>
<totfact> 0.34286188E+02</totfact>
</mgrwt>
</event>
<event>
 4    1  0.6239849E-005  0.7531623E+03  0.7818608E-02  0.9630402E-01
         -2   -1    0    0    0  501 -0.00000000000E+00  0.00000000000E+00  0.83194885117E+02  0.83194885156E+02  0.25500000000E-02 0. -1.
          2   -1    0    0  501    0  0.00000000000E+00 -0.00000000000E+00 -0.17045924892E+04  0.17045924892E+04  0.25500000000E-02 0.  1.
    5000001    1    1    2    0    0 -0.38771079560E+02 -0.31868152077E+03 -0.94927675579E+03  0.10195741598E+04  0.18800000000E+03 0.  0.
   -5000001    1    1    2    0    0  0.38771079560E+02  0.31868152077E+03 -0.67212084832E+03  0.76821321457E+03  0.18800000000E+03 0.  0.
<mgrwt>
<rscale>  0 0.75316234E+03</rscale>
<asrwt>0</asrwt>
<pdfrwt beam="1">  1        2 0.24351319E+00 0.75316234E+03</pdfrwt>
<pdfrwt beam="2">  1       -2 0.11884985E-01 0.75316234E+03</pdfrwt>
<totfact> 0.59772104E+02</totfact>
</mgrwt>
</event>
<event>
 4    1  0.6239849E-005  0.2293849E+04  0.7818608E-02  0.8480350E-01
         -2   -1    0    0    0  501 -0.00000000000E+00  0.00000000000E+00  0.48400959397E+03  0.48400959397E+03  0.25500000000E-02 0. -1.
          2   -1    0    0  501    0  0.00000000000E+00 -0.00000000000E+00 -0.27177881106E+04  0.27177881106E+04  0.25500000000E-02 0.  1.
    5000001    1    1    2    0    0 -0.52837893221E+03 -0.45076070897E+03  0.12979046975E+03  0.73113547226E+03  0.18800000000E+03 0.  0.
   -5000001    1    1    2    0    0  0.52837893221E+03  0.45076070897E+03 -0.23635689864E+04  0.24706622323E+04  0.18800000000E+03 0.  0.
<mgrwt>
<rscale>  0 0.22938487E+04</rscale>
<asrwt>0</asrwt>
<pdfrwt beam="1">  1        2 0.38825543E+00 0.22938487E+04</pdfrwt>
<pdfrwt beam="2">  1       -2 0.69144229E-01 0.22938487E+04</pdfrwt>
<totfact> 0.58681722E+00</totfact>
</mgrwt>
</event>
<event>
 4    1  0.6239849E-005  0.1007257E+04  0.7818608E-02  0.9300621E-01
          2   -1    0    0  501    0  0.00000000000E+00  0.00000000000E+00  0.78700234290E+03  0.78700234290E+03  0.25500000000E-02 0.  1.
         -2   -1    0    0    0  501 -0.00000000000E+00 -0.00000000000E+00 -0.32228823473E+03  0.32228823474E+03  0.25500000000E-02 0. -1.
    5000001    1    1    2    0    0  0.12939088307E+03  0.43378039805E+03  0.35979477531E+03  0.60803265924E+03  0.18800000000E+03 0.  0.
   -5000001    1    1    2    0    0 -0.12939088307E+03 -0.43378039805E+03  0.10491933286E+03  0.50125791840E+03  0.18800000000E+03 0.  0.
<mgrwt>
<rscale>  0 0.10072569E+04</rscale>
<asrwt>0</asrwt>
<pdfrwt beam="1">  1        2 0.11242891E+00 0.10072569E+04</pdfrwt>
<pdfrwt beam="2">  1       -2 0.46041176E-01 0.10072569E+04</pdfrwt>
<totfact> 0.17318818E+02</totfact>
</mgrwt>
</event>
<event>
 4    1  0.6239849E-005  0.8314001E+03  0.7818608E-02  0.9515647E-01
          2   -1    0    0  501    0  0.00000000000E+00  0.00000000000E+00  0.45768906430E+03  0.45768906431E+03  0.25500000000E-02 0.  1.
         -2   -1    0    0    0  501 -0.00000000000E+00 -0.00000000000E+00 -0.37756320373E+03  0.37756320374E+03  0.25500000000E-02 0. -1.
    5000001    1    1    2    0    0  0.25484351758E+03  0.25203639733E+03 -0.55218397411E+02  0.40848578365E+03  0.18800000000E+03 0.  0.
   -5000001    1    1    2    0    0 -0.25484351758E+03 -0.25203639733E+03  0.13534425798E+03  0.42676648439E+03  0.18800000000E+03 0.  0.
<mgrwt>
<rscale>  0 0.83140014E+03</rscale>
<asrwt>0</asrwt>
<pdfrwt beam="1">  1        2 0.65384153E-01 0.83140014E+03</pdfrwt>
<pdfrwt beam="2">  1       -2 0.53937600E-01 0.83140014E+03</pdfrwt>
<totfact> 0.24186015E+02</totfact>
</mgrwt>
</event>
<event>
 4    1  0.6239849E-005  0.3904670E+03  0.7818608E-02  0.1047132E+00
          2   -1    0    0  501    0  0.00000000000E+00  0.00000000000E+00  0.64137764205E+03  0.64137764205E+03  0.25500000000E-02 0.  1.
         -2   -1    0    0    0  501 -0.00000000000E+00 -0.00000000000E+00 -0.59428513180E+02  0.59428513235E+02  0.25500000000E-02 0. -1.
    5000001    1    1    2    0    0 -0.36482829988E+02  0.21148395468E+02  0.34755652085E+03  0.39738870983E+03  0.18800000000E+03 0.  0.
   -5000001    1    1    2    0    0  0.36482829988E+02 -0.21148395468E+02  0.23439260801E+03  0.30341744545E+03  0.18800000000E+03 0.  0.
<mgrwt>
<rscale>  0 0.39046700E+03</rscale>
<asrwt>0</asrwt>
<pdfrwt beam="1">  1        2 0.91625377E-01 0.39046700E+03</pdfrwt>
<pdfrwt beam="2">  1       -2 0.84897877E-02 0.39046700E+03</pdfrwt>
<totfact> 0.44115997E+03</totfact>
</mgrwt>
</event>
<event>
 4    1  0.6239849E-005  0.6862994E+03  0.7818608E-02  0.9740953E-01
          2   -1    0    0  501    0  0.00000000000E+00  0.00000000000E+00  0.11961029589E+04  0.11961029589E+04  0.25500000000E-02 0.  1.
         -2   -1    0    0    0  501 -0.00000000000E+00 -0.00000000000E+00 -0.98446139815E+02  0.98446139848E+02  0.25500000000E-02 0. -1.
    5000001    1    1    2    0    0  0.22971224198E+03  0.14778866082E+03  0.38225299302E+03  0.50603414219E+03  0.18800000000E+03 0.  0.
   -5000001    1    1    2    0    0 -0.22971224198E+03 -0.14778866082E+03  0.71540382607E+03  0.78851495657E+03  0.18800000000E+03 0.  0.
<mgrwt>
<rscale>  0 0.68629941E+03</rscale>
<asrwt>0</asrwt>
<pdfrwt beam="1">  1        2 0.17087186E+00 0.68629941E+03</pdfrwt>
<pdfrwt beam="2">  1       -2 0.14063734E-01 0.68629941E+03</pdfrwt>
<totfact> 0.84477636E+02</totfact>
</mgrwt>
</event>
<event>
 4    1  0.6239849E-005  0.7050452E+03  0.7818608E-02  0.9708643E-01
         -2   -1    0    0    0  501 -0.00000000000E+00  0.00000000000E+00  0.64454144411E+02  0.64454144461E+02  0.25500000000E-02 0. -1.
          2   -1    0    0  501    0  0.00000000000E+00 -0.00000000000E+00 -0.19280710075E+04  0.19280710075E+04  0.25500000000E-02 0.  1.
    5000001    1    1    2    0    0  0.24573362707E+03 -0.15455017951E+03 -0.73894123929E+03  0.81587310814E+03  0.18800000000E+03 0.  0.
   -5000001    1    1    2    0    0 -0.24573362707E+03  0.15455017951E+03 -0.11246756238E+04  0.11766520438E+04  0.18800000000E+03 0.  0.
<mgrwt>
<rscale>  0 0.70504515E+03</rscale>
<asrwt>0</asrwt>
<pdfrwt beam="1">  1        2 0.27543868E+00 0.70504515E+03</pdfrwt>
<pdfrwt beam="2">  1       -2 0.92077361E-02 0.70504515E+03</pdfrwt>
<totfact> 0.70006615E+02</totfact>
</mgrwt>
</event>
<event>
 4    1  0.6239849E-005  0.4789644E+03  0.7818608E-02  0.1019420E+00
         -2   -1    0    0    0  501 -0.00000000000E+00  0.00000000000E+00  0.44323218067E+02  0.44323218140E+02  0.25500000000E-02 0. -1.
          2   -1    0    0  501    0  0.00000000000E+00 -0.00000000000E+00 -0.12939433262E+04  0.12939433262E+04  0.25500000000E-02 0.  1.
    5000001    1    1    2    0    0  0.47008431331E+02 -0.79488053423E+02 -0.30041241794E+03  0.36622365312E+03  0.18800000000E+03 0.  0.
   -5000001    1    1    2    0    0 -0.47008431331E+02  0.79488053423E+02 -0.94920769023E+03  0.97204289126E+03  0.18800000000E+03 0.  0.
<mgrwt>
<rscale>  0 0.47896443E+03</rscale>
<asrwt>0</asrwt>
<pdfrwt beam="1">  1        2 0.18484902E+00 0.47896443E+03</pdfrwt>
<pdfrwt beam="2">  1       -2 0.63318891E-02 0.47896443E+03</pdfrwt>
<totfact> 0.27189156E+03</totfact>
</mgrwt>
</event>
<event>
 4    1  0.6239849E-005  0.4999965E+03  0.7818608E-02  0.1013780E+00
          2   -1    0    0  501    0  0.00000000000E+00  0.00000000000E+00  0.14630695410E+03  0.14630695413E+03  0.25500000000E-02 0.  1.
         -2   -1    0    0    0  501 -0.00000000000E+00 -0.00000000000E+00 -0.42717816075E+03  0.42717816076E+03  0.25500000000E-02 0. -1.
    5000001    1    1    2    0    0  0.11247042760E+02  0.11272754334E+03 -0.31756165012E+01  0.21951783422E+03  0.18800000000E+03 0.  0.
   -5000001    1    1    2    0    0 -0.11247042760E+02 -0.11272754334E+03 -0.27769559015E+03  0.35396728067E+03  0.18800000000E+03 0.  0.
<mgrwt>
<rscale>  0 0.49999654E+03</rscale>
<asrwt>0</asrwt>
<pdfrwt beam="1">  1        2 0.20900994E-01 0.49999654E+03</pdfrwt>
<pdfrwt beam="2">  1       -2 0.61025451E-01 0.49999654E+03</pdfrwt>
<totfact> 0.67823587E+02</totfact>
</mgrwt>
</event>
<event>
 4    1  0.6239849E-005  0.5455328E+03  0.7818608E-02  0.1002533E+00
          2   -1    0    0  501    0  0.00000000000E+00  0.00000000000E+00  0.76656637264E+03  0.76656637264E+03  0.25500000000E-02 0. -1.
         -2   -1    0    0    0  501 -0.00000000000E+00 -0.00000000000E+00 -0.97058131332E+02  0.97058131365E+02  0.25500000000E-02 0.  1.
    5000001    1    1    2    0    0  0.14074565369E+03  0.10423546979E+03  0.18980781478E+03  0.31944542374E+03  0.18800000000E+03 0.  0.
   -5000001    1    1    2    0    0 -0.14074565369E+03 -0.10423546979E+03  0.47970042653E+03  0.54417908027E+03  0.18800000000E+03 0.  0.
<mgrwt>
<rscale>  0 0.54553277E+03</rscale>
<asrwt>0</asrwt>
<pdfrwt beam="1">  1        2 0.10950948E+00 0.54553277E+03</pdfrwt>
<pdfrwt beam="2">  1       -2 0.13865448E-01 0.54553277E+03</pdfrwt>
<totfact> 0.16069266E+03</totfact>
</mgrwt>
</event>
<event>
 4    1  0.6239849E-005  0.5967937E+03  0.7818608E-02  0.9912081E-01
         -2   -1    0    0    0  501 -0.00000000000E+00  0.00000000000E+00  0.16140162026E+03  0.16140162028E+03  0.25500000000E-02 0. -1.
          2   -1    0    0  501    0  0.00000000000E+00 -0.00000000000E+00 -0.55167150791E+03  0.55167150792E+03  0.25500000000E-02 0.  1.
    5000001    1    1    2    0    0  0.17384175010E+03  0.15309996415E+03 -0.18795375118E+03  0.35260624737E+03  0.18800000000E+03 0.  0.
   -5000001    1    1    2    0    0 -0.17384175010E+03 -0.15309996415E+03 -0.20231613648E+03  0.36046688083E+03  0.18800000000E+03 0.  0.
<mgrwt>
<rscale>  0 0.59679368E+03</rscale>
<asrwt>0</asrwt>
<pdfrwt beam="1">  1        2 0.78810214E-01 0.59679368E+03</pdfrwt>
<pdfrwt beam="2">  1       -2 0.23057375E-01 0.59679368E+03</pdfrwt>
<totfact> 0.99539276E+02</totfact>
</mgrwt>
</event>
<event>
 4    1  0.6239849E-005  0.5951893E+03  0.7818608E-02  0.9915437E-01
         -2   -1    0    0    0  501 -0.00000000000E+00  0.00000000000E+00  0.49611905677E+02  0.49611905742E+02  0.25500000000E-02 0. -1.
          2   -1    0    0  501    0  0.00000000000E+00 -0.00000000000E+00 -0.17851075720E+04  0.17851075720E+04  0.25500000000E-02 0.  1.
    5000001    1    1    2    0    0  0.37587710219E+02 -0.22732698705E+03 -0.90264961528E+03  0.95037399111E+03  0.18800000000E+03 0.  0.
   -5000001    1    1    2    0    0 -0.37587710219E+02  0.22732698705E+03 -0.83284605105E+03  0.88434548665E+03  0.18800000000E+03 0.  0.
<mgrwt>
<rscale>  0 0.59518934E+03</rscale>
<asrwt>0</asrwt>
<pdfrwt beam="1">  1        2 0.25501533E+00 0.59518934E+03</pdfrwt>
<pdfrwt beam="2">  1       -2 0.70874162E-02 0.59518934E+03</pdfrwt>
<totfact> 0.12632658E+03</totfact>
</mgrwt>
</event>
<event>
 4    1  0.6239849E-005  0.8488297E+03  0.7818608E-02  0.9491909E-01
          2   -1    0    0  501    0  0.00000000000E+00  0.00000000000E+00  0.12573718094E+04  0.12573718094E+04  0.25500000000E-02 0.  1.
         -2   -1    0    0    0  501 -0.00000000000E+00 -0.00000000000E+00 -0.14325750916E+03  0.14325750918E+03  0.25500000000E-02 0. -1.
    5000001    1    1    2    0    0  0.85565433809E+02 -0.28962033833E+03  0.93901411046E+03  0.10041378807E+04  0.18800000000E+03 0.  0.
   -5000001    1    1    2    0    0 -0.85565433809E+02  0.28962033833E+03  0.17510018978E+03  0.39649143786E+03  0.18800000000E+03 0.  0.
<mgrwt>
<rscale>  0 0.84882967E+03</rscale>
<asrwt>0</asrwt>
<pdfrwt beam="1">  1        2 0.17962456E+00 0.84882967E+03</pdfrwt>
<pdfrwt beam="2">  1       -2 0.20465357E-01 0.84882967E+03</pdfrwt>
<totfact> 0.40737313E+02</totfact>
</mgrwt>
</event>
<event>
 4    1  0.6239849E-005  0.5134872E+03  0.7818608E-02  0.1010317E+00
          2   -1    0    0  501    0  0.00000000000E+00  0.00000000000E+00  0.47189938738E+03  0.47189938739E+03  0.25500000000E-02 0. -1.
         -2   -1    0    0    0  501 -0.00000000000E+00 -0.00000000000E+00 -0.13968502136E+03  0.13968502138E+03  0.25500000000E-02 0.  1.
    5000001    1    1    2    0    0 -0.79072413413E+02  0.14533646085E+03  0.23346309111E+03  0.34238012256E+03  0.18800000000E+03 0.  0.
   -5000001    1    1    2    0    0  0.79072413413E+02 -0.14533646085E+03  0.98751274910E+02  0.26920428621E+03  0.18800000000E+03 0.  0.
<mgrwt>
<rscale>  0 0.51348720E+03</rscale>
<asrwt>0</asrwt>
<pdfrwt beam="1">  1        2 0.67414198E-01 0.51348720E+03</pdfrwt>
<pdfrwt beam="2">  1       -2 0.19955003E-01 0.51348720E+03</pdfrwt>
<totfact> 0.15330158E+03</totfact>
</mgrwt>
</event>
<event>
 4    1  0.6239849E-005  0.5497894E+03  0.7818608E-02  0.1001543E+00
          2   -1    0    0  501    0  0.00000000000E+00  0.00000000000E+00  0.40719032213E+03  0.40719032213E+03  0.25500000000E-02 0.  1.
         -2   -1    0    0    0  501 -0.00000000000E+00 -0.00000000000E+00 -0.18558176511E+03  0.18558176513E+03  0.25500000000E-02 0. -1.
    5000001    1    1    2    0    0  0.16027527598E+03 -0.91076517092E+02  0.25634844154E+02  0.26454534827E+03  0.18800000000E+03 0.  0.
   -5000001    1    1    2    0    0 -0.16027527598E+03  0.91076517092E+02  0.19597371286E+03  0.32822673899E+03  0.18800000000E+03 0.  0.
<mgrwt>
<rscale>  0 0.54978941E+03</rscale>
<asrwt>0</asrwt>
<pdfrwt beam="1">  1        2 0.58170046E-01 0.54978941E+03</pdfrwt>
<pdfrwt beam="2">  1       -2 0.26511681E-01 0.54978941E+03</pdfrwt>
<totfact> 0.10928174E+03</totfact>
</mgrwt>
</event>
<event>
 4    1  0.6239849E-005  0.6067166E+03  0.7818608E-02  0.9891568E-01
         -2   -1    0    0    0  501 -0.00000000000E+00  0.00000000000E+00  0.10124571823E+03  0.10124571826E+03  0.25500000000E-02 0. -1.
          2   -1    0    0  501    0  0.00000000000E+00 -0.00000000000E+00 -0.90893971664E+03  0.90893971664E+03  0.25500000000E-02 0.  1.
    5000001    1    1    2    0    0 -0.69930279117E+02  0.22485083183E+03 -0.34535548511E+03  0.45832581381E+03  0.18800000000E+03 0.  0.
   -5000001    1    1    2    0    0  0.69930279117E+02 -0.22485083183E+03 -0.46233851330E+03  0.55185962109E+03  0.18800000000E+03 0.  0.
<mgrwt>
<rscale>  0 0.60671659E+03</rscale>
<asrwt>0</asrwt>
<pdfrwt beam="1">  1        2 0.12984853E+00 0.60671659E+03</pdfrwt>
<pdfrwt beam="2">  1       -2 0.14463675E-01 0.60671659E+03</pdfrwt>
<totfact> 0.11995665E+03</totfact>
</mgrwt>
</event>
<event>
 4    1  0.6239849E-005  0.4700221E+03  0.7818608E-02  0.1021914E+00
          2   -1    0    0  501    0  0.00000000000E+00  0.00000000000E+00  0.23276938477E+03  0.23276938478E+03  0.25500000000E-02 0.  1.
         -2   -1    0    0    0  501 -0.00000000000E+00 -0.00000000000E+00 -0.23727427971E+03  0.23727427973E+03  0.25500000000E-02 0. -1.
    5000001    1    1    2    0    0  0.13502850538E+03 -0.29947602181E+02  0.25255760029E+02  0.23475819380E+03  0.18800000000E+03 0.  0.
   -5000001    1    1    2    0    0 -0.13502850538E+03  0.29947602181E+02 -0.29760654974E+02  0.23528547071E+03  0.18800000000E+03 0.  0.
<mgrwt>
<rscale>  0 0.47002208E+03</rscale>
<asrwt>0</asrwt>
<pdfrwt beam="1">  1        2 0.33252769E-01 0.47002208E+03</pdfrwt>
<pdfrwt beam="2">  1       -2 0.33896326E-01 0.47002208E+03</pdfrwt>
<totfact> 0.12872025E+03</totfact>
</mgrwt>
</event>
<event>
 4    1  0.6239849E-005  0.5582551E+03  0.7818608E-02  0.9996010E-01
          2   -1    0    0  501    0  0.00000000000E+00  0.00000000000E+00  0.31695990309E+04  0.31695990309E+04  0.25500000000E-02 0.  1.
         -2   -1    0    0    0  501 -0.00000000000E+00 -0.00000000000E+00 -0.24581090886E+02  0.24581091018E+02  0.25500000000E-02 0. -1.
    5000001    1    1    2    0    0  0.19981231062E+03 -0.49387591357E+02  0.14907647389E+04  0.15166039696E+04  0.18800000000E+03 0.  0.
   -5000001    1    1    2    0    0 -0.19981231062E+03  0.49387591357E+02  0.16542532011E+04  0.16775761523E+04  0.18800000000E+03 0.  0.
<mgrwt>
<rscale>  0 0.55825515E+03</rscale>
<asrwt>0</asrwt>
<pdfrwt beam="1">  1        2 0.45279985E+00 0.55825515E+03</pdfrwt>
<pdfrwt beam="2">  1       -2 0.35115845E-02 0.55825515E+03</pdfrwt>
<totfact> 0.72216011E+02</totfact>
</mgrwt>
</event>
<event>
 4    1  0.6239849E-005  0.7968853E+03  0.7818608E-02  0.9564536E-01
         -2   -1    0    0    0  501 -0.00000000000E+00  0.00000000000E+00  0.13626002223E+03  0.13626002225E+03  0.25500000000E-02 0. -1.
          2   -1    0    0  501    0  0.00000000000E+00 -0.00000000000E+00 -0.11651000889E+04  0.11651000889E+04  0.25500000000E-02 0.  1.
    5000001    1    1    2    0    0 -0.21237795763E+03  0.19561568157E+03 -0.84120583278E+03  0.90903308239E+03  0.18800000000E+03 0.  0.
   -5000001    1    1    2    0    0  0.21237795763E+03 -0.19561568157E+03 -0.18763423386E+03  0.39232702874E+03  0.18800000000E+03 0.  0.
<mgrwt>
<rscale>  0 0.79688535E+03</rscale>
<asrwt>0</asrwt>
<pdfrwt beam="1">  1        2 0.16644286E+00 0.79688535E+03</pdfrwt>
<pdfrwt beam="2">  1       -2 0.19465718E-01 0.79688535E+03</pdfrwt>
<totfact> 0.50255885E+02</totfact>
</mgrwt>
</event>
<event>
 4    1  0.6239849E-005  0.5272981E+03  0.7818608E-02  0.1006890E+00
          2   -1    0    0  501    0  0.00000000000E+00  0.00000000000E+00  0.22449365338E+03  0.22449365339E+03  0.25500000000E-02 0.  1.
         -2   -1    0    0    0  501 -0.00000000000E+00 -0.00000000000E+00 -0.30963374030E+03  0.30963374031E+03  0.25500000000E-02 0. -1.
    5000001    1    1    2    0    0 -0.12045915574E+03 -0.11396282766E+03 -0.12529089206E+03  0.28024942805E+03  0.18800000000E+03 0.  0.
   -5000001    1    1    2    0    0  0.12045915574E+03  0.11396282766E+03  0.40150805141E+02  0.25387796565E+03  0.18800000000E+03 0.  0.
<mgrwt>
<rscale>  0 0.52729805E+03</rscale>
<asrwt>0</asrwt>
<pdfrwt beam="1">  1        2 0.32070522E-01 0.52729805E+03</pdfrwt>
<pdfrwt beam="2">  1       -2 0.44233392E-01 0.52729805E+03</pdfrwt>
<totfact> 0.80327269E+02</totfact>
</mgrwt>
</event>
<event>
 4    1  0.6239849E-005  0.5013405E+03  0.7818608E-02  0.1013430E+00
         -2   -1    0    0    0  501 -0.00000000000E+00  0.00000000000E+00  0.35981293928E+02  0.35981294018E+02  0.25500000000E-02 0. -1.
          2   -1    0    0  501    0  0.00000000000E+00 -0.00000000000E+00 -0.17463403166E+04  0.17463403166E+04  0.25500000000E-02 0.  1.
    5000001    1    1    2    0    0  0.57582871329E+02  0.15320489424E+03 -0.94951114390E+03  0.98168372661E+03  0.18800000000E+03 0.  0.
   -5000001    1    1    2    0    0 -0.57582871329E+02 -0.15320489424E+03 -0.76084787876E+03  0.80063788401E+03  0.18800000000E+03 0.  0.
<mgrwt>
<rscale>  0 0.50134054E+03</rscale>
<asrwt>0</asrwt>
<pdfrwt beam="1">  1        2 0.24947713E+00 0.50134054E+03</pdfrwt>
<pdfrwt beam="2">  1       -2 0.51401860E-02 0.50134054E+03</pdfrwt>
<totfact> 0.21916014E+03</totfact>
</mgrwt>
</event>
<event>
 4    1  0.6239849E-005  0.7239964E+03  0.7818608E-02  0.9677053E-01
         -2   -1    0    0    0  501 -0.00000000000E+00  0.00000000000E+00  0.18385256920E+03  0.18385256922E+03  0.25500000000E-02 0. -1.
          2   -1    0    0  501    0  0.00000000000E+00 -0.00000000000E+00 -0.71275971692E+03  0.71275971692E+03  0.25500000000E-02 0.  1.
    5000001    1    1    2    0    0  0.29876967617E+03 -0.29578261342E+02 -0.17210596267E+03  0.39383074452E+03  0.18800000000E+03 0.  0.
   -5000001    1    1    2    0    0 -0.29876967617E+03  0.29578261342E+02 -0.35680118504E+03  0.50278154162E+03  0.18800000000E+03 0.  0.
<mgrwt>
<rscale>  0 0.72399642E+03</rscale>
<asrwt>0</asrwt>
<pdfrwt beam="1">  1        2 0.10182282E+00 0.72399642E+03</pdfrwt>
<pdfrwt beam="2">  1       -2 0.26264653E-01 0.72399642E+03</pdfrwt>
<totfact> 0.57873011E+02</totfact>
</mgrwt>
</event>
<event>
 4    1  0.6239849E-005  0.5171168E+03  0.7818608E-02  0.1009405E+00
         -2   -1    0    0    0  501 -0.00000000000E+00  0.00000000000E+00  0.87437864408E+02  0.87437864445E+02  0.25500000000E-02 0. -1.
          2   -1    0    0  501    0  0.00000000000E+00 -0.00000000000E+00 -0.76457082183E+03  0.76457082184E+03  0.25500000000E-02 0.  1.
    5000001    1    1    2    0    0  0.17309031856E+03 -0.23103418330E+02 -0.28609021373E+03  0.38429888981E+03  0.18800000000E+03 0.  0.
   -5000001    1    1    2    0    0 -0.17309031856E+03  0.23103418330E+02 -0.39104274370E+03  0.46770979647E+03  0.18800000000E+03 0.  0.
<mgrwt>
<rscale>  0 0.51711678E+03</rscale>
<asrwt>0</asrwt>
<pdfrwt beam="1">  1        2 0.10922440E+00 0.51711678E+03</pdfrwt>
<pdfrwt beam="2">  1       -2 0.12491124E-01 0.51711678E+03</pdfrwt>
<totfact> 0.19166948E+03</totfact>
</mgrwt>
</event>
<event>
 4    1  0.6239849E-005  0.6352448E+03  0.7818608E-02  0.9834867E-01
          2   -1    0    0  501    0  0.00000000000E+00  0.00000000000E+00  0.13172814816E+04  0.13172814816E+04  0.25500000000E-02 0.  1.
         -2   -1    0    0    0  501 -0.00000000000E+00 -0.00000000000E+00 -0.76584989716E+02  0.76584989759E+02  0.25500000000E-02 0. -1.
    5000001    1    1    2    0    0 -0.17770296114E+03 -0.12897293920E+03  0.90918310239E+03  0.95402844565E+03  0.18800000000E+03 0.  0.
   -5000001    1    1    2    0    0  0.17770296114E+03  0.12897293920E+03  0.33151338948E+03  0.43983802570E+03  0.18800000000E+03 0.  0.
<mgrwt>
<rscale>  0 0.63524480E+03</rscale>
<asrwt>0</asrwt>
<pdfrwt beam="1">  1        2 0.18818308E+00 0.63524480E+03</pdfrwt>
<pdfrwt beam="2">  1       -2 0.10940712E-01 0.63524480E+03</pdfrwt>
<totfact> 0.10990849E+03</totfact>
</mgrwt>
</event>
<event>
 4    1  0.6239849E-005  0.8318005E+03  0.7818608E-02  0.9515095E-01
          2   -1    0    0  501    0  0.00000000000E+00  0.00000000000E+00  0.88592769514E+03  0.88592769515E+03  0.25500000000E-02 0.  1.
         -2   -1    0    0    0  501 -0.00000000000E+00 -0.00000000000E+00 -0.19524506724E+03  0.19524506725E+03  0.25500000000E-02 0. -1.
    5000001    1    1    2    0    0 -0.43004546568E+02  0.31173742516E+03  0.89973476856E+02  0.37745044683E+03  0.18800000000E+03 0.  0.
   -5000001    1    1    2    0    0  0.43004546568E+02 -0.31173742516E+03  0.60070915105E+03  0.70372231557E+03  0.18800000000E+03 0.  0.
<mgrwt>
<rscale>  0 0.83180049E+03</rscale>
<asrwt>0</asrwt>
<pdfrwt beam="1">  1        2 0.12656109E+00 0.83180049E+03</pdfrwt>
<pdfrwt beam="2">  1       -2 0.27892154E-01 0.83180049E+03</pdfrwt>
<totfact> 0.39050210E+02</totfact>
</mgrwt>
</event>
<event>
 4    1  0.6239849E-005  0.5250237E+03  0.7818608E-02  0.1007446E+00
          2   -1    0    0  501    0  0.00000000000E+00  0.00000000000E+00  0.17430944333E+03  0.17430944335E+03  0.25500000000E-02 0.  1.
         -2   -1    0    0    0  501 -0.00000000000E+00 -0.00000000000E+00 -0.39534552841E+03  0.39534552842E+03  0.25500000000E-02 0. -1.
    5000001    1    1    2    0    0  0.22509133571E+02  0.17832327306E+03 -0.71964230824E+02  0.26986793312E+03  0.18800000000E+03 0.  0.
   -5000001    1    1    2    0    0 -0.22509133571E+02 -0.17832327306E+03 -0.14907185426E+03  0.29978703865E+03  0.18800000000E+03 0.  0.
<mgrwt>
<rscale>  0 0.52502365E+03</rscale>
<asrwt>0</asrwt>
<pdfrwt beam="1">  1        2 0.24901349E-01 0.52502365E+03</pdfrwt>
<pdfrwt beam="2">  1       -2 0.56477932E-01 0.52502365E+03</pdfrwt>
<totfact> 0.65173253E+02</totfact>
</mgrwt>
</event>
<event>
 4    1  0.6239849E-005  0.5399133E+03  0.7818608E-02  0.1003856E+00
          2   -1    0    0  501    0  0.00000000000E+00  0.00000000000E+00  0.44909403820E+03  0.44909403821E+03  0.25500000000E-02 0. -1.
         -2   -1    0    0    0  501 -0.00000000000E+00 -0.00000000000E+00 -0.16227471207E+03  0.16227471209E+03  0.25500000000E-02 0.  1.
    5000001    1    1    2    0    0  0.10031502717E+03 -0.12596817779E+03  0.21444274213E+02  0.24846517540E+03  0.18800000000E+03 0.  0.
   -5000001    1    1    2    0    0 -0.10031502717E+03  0.12596817779E+03  0.26537505192E+03  0.36290357490E+03  0.18800000000E+03 0.  0.
<mgrwt>
<rscale>  0 0.53991335E+03</rscale>
<asrwt>0</asrwt>
<pdfrwt beam="1">  1        2 0.64156291E-01 0.53991335E+03</pdfrwt>
<pdfrwt beam="2">  1       -2 0.23182102E-01 0.53991335E+03</pdfrwt>
<totfact> 0.12459615E+03</totfact>
</mgrwt>
</event>
<event>
 4    1  0.6239849E-005  0.4384735E+03  0.7818608E-02  0.1031216E+00
          2   -1    0    0  501    0  0.00000000000E+00  0.00000000000E+00  0.61351463372E+02  0.61351463425E+02  0.25500000000E-02 0.  1.
         -2   -1    0    0    0  501 -0.00000000000E+00 -0.00000000000E+00 -0.78343272411E+03  0.78343272411E+03  0.25500000000E-02 0. -1.
    5000001    1    1    2    0    0 -0.99733225335E+02  0.48746306272E+02 -0.32261254320E+03  0.38954559636E+03  0.18800000000E+03 0.  0.
   -5000001    1    1    2    0    0  0.99733225335E+02 -0.48746306272E+02 -0.39946871753E+03  0.45523859118E+03  0.18800000000E+03 0.  0.
<mgrwt>
<rscale>  0 0.43847346E+03</rscale>
<asrwt>0</asrwt>
<pdfrwt beam="1">  1        2 0.87644952E-02 0.43847346E+03</pdfrwt>
<pdfrwt beam="2">  1       -2 0.11191895E+00 0.43847346E+03</pdfrwt>
<totfact> 0.50030870E+02</totfact>
</mgrwt>
</event>
<event>
 4    1  0.6239849E-005  0.5515336E+03  0.7818608E-02  0.1001140E+00
          2   -1    0    0  501    0  0.00000000000E+00  0.00000000000E+00  0.27263155295E+04  0.27263155295E+04  0.25500000000E-02 0.  1.
         -2   -1    0    0    0  501 -0.00000000000E+00 -0.00000000000E+00 -0.27893811439E+02  0.27893811555E+02  0.25500000000E-02 0. -1.
    5000001    1    1    2    0    0 -0.10732931568E+03 -0.16799753738E+03  0.11944393455E+04  0.12254681165E+04  0.18800000000E+03 0.  0.
   -5000001    1    1    2    0    0  0.10732931568E+03  0.16799753738E+03  0.15039823725E+04  0.15287412245E+04  0.18800000000E+03 0.  0.
<mgrwt>
<rscale>  0 0.55153361E+03</rscale>
<asrwt>0</asrwt>
<pdfrwt beam="1">  1        2 0.38947371E+00 0.55153361E+03</pdfrwt>
<pdfrwt beam="2">  1       -2 0.39848296E-02 0.55153361E+03</pdfrwt>
<totfact> 0.10326999E+03</totfact>
</mgrwt>
</event>
<event>
 4    1  0.6239849E-005  0.4171837E+03  0.7818608E-02  0.1037987E+00
          2   -1    0    0  501    0  0.00000000000E+00  0.00000000000E+00  0.83667707558E+03  0.83667707558E+03  0.25500000000E-02 0.  1.
         -2   -1    0    0    0  501 -0.00000000000E+00 -0.00000000000E+00 -0.52004000540E+02  0.52004000603E+02  0.25500000000E-02 0. -1.
    5000001    1    1    2    0    0  0.19861993928E+02 -0.83885958879E+02  0.45009585190E+03  0.49533991238E+03  0.18800000000E+03 0.  0.
   -5000001    1    1    2    0    0 -0.19861993928E+02  0.83885958879E+02  0.33457722313E+03  0.39334116380E+03  0.18800000000E+03 0.  0.
<mgrwt>
<rscale>  0 0.41718368E+03</rscale>
<asrwt>0</asrwt>
<pdfrwt beam="1">  1        2 0.11952530E+00 0.41718368E+03</pdfrwt>
<pdfrwt beam="2">  1       -2 0.74291425E-02 0.41718368E+03</pdfrwt>
<totfact> 0.39368969E+03</totfact>
</mgrwt>
</event>
<event>
 4    1  0.6239849E-005  0.5385272E+03  0.7818608E-02  0.1004185E+00
          2   -1    0    0  501    0  0.00000000000E+00  0.00000000000E+00  0.50918371978E+03  0.50918371979E+03  0.25500000000E-02 0.  1.
         -2   -1    0    0    0  501 -0.00000000000E+00 -0.00000000000E+00 -0.14239041898E+03  0.14239041900E+03  0.25500000000E-02 0. -1.
    5000001    1    1    2    0    0  0.10601135508E+02  0.19245951989E+03  0.18047466907E+03  0.32414218647E+03  0.18800000000E+03 0.  0.
   -5000001    1    1    2    0    0 -0.10601135508E+02 -0.19245951989E+03  0.18631863173E+03  0.32743195232E+03  0.18800000000E+03 0.  0.
<mgrwt>
<rscale>  0 0.53852719E+03</rscale>
<asrwt>0</asrwt>
<pdfrwt beam="1">  1        2 0.72740533E-01 0.53852719E+03</pdfrwt>
<pdfrwt beam="2">  1       -2 0.20341488E-01 0.53852719E+03</pdfrwt>
<totfact> 0.13606708E+03</totfact>
</mgrwt>
</event>
<event>
 4    1  0.6239849E-005  0.1210388E+04  0.7818608E-02  0.9103812E-01
          2   -1    0    0  501    0  0.00000000000E+00  0.00000000000E+00  0.70891431806E+03  0.70891431806E+03  0.25500000000E-02 0.  1.
         -2   -1    0    0    0  501 -0.00000000000E+00 -0.00000000000E+00 -0.51664915006E+03  0.51664915007E+03  0.25500000000E-02 0. -1.
    5000001    1    1    2    0    0 -0.18363794017E+03  0.37171551910E+03  0.49990612175E+03  0.67612532180E+03  0.18800000000E+03 0.  0.
   -5000001    1    1    2    0    0  0.18363794017E+03 -0.37171551910E+03 -0.30764095376E+03  0.54943814633E+03  0.18800000000E+03 0.  0.
<mgrwt>
<rscale>  0 0.12103883E+04</rscale>
<asrwt>0</asrwt>
<pdfrwt beam="1">  1        2 0.10127347E+00 0.12103883E+04</pdfrwt>
<pdfrwt beam="2">  1       -2 0.73807022E-01 0.12103883E+04</pdfrwt>
<totfact> 0.72381925E+01</totfact>
</mgrwt>
</event>
<event>
 4    1  0.6239849E-005  0.6487287E+03  0.7818608E-02  0.9809168E-01
          2   -1    0    0  501    0  0.00000000000E+00  0.00000000000E+00  0.66821744693E+03  0.66821744693E+03  0.25500000000E-02 0.  1.
         -2   -1    0    0    0  501 -0.00000000000E+00 -0.00000000000E+00 -0.15745209363E+03  0.15745209365E+03  0.25500000000E-02 0. -1.
    5000001    1    1    2    0    0  0.18554785029E+03 -0.18252343900E+03  0.19670592194E+03  0.37653689097E+03  0.18800000000E+03 0.  0.
   -5000001    1    1    2    0    0 -0.18554785029E+03  0.18252343900E+03  0.31405943135E+03  0.44913264962E+03  0.18800000000E+03 0.  0.
<mgrwt>
<rscale>  0 0.64872871E+03</rscale>
<asrwt>0</asrwt>
<pdfrwt beam="1">  1        2 0.95459636E-01 0.64872871E+03</pdfrwt>
<pdfrwt beam="2">  1       -2 0.22493156E-01 0.64872871E+03</pdfrwt>
<totfact> 0.82850776E+02</totfact>
</mgrwt>
</event>
<event>
 4    1  0.6239849E-005  0.5627433E+03  0.7818608E-02  0.9985866E-01
         -2   -1    0    0    0  501 -0.00000000000E+00  0.00000000000E+00  0.27145208857E+03  0.27145208858E+03  0.25500000000E-02 0. -1.
          2   -1    0    0  501    0  0.00000000000E+00 -0.00000000000E+00 -0.29165372681E+03  0.29165372683E+03  0.25500000000E-02 0.  1.
    5000001    1    1    2    0    0  0.76106178326E+02 -0.13317613413E+03 -0.15266357111E+03  0.28666740140E+03  0.18800000000E+03 0.  0.
   -5000001    1    1    2    0    0 -0.76106178326E+02  0.13317613413E+03  0.13246193287E+03  0.27643841401E+03  0.18800000000E+03 0.  0.
<mgrwt>
<rscale>  0 0.56274333E+03</rscale>
<asrwt>0</asrwt>
<pdfrwt beam="1">  1        2 0.41664818E-01 0.56274333E+03</pdfrwt>
<pdfrwt beam="2">  1       -2 0.38778870E-01 0.56274333E+03</pdfrwt>
<totfact> 0.77684033E+02</totfact>
</mgrwt>
</event>
<event>
 4    1  0.6239849E-005  0.1093954E+04  0.7818608E-02  0.9211105E-01
         -2   -1    0    0    0  501 -0.00000000000E+00  0.00000000000E+00  0.39832342840E+03  0.39832342841E+03  0.25500000000E-02 0. -1.
          2   -1    0    0  501    0  0.00000000000E+00 -0.00000000000E+00 -0.75110725282E+03  0.75110725282E+03  0.25500000000E-02 0.  1.
    5000001    1    1    2    0    0  0.15678661523E+03  0.23251568412E+03 -0.62855736496E+03  0.71349418156E+03  0.18800000000E+03 0.  0.
   -5000001    1    1    2    0    0 -0.15678661523E+03 -0.23251568412E+03  0.27577354054E+03  0.43593649967E+03  0.18800000000E+03 0.  0.
<mgrwt>
<rscale>  0 0.10939536E+04</rscale>
<asrwt>0</asrwt>
<pdfrwt beam="1">  1        2 0.10730104E+00 0.10939536E+04</pdfrwt>
<pdfrwt beam="2">  1       -2 0.56903346E-01 0.10939536E+04</pdfrwt>
<totfact> 0.11856403E+02</totfact>
</mgrwt>
</event>
<event>
 4    1  0.6239849E-005  0.8111793E+03  0.7818608E-02  0.9543975E-01
          2   -1    0    0  501    0  0.00000000000E+00  0.00000000000E+00  0.89067015575E+03  0.89067015576E+03  0.25500000000E-02 0.  1.
         -2   -1    0    0    0  501 -0.00000000000E+00 -0.00000000000E+00 -0.18469571414E+03  0.18469571415E+03  0.25500000000E-02 0. -1.
    5000001    1    1    2    0    0  0.24536189801E+03 -0.10827172813E+03  0.35836700559E+02  0.32947457750E+03  0.18800000000E+03 0.  0.
   -5000001    1    1    2    0    0 -0.24536189801E+03  0.10827172813E+03  0.67013774106E+03  0.74589129241E+03  0.18800000000E+03 0.  0.
<mgrwt>
<rscale>  0 0.81117929E+03</rscale>
<asrwt>0</asrwt>
<pdfrwt beam="1">  1        2 0.12723859E+00 0.81117929E+03</pdfrwt>
<pdfrwt beam="2">  1       -2 0.26385102E-01 0.81117929E+03</pdfrwt>
<totfact> 0.42948233E+02</totfact>
</mgrwt>
</event>
<event>
 4    1  0.6239849E-005  0.4812059E+03  0.7818608E-02  0.1018804E+00
          2   -1    0    0  501    0  0.00000000000E+00  0.00000000000E+00  0.15037421819E+04  0.15037421819E+04  0.25500000000E-02 0.  1.
         -2   -1    0    0    0  501 -0.00000000000E+00 -0.00000000000E+00 -0.38497137524E+02  0.38497137608E+02  0.25500000000E-02 0. -1.
    5000001    1    1    2    0    0  0.12817216548E+03  0.45788710779E+02  0.52939097648E+03  0.57803418240E+03  0.18800000000E+03 0.  0.
   -5000001    1    1    2    0    0 -0.12817216548E+03 -0.45788710779E+02  0.93585406787E+03  0.96420513709E+03  0.18800000000E+03 0.  0.
<mgrwt>
<rscale>  0 0.48120586E+03</rscale>
<asrwt>0</asrwt>
<pdfrwt beam="1">  1        2 0.21482029E+00 0.48120586E+03</pdfrwt>
<pdfrwt beam="2">  1       -2 0.54995917E-02 0.48120586E+03</pdfrwt>
<totfact> 0.26243264E+03</totfact>
</mgrwt>
</event>
<event>
 4    1  0.6239849E-005  0.5184437E+03  0.7818608E-02  0.1009074E+00
         -2   -1    0    0    0  501 -0.00000000000E+00  0.00000000000E+00  0.50296420556E+02  0.50296420620E+02  0.25500000000E-02 0. -1.
          2   -1    0    0  501    0  0.00000000000E+00 -0.00000000000E+00 -0.13359991627E+04  0.13359991628E+04  0.25500000000E-02 0.  1.
    5000001    1    1    2    0    0  0.83874888924E+02 -0.15682446895E+03 -0.60291490070E+03  0.65610920473E+03  0.18800000000E+03 0.  0.
   -5000001    1    1    2    0    0 -0.83874888924E+02  0.15682446895E+03 -0.68278784150E+03  0.73018637864E+03  0.18800000000E+03 0.  0.
<mgrwt>
<rscale>  0 0.51844373E+03</rscale>
<asrwt>0</asrwt>
<pdfrwt beam="1">  1        2 0.19085700E+00 0.51844373E+03</pdfrwt>
<pdfrwt beam="2">  1       -2 0.71852037E-02 0.51844373E+03</pdfrwt>
<totfact> 0.21151974E+03</totfact>
</mgrwt>
</event>
<event>
 4    1  0.6239849E-005  0.5441386E+03  0.7818608E-02  0.1002860E+00
         -2   -1    0    0    0  501 -0.00000000000E+00  0.00000000000E+00  0.53120059524E+02  0.53120059585E+02  0.25500000000E-02 0. -1.
          2   -1    0    0  501    0  0.00000000000E+00 -0.00000000000E+00 -0.13934793975E+04  0.13934793975E+04  0.25500000000E-02 0.  1.
    5000001    1    1    2    0    0 -0.83964729213E+02 -0.17560490983E+03 -0.59543107930E+03  0.65404077113E+03  0.18800000000E+03 0.  0.
   -5000001    1    1    2    0    0  0.83964729213E+02  0.17560490983E+03 -0.74492825864E+03  0.79255868592E+03  0.18800000000E+03 0.  0.
<mgrwt>
<rscale>  0 0.54413862E+03</rscale>
<asrwt>0</asrwt>
<pdfrwt beam="1">  1        2 0.19906846E+00 0.54413862E+03</pdfrwt>
<pdfrwt beam="2">  1       -2 0.75885808E-02 0.54413862E+03</pdfrwt>
<totfact> 0.18070944E+03</totfact>
</mgrwt>
</event>
<event>
 4    1  0.6239849E-005  0.7204529E+03  0.7818608E-02  0.9682880E-01
          2   -1    0    0  501    0  0.00000000000E+00  0.00000000000E+00  0.36505574735E+03  0.36505574736E+03  0.25500000000E-02 0.  1.
         -2   -1    0    0    0  501 -0.00000000000E+00 -0.00000000000E+00 -0.35546105702E+03  0.35546105703E+03  0.25500000000E-02 0. -1.
    5000001    1    1    2    0    0 -0.22032078055E+03  0.20446420259E+03  0.68617150819E+02  0.36110825229E+03  0.18800000000E+03 0.  0.
   -5000001    1    1    2    0    0  0.22032078055E+03 -0.20446420259E+03 -0.59022460484E+02  0.35940855210E+03  0.18800000000E+03 0.  0.
<mgrwt>
<rscale>  0 0.72045292E+03</rscale>
<asrwt>0</asrwt>
<pdfrwt beam="1">  1        2 0.52150821E-01 0.72045292E+03</pdfrwt>
<pdfrwt beam="2">  1       -2 0.50780151E-01 0.72045292E+03</pdfrwt>
<totfact> 0.35406843E+02</totfact>
</mgrwt>
</event>
<event>
 4    1  0.6239849E-005  0.5678586E+03  0.7818608E-02  0.9974429E-01
         -2   -1    0    0    0  501 -0.00000000000E+00  0.00000000000E+00  0.13297749171E+03  0.13297749173E+03  0.25500000000E-02 0. -1.
          2   -1    0    0  501    0  0.00000000000E+00 -0.00000000000E+00 -0.60623673646E+03  0.60623673647E+03  0.25500000000E-02 0.  1.
    5000001    1    1    2    0    0  0.27978551706E+02 -0.16915187810E+03 -0.40065461257E+03  0.47461908495E+03  0.18800000000E+03 0.  0.
   -5000001    1    1    2    0    0 -0.27978551706E+02  0.16915187810E+03 -0.72604632179E+02  0.26459514326E+03  0.18800000000E+03 0.  0.
<mgrwt>
<rscale>  0 0.56785858E+03</rscale>
<asrwt>0</asrwt>
<pdfrwt beam="1">  1        2 0.86605247E-01 0.56785858E+03</pdfrwt>
<pdfrwt beam="2">  1       -2 0.18996785E-01 0.56785858E+03</pdfrwt>
<totfact> 0.12521282E+03</totfact>
</mgrwt>
</event>
<event>
 4    1  0.6239849E-005  0.4382548E+03  0.7818608E-02  0.1031284E+00
          2   -1    0    0  501    0  0.00000000000E+00  0.00000000000E+00  0.29826641241E+03  0.29826641242E+03  0.25500000000E-02 0.  1.
         -2   -1    0    0    0  501 -0.00000000000E+00 -0.00000000000E+00 -0.16098630822E+03  0.16098630824E+03  0.25500000000E-02 0. -1.
    5000001    1    1    2    0    0  0.84742291379E+02  0.12505031419E+02 -0.79018950677E+01  0.20674639466E+03  0.18800000000E+03 0.  0.
   -5000001    1    1    2    0    0 -0.84742291379E+02 -0.12505031419E+02  0.14518199926E+03  0.25250632600E+03  0.18800000000E+03 0.  0.
<mgrwt>
<rscale>  0 0.43825476E+03</rscale>
<asrwt>0</asrwt>
<pdfrwt beam="1">  1        2 0.42609487E-01 0.43825476E+03</pdfrwt>
<pdfrwt beam="2">  1       -2 0.22998044E-01 0.43825476E+03</pdfrwt>
<totfact> 0.19814841E+03</totfact>
</mgrwt>
</event>
<event>
 4    1  0.6239849E-005  0.6163973E+03  0.7818608E-02  0.9871959E-01
          2   -1    0    0  501    0  0.00000000000E+00  0.00000000000E+00  0.63935226265E+03  0.63935226266E+03  0.25500000000E-02 0.  1.
         -2   -1    0    0    0  501 -0.00000000000E+00 -0.00000000000E+00 -0.14856661767E+03  0.14856661769E+03  0.25500000000E-02 0. -1.
    5000001    1    1    2    0    0 -0.17046689285E+03  0.33622109839E+02  0.26018635318E+02  0.25731377191E+03  0.18800000000E+03 0.  0.
   -5000001    1    1    2    0    0  0.17046689285E+03 -0.33622109839E+02  0.46476700967E+03  0.53060510844E+03  0.18800000000E+03 0.  0.
<mgrwt>
<rscale>  0 0.61639728E+03</rscale>
<asrwt>0</asrwt>
<pdfrwt beam="1">  1        2 0.91336038E-01 0.61639728E+03</pdfrwt>
<pdfrwt beam="2">  1       -2 0.21223803E-01 0.61639728E+03</pdfrwt>
<totfact> 0.96856689E+02</totfact>
</mgrwt>
</event>
<event>
 4    1  0.6239849E-005  0.4559741E+03  0.7818608E-02  0.1025955E+00
          2   -1    0    0  501    0  0.00000000000E+00  0.00000000000E+00  0.91552645315E+02  0.91552645351E+02  0.25500000000E-02 0. -1.
         -2   -1    0    0    0  501 -0.00000000000E+00 -0.00000000000E+00 -0.56773997501E+03  0.56773997501E+03  0.25500000000E-02 0.  1.
    5000001    1    1    2    0    0 -0.17460903023E+02 -0.12642815476E+03 -0.26495531036E+03  0.34904767288E+03  0.18800000000E+03 0.  0.
   -5000001    1    1    2    0    0  0.17460903023E+02  0.12642815476E+03 -0.21123201933E+03  0.31024494749E+03  0.18800000000E+03 0.  0.
<mgrwt>
<rscale>  0 0.45597411E+03</rscale>
<asrwt>0</asrwt>
<pdfrwt beam="1">  1        2 0.13078950E-01 0.45597411E+03</pdfrwt>
<pdfrwt beam="2">  1       -2 0.81105709E-01 0.45597411E+03</pdfrwt>
<totfact> 0.63987064E+02</totfact>
</mgrwt>
</event>
<event>
 4    1  0.6239849E-005  0.5301012E+03  0.7818608E-02  0.1006208E+00
         -2   -1    0    0    0  501 -0.00000000000E+00  0.00000000000E+00  0.81488893336E+02  0.81488893376E+02  0.25500000000E-02 0. -1.
          2   -1    0    0  501    0  0.00000000000E+00 -0.00000000000E+00 -0.86210310648E+03  0.86210310649E+03  0.25500000000E-02 0.  1.
    5000001    1    1    2    0    0  0.18229377962E+03 -0.28494639003E+02 -0.33795926985E+03  0.42848971355E+03  0.18800000000E+03 0.  0.
   -5000001    1    1    2    0    0 -0.18229377962E+03  0.28494639003E+02 -0.44265494329E+03  0.51510228631E+03  0.18800000000E+03 0.  0.
<mgrwt>
<rscale>  0 0.53010123E+03</rscale>
<asrwt>0</asrwt>
<pdfrwt beam="1">  1        2 0.12315758E+00 0.53010123E+03</pdfrwt>
<pdfrwt beam="2">  1       -2 0.11641271E-01 0.53010123E+03</pdfrwt>
<totfact> 0.18454828E+03</totfact>
</mgrwt>
</event>
<event>
 4    1  0.6239849E-005  0.4549956E+03  0.7818608E-02  0.1026243E+00
         -2   -1    0    0    0  501 -0.00000000000E+00  0.00000000000E+00  0.87863458294E+02  0.87863458331E+02  0.25500000000E-02 0. -1.
          2   -1    0    0  501    0  0.00000000000E+00 -0.00000000000E+00 -0.58904190228E+03  0.58904190229E+03  0.25500000000E-02 0.  1.
    5000001    1    1    2    0    0  0.12208110913E+03 -0.24100968776E+02 -0.29587564011E+03  0.37198259141E+03  0.18800000000E+03 0.  0.
   -5000001    1    1    2    0    0 -0.12208110913E+03  0.24100968776E+02 -0.20530280388E+03  0.30492276921E+03  0.18800000000E+03 0.  0.
<mgrwt>
<rscale>  0 0.45499564E+03</rscale>
<asrwt>0</asrwt>
<pdfrwt beam="1">  1        2 0.84148841E-01 0.45499564E+03</pdfrwt>
<pdfrwt beam="2">  1       -2 0.12551923E-01 0.45499564E+03</pdfrwt>
<totfact> 0.25999711E+03</totfact>
</mgrwt>
</event>
