<event>
 4    1  0.1171488E-003  0.2179315E+03  0.7818608E-02  0.1135435E+00
         -2   -1    0    0    0  501 -0.00000000000E+00  0.00000000000E+00  0.36804535011E+03  0.36804535012E+03  0.25500000000E-02 0. -1.
          2   -1    0    0  501    0  0.00000000000E+00 -0.00000000000E+00 -0.32261055969E+02  0.32261056070E+02  0.25500000000E-02 0.  1.
    5000001    1    1    2    0    0 -0.53491632332E+02 -0.28534346440E+02  0.25538785980E+03  0.27354619827E+03  0.77000000000E+02 0.  0.
   -5000001    1    1    2    0    0  0.53491632332E+02  0.28534346440E+02  0.80396434342E+02  0.12676020792E+03  0.77000000000E+02 0.  0.
<mgrwt>
<rscale>  0 0.21793147E+03</rscale>
<asrwt>0</asrwt>
<pdfrwt beam="1">  1        2 0.49632390E-02 0.21793147E+03</pdfrwt>
<pdfrwt beam="2">  1       -2 0.56622366E-01 0.21793147E+03</pdfrwt>
<totfact> 0.46489320E+03</totfact>
</mgrwt>
</event>
<event>
 4    1  0.1171488E-003  0.2625640E+03  0.7818608E-02  0.1105612E+00
         -2   -1    0    0    0  501 -0.00000000000E+00  0.00000000000E+00  0.79628786586E+01  0.79628790669E+01  0.25500000000E-02 0. -1.
          2   -1    0    0  501    0  0.00000000000E+00 -0.00000000000E+00 -0.21644134602E+04  0.21644134602E+04  0.25500000000E-02 0.  1.
    5000001    1    1    2    0    0  0.83408308757E+02 -0.65911959556E+02 -0.10604227638E+04  0.10685161536E+04  0.77000000000E+02 0.  0.
   -5000001    1    1    2    0    0 -0.83408308757E+02  0.65911959556E+02 -0.10960278177E+04  0.11038601857E+04  0.77000000000E+02 0.  0.
<mgrwt>
<rscale>  0 0.26256399E+03</rscale>
<asrwt>0</asrwt>
<pdfrwt beam="1">  1        2 0.33298622E+00 0.26256399E+03</pdfrwt>
<pdfrwt beam="2">  1       -2 0.12250600E-02 0.26256399E+03</pdfrwt>
<totfact> 0.96421579E+03</totfact>
</mgrwt>
</event>
<event>
 4    1  0.1171488E-003  0.3043787E+03  0.7818608E-02  0.1083072E+00
          2   -1    0    0  501    0  0.00000000000E+00  0.00000000000E+00  0.88290736563E+03  0.88290736563E+03  0.25500000000E-02 0.  1.
         -2   -1    0    0    0  501 -0.00000000000E+00 -0.00000000000E+00 -0.26233335872E+02  0.26233335996E+02  0.25500000000E-02 0. -1.
    5000001    1    1    2    0    0 -0.83741494139E+02 -0.35049805075E+02  0.71156250613E+03  0.72145084851E+03  0.77000000000E+02 0.  0.
   -5000001    1    1    2    0    0  0.83741494139E+02  0.35049805075E+02  0.14511152362E+03  0.18768985312E+03  0.77000000000E+02 0.  0.
<mgrwt>
<rscale>  0 0.30437875E+03</rscale>
<asrwt>0</asrwt>
<pdfrwt beam="1">  1        2 0.13583190E+00 0.30437875E+03</pdfrwt>
<pdfrwt beam="2">  1       -2 0.40358978E-02 0.30437875E+03</pdfrwt>
<totfact> 0.84616507E+03</totfact>
</mgrwt>
</event>
<event>
 4    1  0.1171488E-003  0.3299160E+03  0.7818608E-02  0.1071174E+00
          2   -1    0    0  501    0  0.00000000000E+00  0.00000000000E+00  0.79284866296E+03  0.79284866297E+03  0.25500000000E-02 0.  1.
         -2   -1    0    0    0  501 -0.00000000000E+00 -0.00000000000E+00 -0.34320719245E+02  0.34320719340E+02  0.25500000000E-02 0. -1.
    5000001    1    1    2    0    0  0.67904598667E+02 -0.12631334992E+03  0.44635425292E+03  0.47510758359E+03  0.77000000000E+02 0.  0.
   -5000001    1    1    2    0    0 -0.67904598667E+02  0.12631334992E+03  0.31217369080E+03  0.35206179872E+03  0.77000000000E+02 0.  0.
<mgrwt>
<rscale>  0 0.32991597E+03</rscale>
<asrwt>0</asrwt>
<pdfrwt beam="1">  1        2 0.12197671E+00 0.32991597E+03</pdfrwt>
<pdfrwt beam="2">  1       -2 0.52801110E-02 0.32991597E+03</pdfrwt>
<totfact> 0.64843745E+03</totfact>
</mgrwt>
</event>
<event>
 4    1  0.1171488E-003  0.2459430E+03  0.7818608E-02  0.1115896E+00
          2   -1    0    0  501    0  0.00000000000E+00  0.00000000000E+00  0.37632298806E+03  0.37632298806E+03  0.25500000000E-02 0.  1.
         -2   -1    0    0    0  501 -0.00000000000E+00 -0.00000000000E+00 -0.40183523574E+02  0.40183523655E+02  0.25500000000E-02 0. -1.
    5000001    1    1    2    0    0  0.42979767537E+02  0.48122412478E+02  0.47962394728E+02  0.11132123925E+03  0.77000000000E+02 0.  0.
   -5000001    1    1    2    0    0 -0.42979767537E+02 -0.48122412478E+02  0.28817706975E+03  0.30518527247E+03  0.77000000000E+02 0.  0.
<mgrwt>
<rscale>  0 0.24594295E+03</rscale>
<asrwt>0</asrwt>
<pdfrwt beam="1">  1        2 0.57895845E-01 0.24594295E+03</pdfrwt>
<pdfrwt beam="2">  1       -2 0.61820805E-02 0.24594295E+03</pdfrwt>
<totfact> 0.11892826E+04</totfact>
</mgrwt>
</event>
<event>
 4    1  0.1171488E-003  0.1714750E+03  0.7818608E-02  0.1176318E+00
         -2   -1    0    0    0  501 -0.00000000000E+00  0.00000000000E+00  0.31289357026E+01  0.31289367417E+01  0.25500000000E-02 0. -1.
          2   -1    0    0  501    0  0.00000000000E+00 -0.00000000000E+00 -0.23493356392E+04  0.23493356392E+04  0.25500000000E-02 0.  1.
    5000001    1    1    2    0    0  0.25053645817E+02 -0.18688902157E+02 -0.88371352833E+03  0.88761228044E+03  0.77000000000E+02 0.  0.
   -5000001    1    1    2    0    0 -0.25053645817E+02  0.18688902157E+02 -0.14624931752E+04  0.14648522955E+04  0.77000000000E+02 0.  0.
<mgrwt>
<rscale>  0 0.17147503E+03</rscale>
<asrwt>0</asrwt>
<pdfrwt beam="1">  1        2 0.36143484E+00 0.17147503E+03</pdfrwt>
<pdfrwt beam="2">  1       -2 0.48137668E-03 0.17147503E+03</pdfrwt>
<totfact> 0.29171163E+04</totfact>
</mgrwt>
</event>
<event>
 4    1  0.1171488E-003  0.1969496E+03  0.7818608E-02  0.1152338E+00
         -2   -1    0    0    0  501 -0.00000000000E+00  0.00000000000E+00  0.30974277395E+02  0.30974277500E+02  0.25500000000E-02 0.  1.
          2   -1    0    0  501    0  0.00000000000E+00 -0.00000000000E+00 -0.31307536819E+03  0.31307536820E+03  0.25500000000E-02 0. -1.
    5000001    1    1    2    0    0  0.15482335417E+02 -0.58897200600E+02 -0.15454808445E+03  0.18309203520E+03  0.77000000000E+02 0.  0.
   -5000001    1    1    2    0    0 -0.15482335417E+02  0.58897200600E+02 -0.12755300635E+03  0.16095761050E+03  0.77000000000E+02 0.  0.
<mgrwt>
<rscale>  0 0.19694957E+03</rscale>
<asrwt>0</asrwt>
<pdfrwt beam="1">  1        2 0.48165439E-01 0.19694957E+03</pdfrwt>
<pdfrwt beam="2">  1       -2 0.47652737E-02 0.19694957E+03</pdfrwt>
<totfact> 0.21232373E+04</totfact>
</mgrwt>
</event>
<event>
 4    1  0.1171488E-003  0.3210441E+03  0.7818608E-02  0.1075170E+00
          2   -1    0    0  501    0  0.00000000000E+00  0.00000000000E+00  0.19921417376E+04  0.19921417376E+04  0.25500000000E-02 0.  1.
         -2   -1    0    0    0  501 -0.00000000000E+00 -0.00000000000E+00 -0.12934482879E+02  0.12934483130E+02  0.25500000000E-02 0. -1.
    5000001    1    1    2    0    0 -0.12390360138E+03  0.33775152019E+02  0.62836501523E+03  0.64596010379E+03  0.77000000000E+02 0.  0.
   -5000001    1    1    2    0    0  0.12390360138E+03 -0.33775152019E+02  0.13508422395E+04  0.13591161170E+04  0.77000000000E+02 0.  0.
<mgrwt>
<rscale>  0 0.32104407E+03</rscale>
<asrwt>0</asrwt>
<pdfrwt beam="1">  1        2 0.30648333E+00 0.32104407E+03</pdfrwt>
<pdfrwt beam="2">  1       -2 0.19899205E-02 0.32104407E+03</pdfrwt>
<totfact> 0.58436696E+03</totfact>
</mgrwt>
</event>
<event>
 4    1  0.1171488E-003  0.2832435E+03  0.7818608E-02  0.1093930E+00
         -2   -1    0    0    0  501 -0.00000000000E+00  0.00000000000E+00  0.15260733945E+02  0.15260734158E+02  0.25500000000E-02 0. -1.
          2   -1    0    0  501    0  0.00000000000E+00 -0.00000000000E+00 -0.13142694498E+04  0.13142694498E+04  0.25500000000E-02 0.  1.
    5000001    1    1    2    0    0  0.95091057346E+02  0.48167822529E+02 -0.89633945980E+03  0.90593370370E+03  0.77000000000E+02 0.  0.
   -5000001    1    1    2    0    0 -0.95091057346E+02 -0.48167822529E+02 -0.40266925610E+03  0.42359648030E+03  0.77000000000E+02 0.  0.
<mgrwt>
<rscale>  0 0.28324348E+03</rscale>
<asrwt>0</asrwt>
<pdfrwt beam="1">  1        2 0.20219521E+00 0.28324348E+03</pdfrwt>
<pdfrwt beam="2">  1       -2 0.23478063E-02 0.28324348E+03</pdfrwt>
<totfact> 0.10510882E+04</totfact>
</mgrwt>
</event>
<event>
 4    1  0.1171488E-003  0.1755121E+03  0.7818608E-02  0.1172219E+00
          2   -1    0    0  501    0  0.00000000000E+00  0.00000000000E+00  0.21812664467E+04  0.21812664467E+04  0.25500000000E-02 0.  1.
         -2   -1    0    0    0  501 -0.00000000000E+00 -0.00000000000E+00 -0.35305727969E+01  0.35305737178E+01  0.25500000000E-02 0. -1.
    5000001    1    1    2    0    0 -0.17850932582E+02  0.36570115065E+02  0.95474438598E+03  0.95870843935E+03  0.77000000000E+02 0.  0.
   -5000001    1    1    2    0    0  0.17850932582E+02 -0.36570115065E+02  0.12229914879E+04  0.12260885811E+04  0.77000000000E+02 0.  0.
<mgrwt>
<rscale>  0 0.17551206E+03</rscale>
<asrwt>0</asrwt>
<pdfrwt beam="1">  1        2 0.33557983E+00 0.17551206E+03</pdfrwt>
<pdfrwt beam="2">  1       -2 0.54316451E-03 0.17551206E+03</pdfrwt>
<totfact> 0.30136550E+04</totfact>
</mgrwt>
</event>
<event>
 4    1  0.1171488E-003  0.3374127E+03  0.7818608E-02  0.1067903E+00
          2   -1    0    0  501    0  0.00000000000E+00  0.00000000000E+00  0.66009192738E+02  0.66009192787E+02  0.25500000000E-02 0.  1.
         -2   -1    0    0    0  501 -0.00000000000E+00 -0.00000000000E+00 -0.43117976193E+03  0.43117976194E+03  0.25500000000E-02 0. -1.
    5000001    1    1    2    0    0 -0.12682935800E+02 -0.38841112399E+02 -0.39542466709E+03  0.40491870322E+03  0.77000000000E+02 0.  0.
   -5000001    1    1    2    0    0  0.12682935800E+02  0.38841112399E+02  0.30254097899E+02  0.92270251504E+02  0.77000000000E+02 0.  0.
<mgrwt>
<rscale>  0 0.33741267E+03</rscale>
<asrwt>0</asrwt>
<pdfrwt beam="1">  1        2 0.10155261E-01 0.33741267E+03</pdfrwt>
<pdfrwt beam="2">  1       -2 0.66335346E-01 0.33741267E+03</pdfrwt>
<totfact> 0.13514978E+03</totfact>
</mgrwt>
</event>
<event>
 4    1  0.1171488E-003  0.3631258E+03  0.7818608E-02  0.1057353E+00
         -2   -1    0    0    0  501 -0.00000000000E+00  0.00000000000E+00  0.13384954292E+02  0.13384954535E+02  0.25500000000E-02 0. -1.
          2   -1    0    0  501    0  0.00000000000E+00 -0.00000000000E+00 -0.24628467870E+04  0.24628467870E+04  0.25500000000E-02 0.  1.
    5000001    1    1    2    0    0  0.70834332407E+02 -0.10215451615E+03 -0.19586454714E+04  0.19640962630E+04  0.77000000000E+02 0.  0.
   -5000001    1    1    2    0    0 -0.70834332407E+02  0.10215451615E+03 -0.49081636132E+03  0.51213547852E+03  0.77000000000E+02 0.  0.
<mgrwt>
<rscale>  0 0.36312583E+03</rscale>
<asrwt>0</asrwt>
<pdfrwt beam="1">  1        2 0.37889915E+00 0.36312583E+03</pdfrwt>
<pdfrwt beam="2">  1       -2 0.20592257E-02 0.36312583E+03</pdfrwt>
<totfact> 0.30948049E+03</totfact>
</mgrwt>
</event>
<event>
 4    1  0.1171488E-003  0.2688316E+03  0.7818608E-02  0.1101950E+00
          2   -1    0    0  501    0  0.00000000000E+00  0.00000000000E+00  0.47557259589E+03  0.47557259589E+03  0.25500000000E-02 0.  1.
         -2   -1    0    0    0  501 -0.00000000000E+00 -0.00000000000E+00 -0.37991258148E+02  0.37991258233E+02  0.25500000000E-02 0. -1.
    5000001    1    1    2    0    0 -0.95923719289E+02 -0.10753747106E+02  0.32026630815E+03  0.34324409847E+03  0.77000000000E+02 0.  0.
   -5000001    1    1    2    0    0  0.95923719289E+02  0.10753747106E+02  0.11731502959E+03  0.17031975565E+03  0.77000000000E+02 0.  0.
<mgrwt>
<rscale>  0 0.26883156E+03</rscale>
<asrwt>0</asrwt>
<pdfrwt beam="1">  1        2 0.73165019E-01 0.26883156E+03</pdfrwt>
<pdfrwt beam="2">  1       -2 0.58448086E-02 0.26883156E+03</pdfrwt>
<totfact> 0.10076903E+04</totfact>
</mgrwt>
</event>
<event>
 4    1  0.1171488E-003  0.2105422E+03  0.7818608E-02  0.1141137E+00
          2   -1    0    0  501    0  0.00000000000E+00  0.00000000000E+00  0.14437064416E+02  0.14437064641E+02  0.25500000000E-02 0.  1.
         -2   -1    0    0    0  501 -0.00000000000E+00 -0.00000000000E+00 -0.76760804663E+03  0.76760804663E+03  0.25500000000E-02 0. -1.
    5000001    1    1    2    0    0 -0.56321762543E+02 -0.44499452457E+02 -0.37961383728E+03  0.39393909131E+03  0.77000000000E+02 0.  0.
   -5000001    1    1    2    0    0  0.56321762543E+02  0.44499452457E+02 -0.37355714493E+03  0.38810601996E+03  0.77000000000E+02 0.  0.
<mgrwt>
<rscale>  0 0.21054222E+03</rscale>
<asrwt>0</asrwt>
<pdfrwt beam="1">  1        2 0.22210875E-02 0.21054222E+03</pdfrwt>
<pdfrwt beam="2">  1       -2 0.11809351E+00 0.21054222E+03</pdfrwt>
<totfact> 0.26925473E+03</totfact>
</mgrwt>
</event>
<event>
 4    1  0.1171488E-003  0.3611559E+03  0.7818608E-02  0.1058127E+00
          2   -1    0    0  501    0  0.00000000000E+00  0.00000000000E+00  0.26835943705E+04  0.26835943705E+04  0.25500000000E-02 0.  1.
         -2   -1    0    0    0  501 -0.00000000000E+00 -0.00000000000E+00 -0.12151012127E+02  0.12151012394E+02  0.25500000000E-02 0. -1.
    5000001    1    1    2    0    0 -0.49618864025E+02 -0.14857458627E+03  0.16812551330E+04  0.16902911765E+04  0.77000000000E+02 0.  0.
   -5000001    1    1    2    0    0  0.49618864025E+02  0.14857458627E+03  0.99018822543E+03  0.10054542064E+04  0.77000000000E+02 0.  0.
<mgrwt>
<rscale>  0 0.36115586E+03</rscale>
<asrwt>0</asrwt>
<pdfrwt beam="1">  1        2 0.41286074E+00 0.36115586E+03</pdfrwt>
<pdfrwt beam="2">  1       -2 0.18693862E-02 0.36115586E+03</pdfrwt>
<totfact> 0.26891774E+03</totfact>
</mgrwt>
</event>
<event>
 4    1  0.1171488E-003  0.3227669E+03  0.7818608E-02  0.1074383E+00
         -2   -1    0    0    0  501 -0.00000000000E+00  0.00000000000E+00  0.62645382802E+03  0.62645382803E+03  0.25500000000E-02 0. -1.
          2   -1    0    0  501    0  0.00000000000E+00 -0.00000000000E+00 -0.41574675413E+02  0.41574675491E+02  0.25500000000E-02 0.  1.
    5000001    1    1    2    0    0  0.13865859836E+03 -0.29813927769E+02  0.29092233177E+03  0.33268585830E+03  0.77000000000E+02 0.  0.
   -5000001    1    1    2    0    0 -0.13865859836E+03  0.29813927769E+02  0.29395682084E+03  0.33534264522E+03  0.77000000000E+02 0.  0.
<mgrwt>
<rscale>  0 0.32276688E+03</rscale>
<asrwt>0</asrwt>
<pdfrwt beam="1">  1        2 0.63961037E-02 0.32276688E+03</pdfrwt>
<pdfrwt beam="2">  1       -2 0.96377516E-01 0.32276688E+03</pdfrwt>
<totfact> 0.10657915E+03</totfact>
</mgrwt>
</event>
<event>
 4    1  0.1171488E-003  0.9384788E+03  0.7818608E-02  0.9378719E-01
          2   -1    0    0  501    0  0.00000000000E+00  0.00000000000E+00  0.14902348263E+04  0.14902348263E+04  0.25500000000E-02 0.  1.
         -2   -1    0    0    0  501 -0.00000000000E+00 -0.00000000000E+00 -0.14775228298E+03  0.14775228300E+03  0.25500000000E-02 0. -1.
    5000001    1    1    2    0    0 -0.25043385114E+03 -0.29473176706E+03  0.22738084796E+03  0.45520871953E+03  0.77000000000E+02 0.  0.
   -5000001    1    1    2    0    0  0.25043385114E+03  0.29473176706E+03  0.11151016954E+04  0.11827783898E+04  0.77000000000E+02 0.  0.
<mgrwt>
<rscale>  0 0.93847876E+03</rscale>
<asrwt>0</asrwt>
<pdfrwt beam="1">  1        2 0.22926690E+00 0.93847876E+03</pdfrwt>
<pdfrwt beam="2">  1       -2 0.22731120E-01 0.93847876E+03</pdfrwt>
<totfact> 0.21909522E+02</totfact>
</mgrwt>
</event>
<event>
 4    1  0.1171488E-003  0.5430336E+03  0.7818608E-02  0.1003119E+00
          2   -1    0    0  501    0  0.00000000000E+00  0.00000000000E+00  0.77242146402E+03  0.77242146402E+03  0.25500000000E-02 0.  1.
         -2   -1    0    0    0  501 -0.00000000000E+00 -0.00000000000E+00 -0.95441896061E+02  0.95441896095E+02  0.25500000000E-02 0. -1.
    5000001    1    1    2    0    0 -0.20622257665E+03 -0.81168413009E+02  0.12008096997E+03  0.26356119164E+03  0.77000000000E+02 0.  0.
   -5000001    1    1    2    0    0  0.20622257665E+03  0.81168413009E+02  0.55689859799E+03  0.60430216848E+03  0.77000000000E+02 0.  0.
<mgrwt>
<rscale>  0 0.54303359E+03</rscale>
<asrwt>0</asrwt>
<pdfrwt beam="1">  1        2 0.11883407E+00 0.54303359E+03</pdfrwt>
<pdfrwt beam="2">  1       -2 0.14683369E-01 0.54303359E+03</pdfrwt>
<totfact> 0.13155870E+03</totfact>
</mgrwt>
</event>
<event>
 4    1  0.1171488E-003  0.1953595E+03  0.7818608E-02  0.1153714E+00
         -2   -1    0    0    0  501 -0.00000000000E+00  0.00000000000E+00  0.33709683339E+03  0.33709683340E+03  0.25500000000E-02 0. -1.
          2   -1    0    0  501    0  0.00000000000E+00 -0.00000000000E+00 -0.28304417343E+02  0.28304417458E+02  0.25500000000E-02 0.  1.
    5000001    1    1    2    0    0 -0.40954756481E+02 -0.66053208278E+01  0.73051725751E+02  0.11395822470E+03  0.77000000000E+02 0.  0.
   -5000001    1    1    2    0    0  0.40954756481E+02  0.66053208278E+01  0.23574069030E+03  0.25144302616E+03  0.77000000000E+02 0.  0.
<mgrwt>
<rscale>  0 0.19535946E+03</rscale>
<asrwt>0</asrwt>
<pdfrwt beam="1">  1        2 0.43545258E-02 0.19535946E+03</pdfrwt>
<pdfrwt beam="2">  1       -2 0.51861051E-01 0.19535946E+03</pdfrwt>
<totfact> 0.65580409E+03</totfact>
</mgrwt>
</event>
<event>
 4    1  0.1171488E-003  0.2344605E+03  0.7818608E-02  0.1123539E+00
          2   -1    0    0  501    0  0.00000000000E+00  0.00000000000E+00  0.28984647220E+03  0.28984647221E+03  0.25500000000E-02 0.  1.
         -2   -1    0    0    0  501 -0.00000000000E+00 -0.00000000000E+00 -0.47414501156E+02  0.47414501224E+02  0.25500000000E-02 0. -1.
    5000001    1    1    2    0    0  0.79227547088E+02  0.36386283514E+02  0.14220758689E+03  0.18371979647E+03  0.77000000000E+02 0.  0.
   -5000001    1    1    2    0    0 -0.79227547088E+02 -0.36386283514E+02  0.10022438416E+03  0.15354117697E+03  0.77000000000E+02 0.  0.
<mgrwt>
<rscale>  0 0.23446045E+03</rscale>
<asrwt>0</asrwt>
<pdfrwt beam="1">  1        2 0.44591765E-01 0.23446045E+03</pdfrwt>
<pdfrwt beam="2">  1       -2 0.72945387E-02 0.23446045E+03</pdfrwt>
<totfact> 0.12171159E+04</totfact>
</mgrwt>
</event>
<event>
 4    1  0.1171488E-003  0.1987739E+03  0.7818608E-02  0.1150778E+00
         -2   -1    0    0    0  501 -0.00000000000E+00  0.00000000000E+00  0.23728215292E+02  0.23728215429E+02  0.25500000000E-02 0. -1.
          2   -1    0    0  501    0  0.00000000000E+00 -0.00000000000E+00 -0.41628792334E+03  0.41628792335E+03  0.25500000000E-02 0.  1.
    5000001    1    1    2    0    0  0.50589141155E+02  0.33979563645E+02 -0.23020708469E+03  0.25027619501E+03  0.77000000000E+02 0.  0.
   -5000001    1    1    2    0    0 -0.50589141155E+02 -0.33979563645E+02 -0.16235262336E+03  0.18973994376E+03  0.77000000000E+02 0.  0.
<mgrwt>
<rscale>  0 0.19877394E+03</rscale>
<asrwt>0</asrwt>
<pdfrwt beam="1">  1        2 0.64044291E-01 0.19877394E+03</pdfrwt>
<pdfrwt beam="2">  1       -2 0.36504950E-02 0.19877394E+03</pdfrwt>
<totfact> 0.23328164E+04</totfact>
</mgrwt>
</event>
<event>
 4    1  0.1171488E-003  0.4325582E+03  0.7818608E-02  0.1033055E+00
          2   -1    0    0  501    0  0.00000000000E+00  0.00000000000E+00  0.80974890578E+03  0.80974890579E+03  0.25500000000E-02 0.  1.
         -2   -1    0    0    0  501 -0.00000000000E+00 -0.00000000000E+00 -0.57766851516E+02  0.57766851572E+02  0.25500000000E-02 0. -1.
    5000001    1    1    2    0    0 -0.74732404615E+02  0.16314053696E+03  0.56249479613E+03  0.59542351547E+03  0.77000000000E+02 0.  0.
   -5000001    1    1    2    0    0  0.74732404615E+02 -0.16314053696E+03  0.18948725814E+03  0.27209224189E+03  0.77000000000E+02 0.  0.
<mgrwt>
<rscale>  0 0.43255818E+03</rscale>
<asrwt>0</asrwt>
<pdfrwt beam="1">  1        2 0.12457675E+00 0.43255818E+03</pdfrwt>
<pdfrwt beam="2">  1       -2 0.88872084E-02 0.43255818E+03</pdfrwt>
<totfact> 0.28097845E+03</totfact>
</mgrwt>
</event>
<event>
 4    1  0.1171488E-003  0.2885760E+03  0.7818608E-02  0.1091095E+00
         -2   -1    0    0    0  501 -0.00000000000E+00  0.00000000000E+00  0.29977876125E+02  0.29977876233E+02  0.25500000000E-02 0. -1.
          2   -1    0    0  501    0  0.00000000000E+00 -0.00000000000E+00 -0.69447979185E+03  0.69447979185E+03  0.25500000000E-02 0.  1.
    5000001    1    1    2    0    0 -0.98193200400E+02  0.62207315183E+02 -0.42545535523E+03  0.44771968234E+03  0.77000000000E+02 0.  0.
   -5000001    1    1    2    0    0  0.98193200400E+02 -0.62207315183E+02 -0.23904656050E+03  0.27673798574E+03  0.77000000000E+02 0.  0.
<mgrwt>
<rscale>  0 0.28857602E+03</rscale>
<asrwt>0</asrwt>
<pdfrwt beam="1">  1        2 0.10684303E+00 0.28857602E+03</pdfrwt>
<pdfrwt beam="2">  1       -2 0.46119815E-02 0.28857602E+03</pdfrwt>
<totfact> 0.93626517E+03</totfact>
</mgrwt>
</event>
<event>
 4    1  0.1171488E-003  0.2460162E+03  0.7818608E-02  0.1115849E+00
         -2   -1    0    0    0  501 -0.00000000000E+00  0.00000000000E+00  0.71941809675E+01  0.71941814194E+01  0.25500000000E-02 0. -1.
          2   -1    0    0  501    0  0.00000000000E+00 -0.00000000000E+00 -0.21032264729E+04  0.21032264729E+04  0.25500000000E-02 0.  1.
    5000001    1    1    2    0    0 -0.15347524190E+01  0.88871168472E+02 -0.13574986752E+04  0.13625828757E+04  0.77000000000E+02 0.  0.
   -5000001    1    1    2    0    0  0.15347524190E+01 -0.88871168472E+02 -0.73853361674E+03  0.74783777860E+03  0.77000000000E+02 0.  0.
<mgrwt>
<rscale>  0 0.24601620E+03</rscale>
<asrwt>0</asrwt>
<pdfrwt beam="1">  1        2 0.32357281E+00 0.24601620E+03</pdfrwt>
<pdfrwt beam="2">  1       -2 0.11067988E-02 0.24601620E+03</pdfrwt>
<totfact> 0.12027815E+04</totfact>
</mgrwt>
</event>
<event>
 4    1  0.1171488E-003  0.2781578E+03  0.7818608E-02  0.1096699E+00
          2   -1    0    0  501    0  0.00000000000E+00  0.00000000000E+00  0.33228279595E+03  0.33228279596E+03  0.25500000000E-02 0.  1.
         -2   -1    0    0    0  501 -0.00000000000E+00 -0.00000000000E+00 -0.58212284407E+02  0.58212284463E+02  0.25500000000E-02 0. -1.
    5000001    1    1    2    0    0 -0.10658832284E+03  0.18797645752E+02  0.19490975956E+03  0.23586698884E+03  0.77000000000E+02 0.  0.
   -5000001    1    1    2    0    0  0.10658832284E+03 -0.18797645752E+02  0.79160751985E+02  0.15462809159E+03  0.77000000000E+02 0.  0.
<mgrwt>
<rscale>  0 0.27815780E+03</rscale>
<asrwt>0</asrwt>
<pdfrwt beam="1">  1        2 0.51120430E-01 0.27815780E+03</pdfrwt>
<pdfrwt beam="2">  1       -2 0.89557360E-02 0.27815780E+03</pdfrwt>
<totfact> 0.76874106E+03</totfact>
</mgrwt>
</event>
<event>
 4    1  0.1171488E-003  0.4265765E+03  0.7818608E-02  0.1034947E+00
         -2   -1    0    0    0  501 -0.00000000000E+00  0.00000000000E+00  0.98943631730E+01  0.98943635016E+01  0.25500000000E-02 0. -1.
          2   -1    0    0  501    0  0.00000000000E+00 -0.00000000000E+00 -0.45977570907E+04  0.45977570907E+04  0.25500000000E-02 0.  1.
    5000001    1    1    2    0    0  0.12017153077E+03 -0.15334885247E+03 -0.18610887486E+04  0.18728420642E+04  0.77000000000E+02 0.  0.
   -5000001    1    1    2    0    0 -0.12017153077E+03  0.15334885247E+03 -0.27267739790E+04  0.27348093900E+04  0.77000000000E+02 0.  0.
<mgrwt>
<rscale>  0 0.42657651E+03</rscale>
<asrwt>0</asrwt>
<pdfrwt beam="1">  1        2 0.70734554E+00 0.42657651E+03</pdfrwt>
<pdfrwt beam="2">  1       -2 0.15222134E-02 0.42657651E+03</pdfrwt>
<totfact> 0.15063969E+02</totfact>
</mgrwt>
</event>
<event>
 4    1  0.1171488E-003  0.2695254E+03  0.7818608E-02  0.1101552E+00
         -2   -1    0    0    0  501 -0.00000000000E+00  0.00000000000E+00  0.53580612670E+02  0.53580612730E+02  0.25500000000E-02 0. -1.
          2   -1    0    0  501    0  0.00000000000E+00 -0.00000000000E+00 -0.33894685826E+03  0.33894685827E+03  0.25500000000E-02 0.  1.
    5000001    1    1    2    0    0 -0.45034059988E+02 -0.80465416999E+02 -0.53746624236E+02  0.13160717879E+03  0.77000000000E+02 0.  0.
   -5000001    1    1    2    0    0  0.45034059988E+02  0.80465416999E+02 -0.23161962136E+03  0.26092029222E+03  0.77000000000E+02 0.  0.
<mgrwt>
<rscale>  0 0.26952536E+03</rscale>
<asrwt>0</asrwt>
<pdfrwt beam="1">  1        2 0.52145669E-01 0.26952536E+03</pdfrwt>
<pdfrwt beam="2">  1       -2 0.82431714E-02 0.26952536E+03</pdfrwt>
<totfact> 0.85603847E+03</totfact>
</mgrwt>
</event>
<event>
 4    1  0.1171488E-003  0.2306610E+03  0.7818608E-02  0.1126175E+00
          2   -1    0    0  501    0  0.00000000000E+00  0.00000000000E+00  0.99036465642E+02  0.99036465675E+02  0.25500000000E-02 0.  1.
         -2   -1    0    0    0  501 -0.00000000000E+00 -0.00000000000E+00 -0.13430530533E+03  0.13430530535E+03  0.25500000000E-02 0. -1.
    5000001    1    1    2    0    0  0.71509643482E+02  0.40355962461E+02  0.77548774840E+01  0.11283337690E+03  0.77000000000E+02 0.  0.
   -5000001    1    1    2    0    0 -0.71509643482E+02 -0.40355962461E+02 -0.43023717171E+02  0.12050839413E+03  0.77000000000E+02 0.  0.
<mgrwt>
<rscale>  0 0.23066099E+03</rscale>
<asrwt>0</asrwt>
<pdfrwt beam="1">  1        2 0.15236379E-01 0.23066099E+03</pdfrwt>
<pdfrwt beam="2">  1       -2 0.20662355E-01 0.23066099E+03</pdfrwt>
<totfact> 0.74531311E+03</totfact>
</mgrwt>
</event>
<event>
 4    1  0.1171488E-003  0.2880864E+03  0.7818608E-02  0.1091353E+00
         -2   -1    0    0    0  501 -0.00000000000E+00  0.00000000000E+00  0.21068161212E+03  0.21068161214E+03  0.25500000000E-02 0. -1.
          2   -1    0    0  501    0  0.00000000000E+00 -0.00000000000E+00 -0.98482463848E+02  0.98482463881E+02  0.25500000000E-02 0.  1.
    5000001    1    1    2    0    0 -0.56258176493E+01 -0.12128009561E+03  0.65634012836E+02  0.15804219391E+03  0.77000000000E+02 0.  0.
   -5000001    1    1    2    0    0  0.56258176493E+01  0.12128009561E+03  0.46565135438E+02  0.15112188211E+03  0.77000000000E+02 0.  0.
<mgrwt>
<rscale>  0 0.28808641E+03</rscale>
<asrwt>0</asrwt>
<pdfrwt beam="1">  1        2 0.15151148E-01 0.28808641E+03</pdfrwt>
<pdfrwt beam="2">  1       -2 0.32412555E-01 0.28808641E+03</pdfrwt>
<totfact> 0.34046482E+03</totfact>
</mgrwt>
</event>
<event>
 4    1  0.1171488E-003  0.5368531E+03  0.7818608E-02  0.1004584E+00
          2   -1    0    0  501    0  0.00000000000E+00  0.00000000000E+00  0.31182058657E+04  0.31182058657E+04  0.25500000000E-02 0.  1.
         -2   -1    0    0    0  501 -0.00000000000E+00 -0.00000000000E+00 -0.23107136981E+02  0.23107137121E+02  0.25500000000E-02 0. -1.
    5000001    1    1    2    0    0 -0.16012115409E+03  0.12389666883E+03  0.24752163565E+04  0.24846758703E+04  0.77000000000E+02 0.  0.
   -5000001    1    1    2    0    0  0.16012115409E+03 -0.12389666883E+03  0.61988237219E+03  0.65663713258E+03  0.77000000000E+02 0.  0.
<mgrwt>
<rscale>  0 0.53685309E+03</rscale>
<asrwt>0</asrwt>
<pdfrwt beam="1">  1        2 0.47972381E+00 0.53685309E+03</pdfrwt>
<pdfrwt beam="2">  1       -2 0.35549454E-02 0.53685309E+03</pdfrwt>
<totfact> 0.55571212E+02</totfact>
</mgrwt>
</event>
<event>
 4    1  0.1171488E-003  0.1913405E+03  0.7818608E-02  0.1157258E+00
         -2   -1    0    0    0  501 -0.00000000000E+00  0.00000000000E+00  0.40252116360E+02  0.40252116441E+02  0.25500000000E-02 0. -1.
          2   -1    0    0  501    0  0.00000000000E+00 -0.00000000000E+00 -0.22738663141E+03  0.22738663142E+03  0.25500000000E-02 0.  1.
    5000001    1    1    2    0    0 -0.29560001045E+00 -0.56750958681E+02 -0.96003853131E+02  0.13552305526E+03  0.77000000000E+02 0.  0.
   -5000001    1    1    2    0    0  0.29560001045E+00  0.56750958681E+02 -0.91130661914E+02  0.13211569260E+03  0.77000000000E+02 0.  0.
<mgrwt>
<rscale>  0 0.19134046E+03</rscale>
<asrwt>0</asrwt>
<pdfrwt beam="1">  1        2 0.34982558E-01 0.19134046E+03</pdfrwt>
<pdfrwt beam="2">  1       -2 0.61926334E-02 0.19134046E+03</pdfrwt>
<totfact> 0.20052448E+04</totfact>
</mgrwt>
</event>
<event>
 4    1  0.1171488E-003  0.2268196E+03  0.7818608E-02  0.1128899E+00
         -2   -1    0    0    0  501 -0.00000000000E+00  0.00000000000E+00  0.15837670179E+02  0.15837670384E+02  0.25500000000E-02 0. -1.
          2   -1    0    0  501    0  0.00000000000E+00 -0.00000000000E+00 -0.81210055221E+03  0.81210055221E+03  0.25500000000E-02 0.  1.
    5000001    1    1    2    0    0 -0.67329118264E+02  0.43799748698E+02 -0.47819941113E+03  0.49097383327E+03  0.77000000000E+02 0.  0.
   -5000001    1    1    2    0    0  0.67329118264E+02 -0.43799748698E+02 -0.31806347090E+03  0.33696438932E+03  0.77000000000E+02 0.  0.
<mgrwt>
<rscale>  0 0.22681958E+03</rscale>
<asrwt>0</asrwt>
<pdfrwt beam="1">  1        2 0.12493851E+00 0.22681958E+03</pdfrwt>
<pdfrwt beam="2">  1       -2 0.24365653E-02 0.22681958E+03</pdfrwt>
<totfact> 0.19781791E+04</totfact>
</mgrwt>
</event>
<event>
 4    1  0.1171488E-003  0.1870808E+03  0.7818608E-02  0.1161121E+00
          2   -1    0    0  501    0  0.00000000000E+00  0.00000000000E+00  0.26049738118E+04  0.26049738118E+04  0.25500000000E-02 0.  1.
         -2   -1    0    0    0  501 -0.00000000000E+00 -0.00000000000E+00 -0.33588829434E+01  0.33588839113E+01  0.25500000000E-02 0. -1.
    5000001    1    1    2    0    0  0.51844756484E+02 -0.40141307636E+01  0.14514946635E+04  0.14544654517E+04  0.77000000000E+02 0.  0.
   -5000001    1    1    2    0    0 -0.51844756484E+02  0.40141307636E+01  0.11501202654E+04  0.11538672440E+04  0.77000000000E+02 0.  0.
<mgrwt>
<rscale>  0 0.18708077E+03</rscale>
<asrwt>0</asrwt>
<pdfrwt beam="1">  1        2 0.40076557E+00 0.18708077E+03</pdfrwt>
<pdfrwt beam="2">  1       -2 0.51675082E-03 0.18708077E+03</pdfrwt>
<totfact> 0.19264945E+04</totfact>
</mgrwt>
</event>
<event>
 4    1  0.1171488E-003  0.2811332E+03  0.7818608E-02  0.1095072E+00
         -2   -1    0    0    0  501 -0.00000000000E+00  0.00000000000E+00  0.16576661919E+02  0.16576662115E+02  0.25500000000E-02 0. -1.
          2   -1    0    0  501    0  0.00000000000E+00 -0.00000000000E+00 -0.11919747738E+04  0.11919747738E+04  0.25500000000E-02 0.  1.
    5000001    1    1    2    0    0  0.10865162096E+03 -0.43084782342E+02 -0.53189833398E+03  0.55000573715E+03  0.77000000000E+02 0.  0.
   -5000001    1    1    2    0    0 -0.10865162096E+03  0.43084782342E+02 -0.64349977791E+03  0.65854569878E+03  0.77000000000E+02 0.  0.
<mgrwt>
<rscale>  0 0.28113316E+03</rscale>
<asrwt>0</asrwt>
<pdfrwt beam="1">  1        2 0.18338067E+00 0.28113316E+03</pdfrwt>
<pdfrwt beam="2">  1       -2 0.25502566E-02 0.28113316E+03</pdfrwt>
<totfact> 0.10889198E+04</totfact>
</mgrwt>
</event>
<event>
 4    1  0.1171488E-003  0.2569682E+03  0.7818608E-02  0.1108979E+00
          2   -1    0    0  501    0  0.00000000000E+00  0.00000000000E+00  0.46579442645E+03  0.46579442646E+03  0.25500000000E-02 0.  1.
         -2   -1    0    0    0  501 -0.00000000000E+00 -0.00000000000E+00 -0.35440883539E+02  0.35440883631E+02  0.25500000000E-02 0. -1.
    5000001    1    1    2    0    0  0.92672265021E+02  0.15310834228E+02  0.13342481495E+03  0.18042658228E+03  0.77000000000E+02 0.  0.
   -5000001    1    1    2    0    0 -0.92672265021E+02 -0.15310834228E+02  0.29692872796E+03  0.32080872781E+03  0.77000000000E+02 0.  0.
<mgrwt>
<rscale>  0 0.25696822E+03</rscale>
<asrwt>0</asrwt>
<pdfrwt beam="1">  1        2 0.71660677E-01 0.25696822E+03</pdfrwt>
<pdfrwt beam="2">  1       -2 0.54524439E-02 0.25696822E+03</pdfrwt>
<totfact> 0.11444158E+04</totfact>
</mgrwt>
</event>
<event>
 4    1  0.1171488E-003  0.1967910E+03  0.7818608E-02  0.1152475E+00
         -2   -1    0    0    0  501 -0.00000000000E+00  0.00000000000E+00  0.65911594276E+02  0.65911594325E+02  0.25500000000E-02 0. -1.
          2   -1    0    0  501    0  0.00000000000E+00 -0.00000000000E+00 -0.14688880299E+03  0.14688880301E+03  0.25500000000E-02 0.  1.
    5000001    1    1    2    0    0  0.59713898258E+02  0.12604501147E+02 -0.34761305175E+02  0.10422078215E+03  0.77000000000E+02 0.  0.
   -5000001    1    1    2    0    0 -0.59713898258E+02 -0.12604501147E+02 -0.46215903537E+02  0.10857961519E+03  0.77000000000E+02 0.  0.
<mgrwt>
<rscale>  0 0.19679101E+03</rscale>
<asrwt>0</asrwt>
<pdfrwt beam="1">  1        2 0.22598277E-01 0.19679101E+03</pdfrwt>
<pdfrwt beam="2">  1       -2 0.10140245E-01 0.19679101E+03</pdfrwt>
<totfact> 0.15093005E+04</totfact>
</mgrwt>
</event>
<event>
 4    1  0.1171488E-003  0.2180284E+03  0.7818608E-02  0.1135362E+00
         -2   -1    0    0    0  501 -0.00000000000E+00  0.00000000000E+00  0.57395278874E+02  0.57395278931E+02  0.25500000000E-02 0. -1.
          2   -1    0    0  501    0  0.00000000000E+00 -0.00000000000E+00 -0.20705695993E+03  0.20705695995E+03  0.25500000000E-02 0.  1.
    5000001    1    1    2    0    0 -0.11348313672E+02 -0.26825136671E+02  0.11846437512E+02  0.83172773564E+02  0.77000000000E+02 0.  0.
   -5000001    1    1    2    0    0  0.11348313672E+02  0.26825136671E+02 -0.16150811857E+03  0.18127946532E+03  0.77000000000E+02 0.  0.
<mgrwt>
<rscale>  0 0.21802836E+03</rscale>
<asrwt>0</asrwt>
<pdfrwt beam="1">  1        2 0.31854917E-01 0.21802836E+03</pdfrwt>
<pdfrwt beam="2">  1       -2 0.88300430E-02 0.21802836E+03</pdfrwt>
<totfact> 0.12933716E+04</totfact>
</mgrwt>
</event>
<event>
 4    1  0.1171488E-003  0.3308253E+03  0.7818608E-02  0.1070772E+00
         -2   -1    0    0    0  501 -0.00000000000E+00  0.00000000000E+00  0.19361552885E+02  0.19361553053E+02  0.25500000000E-02 0. -1.
          2   -1    0    0  501    0  0.00000000000E+00 -0.00000000000E+00 -0.14131788806E+04  0.14131788806E+04  0.25500000000E-02 0.  1.
    5000001    1    1    2    0    0  0.48793344472E+02 -0.10641074756E+03 -0.31623729099E+03  0.34588879987E+03  0.77000000000E+02 0.  0.
   -5000001    1    1    2    0    0 -0.48793344472E+02  0.10641074756E+03 -0.10775800367E+04  0.10866516338E+04  0.77000000000E+02 0.  0.
<mgrwt>
<rscale>  0 0.33082526E+03</rscale>
<asrwt>0</asrwt>
<pdfrwt beam="1">  1        2 0.21741205E+00 0.33082526E+03</pdfrwt>
<pdfrwt beam="2">  1       -2 0.29787016E-02 0.33082526E+03</pdfrwt>
<totfact> 0.65266029E+03</totfact>
</mgrwt>
</event>
<event>
 4    1  0.1171488E-003  0.7611943E+03  0.7818608E-02  0.9617950E-01
         -2   -1    0    0    0  501 -0.00000000000E+00  0.00000000000E+00  0.13276370499E+03  0.13276370501E+03  0.25500000000E-02 0. -1.
          2   -1    0    0  501    0  0.00000000000E+00 -0.00000000000E+00 -0.10910676128E+04  0.10910676128E+04  0.25500000000E-02 0.  1.
    5000001    1    1    2    0    0  0.12521237009E+03  0.33234199213E+03 -0.29728220136E+03  0.46950510605E+03  0.77000000000E+02 0.  0.
   -5000001    1    1    2    0    0 -0.12521237009E+03 -0.33234199213E+03 -0.66102170645E+03  0.75432621177E+03  0.77000000000E+02 0.  0.
<mgrwt>
<rscale>  0 0.76119427E+03</rscale>
<asrwt>0</asrwt>
<pdfrwt beam="1">  1        2 0.16785655E+00 0.76119427E+03</pdfrwt>
<pdfrwt beam="2">  1       -2 0.20425186E-01 0.76119427E+03</pdfrwt>
<totfact> 0.45665320E+02</totfact>
</mgrwt>
</event>
<event>
 4    1  0.1171488E-003  0.6516848E+03  0.7818608E-02  0.9803623E-01
          2   -1    0    0  501    0  0.00000000000E+00  0.00000000000E+00  0.14307942439E+04  0.14307942439E+04  0.25500000000E-02 0.  1.
         -2   -1    0    0    0  501 -0.00000000000E+00 -0.00000000000E+00 -0.74205817681E+02  0.74205817725E+02  0.25500000000E-02 0. -1.
    5000001    1    1    2    0    0 -0.59889664805E+02  0.26156567035E+03  0.10663892630E+04  0.11023241048E+04  0.77000000000E+02 0.  0.
   -5000001    1    1    2    0    0  0.59889664805E+02 -0.26156567035E+03  0.29019916326E+03  0.40267595684E+03  0.77000000000E+02 0.  0.
<mgrwt>
<rscale>  0 0.65168476E+03</rscale>
<asrwt>0</asrwt>
<pdfrwt beam="1">  1        2 0.22012217E+00 0.65168476E+03</pdfrwt>
<pdfrwt beam="2">  1       -2 0.11416281E-01 0.65168476E+03</pdfrwt>
<totfact> 0.77972570E+02</totfact>
</mgrwt>
</event>
<event>
 4    1  0.1171488E-003  0.3260072E+03  0.7818608E-02  0.1072917E+00
          2   -1    0    0  501    0  0.00000000000E+00  0.00000000000E+00  0.10243283211E+04  0.10243283211E+04  0.25500000000E-02 0.  1.
         -2   -1    0    0    0  501 -0.00000000000E+00 -0.00000000000E+00 -0.25939113163E+02  0.25939113289E+02  0.25500000000E-02 0. -1.
    5000001    1    1    2    0    0 -0.70400438171E+02  0.12523949309E+03  0.49960187511E+03  0.52552087108E+03  0.77000000000E+02 0.  0.
   -5000001    1    1    2    0    0  0.70400438171E+02 -0.12523949309E+03  0.49878733283E+03  0.52474656332E+03  0.77000000000E+02 0.  0.
<mgrwt>
<rscale>  0 0.32600717E+03</rscale>
<asrwt>0</asrwt>
<pdfrwt beam="1">  1        2 0.15758898E+00 0.32600717E+03</pdfrwt>
<pdfrwt beam="2">  1       -2 0.39906326E-02 0.32600717E+03</pdfrwt>
<totfact> 0.70182490E+03</totfact>
</mgrwt>
</event>
<event>
 4    1  0.1171488E-003  0.5461730E+03  0.7818608E-02  0.1002384E+00
         -2   -1    0    0    0  501 -0.00000000000E+00  0.00000000000E+00  0.90973151721E+02  0.90973151757E+02  0.25500000000E-02 0. -1.
          2   -1    0    0  501    0  0.00000000000E+00 -0.00000000000E+00 -0.81976101118E+03  0.81976101118E+03  0.25500000000E-02 0.  1.
    5000001    1    1    2    0    0 -0.24611292592E+03  0.62928949675E+02 -0.25741976519E+03  0.36976419584E+03  0.77000000000E+02 0.  0.
   -5000001    1    1    2    0    0  0.24611292592E+03 -0.62928949675E+02 -0.47136809426E+03  0.54096996710E+03  0.77000000000E+02 0.  0.
<mgrwt>
<rscale>  0 0.54617302E+03</rscale>
<asrwt>0</asrwt>
<pdfrwt beam="1">  1        2 0.12611707E+00 0.54617302E+03</pdfrwt>
<pdfrwt beam="2">  1       -2 0.13995870E-01 0.54617302E+03</pdfrwt>
<totfact> 0.13187475E+03</totfact>
</mgrwt>
</event>
<event>
 4    1  0.1171488E-003  0.2881124E+03  0.7818608E-02  0.1091339E+00
         -2   -1    0    0    0  501 -0.00000000000E+00  0.00000000000E+00  0.53181534148E+02  0.53181534209E+02  0.25500000000E-02 0. -1.
          2   -1    0    0  501    0  0.00000000000E+00 -0.00000000000E+00 -0.39021417260E+03  0.39021417261E+03  0.25500000000E-02 0.  1.
    5000001    1    1    2    0    0 -0.59546181840E+02  0.52242668961E+02 -0.31080339557E+03  0.32985268671E+03  0.77000000000E+02 0.  0.
   -5000001    1    1    2    0    0  0.59546181840E+02 -0.52242668961E+02 -0.26229242875E+02  0.11354302010E+03  0.77000000000E+02 0.  0.
<mgrwt>
<rscale>  0 0.28811240E+03</rscale>
<asrwt>0</asrwt>
<pdfrwt beam="1">  1        2 0.60032948E-01 0.28811240E+03</pdfrwt>
<pdfrwt beam="2">  1       -2 0.81817747E-02 0.28811240E+03</pdfrwt>
<totfact> 0.74555053E+03</totfact>
</mgrwt>
</event>
<event>
 4    1  0.1171488E-003  0.2537136E+03  0.7818608E-02  0.1110980E+00
         -2   -1    0    0    0  501 -0.00000000000E+00  0.00000000000E+00  0.95006241564E+01  0.95006244986E+01  0.25500000000E-02 0. -1.
          2   -1    0    0  501    0  0.00000000000E+00 -0.00000000000E+00 -0.16938518110E+04  0.16938518110E+04  0.25500000000E-02 0.  1.
    5000001    1    1    2    0    0 -0.56518767853E+02 -0.31491637219E+02 -0.32310963765E+03  0.33840055006E+03  0.77000000000E+02 0.  0.
   -5000001    1    1    2    0    0  0.56518767853E+02  0.31491637219E+02 -0.13612415492E+04  0.13649518855E+04  0.77000000000E+02 0.  0.
<mgrwt>
<rscale>  0 0.25371362E+03</rscale>
<asrwt>0</asrwt>
<pdfrwt beam="1">  1        2 0.26059235E+00 0.25371362E+03</pdfrwt>
<pdfrwt beam="2">  1       -2 0.14616359E-02 0.25371362E+03</pdfrwt>
<totfact> 0.13160049E+04</totfact>
</mgrwt>
</event>
<event>
 4    1  0.1171488E-003  0.3929713E+03  0.7818608E-02  0.1046241E+00
         -2   -1    0    0    0  501 -0.00000000000E+00  0.00000000000E+00  0.28690027535E+02  0.28690027648E+02  0.25500000000E-02 0. -1.
          2   -1    0    0  501    0  0.00000000000E+00 -0.00000000000E+00 -0.13456459479E+04  0.13456459479E+04  0.25500000000E-02 0.  1.
    5000001    1    1    2    0    0  0.15716163197E+03 -0.45022896984E+02 -0.92826368356E+03  0.94568985721E+03  0.77000000000E+02 0.  0.
   -5000001    1    1    2    0    0 -0.15716163197E+03  0.45022896984E+02 -0.38869223684E+03  0.42864611837E+03  0.77000000000E+02 0.  0.
<mgrwt>
<rscale>  0 0.39297134E+03</rscale>
<asrwt>0</asrwt>
<pdfrwt beam="1">  1        2 0.20702240E+00 0.39297134E+03</pdfrwt>
<pdfrwt beam="2">  1       -2 0.44138514E-02 0.39297134E+03</pdfrwt>
<totfact> 0.39293863E+03</totfact>
</mgrwt>
</event>
<event>
 4    1  0.1171488E-003  0.2077010E+03  0.7818608E-02  0.1143400E+00
         -2   -1    0    0    0  501 -0.00000000000E+00  0.00000000000E+00  0.65312938637E+01  0.65312943615E+01  0.25500000000E-02 0. -1.
          2   -1    0    0  501    0  0.00000000000E+00 -0.00000000000E+00 -0.16512689386E+04  0.16512689386E+04  0.25500000000E-02 0.  1.
    5000001    1    1    2    0    0 -0.64757750682E+02  0.25657463805E+02 -0.83843435188E+03  0.84483905812E+03  0.77000000000E+02 0.  0.
   -5000001    1    1    2    0    0  0.64757750682E+02 -0.25657463805E+02 -0.80630329282E+03  0.81296117480E+03  0.77000000000E+02 0.  0.
<mgrwt>
<rscale>  0 0.20770097E+03</rscale>
<asrwt>0</asrwt>
<pdfrwt beam="1">  1        2 0.25404104E+00 0.20770097E+03</pdfrwt>
<pdfrwt beam="2">  1       -2 0.10048158E-02 0.20770097E+03</pdfrwt>
<totfact> 0.23695196E+04</totfact>
</mgrwt>
</event>
<event>
 4    1  0.1171488E-003  0.2662165E+03  0.7818608E-02  0.1103465E+00
         -2   -1    0    0    0  501 -0.00000000000E+00  0.00000000000E+00  0.77613609994E+01  0.77613614183E+01  0.25500000000E-02 0. -1.
          2   -1    0    0  501    0  0.00000000000E+00 -0.00000000000E+00 -0.22828218543E+04  0.22828218543E+04  0.25500000000E-02 0.  1.
    5000001    1    1    2    0    0  0.54879979902E+02 -0.43066162222E+02 -0.18534037368E+04  0.18563137984E+04  0.77000000000E+02 0.  0.
   -5000001    1    1    2    0    0 -0.54879979902E+02  0.43066162222E+02 -0.42165675652E+03  0.43426941734E+03  0.77000000000E+02 0.  0.
<mgrwt>
<rscale>  0 0.26621649E+03</rscale>
<asrwt>0</asrwt>
<pdfrwt beam="1">  1        2 0.35120283E+00 0.26621649E+03</pdfrwt>
<pdfrwt beam="2">  1       -2 0.11940574E-02 0.26621649E+03</pdfrwt>
<totfact> 0.86577433E+03</totfact>
</mgrwt>
</event>
<event>
 4    1  0.1171488E-003  0.3533305E+03  0.7818608E-02  0.1061256E+00
         -2   -1    0    0    0  501 -0.00000000000E+00  0.00000000000E+00  0.12599880951E+02  0.12599881209E+02  0.25500000000E-02 0. -1.
          2   -1    0    0  501    0  0.00000000000E+00 -0.00000000000E+00 -0.24770558114E+04  0.24770558114E+04  0.25500000000E-02 0.  1.
    5000001    1    1    2    0    0 -0.27157164955E+02  0.15657484756E+03 -0.11946679657E+04  0.12076480210E+04  0.77000000000E+02 0.  0.
   -5000001    1    1    2    0    0  0.27157164955E+02 -0.15657484756E+03 -0.12697879648E+04  0.12820076716E+04  0.77000000000E+02 0.  0.
<mgrwt>
<rscale>  0 0.35333049E+03</rscale>
<asrwt>0</asrwt>
<pdfrwt beam="1">  1        2 0.38108512E+00 0.35333049E+03</pdfrwt>
<pdfrwt beam="2">  1       -2 0.19384452E-02 0.35333049E+03</pdfrwt>
<totfact> 0.33264691E+03</totfact>
</mgrwt>
</event>
<event>
 4    1  0.1171488E-003  0.1876897E+03  0.7818608E-02  0.1160562E+00
          2   -1    0    0  501    0  0.00000000000E+00  0.00000000000E+00  0.28175376496E+03  0.28175376497E+03  0.25500000000E-02 0.  1.
         -2   -1    0    0    0  501 -0.00000000000E+00 -0.00000000000E+00 -0.31257289318E+02  0.31257289422E+02  0.25500000000E-02 0. -1.
    5000001    1    1    2    0    0  0.69346974678E+01  0.14896730835E+02  0.21041320658E+03  0.22466134541E+03  0.77000000000E+02 0.  0.
   -5000001    1    1    2    0    0 -0.69346974678E+01 -0.14896730835E+02  0.40083269061E+02  0.88349708981E+02  0.77000000000E+02 0.  0.
<mgrwt>
<rscale>  0 0.18768973E+03</rscale>
<asrwt>0</asrwt>
<pdfrwt beam="1">  1        2 0.43346734E-01 0.18768973E+03</pdfrwt>
<pdfrwt beam="2">  1       -2 0.48088137E-02 0.18768973E+03</pdfrwt>
<totfact> 0.23350604E+04</totfact>
</mgrwt>
</event>
<event>
 4    1  0.1171488E-003  0.3189668E+03  0.7818608E-02  0.1076126E+00
         -2   -1    0    0    0  501 -0.00000000000E+00  0.00000000000E+00  0.11969682228E+04  0.11969682228E+04  0.25500000000E-02 0. -1.
          2   -1    0    0  501    0  0.00000000000E+00 -0.00000000000E+00 -0.21249487660E+02  0.21249487813E+02  0.25500000000E-02 0.  1.
    5000001    1    1    2    0    0  0.52178487149E+02 -0.12953486672E+03  0.58013977392E+03  0.60165856887E+03  0.77000000000E+02 0.  0.
   -5000001    1    1    2    0    0 -0.52178487149E+02  0.12953486672E+03  0.59557896124E+03  0.61655914176E+03  0.77000000000E+02 0.  0.
<mgrwt>
<rscale>  0 0.31896684E+03</rscale>
<asrwt>0</asrwt>
<pdfrwt beam="1">  1        2 0.32691525E-02 0.31896684E+03</pdfrwt>
<pdfrwt beam="2">  1       -2 0.18414893E+00 0.31896684E+03</pdfrwt>
<totfact> 0.51004490E+02</totfact>
</mgrwt>
</event>
<event>
 4    1  0.1171488E-003  0.7055314E+03  0.7818608E-02  0.9707819E-01
         -2   -1    0    0    0  501 -0.00000000000E+00  0.00000000000E+00  0.52038241582E+02  0.52038241644E+02  0.25500000000E-02 0. -1.
          2   -1    0    0  501    0  0.00000000000E+00 -0.00000000000E+00 -0.23913880617E+04  0.23913880617E+04  0.25500000000E-02 0.  1.
    5000001    1    1    2    0    0 -0.33506496144E+03 -0.27138075465E+02 -0.14267405210E+04  0.14678291855E+04  0.77000000000E+02 0.  0.
   -5000001    1    1    2    0    0  0.33506496144E+03  0.27138075465E+02 -0.91260929910E+03  0.97559711784E+03  0.77000000000E+02 0.  0.
<mgrwt>
<rscale>  0 0.70553137E+03</rscale>
<asrwt>0</asrwt>
<pdfrwt beam="1">  1        2 0.36790577E+00 0.70553137E+03</pdfrwt>
<pdfrwt beam="2">  1       -2 0.80058852E-02 0.70553137E+03</pdfrwt>
<totfact> 0.41039091E+02</totfact>
</mgrwt>
</event>
<event>
 4    1  0.1171488E-003  0.3334589E+03  0.7818608E-02  0.1069617E+00
          2   -1    0    0  501    0  0.00000000000E+00  0.00000000000E+00  0.39898886296E+03  0.39898886297E+03  0.25500000000E-02 0.  1.
         -2   -1    0    0    0  501 -0.00000000000E+00 -0.00000000000E+00 -0.69672893755E+02  0.69672893802E+02  0.25500000000E-02 0. -1.
    5000001    1    1    2    0    0  0.13035253028E+03 -0.10037925179E+02  0.26179894706E+03  0.30258921126E+03  0.77000000000E+02 0.  0.
   -5000001    1    1    2    0    0 -0.13035253028E+03  0.10037925179E+02  0.67517022154E+02  0.16607254551E+03  0.77000000000E+02 0.  0.
<mgrwt>
<rscale>  0 0.33345890E+03</rscale>
<asrwt>0</asrwt>
<pdfrwt beam="1">  1        2 0.61382903E-01 0.33345890E+03</pdfrwt>
<pdfrwt beam="2">  1       -2 0.10718907E-01 0.33345890E+03</pdfrwt>
<totfact> 0.47614672E+03</totfact>
</mgrwt>
</event>
<event>
 4    1  0.1171488E-003  0.3253693E+03  0.7818608E-02  0.1073204E+00
          2   -1    0    0  501    0  0.00000000000E+00  0.00000000000E+00  0.10232727935E+04  0.10232727935E+04  0.25500000000E-02 0.  1.
         -2   -1    0    0    0  501 -0.00000000000E+00 -0.00000000000E+00 -0.25864363000E+02  0.25864363126E+02  0.25500000000E-02 0. -1.
    5000001    1    1    2    0    0 -0.10112439936E+03 -0.89599661650E+02  0.65277273246E+03  0.67104059769E+03  0.77000000000E+02 0.  0.
   -5000001    1    1    2    0    0  0.10112439936E+03  0.89599661650E+02  0.34463569807E+03  0.37809655896E+03  0.77000000000E+02 0.  0.
<mgrwt>
<rscale>  0 0.32536932E+03</rscale>
<asrwt>0</asrwt>
<pdfrwt beam="1">  1        2 0.15742657E+00 0.32536932E+03</pdfrwt>
<pdfrwt beam="2">  1       -2 0.39791332E-02 0.32536932E+03</pdfrwt>
<totfact> 0.70591235E+03</totfact>
</mgrwt>
</event>
<event>
 4    1  0.1171488E-003  0.2151208E+03  0.7818608E-02  0.1137574E+00
          2   -1    0    0  501    0  0.00000000000E+00  0.00000000000E+00  0.98439087113E+02  0.98439087146E+02  0.25500000000E-02 0.  1.
         -2   -1    0    0    0  501 -0.00000000000E+00 -0.00000000000E+00 -0.11752684795E+03  0.11752684798E+03  0.25500000000E-02 0. -1.
    5000001    1    1    2    0    0 -0.73990778827E+02  0.63853334680E+01  0.16726509590E+01  0.10699161461E+03  0.77000000000E+02 0.  0.
   -5000001    1    1    2    0    0  0.73990778827E+02 -0.63853334680E+01 -0.20760411800E+02  0.10897432052E+03  0.77000000000E+02 0.  0.
<mgrwt>
<rscale>  0 0.21512076E+03</rscale>
<asrwt>0</asrwt>
<pdfrwt beam="1">  1        2 0.15144475E-01 0.21512076E+03</pdfrwt>
<pdfrwt beam="2">  1       -2 0.18081054E-01 0.21512076E+03</pdfrwt>
<totfact> 0.93785030E+03</totfact>
</mgrwt>
</event>
<event>
 4    1  0.1171488E-003  0.1965883E+03  0.7818608E-02  0.1152650E+00
          2   -1    0    0  501    0  0.00000000000E+00  0.00000000000E+00  0.34208958039E+04  0.34208958039E+04  0.25500000000E-02 0.  1.
         -2   -1    0    0    0  501 -0.00000000000E+00 -0.00000000000E+00 -0.28243305722E+01  0.28243317233E+01  0.25500000000E-02 0. -1.
    5000001    1    1    2    0    0 -0.15505881299E+02 -0.12530988117E+02  0.27148249569E+04  0.27159898756E+04  0.77000000000E+02 0.  0.
   -5000001    1    1    2    0    0  0.15505881299E+02  0.12530988117E+02  0.70324651649E+03  0.70773026003E+03  0.77000000000E+02 0.  0.
<mgrwt>
<rscale>  0 0.19658833E+03</rscale>
<asrwt>0</asrwt>
<pdfrwt beam="1">  1        2 0.52629150E+00 0.19658833E+03</pdfrwt>
<pdfrwt beam="2">  1       -2 0.43451262E-03 0.19658833E+03</pdfrwt>
<totfact> 0.81480605E+03</totfact>
</mgrwt>
</event>
<event>
 4    1  0.1171488E-003  0.3959919E+03  0.7818608E-02  0.1045176E+00
         -2   -1    0    0    0  501 -0.00000000000E+00  0.00000000000E+00  0.61028357365E+02  0.61028357418E+02  0.25500000000E-02 0. -1.
          2   -1    0    0  501    0  0.00000000000E+00 -0.00000000000E+00 -0.64236365559E+03  0.64236365560E+03  0.25500000000E-02 0.  1.
    5000001    1    1    2    0    0  0.16815874936E+03  0.38902413898E+02 -0.39549271786E+03  0.43833121344E+03  0.77000000000E+02 0.  0.
   -5000001    1    1    2    0    0 -0.16815874936E+03 -0.38902413898E+02 -0.18584258037E+03  0.26506079958E+03  0.77000000000E+02 0.  0.
<mgrwt>
<rscale>  0 0.39599191E+03</rscale>
<asrwt>0</asrwt>
<pdfrwt beam="1">  1        2 0.98825173E-01 0.39599191E+03</pdfrwt>
<pdfrwt beam="2">  1       -2 0.93889785E-02 0.39599191E+03</pdfrwt>
<totfact> 0.34345001E+03</totfact>
</mgrwt>
</event>
<event>
 4    1  0.1171488E-003  0.1979826E+03  0.7818608E-02  0.1151452E+00
          2   -1    0    0  501    0  0.00000000000E+00  0.00000000000E+00  0.12943976893E+03  0.12943976896E+03  0.25500000000E-02 0.  1.
         -2   -1    0    0    0  501 -0.00000000000E+00 -0.00000000000E+00 -0.75705318800E+02  0.75705318843E+02  0.25500000000E-02 0. -1.
    5000001    1    1    2    0    0 -0.71094986622E+01 -0.61370905078E+02  0.19299156306E+02  0.10059021024E+03  0.77000000000E+02 0.  0.
   -5000001    1    1    2    0    0  0.71094986622E+01  0.61370905078E+02  0.34435293827E+02  0.10455487756E+03  0.77000000000E+02 0.  0.
<mgrwt>
<rscale>  0 0.19798262E+03</rscale>
<asrwt>0</asrwt>
<pdfrwt beam="1">  1        2 0.19913811E-01 0.19798262E+03</pdfrwt>
<pdfrwt beam="2">  1       -2 0.11646972E-01 0.19798262E+03</pdfrwt>
<totfact> 0.13972117E+04</totfact>
</mgrwt>
</event>
<event>
 4    1  0.1171488E-003  0.4122225E+03  0.7818608E-02  0.1039628E+00
         -2   -1    0    0    0  501 -0.00000000000E+00  0.00000000000E+00  0.79923750030E+02  0.79923750071E+02  0.25500000000E-02 0. -1.
          2   -1    0    0  501    0  0.00000000000E+00 -0.00000000000E+00 -0.53152972242E+03  0.53152972242E+03  0.25500000000E-02 0.  1.
    5000001    1    1    2    0    0  0.17028411341E+03 -0.83602129602E+02 -0.19048734733E+03  0.27964338871E+03  0.77000000000E+02 0.  0.
   -5000001    1    1    2    0    0 -0.17028411341E+03  0.83602129602E+02 -0.26111862505E+03  0.33181008379E+03  0.77000000000E+02 0.  0.
<mgrwt>
<rscale>  0 0.41222251E+03</rscale>
<asrwt>0</asrwt>
<pdfrwt beam="1">  1        2 0.81773801E-01 0.41222251E+03</pdfrwt>
<pdfrwt beam="2">  1       -2 0.12295962E-01 0.41222251E+03</pdfrwt>
<totfact> 0.27754943E+03</totfact>
</mgrwt>
</event>
<event>
 4    1  0.1171488E-003  0.2302778E+03  0.7818608E-02  0.1126444E+00
         -2   -1    0    0    0  501 -0.00000000000E+00  0.00000000000E+00  0.10777537384E+02  0.10777537685E+02  0.25500000000E-02 0. -1.
          2   -1    0    0  501    0  0.00000000000E+00 -0.00000000000E+00 -0.12300546907E+04  0.12300546907E+04  0.25500000000E-02 0.  1.
    5000001    1    1    2    0    0 -0.74589756134E+02 -0.89178832590E+01 -0.38846395436E+03  0.40308361936E+03  0.77000000000E+02 0.  0.
   -5000001    1    1    2    0    0  0.74589756134E+02  0.89178832590E+01 -0.83081319892E+03  0.83774860898E+03  0.77000000000E+02 0.  0.
<mgrwt>
<rscale>  0 0.23027775E+03</rscale>
<asrwt>0</asrwt>
<pdfrwt beam="1">  1        2 0.18923907E+00 0.23027775E+03</pdfrwt>
<pdfrwt beam="2">  1       -2 0.16580837E-02 0.23027775E+03</pdfrwt>
<totfact> 0.19378576E+04</totfact>
</mgrwt>
</event>
<event>
 4    1  0.1171488E-003  0.2748659E+03  0.7818608E-02  0.1098527E+00
         -2   -1    0    0    0  501 -0.00000000000E+00  0.00000000000E+00  0.26773803942E+02  0.26773804063E+02  0.25500000000E-02 0. -1.
          2   -1    0    0  501    0  0.00000000000E+00 -0.00000000000E+00 -0.70545860826E+03  0.70545860827E+03  0.25500000000E-02 0.  1.
    5000001    1    1    2    0    0  0.10034119538E+03 -0.25217431997E+02 -0.46583256340E+03  0.48335623663E+03  0.77000000000E+02 0.  0.
   -5000001    1    1    2    0    0 -0.10034119538E+03  0.25217431997E+02 -0.21285224092E+03  0.24887617570E+03  0.77000000000E+02 0.  0.
<mgrwt>
<rscale>  0 0.27486586E+03</rscale>
<asrwt>0</asrwt>
<pdfrwt beam="1">  1        2 0.10853208E+00 0.27486586E+03</pdfrwt>
<pdfrwt beam="2">  1       -2 0.41190473E-02 0.27486586E+03</pdfrwt>
<totfact> 0.10878799E+04</totfact>
</mgrwt>
</event>
<event>
 4    1  0.1171488E-003  0.3603169E+03  0.7818608E-02  0.1058458E+00
          2   -1    0    0  501    0  0.00000000000E+00  0.00000000000E+00  0.15681670623E+03  0.15681670625E+03  0.25500000000E-02 0.  1.
         -2   -1    0    0    0  501 -0.00000000000E+00 -0.00000000000E+00 -0.20697458212E+03  0.20697458214E+03  0.25500000000E-02 0. -1.
    5000001    1    1    2    0    0  0.15750800405E+03 -0.25488822876E+02 -0.58099354798E+02  0.18644834797E+03  0.77000000000E+02 0.  0.
   -5000001    1    1    2    0    0 -0.15750800405E+03  0.25488822876E+02  0.79414789094E+01  0.17734294043E+03  0.77000000000E+02 0.  0.
<mgrwt>
<rscale>  0 0.36031693E+03</rscale>
<asrwt>0</asrwt>
<pdfrwt beam="1">  1        2 0.24125647E-01 0.36031693E+03</pdfrwt>
<pdfrwt beam="2">  1       -2 0.31842243E-01 0.36031693E+03</pdfrwt>
<totfact> 0.20630834E+03</totfact>
</mgrwt>
</event>
<event>
 4    1  0.1171488E-003  0.6392869E+03  0.7818608E-02  0.9827092E-01
         -2   -1    0    0    0  501 -0.00000000000E+00  0.00000000000E+00  0.40996000454E+02  0.40996000533E+02  0.25500000000E-02 0. -1.
          2   -1    0    0  501    0  0.00000000000E+00 -0.00000000000E+00 -0.24922418116E+04  0.24922418116E+04  0.25500000000E-02 0.  1.
    5000001    1    1    2    0    0 -0.30891388044E+03  0.25439495906E+02 -0.12769829990E+04  0.13163166539E+04  0.77000000000E+02 0.  0.
   -5000001    1    1    2    0    0  0.30891388044E+03 -0.25439495906E+02 -0.11742628121E+04  0.12169211582E+04  0.77000000000E+02 0.  0.
<mgrwt>
<rscale>  0 0.63928694E+03</rscale>
<asrwt>0</asrwt>
<pdfrwt beam="1">  1        2 0.38342170E+00 0.63928694E+03</pdfrwt>
<pdfrwt beam="2">  1       -2 0.63070789E-02 0.63928694E+03</pdfrwt>
<totfact> 0.52893876E+02</totfact>
</mgrwt>
</event>
<event>
 4    1  0.1171488E-003  0.1768148E+03  0.7818608E-02  0.1170922E+00
          2   -1    0    0  501    0  0.00000000000E+00  0.00000000000E+00  0.14824982877E+03  0.14824982879E+03  0.25500000000E-02 0.  1.
         -2   -1    0    0    0  501 -0.00000000000E+00 -0.00000000000E+00 -0.52720954912E+02  0.52720954974E+02  0.25500000000E-02 0. -1.
    5000001    1    1    2    0    0 -0.39674764757E+02  0.89761238694E+01  0.65084885415E+02  0.10871844401E+03  0.77000000000E+02 0.  0.
   -5000001    1    1    2    0    0  0.39674764757E+02 -0.89761238694E+01  0.30443988442E+02  0.92252339756E+02  0.77000000000E+02 0.  0.
<mgrwt>
<rscale>  0 0.17681485E+03</rscale>
<asrwt>0</asrwt>
<pdfrwt beam="1">  1        2 0.22807666E-01 0.17681485E+03</pdfrwt>
<pdfrwt beam="2">  1       -2 0.81109162E-02 0.17681485E+03</pdfrwt>
<totfact> 0.21021016E+04</totfact>
</mgrwt>
</event>
<event>
 4    1  0.1171488E-003  0.1918813E+03  0.7818608E-02  0.1156775E+00
         -2   -1    0    0    0  501 -0.00000000000E+00  0.00000000000E+00  0.10985999524E+02  0.10985999820E+02  0.25500000000E-02 0. -1.
          2   -1    0    0  501    0  0.00000000000E+00 -0.00000000000E+00 -0.83784922732E+03  0.83784922732E+03  0.25500000000E-02 0.  1.
    5000001    1    1    2    0    0 -0.23849867092E+02 -0.51845471173E+02 -0.43263410669E+03  0.44312305211E+03  0.77000000000E+02 0.  0.
   -5000001    1    1    2    0    0  0.23849867092E+02  0.51845471173E+02 -0.39422912110E+03  0.40571217503E+03  0.77000000000E+02 0.  0.
<mgrwt>
<rscale>  0 0.19188133E+03</rscale>
<asrwt>0</asrwt>
<pdfrwt beam="1">  1        2 0.12889983E+00 0.19188133E+03</pdfrwt>
<pdfrwt beam="2">  1       -2 0.16901544E-02 0.19188133E+03</pdfrwt>
<totfact> 0.32126087E+04</totfact>
</mgrwt>
</event>
<event>
 4    1  0.1171488E-003  0.2048539E+03  0.7818608E-02  0.1145707E+00
          2   -1    0    0  501    0  0.00000000000E+00  0.00000000000E+00  0.99643245737E+02  0.99643245770E+02  0.25500000000E-02 0.  1.
         -2   -1    0    0    0  501 -0.00000000000E+00 -0.00000000000E+00 -0.10528845341E+03  0.10528845345E+03  0.25500000000E-02 0. -1.
    5000001    1    1    2    0    0 -0.12246619765E+02  0.10341050919E+02 -0.68462802754E+02  0.10427402548E+03  0.77000000000E+02 0.  0.
   -5000001    1    1    2    0    0  0.12246619765E+02 -0.10341050919E+02  0.62817595076E+02  0.10065767373E+03  0.77000000000E+02 0.  0.
<mgrwt>
<rscale>  0 0.20485393E+03</rscale>
<asrwt>0</asrwt>
<pdfrwt beam="1">  1        2 0.15329730E-01 0.20485393E+03</pdfrwt>
<pdfrwt beam="2">  1       -2 0.16198224E-01 0.20485393E+03</pdfrwt>
<totfact> 0.11075625E+04</totfact>
</mgrwt>
</event>
<event>
 4    1  0.1171488E-003  0.1936151E+03  0.7818608E-02  0.1155241E+00
          2   -1    0    0  501    0  0.00000000000E+00  0.00000000000E+00  0.91067221660E+03  0.91067221660E+03  0.25500000000E-02 0.  1.
         -2   -1    0    0    0  501 -0.00000000000E+00 -0.00000000000E+00 -0.10290970779E+02  0.10290971095E+02  0.25500000000E-02 0. -1.
    5000001    1    1    2    0    0 -0.33228815856E+02  0.31465145644E+02  0.62486419381E+03  0.63125151112E+03  0.77000000000E+02 0.  0.
   -5000001    1    1    2    0    0  0.33228815856E+02 -0.31465145644E+02  0.27551705202E+03  0.28971167658E+03  0.77000000000E+02 0.  0.
<mgrwt>
<rscale>  0 0.19361510E+03</rscale>
<asrwt>0</asrwt>
<pdfrwt beam="1">  1        2 0.14010344E+00 0.19361510E+03</pdfrwt>
<pdfrwt beam="2">  1       -2 0.15832261E-02 0.19361510E+03</pdfrwt>
<totfact> 0.31706216E+04</totfact>
</mgrwt>
</event>
<event>
 4    1  0.1171488E-003  0.2193133E+03  0.7818608E-02  0.1134396E+00
          2   -1    0    0  501    0  0.00000000000E+00  0.00000000000E+00  0.17895441247E+04  0.17895441247E+04  0.25500000000E-02 0.  1.
         -2   -1    0    0    0  501 -0.00000000000E+00 -0.00000000000E+00 -0.67193539627E+01  0.67193544466E+01  0.25500000000E-02 0. -1.
    5000001    1    1    2    0    0 -0.49406830083E+02  0.59816754934E+02  0.81977480110E+03  0.82703011042E+03  0.77000000000E+02 0.  0.
   -5000001    1    1    2    0    0  0.49406830083E+02 -0.59816754934E+02  0.96304996961E+03  0.96923336869E+03  0.77000000000E+02 0.  0.
<mgrwt>
<rscale>  0 0.21931330E+03</rscale>
<asrwt>0</asrwt>
<pdfrwt beam="1">  1        2 0.27531450E+00 0.21931330E+03</pdfrwt>
<pdfrwt beam="2">  1       -2 0.10337467E-02 0.21931330E+03</pdfrwt>
<totfact> 0.19307605E+04</totfact>
</mgrwt>
</event>
<event>
 4    1  0.1171488E-003  0.1989336E+03  0.7818608E-02  0.1150642E+00
          2   -1    0    0  501    0  0.00000000000E+00  0.00000000000E+00  0.10377064166E+04  0.10377064166E+04  0.25500000000E-02 0.  1.
         -2   -1    0    0    0  501 -0.00000000000E+00 -0.00000000000E+00 -0.95341470101E+01  0.95341473511E+01  0.25500000000E-02 0. -1.
    5000001    1    1    2    0    0 -0.14367193188E+02  0.54139602804E+02  0.36268611743E+03  0.37497697611E+03  0.77000000000E+02 0.  0.
   -5000001    1    1    2    0    0  0.14367193188E+02 -0.54139602804E+02  0.66548615212E+03  0.67226358781E+03  0.77000000000E+02 0.  0.
<mgrwt>
<rscale>  0 0.19893361E+03</rscale>
<asrwt>0</asrwt>
<pdfrwt beam="1">  1        2 0.15964721E+00 0.19893361E+03</pdfrwt>
<pdfrwt beam="2">  1       -2 0.14667913E-02 0.19893361E+03</pdfrwt>
<totfact> 0.29657336E+04</totfact>
</mgrwt>
</event>
<event>
 4    1  0.1171488E-003  0.1930357E+03  0.7818608E-02  0.1155752E+00
         -2   -1    0    0    0  501 -0.00000000000E+00  0.00000000000E+00  0.45792077360E+02  0.45792077431E+02  0.25500000000E-02 0. -1.
          2   -1    0    0  501    0  0.00000000000E+00 -0.00000000000E+00 -0.20343460177E+03  0.20343460178E+03  0.25500000000E-02 0.  1.
    5000001    1    1    2    0    0  0.57432095187E+02 -0.93689348561E+01 -0.77935631232E+02  0.12405315439E+03  0.77000000000E+02 0.  0.
   -5000001    1    1    2    0    0 -0.57432095187E+02  0.93689348561E+01 -0.79706893175E+02  0.12517352483E+03  0.77000000000E+02 0.  0.
<mgrwt>
<rscale>  0 0.19303568E+03</rscale>
<asrwt>0</asrwt>
<pdfrwt beam="1">  1        2 0.31297630E-01 0.19303568E+03</pdfrwt>
<pdfrwt beam="2">  1       -2 0.70449351E-02 0.19303568E+03</pdfrwt>
<totfact> 0.18572889E+04</totfact>
</mgrwt>
</event>
<event>
 4    1  0.1171488E-003  0.3142069E+03  0.7818608E-02  0.1078347E+00
          2   -1    0    0  501    0  0.00000000000E+00  0.00000000000E+00  0.17439945065E+04  0.17439945065E+04  0.25500000000E-02 0.  1.
         -2   -1    0    0    0  501 -0.00000000000E+00 -0.00000000000E+00 -0.14152278272E+02  0.14152278502E+02  0.25500000000E-02 0. -1.
    5000001    1    1    2    0    0 -0.99106214030E+02  0.64417615383E+02  0.47802816255E+03  0.49840906395E+03  0.77000000000E+02 0.  0.
   -5000001    1    1    2    0    0  0.99106214030E+02 -0.64417615383E+02  0.12518140656E+04  0.12597377210E+04  0.77000000000E+02 0.  0.
<mgrwt>
<rscale>  0 0.31420691E+03</rscale>
<asrwt>0</asrwt>
<pdfrwt beam="1">  1        2 0.26830677E+00 0.31420691E+03</pdfrwt>
<pdfrwt beam="2">  1       -2 0.21772742E-02 0.31420691E+03</pdfrwt>
<totfact> 0.69169857E+03</totfact>
</mgrwt>
</event>
<event>
 4    1  0.1171488E-003  0.2685350E+03  0.7818608E-02  0.1102121E+00
          2   -1    0    0  501    0  0.00000000000E+00  0.00000000000E+00  0.14044854407E+04  0.14044854407E+04  0.25500000000E-02 0.  1.
         -2   -1    0    0    0  501 -0.00000000000E+00 -0.00000000000E+00 -0.12835852408E+02  0.12835852661E+02  0.25500000000E-02 0. -1.
    5000001    1    1    2    0    0  0.10901902479E+03 -0.50987884743E+01  0.76812006782E+03  0.77964644808E+03  0.77000000000E+02 0.  0.
   -5000001    1    1    2    0    0 -0.10901902479E+03  0.50987884743E+01  0.62352952044E+03  0.63767484526E+03  0.77000000000E+02 0.  0.
<mgrwt>
<rscale>  0 0.26853505E+03</rscale>
<asrwt>0</asrwt>
<pdfrwt beam="1">  1        2 0.21607454E+00 0.26853505E+03</pdfrwt>
<pdfrwt beam="2">  1       -2 0.19747479E-02 0.26853505E+03</pdfrwt>
<totfact> 0.12092215E+04</totfact>
</mgrwt>
</event>
<event>
 4    1  0.1171488E-003  0.1860738E+03  0.7818608E-02  0.1162051E+00
         -2   -1    0    0    0  501 -0.00000000000E+00  0.00000000000E+00  0.11280132510E+02  0.11280132798E+02  0.25500000000E-02 0. -1.
          2   -1    0    0  501    0  0.00000000000E+00 -0.00000000000E+00 -0.76735464419E+03  0.76735464420E+03  0.25500000000E-02 0.  1.
    5000001    1    1    2    0    0 -0.12870375284E+02  0.17404723318E+02 -0.17918129727E+03  0.19622310834E+03  0.77000000000E+02 0.  0.
   -5000001    1    1    2    0    0  0.12870375284E+02 -0.17404723318E+02 -0.57689321441E+03  0.58241166866E+03  0.77000000000E+02 0.  0.
<mgrwt>
<rscale>  0 0.18607377E+03</rscale>
<asrwt>0</asrwt>
<pdfrwt beam="1">  1        2 0.11805452E+00 0.18607377E+03</pdfrwt>
<pdfrwt beam="2">  1       -2 0.17354056E-02 0.18607377E+03</pdfrwt>
<totfact> 0.34452054E+04</totfact>
</mgrwt>
</event>
<event>
 4    1  0.1171488E-003  0.1836772E+03  0.7818608E-02  0.1164291E+00
          2   -1    0    0  501    0  0.00000000000E+00  0.00000000000E+00  0.22158002611E+03  0.22158002613E+03  0.25500000000E-02 0.  1.
         -2   -1    0    0    0  501 -0.00000000000E+00 -0.00000000000E+00 -0.38064470598E+02  0.38064470683E+02  0.25500000000E-02 0. -1.
    5000001    1    1    2    0    0 -0.25784431268E+02 -0.41595466355E+02  0.76911251828E+02  0.11932879106E+03  0.77000000000E+02 0.  0.
   -5000001    1    1    2    0    0  0.25784431268E+02  0.41595466355E+02  0.10660430369E+03  0.14031570576E+03  0.77000000000E+02 0.  0.
<mgrwt>
<rscale>  0 0.18367718E+03</rscale>
<asrwt>0</asrwt>
<pdfrwt beam="1">  1        2 0.34089235E-01 0.18367718E+03</pdfrwt>
<pdfrwt beam="2">  1       -2 0.58560723E-02 0.18367718E+03</pdfrwt>
<totfact> 0.22380388E+04</totfact>
</mgrwt>
</event>
<event>
 4    1  0.1171488E-003  0.2364466E+03  0.7818608E-02  0.1122183E+00
          2   -1    0    0  501    0  0.00000000000E+00  0.00000000000E+00  0.57206747817E+03  0.57206747817E+03  0.25500000000E-02 0.  1.
         -2   -1    0    0    0  501 -0.00000000000E+00 -0.00000000000E+00 -0.24431998449E+02  0.24431998582E+02  0.25500000000E-02 0. -1.
    5000001    1    1    2    0    0 -0.42928912994E+02 -0.77668259684E+02  0.24068376268E+03  0.26783002772E+03  0.77000000000E+02 0.  0.
   -5000001    1    1    2    0    0  0.42928912994E+02  0.77668259684E+02  0.30695171704E+03  0.32866944903E+03  0.77000000000E+02 0.  0.
<mgrwt>
<rscale>  0 0.23644663E+03</rscale>
<asrwt>0</asrwt>
<pdfrwt beam="1">  1        2 0.88010377E-01 0.23644663E+03</pdfrwt>
<pdfrwt beam="2">  1       -2 0.37587692E-02 0.23644663E+03</pdfrwt>
<totfact> 0.15869024E+04</totfact>
</mgrwt>
</event>
<event>
 4    1  0.1171488E-003  0.2287088E+03  0.7818608E-02  0.1127552E+00
          2   -1    0    0  501    0  0.00000000000E+00  0.00000000000E+00  0.23365431654E+04  0.23365431655E+04  0.25500000000E-02 0.  1.
         -2   -1    0    0    0  501 -0.00000000000E+00 -0.00000000000E+00 -0.55966994757E+01  0.55967000566E+01  0.25500000000E-02 0. -1.
    5000001    1    1    2    0    0 -0.19104678388E+02 -0.31401098062E+02  0.38577184267E+03  0.39509483962E+03  0.77000000000E+02 0.  0.
   -5000001    1    1    2    0    0  0.19104678388E+02  0.31401098062E+02  0.19451746233E+04  0.19470450259E+04  0.77000000000E+02 0.  0.
<mgrwt>
<rscale>  0 0.22870882E+03</rscale>
<asrwt>0</asrwt>
<pdfrwt beam="1">  1        2 0.35946976E+00 0.22870882E+03</pdfrwt>
<pdfrwt beam="2">  1       -2 0.86102694E-03 0.22870882E+03</pdfrwt>
<totfact> 0.12993980E+04</totfact>
</mgrwt>
</event>
<event>
 4    1  0.1171488E-003  0.2619337E+03  0.7818608E-02  0.1105987E+00
         -2   -1    0    0    0  501 -0.00000000000E+00  0.00000000000E+00  0.81441619368E+02  0.81441619408E+02  0.25500000000E-02 0. -1.
          2   -1    0    0  501    0  0.00000000000E+00 -0.00000000000E+00 -0.21060879084E+03  0.21060879085E+03  0.25500000000E-02 0.  1.
    5000001    1    1    2    0    0 -0.10168036950E+03  0.23228292044E+02 -0.85289481284E+02  0.15518294594E+03  0.77000000000E+02 0.  0.
   -5000001    1    1    2    0    0  0.10168036950E+03 -0.23228292044E+02 -0.43877690185E+02  0.13686746432E+03  0.77000000000E+02 0.  0.
<mgrwt>
<rscale>  0 0.26193374E+03</rscale>
<asrwt>0</asrwt>
<pdfrwt beam="1">  1        2 0.32401352E-01 0.26193374E+03</pdfrwt>
<pdfrwt beam="2">  1       -2 0.12529480E-01 0.26193374E+03</pdfrwt>
<totfact> 0.73389524E+03</totfact>
</mgrwt>
</event>
<event>
 4    1  0.1171488E-003  0.3235761E+03  0.7818608E-02  0.1074015E+00
          2   -1    0    0  501    0  0.00000000000E+00  0.00000000000E+00  0.14915296175E+04  0.14915296175E+04  0.25500000000E-02 0.  1.
         -2   -1    0    0    0  501 -0.00000000000E+00 -0.00000000000E+00 -0.17549351135E+02  0.17549351320E+02  0.25500000000E-02 0. -1.
    5000001    1    1    2    0    0 -0.16875006410E+02 -0.11313853517E+03  0.11316572289E+04  0.11400272706E+04  0.77000000000E+02 0.  0.
   -5000001    1    1    2    0    0  0.16875006410E+02  0.11313853517E+03  0.34232303744E+03  0.36905169820E+03  0.77000000000E+02 0.  0.
<mgrwt>
<rscale>  0 0.32357612E+03</rscale>
<asrwt>0</asrwt>
<pdfrwt beam="1">  1        2 0.22946609E+00 0.32357612E+03</pdfrwt>
<pdfrwt beam="2">  1       -2 0.26999003E-02 0.32357612E+03</pdfrwt>
<totfact> 0.68516720E+03</totfact>
</mgrwt>
</event>
<event>
 4    1  0.1171488E-003  0.2189191E+03  0.7818608E-02  0.1134691E+00
          2   -1    0    0  501    0  0.00000000000E+00  0.00000000000E+00  0.24623218764E+03  0.24623218766E+03  0.25500000000E-02 0.  1.
         -2   -1    0    0    0  501 -0.00000000000E+00 -0.00000000000E+00 -0.48658918245E+02  0.48658918312E+02  0.25500000000E-02 0. -1.
    5000001    1    1    2    0    0  0.83571186193E+01 -0.75319686125E+02  0.12248427515E+03  0.16332266900E+03  0.77000000000E+02 0.  0.
   -5000001    1    1    2    0    0 -0.83571186193E+01  0.75319686125E+02  0.75088994245E+02  0.13156843697E+03  0.77000000000E+02 0.  0.
<mgrwt>
<rscale>  0 0.21891909E+03</rscale>
<asrwt>0</asrwt>
<pdfrwt beam="1">  1        2 0.37881875E-01 0.21891909E+03</pdfrwt>
<pdfrwt beam="2">  1       -2 0.74859875E-02 0.21891909E+03</pdfrwt>
<totfact> 0.13873042E+04</totfact>
</mgrwt>
</event>
<event>
 4    1  0.1171488E-003  0.4190345E+03  0.7818608E-02  0.1037381E+00
          2   -1    0    0  501    0  0.00000000000E+00  0.00000000000E+00  0.21178007521E+04  0.21178007521E+04  0.25500000000E-02 0.  1.
         -2   -1    0    0    0  501 -0.00000000000E+00 -0.00000000000E+00 -0.20727862183E+02  0.20727862340E+02  0.25500000000E-02 0. -1.
    5000001    1    1    2    0    0  0.17120207165E+02  0.19116492171E+03  0.12201945946E+04  0.12375948357E+04  0.77000000000E+02 0.  0.
   -5000001    1    1    2    0    0 -0.17120207165E+02 -0.19116492171E+03  0.87687829533E+03  0.90093377870E+03  0.77000000000E+02 0.  0.
<mgrwt>
<rscale>  0 0.41903452E+03</rscale>
<asrwt>0</asrwt>
<pdfrwt beam="1">  1        2 0.32581568E+00 0.41903452E+03</pdfrwt>
<pdfrwt beam="2">  1       -2 0.31889001E-02 0.41903452E+03</pdfrwt>
<totfact> 0.24684749E+03</totfact>
</mgrwt>
</event>
<event>
 4    1  0.1171488E-003  0.2042058E+03  0.7818608E-02  0.1146238E+00
          2   -1    0    0  501    0  0.00000000000E+00  0.00000000000E+00  0.12546278835E+03  0.12546278837E+03  0.25500000000E-02 0.  1.
         -2   -1    0    0    0  501 -0.00000000000E+00 -0.00000000000E+00 -0.83092411554E+02  0.83092411593E+02  0.25500000000E-02 0. -1.
    5000001    1    1    2    0    0  0.44391212626E+02 -0.45723706255E+02  0.42480399628E+02  0.10860396597E+03  0.77000000000E+02 0.  0.
   -5000001    1    1    2    0    0 -0.44391212626E+02  0.45723706255E+02 -0.11002283490E+00  0.99951233995E+02  0.77000000000E+02 0.  0.
<mgrwt>
<rscale>  0 0.20420583E+03</rscale>
<asrwt>0</asrwt>
<pdfrwt beam="1">  1        2 0.19301967E-01 0.20420583E+03</pdfrwt>
<pdfrwt beam="2">  1       -2 0.12783448E-01 0.20420583E+03</pdfrwt>
<totfact> 0.12489661E+04</totfact>
</mgrwt>
</event>
<event>
 4    1  0.1171488E-003  0.2024903E+03  0.7818608E-02  0.1147655E+00
         -2   -1    0    0    0  501 -0.00000000000E+00  0.00000000000E+00  0.88292003283E+02  0.88292003320E+02  0.25500000000E-02 0. -1.
          2   -1    0    0  501    0  0.00000000000E+00 -0.00000000000E+00 -0.11609857567E+03  0.11609857570E+03  0.25500000000E-02 0.  1.
    5000001    1    1    2    0    0  0.64377294200E+02 -0.28636842250E+01 -0.27022925050E+02  0.10398016722E+03  0.77000000000E+02 0.  0.
   -5000001    1    1    2    0    0 -0.64377294200E+02  0.28636842250E+01 -0.78364734136E+00  0.10041041181E+03  0.77000000000E+02 0.  0.
<mgrwt>
<rscale>  0 0.20249025E+03</rscale>
<asrwt>0</asrwt>
<pdfrwt beam="1">  1        2 0.17861320E-01 0.20249025E+03</pdfrwt>
<pdfrwt beam="2">  1       -2 0.13583385E-01 0.20249025E+03</pdfrwt>
<totfact> 0.12367095E+04</totfact>
</mgrwt>
</event>
<event>
 4    1  0.1171488E-003  0.3123913E+03  0.7818608E-02  0.1079205E+00
          2   -1    0    0  501    0  0.00000000000E+00  0.00000000000E+00  0.13945795560E+04  0.13945795560E+04  0.25500000000E-02 0.  1.
         -2   -1    0    0    0  501 -0.00000000000E+00 -0.00000000000E+00 -0.17494214086E+02  0.17494214271E+02  0.25500000000E-02 0. -1.
    5000001    1    1    2    0    0 -0.11922881789E+03  0.43202785534E+02  0.46774159613E+03  0.49070682942E+03  0.77000000000E+02 0.  0.
   -5000001    1    1    2    0    0  0.11922881789E+03 -0.43202785534E+02  0.90934374580E+03  0.92136694086E+03  0.77000000000E+02 0.  0.
<mgrwt>
<rscale>  0 0.31239125E+03</rscale>
<asrwt>0</asrwt>
<pdfrwt beam="1">  1        2 0.21455070E+00 0.31239125E+03</pdfrwt>
<pdfrwt beam="2">  1       -2 0.26914176E-02 0.31239125E+03</pdfrwt>
<totfact> 0.77674436E+03</totfact>
</mgrwt>
</event>
<event>
 4    1  0.1171488E-003  0.3989119E+03  0.7818608E-02  0.1044157E+00
         -2   -1    0    0    0  501 -0.00000000000E+00  0.00000000000E+00  0.11697282901E+03  0.11697282904E+03  0.25500000000E-02 0. -1.
          2   -1    0    0  501    0  0.00000000000E+00 -0.00000000000E+00 -0.34010189341E+03  0.34010189341E+03  0.25500000000E-02 0.  1.
    5000001    1    1    2    0    0  0.75714175188E+02 -0.15178485808E+03 -0.19324997316E+03  0.26841354584E+03  0.77000000000E+02 0.  0.
   -5000001    1    1    2    0    0 -0.75714175188E+02  0.15178485808E+03 -0.29879091236E+02  0.18866117661E+03  0.77000000000E+02 0.  0.
<mgrwt>
<rscale>  0 0.39891192E+03</rscale>
<asrwt>0</asrwt>
<pdfrwt beam="1">  1        2 0.52323368E-01 0.39891192E+03</pdfrwt>
<pdfrwt beam="2">  1       -2 0.17995820E-01 0.39891192E+03</pdfrwt>
<totfact> 0.24172605E+03</totfact>
</mgrwt>
</event>
<event>
 4    1  0.1171488E-003  0.3383304E+03  0.7818608E-02  0.1067509E+00
          2   -1    0    0  501    0  0.00000000000E+00  0.00000000000E+00  0.55159642436E+02  0.55159642495E+02  0.25500000000E-02 0.  1.
         -2   -1    0    0    0  501 -0.00000000000E+00 -0.00000000000E+00 -0.51880088663E+03  0.51880088663E+03  0.25500000000E-02 0. -1.
    5000001    1    1    2    0    0 -0.85611092244E+01 -0.14647667497E+03 -0.28957875167E+03  0.33363687194E+03  0.77000000000E+02 0.  0.
   -5000001    1    1    2    0    0  0.85611092244E+01  0.14647667497E+03 -0.17406249252E+03  0.24032365719E+03  0.77000000000E+02 0.  0.
<mgrwt>
<rscale>  0 0.33833044E+03</rscale>
<asrwt>0</asrwt>
<pdfrwt beam="1">  1        2 0.84860992E-02 0.33833044E+03</pdfrwt>
<pdfrwt beam="2">  1       -2 0.79815518E-01 0.33833044E+03</pdfrwt>
<totfact> 0.11345354E+03</totfact>
</mgrwt>
</event>
<event>
 4    1  0.1171488E-003  0.1924244E+03  0.7818608E-02  0.1156293E+00
          2   -1    0    0  501    0  0.00000000000E+00  0.00000000000E+00  0.10628888001E+04  0.10628888001E+04  0.25500000000E-02 0.  1.
         -2   -1    0    0    0  501 -0.00000000000E+00 -0.00000000000E+00 -0.87090846714E+01  0.87090850447E+01  0.25500000000E-02 0. -1.
    5000001    1    1    2    0    0  0.48883352873E+02 -0.26615941941E+02  0.44266992704E+03  0.45275120636E+03  0.77000000000E+02 0.  0.
   -5000001    1    1    2    0    0 -0.48883352873E+02  0.26615941941E+02  0.61150978838E+03  0.61884667879E+03  0.77000000000E+02 0.  0.
<mgrwt>
<rscale>  0 0.19242441E+03</rscale>
<asrwt>0</asrwt>
<pdfrwt beam="1">  1        2 0.16352122E+00 0.19242441E+03</pdfrwt>
<pdfrwt beam="2">  1       -2 0.13398603E-02 0.19242441E+03</pdfrwt>
<totfact> 0.32602963E+04</totfact>
</mgrwt>
</event>
<event>
 4    1  0.1171488E-003  0.3712308E+03  0.7818608E-02  0.1054223E+00
         -2   -1    0    0    0  501 -0.00000000000E+00  0.00000000000E+00  0.14453250520E+04  0.14453250520E+04  0.25500000000E-02 0. -1.
          2   -1    0    0  501    0  0.00000000000E+00 -0.00000000000E+00 -0.23837595113E+02  0.23837595249E+02  0.25500000000E-02 0.  1.
    5000001    1    1    2    0    0  0.85252211884E+02 -0.14414388315E+03  0.79732943138E+03  0.81835726967E+03  0.77000000000E+02 0.  0.
   -5000001    1    1    2    0    0 -0.85252211884E+02  0.14414388315E+03  0.62415802548E+03  0.65080537756E+03  0.77000000000E+02 0.  0.
<mgrwt>
<rscale>  0 0.37123078E+03</rscale>
<asrwt>0</asrwt>
<pdfrwt beam="1">  1        2 0.36673229E-02 0.37123078E+03</pdfrwt>
<pdfrwt beam="2">  1       -2 0.22235766E+00 0.37123078E+03</pdfrwt>
<totfact> 0.24960881E+02</totfact>
</mgrwt>
</event>
<event>
 4    1  0.1171488E-003  0.2374969E+03  0.7818608E-02  0.1121472E+00
          2   -1    0    0  501    0  0.00000000000E+00  0.00000000000E+00  0.89679061720E+03  0.89679061721E+03  0.25500000000E-02 0.  1.
         -2   -1    0    0    0  501 -0.00000000000E+00 -0.00000000000E+00 -0.15724059636E+02  0.15724059843E+02  0.25500000000E-02 0. -1.
    5000001    1    1    2    0    0 -0.13218508834E+01  0.65293992168E+02  0.20036741063E+03  0.22436833989E+03  0.77000000000E+02 0.  0.
   -5000001    1    1    2    0    0  0.13218508834E+01 -0.65293992168E+02  0.68069914694E+03  0.68814633716E+03  0.77000000000E+02 0.  0.
<mgrwt>
<rscale>  0 0.23749686E+03</rscale>
<asrwt>0</asrwt>
<pdfrwt beam="1">  1        2 0.13796777E+00 0.23749686E+03</pdfrwt>
<pdfrwt beam="2">  1       -2 0.24190864E-02 0.23749686E+03</pdfrwt>
<totfact> 0.17614460E+04</totfact>
</mgrwt>
</event>
<event>
 4    1  0.1171488E-003  0.2230422E+03  0.7818608E-02  0.1131635E+00
         -2   -1    0    0    0  501 -0.00000000000E+00  0.00000000000E+00  0.45681925030E+02  0.45681925101E+02  0.25500000000E-02 0. -1.
          2   -1    0    0  501    0  0.00000000000E+00 -0.00000000000E+00 -0.27225122992E+03  0.27225122993E+03  0.25500000000E-02 0.  1.
    5000001    1    1    2    0    0 -0.26860456010E+02 -0.52353263478E+02 -0.34618848137E+02  0.10290681678E+03  0.77000000000E+02 0.  0.
   -5000001    1    1    2    0    0  0.26860456010E+02  0.52353263478E+02 -0.19195045675E+03  0.21502633825E+03  0.77000000000E+02 0.  0.
<mgrwt>
<rscale>  0 0.22304224E+03</rscale>
<asrwt>0</asrwt>
<pdfrwt beam="1">  1        2 0.41884804E-01 0.22304224E+03</pdfrwt>
<pdfrwt beam="2">  1       -2 0.70279886E-02 0.22304224E+03</pdfrwt>
<totfact> 0.13747471E+04</totfact>
</mgrwt>
</event>
<event>
 4    1  0.1171488E-003  0.3023135E+03  0.7818608E-02  0.1084090E+00
         -2   -1    0    0    0  501 -0.00000000000E+00  0.00000000000E+00  0.12138477679E+04  0.12138477679E+04  0.25500000000E-02 0. -1.
          2   -1    0    0  501    0  0.00000000000E+00 -0.00000000000E+00 -0.18823089357E+02  0.18823089530E+02  0.25500000000E-02 0.  1.
    5000001    1    1    2    0    0 -0.20645803254E+02 -0.90541772908E+02  0.96888138533E+03  0.97636274032E+03  0.77000000000E+02 0.  0.
   -5000001    1    1    2    0    0  0.20645803254E+02  0.90541772908E+02  0.22614329317E+03  0.25630811707E+03  0.77000000000E+02 0.  0.
<mgrwt>
<rscale>  0 0.30231351E+03</rscale>
<asrwt>0</asrwt>
<pdfrwt beam="1">  1        2 0.28958595E-02 0.30231351E+03</pdfrwt>
<pdfrwt beam="2">  1       -2 0.18674584E+00 0.30231351E+03</pdfrwt>
<totfact> 0.57834910E+02</totfact>
</mgrwt>
</event>
<event>
 4    1  0.1171488E-003  0.1878921E+03  0.7818608E-02  0.1160376E+00
         -2   -1    0    0    0  501 -0.00000000000E+00  0.00000000000E+00  0.84694624698E+02  0.84694624736E+02  0.25500000000E-02 0. -1.
          2   -1    0    0  501    0  0.00000000000E+00 -0.00000000000E+00 -0.10420802632E+03  0.10420802635E+03  0.25500000000E-02 0.  1.
    5000001    1    1    2    0    0 -0.22554638464E+02 -0.41829817870E+02 -0.35159457795E+02  0.97075397767E+02  0.77000000000E+02 0.  0.
   -5000001    1    1    2    0    0  0.22554638464E+02  0.41829817870E+02  0.15646056169E+02  0.91827253323E+02  0.77000000000E+02 0.  0.
<mgrwt>
<rscale>  0 0.18789209E+03</rscale>
<asrwt>0</asrwt>
<pdfrwt beam="1">  1        2 0.16032004E-01 0.18789209E+03</pdfrwt>
<pdfrwt beam="2">  1       -2 0.13029942E-01 0.18789209E+03</pdfrwt>
<totfact> 0.14921395E+04</totfact>
</mgrwt>
</event>
<event>
 4    1  0.1171488E-003  0.2711734E+03  0.7818608E-02  0.1100610E+00
          2   -1    0    0  501    0  0.00000000000E+00  0.00000000000E+00  0.28036355553E+03  0.28036355554E+03  0.25500000000E-02 0.  1.
         -2   -1    0    0    0  501 -0.00000000000E+00 -0.00000000000E+00 -0.65571108083E+02  0.65571108133E+02  0.25500000000E-02 0. -1.
    5000001    1    1    2    0    0 -0.37323348695E+02  0.98561242879E+02  0.15422308012E+03  0.20204234555E+03  0.77000000000E+02 0.  0.
   -5000001    1    1    2    0    0  0.37323348695E+02 -0.98561242879E+02  0.60569367329E+02  0.14389231812E+03  0.77000000000E+02 0.  0.
<mgrwt>
<rscale>  0 0.27117337E+03</rscale>
<asrwt>0</asrwt>
<pdfrwt beam="1">  1        2 0.43132854E-01 0.27117337E+03</pdfrwt>
<pdfrwt beam="2">  1       -2 0.10087863E-01 0.27117337E+03</pdfrwt>
<totfact> 0.76365752E+03</totfact>
</mgrwt>
</event>
<event>
 4    1  0.1171488E-003  0.2430136E+03  0.7818608E-02  0.1117801E+00
         -2   -1    0    0    0  501 -0.00000000000E+00  0.00000000000E+00  0.11307099039E+03  0.11307099041E+03  0.25500000000E-02 0. -1.
          2   -1    0    0  501    0  0.00000000000E+00 -0.00000000000E+00 -0.13057198348E+03  0.13057198351E+03  0.25500000000E-02 0.  1.
    5000001    1    1    2    0    0  0.56901552785E+02  0.72515498160E+02  0.96987722915E+01  0.12049626702E+03  0.77000000000E+02 0.  0.
   -5000001    1    1    2    0    0 -0.56901552785E+02 -0.72515498160E+02 -0.27199765387E+02  0.12314670690E+03  0.77000000000E+02 0.  0.
<mgrwt>
<rscale>  0 0.24301361E+03</rscale>
<asrwt>0</asrwt>
<pdfrwt beam="1">  1        2 0.20087997E-01 0.24301361E+03</pdfrwt>
<pdfrwt beam="2">  1       -2 0.17395537E-01 0.24301361E+03</pdfrwt>
<totfact> 0.72565996E+03</totfact>
</mgrwt>
</event>
<event>
 4    1  0.1171488E-003  0.2456635E+03  0.7818608E-02  0.1116076E+00
          2   -1    0    0  501    0  0.00000000000E+00  0.00000000000E+00  0.29639027829E+04  0.29639027829E+04  0.25500000000E-02 0.  1.
         -2   -1    0    0    0  501 -0.00000000000E+00 -0.00000000000E+00 -0.50904651423E+01  0.50904657810E+01  0.25500000000E-02 0. -1.
    5000001    1    1    2    0    0  0.32201618696E+02  0.60100770707E+02  0.22909974864E+04  0.22933049360E+04  0.77000000000E+02 0.  0.
   -5000001    1    1    2    0    0 -0.32201618696E+02 -0.60100770707E+02  0.66781483138E+03  0.67568831268E+03  0.77000000000E+02 0.  0.
<mgrwt>
<rscale>  0 0.24566355E+03</rscale>
<asrwt>0</asrwt>
<pdfrwt beam="1">  1        2 0.45598675E+00 0.24566355E+03</pdfrwt>
<pdfrwt beam="2">  1       -2 0.78314559E-03 0.24566355E+03</pdfrwt>
<totfact> 0.66587164E+03</totfact>
</mgrwt>
</event>
<event>
 4    1  0.1171488E-003  0.4233943E+03  0.7818608E-02  0.1035967E+00
         -2   -1    0    0    0  501 -0.00000000000E+00  0.00000000000E+00  0.18729504984E+02  0.18729505158E+02  0.25500000000E-02 0. -1.
          2   -1    0    0  501    0  0.00000000000E+00 -0.00000000000E+00 -0.23927853490E+04  0.23927853490E+04  0.25500000000E-02 0.  1.
    5000001    1    1    2    0    0  0.10802219883E+03  0.10622491165E+03 -0.46806004846E+03  0.49795756472E+03  0.77000000000E+02 0.  0.
   -5000001    1    1    2    0    0 -0.10802219883E+03 -0.10622491165E+03 -0.19059957955E+04  0.19135572894E+04  0.77000000000E+02 0.  0.
<mgrwt>
<rscale>  0 0.42339431E+03</rscale>
<asrwt>0</asrwt>
<pdfrwt beam="1">  1        2 0.36812058E+00 0.42339431E+03</pdfrwt>
<pdfrwt beam="2">  1       -2 0.28814642E-02 0.42339431E+03</pdfrwt>
<totfact> 0.20386927E+03</totfact>
</mgrwt>
</event>
<event>
 4    1  0.1171488E-003  0.1973047E+03  0.7818608E-02  0.1152033E+00
         -2   -1    0    0    0  501 -0.00000000000E+00  0.00000000000E+00  0.31135415297E+03  0.31135415298E+03  0.25500000000E-02 0. -1.
          2   -1    0    0  501    0  0.00000000000E+00 -0.00000000000E+00 -0.31257937630E+02  0.31257937734E+02  0.25500000000E-02 0.  1.
    5000001    1    1    2    0    0  0.46489409732E+02  0.35893632947E+02  0.10739198012E+03  0.14460862871E+03  0.77000000000E+02 0.  0.
   -5000001    1    1    2    0    0 -0.46489409732E+02 -0.35893632947E+02  0.17270423522E+03  0.19800346201E+03  0.77000000000E+02 0.  0.
<mgrwt>
<rscale>  0 0.19730473E+03</rscale>
<asrwt>0</asrwt>
<pdfrwt beam="1">  1        2 0.48089133E-02 0.19730473E+03</pdfrwt>
<pdfrwt beam="2">  1       -2 0.47900641E-01 0.19730473E+03</pdfrwt>
<totfact> 0.67382369E+03</totfact>
</mgrwt>
</event>
<event>
 4    1  0.1171488E-003  0.3374281E+03  0.7818608E-02  0.1067897E+00
          2   -1    0    0  501    0  0.00000000000E+00  0.00000000000E+00  0.17424080407E+04  0.17424080407E+04  0.25500000000E-02 0.  1.
         -2   -1    0    0    0  501 -0.00000000000E+00 -0.00000000000E+00 -0.16336259803E+02  0.16336260002E+02  0.25500000000E-02 0. -1.
    5000001    1    1    2    0    0 -0.13046373149E+03 -0.57231586123E+02  0.61639389806E+03  0.63731207210E+03  0.77000000000E+02 0.  0.
   -5000001    1    1    2    0    0  0.13046373149E+03  0.57231586123E+02  0.11096778829E+04  0.11214322286E+04  0.77000000000E+02 0.  0.
<mgrwt>
<rscale>  0 0.33742810E+03</rscale>
<asrwt>0</asrwt>
<pdfrwt beam="1">  1        2 0.26806282E+00 0.33742810E+03</pdfrwt>
<pdfrwt beam="2">  1       -2 0.25132703E-02 0.33742810E+03</pdfrwt>
<totfact> 0.56016299E+03</totfact>
</mgrwt>
</event>
<event>
 4    1  0.1171488E-003  0.2378088E+03  0.7818608E-02  0.1121261E+00
         -2   -1    0    0    0  501 -0.00000000000E+00  0.00000000000E+00  0.15833487998E+02  0.15833488204E+02  0.25500000000E-02 0. -1.
          2   -1    0    0  501    0  0.00000000000E+00 -0.00000000000E+00 -0.89293349381E+03  0.89293349381E+03  0.25500000000E-02 0.  1.
    5000001    1    1    2    0    0 -0.51847358123E+02 -0.73824472538E+02 -0.47076131737E+03  0.48547236710E+03  0.77000000000E+02 0.  0.
   -5000001    1    1    2    0    0  0.51847358123E+02  0.73824472538E+02 -0.40633868844E+03  0.42329461491E+03  0.77000000000E+02 0.  0.
<mgrwt>
<rscale>  0 0.23780876E+03</rscale>
<asrwt>0</asrwt>
<pdfrwt beam="1">  1        2 0.13737434E+00 0.23780876E+03</pdfrwt>
<pdfrwt beam="2">  1       -2 0.24359219E-02 0.23780876E+03</pdfrwt>
<totfact> 0.17536512E+04</totfact>
</mgrwt>
</event>
<event>
 4    1  0.1171488E-003  0.3634299E+03  0.7818608E-02  0.1057234E+00
         -2   -1    0    0    0  501 -0.00000000000E+00  0.00000000000E+00  0.16735865396E+02  0.16735865590E+02  0.25500000000E-02 0. -1.
          2   -1    0    0  501    0  0.00000000000E+00 -0.00000000000E+00 -0.19730279114E+04  0.19730279114E+04  0.25500000000E-02 0.  1.
    5000001    1    1    2    0    0  0.21813502770E+02  0.15293046371E+03 -0.66709445943E+03  0.68906282256E+03  0.77000000000E+02 0.  0.
   -5000001    1    1    2    0    0 -0.21813502770E+02 -0.15293046371E+03 -0.12891975866E+04  0.13007009545E+04  0.77000000000E+02 0.  0.
<mgrwt>
<rscale>  0 0.36342994E+03</rscale>
<asrwt>0</asrwt>
<pdfrwt beam="1">  1        2 0.30354257E+00 0.36342994E+03</pdfrwt>
<pdfrwt beam="2">  1       -2 0.25747501E-02 0.36342994E+03</pdfrwt>
<totfact> 0.40762726E+03</totfact>
</mgrwt>
</event>
<event>
 4    1  0.1171488E-003  0.3102021E+03  0.7818608E-02  0.1080249E+00
          2   -1    0    0  501    0  0.00000000000E+00  0.00000000000E+00  0.58809355399E+03  0.58809355400E+03  0.25500000000E-02 0.  1.
         -2   -1    0    0    0  501 -0.00000000000E+00 -0.00000000000E+00 -0.40905626659E+02  0.40905626739E+02  0.25500000000E-02 0. -1.
    5000001    1    1    2    0    0  0.13061714584E+03  0.25283726474E+02  0.23168218369E+03  0.27803909771E+03  0.77000000000E+02 0.  0.
   -5000001    1    1    2    0    0 -0.13061714584E+03 -0.25283726474E+02  0.31550574364E+03  0.35096008303E+03  0.77000000000E+02 0.  0.
<mgrwt>
<rscale>  0 0.31020210E+03</rscale>
<asrwt>0</asrwt>
<pdfrwt beam="1">  1        2 0.90475929E-01 0.31020210E+03</pdfrwt>
<pdfrwt beam="2">  1       -2 0.62931735E-02 0.31020210E+03</pdfrwt>
<totfact> 0.71050592E+03</totfact>
</mgrwt>
</event>
<event>
 4    1  0.1171488E-003  0.2015365E+03  0.7818608E-02  0.1148449E+00
         -2   -1    0    0    0  501 -0.00000000000E+00  0.00000000000E+00  0.31210732324E+03  0.31210732325E+03  0.25500000000E-02 0. -1.
          2   -1    0    0  501    0  0.00000000000E+00 -0.00000000000E+00 -0.32534438440E+02  0.32534438540E+02  0.25500000000E-02 0.  1.
    5000001    1    1    2    0    0 -0.64771746071E+02 -0.37579638701E+01  0.14656987420E+03  0.17782359069E+03  0.77000000000E+02 0.  0.
   -5000001    1    1    2    0    0  0.64771746071E+02  0.37579638701E+01  0.13300301060E+03  0.16681817110E+03  0.77000000000E+02 0.  0.
<mgrwt>
<rscale>  0 0.20153646E+03</rscale>
<asrwt>0</asrwt>
<pdfrwt beam="1">  1        2 0.50052981E-02 0.20153646E+03</pdfrwt>
<pdfrwt beam="2">  1       -2 0.48016513E-01 0.20153646E+03</pdfrwt>
<totfact> 0.63704599E+03</totfact>
</mgrwt>
</event>
<event>
 4    1  0.1171488E-003  0.4077713E+03  0.7818608E-02  0.1041121E+00
         -2   -1    0    0    0  501 -0.00000000000E+00  0.00000000000E+00  0.12131841220E+03  0.12131841223E+03  0.25500000000E-02 0. -1.
          2   -1    0    0  501    0  0.00000000000E+00 -0.00000000000E+00 -0.34264679551E+03  0.34264679552E+03  0.25500000000E-02 0.  1.
    5000001    1    1    2    0    0 -0.13702111088E+03  0.14404062891E+02  0.36188360496E+02  0.16192856230E+03  0.77000000000E+02 0.  0.
   -5000001    1    1    2    0    0  0.13702111088E+03 -0.14404062891E+02 -0.25751674380E+03  0.30203664545E+03  0.77000000000E+02 0.  0.
<mgrwt>
<rscale>  0 0.40777133E+03</rscale>
<asrwt>0</asrwt>
<pdfrwt beam="1">  1        2 0.52714891E-01 0.40777133E+03</pdfrwt>
<pdfrwt beam="2">  1       -2 0.18664371E-01 0.40777133E+03</pdfrwt>
<totfact> 0.22535706E+03</totfact>
</mgrwt>
</event>
<event>
 4    1  0.1171488E-003  0.1975040E+03  0.7818608E-02  0.1151862E+00
         -2   -1    0    0    0  501 -0.00000000000E+00  0.00000000000E+00  0.64982238082E+01  0.64982243086E+01  0.25500000000E-02 0. -1.
          2   -1    0    0  501    0  0.00000000000E+00 -0.00000000000E+00 -0.15007115508E+04  0.15007115508E+04  0.25500000000E-02 0.  1.
    5000001    1    1    2    0    0 -0.46062315310E+02 -0.14471904584E+02 -0.10418548631E+04  0.10458115168E+04  0.77000000000E+02 0.  0.
   -5000001    1    1    2    0    0  0.46062315310E+02  0.14471904584E+02 -0.45235846388E+03  0.46139825829E+03  0.77000000000E+02 0.  0.
<mgrwt>
<rscale>  0 0.19750402E+03</rscale>
<asrwt>0</asrwt>
<pdfrwt beam="1">  1        2 0.23087842E+00 0.19750402E+03</pdfrwt>
<pdfrwt beam="2">  1       -2 0.99972797E-03 0.19750402E+03</pdfrwt>
<totfact> 0.28564143E+04</totfact>
</mgrwt>
</event>
<event>
 4    1  0.1171488E-003  0.2497042E+03  0.7818608E-02  0.1113492E+00
         -2   -1    0    0    0  501 -0.00000000000E+00  0.00000000000E+00  0.27104088300E+02  0.27104088420E+02  0.25500000000E-02 0. -1.
          2   -1    0    0  501    0  0.00000000000E+00 -0.00000000000E+00 -0.57511807511E+03  0.57511807511E+03  0.25500000000E-02 0.  1.
    5000001    1    1    2    0    0  0.62438742621E+02  0.71156814507E+02 -0.21032776762E+03  0.24316385147E+03  0.77000000000E+02 0.  0.
   -5000001    1    1    2    0    0 -0.62438742621E+02 -0.71156814507E+02 -0.33768621919E+03  0.35905831206E+03  0.77000000000E+02 0.  0.
<mgrwt>
<rscale>  0 0.24970423E+03</rscale>
<asrwt>0</asrwt>
<pdfrwt beam="1">  1        2 0.88479694E-01 0.24970423E+03</pdfrwt>
<pdfrwt beam="2">  1       -2 0.41698602E-02 0.24970423E+03</pdfrwt>
<totfact> 0.13534827E+04</totfact>
</mgrwt>
</event>
<event>
 4    1  0.1171488E-003  0.2036288E+03  0.7818608E-02  0.1146713E+00
          2   -1    0    0  501    0  0.00000000000E+00  0.00000000000E+00  0.19334118442E+03  0.19334118444E+03  0.25500000000E-02 0.  1.
         -2   -1    0    0    0  501 -0.00000000000E+00 -0.00000000000E+00 -0.53615938604E+02  0.53615938665E+02  0.25500000000E-02 0. -1.
    5000001    1    1    2    0    0 -0.52431856356E+02 -0.38308898226E+02  0.51853830739E+02  0.11328941260E+03  0.77000000000E+02 0.  0.
   -5000001    1    1    2    0    0  0.52431856356E+02  0.38308898226E+02  0.87871415077E+02  0.13366771051E+03  0.77000000000E+02 0.  0.
<mgrwt>
<rscale>  0 0.20362877E+03</rscale>
<asrwt>0</asrwt>
<pdfrwt beam="1">  1        2 0.29744798E-01 0.20362877E+03</pdfrwt>
<pdfrwt beam="2">  1       -2 0.82486059E-02 0.20362877E+03</pdfrwt>
<totfact> 0.15434031E+04</totfact>
</mgrwt>
</event>
<event>
 4    1  0.1171488E-003  0.2521154E+03  0.7818608E-02  0.1111975E+00
          2   -1    0    0  501    0  0.00000000000E+00  0.00000000000E+00  0.67524314890E+03  0.67524314890E+03  0.25500000000E-02 0.  1.
         -2   -1    0    0    0  501 -0.00000000000E+00 -0.00000000000E+00 -0.23533072818E+02  0.23533072957E+02  0.25500000000E-02 0. -1.
    5000001    1    1    2    0    0  0.56810630980E+02  0.81871070834E+02  0.31036693049E+03  0.33494320649E+03  0.77000000000E+02 0.  0.
   -5000001    1    1    2    0    0 -0.56810630980E+02 -0.81871070834E+02  0.34134314558E+03  0.36383301536E+03  0.77000000000E+02 0.  0.
<mgrwt>
<rscale>  0 0.25211542E+03</rscale>
<asrwt>0</asrwt>
<pdfrwt beam="1">  1        2 0.10388355E+00 0.25211542E+03</pdfrwt>
<pdfrwt beam="2">  1       -2 0.36204730E-02 0.25211542E+03</pdfrwt>
<totfact> 0.13870398E+04</totfact>
</mgrwt>
</event>
<event>
 4    1  0.1171488E-003  0.2570704E+03  0.7818608E-02  0.1108916E+00
         -2   -1    0    0    0  501 -0.00000000000E+00  0.00000000000E+00  0.17414746919E+02  0.17414747106E+02  0.25500000000E-02 0. -1.
          2   -1    0    0  501    0  0.00000000000E+00 -0.00000000000E+00 -0.94869588737E+03  0.94869588738E+03  0.25500000000E-02 0.  1.
    5000001    1    1    2    0    0 -0.94452607408E+02 -0.35427772955E+02 -0.54228085042E+03  0.55693261969E+03  0.77000000000E+02 0.  0.
   -5000001    1    1    2    0    0  0.94452607408E+02  0.35427772955E+02 -0.38900029003E+03  0.40917801479E+03  0.77000000000E+02 0.  0.
<mgrwt>
<rscale>  0 0.25707041E+03</rscale>
<asrwt>0</asrwt>
<pdfrwt beam="1">  1        2 0.14595317E+00 0.25707041E+03</pdfrwt>
<pdfrwt beam="2">  1       -2 0.26791926E-02 0.25707041E+03</pdfrwt>
<totfact> 0.14087719E+04</totfact>
</mgrwt>
</event>
<event>
 4    1  0.1171488E-003  0.2316149E+03  0.7818608E-02  0.1125508E+00
         -2   -1    0    0    0  501 -0.00000000000E+00  0.00000000000E+00  0.25510592641E+04  0.25510592642E+04  0.25500000000E-02 0. -1.
          2   -1    0    0  501    0  0.00000000000E+00 -0.00000000000E+00 -0.52571763985E+01  0.52571770169E+01  0.25500000000E-02 0.  1.
    5000001    1    1    2    0    0  0.38903455815E+02 -0.76375516524E+02  0.14014567878E+04  0.14061852034E+04  0.77000000000E+02 0.  0.
   -5000001    1    1    2    0    0 -0.38903455815E+02  0.76375516524E+02  0.11443453000E+04  0.11501312377E+04  0.77000000000E+02 0.  0.
<mgrwt>
<rscale>  0 0.23161493E+03</rscale>
<asrwt>0</asrwt>
<pdfrwt beam="1">  1        2 0.80879767E-03 0.23161493E+03</pdfrwt>
<pdfrwt beam="2">  1       -2 0.39247005E+00 0.23161493E+03</pdfrwt>
<totfact> 0.19646061E+02</totfact>
</mgrwt>
</event>
<event>
 4    1  0.1171488E-003  0.1790199E+03  0.7818608E-02  0.1168755E+00
          2   -1    0    0  501    0  0.00000000000E+00  0.00000000000E+00  0.18575498618E+04  0.18575498618E+04  0.25500000000E-02 0.  1.
         -2   -1    0    0    0  501 -0.00000000000E+00 -0.00000000000E+00 -0.43132256620E+01  0.43132264158E+01  0.25500000000E-02 0. -1.
    5000001    1    1    2    0    0  0.16090056363E+02  0.42513081450E+02  0.88401456003E+03  0.88852517936E+03  0.77000000000E+02 0.  0.
   -5000001    1    1    2    0    0 -0.16090056363E+02 -0.42513081450E+02  0.96922207614E+03  0.97333790890E+03  0.77000000000E+02 0.  0.
<mgrwt>
<rscale>  0 0.17901991E+03</rscale>
<asrwt>0</asrwt>
<pdfrwt beam="1">  1        2 0.28577692E+00 0.17901991E+03</pdfrwt>
<pdfrwt beam="2">  1       -2 0.66357319E-03 0.17901991E+03</pdfrwt>
<totfact> 0.33357598E+04</totfact>
</mgrwt>
</event>
<event>
 4    1  0.1171488E-003  0.4668775E+03  0.7818608E-02  0.1022805E+00
          2   -1    0    0  501    0  0.00000000000E+00  0.00000000000E+00  0.18511535734E+04  0.18511535734E+04  0.25500000000E-02 0.  1.
         -2   -1    0    0    0  501 -0.00000000000E+00 -0.00000000000E+00 -0.29437672894E+02  0.29437673005E+02  0.25500000000E-02 0. -1.
    5000001    1    1    2    0    0  0.13767522871E+03  0.16047815686E+03  0.66070061982E+03  0.69796992518E+03  0.77000000000E+02 0.  0.
   -5000001    1    1    2    0    0 -0.13767522871E+03 -0.16047815686E+03  0.11610152807E+04  0.11826213213E+04  0.77000000000E+02 0.  0.
<mgrwt>
<rscale>  0 0.46687751E+03</rscale>
<asrwt>0</asrwt>
<pdfrwt beam="1">  1        2 0.28479282E+00 0.46687751E+03</pdfrwt>
<pdfrwt beam="2">  1       -2 0.45288733E-02 0.46687751E+03</pdfrwt>
<totfact> 0.20065193E+03</totfact>
</mgrwt>
</event>
<event>
 4    1  0.1171488E-003  0.3340405E+03  0.7818608E-02  0.1069363E+00
          2   -1    0    0  501    0  0.00000000000E+00  0.00000000000E+00  0.34768341899E+04  0.34768341899E+04  0.25500000000E-02 0.  1.
         -2   -1    0    0    0  501 -0.00000000000E+00 -0.00000000000E+00 -0.80233240890E+01  0.80233244942E+01  0.25500000000E-02 0. -1.
    5000001    1    1    2    0    0  0.14807935472E+03 -0.96640855570E+00  0.16698093584E+04  0.16781301268E+04  0.77000000000E+02 0.  0.
   -5000001    1    1    2    0    0 -0.14807935472E+03  0.96640855570E+00  0.17990015074E+04  0.18067273875E+04  0.77000000000E+02 0.  0.
<mgrwt>
<rscale>  0 0.33404053E+03</rscale>
<asrwt>0</asrwt>
<pdfrwt beam="1">  1        2 0.53489655E+00 0.33404053E+03</pdfrwt>
<pdfrwt beam="2">  1       -2 0.12343599E-02 0.33404053E+03</pdfrwt>
<totfact> 0.16327835E+03</totfact>
</mgrwt>
</event>
<event>
 4    1  0.1171488E-003  0.2042901E+03  0.7818608E-02  0.1146169E+00
          2   -1    0    0  501    0  0.00000000000E+00  0.00000000000E+00  0.17521425152E+04  0.17521425152E+04  0.25500000000E-02 0.  1.
         -2   -1    0    0    0  501 -0.00000000000E+00 -0.00000000000E+00 -0.59547704518E+01  0.59547709978E+01  0.25500000000E-02 0. -1.
    5000001    1    1    2    0    0  0.46968670172E+02 -0.47833570715E+02  0.84520695428E+03  0.85135063401E+03  0.77000000000E+02 0.  0.
   -5000001    1    1    2    0    0 -0.46968670172E+02  0.47833570715E+02  0.90098079045E+03  0.90674665218E+03  0.77000000000E+02 0.  0.
<mgrwt>
<rscale>  0 0.20429006E+03</rscale>
<asrwt>0</asrwt>
<pdfrwt beam="1">  1        2 0.26956020E+00 0.20429006E+03</pdfrwt>
<pdfrwt beam="2">  1       -2 0.91611922E-03 0.20429006E+03</pdfrwt>
<totfact> 0.23968587E+04</totfact>
</mgrwt>
</event>
<event>
 4    1  0.1171488E-003  0.1907233E+03  0.7818608E-02  0.1157811E+00
         -2   -1    0    0    0  501 -0.00000000000E+00  0.00000000000E+00  0.43597253624E+02  0.43597253699E+02  0.25500000000E-02 0. -1.
          2   -1    0    0  501    0  0.00000000000E+00 -0.00000000000E+00 -0.20858751983E+03  0.20858751985E+03  0.25500000000E-02 0.  1.
    5000001    1    1    2    0    0  0.50191249404E+02 -0.11692666461E+02 -0.11232547744E+03  0.14560869771E+03  0.77000000000E+02 0.  0.
   -5000001    1    1    2    0    0 -0.50191249404E+02  0.11692666461E+02 -0.52664788771E+02  0.10657607584E+03  0.77000000000E+02 0.  0.
<mgrwt>
<rscale>  0 0.19072329E+03</rscale>
<asrwt>0</asrwt>
<pdfrwt beam="1">  1        2 0.32090387E-01 0.19072329E+03</pdfrwt>
<pdfrwt beam="2">  1       -2 0.67072699E-02 0.19072329E+03</pdfrwt>
<totfact> 0.19475214E+04</totfact>
</mgrwt>
</event>
<event>
 4    1  0.1171488E-003  0.5609175E+03  0.7818608E-02  0.9989981E-01
         -2   -1    0    0    0  501 -0.00000000000E+00  0.00000000000E+00  0.20667438894E+03  0.20667438895E+03  0.25500000000E-02 0. -1.
          2   -1    0    0  501    0  0.00000000000E+00 -0.00000000000E+00 -0.38058463547E+03  0.38058463548E+03  0.25500000000E-02 0.  1.
    5000001    1    1    2    0    0 -0.21262585255E+03 -0.16281256804E+03 -0.12023486032E+03  0.30348493722E+03  0.77000000000E+02 0.  0.
   -5000001    1    1    2    0    0  0.21262585255E+03  0.16281256804E+03 -0.53675386213E+02  0.28377408721E+03  0.77000000000E+02 0.  0.
<mgrwt>
<rscale>  0 0.56091745E+03</rscale>
<asrwt>0</asrwt>
<pdfrwt beam="1">  1        2 0.58551482E-01 0.56091745E+03</pdfrwt>
<pdfrwt beam="2">  1       -2 0.31796060E-01 0.56091745E+03</pdfrwt>
<totfact> 0.77686447E+02</totfact>
</mgrwt>
</event>
<event>
 4    1  0.1171488E-003  0.3233366E+03  0.7818608E-02  0.1074124E+00
          2   -1    0    0  501    0  0.00000000000E+00  0.00000000000E+00  0.20835084029E+03  0.20835084031E+03  0.25500000000E-02 0.  1.
         -2   -1    0    0    0  501 -0.00000000000E+00 -0.00000000000E+00 -0.12544535871E+03  0.12544535873E+03  0.25500000000E-02 0. -1.
    5000001    1    1    2    0    0 -0.20965993881E+02  0.12074428128E+03 -0.32911433651E+02  0.14842815375E+03  0.77000000000E+02 0.  0.
   -5000001    1    1    2    0    0  0.20965993881E+02 -0.12074428128E+03  0.11581691523E+03  0.18536804529E+03  0.77000000000E+02 0.  0.
<mgrwt>
<rscale>  0 0.32333664E+03</rscale>
<asrwt>0</asrwt>
<pdfrwt beam="1">  1        2 0.32053975E-01 0.32333664E+03</pdfrwt>
<pdfrwt beam="2">  1       -2 0.19299286E-01 0.32333664E+03</pdfrwt>
<totfact> 0.36461182E+03</totfact>
</mgrwt>
</event>
<event>
 4    1  0.1171488E-003  0.2169071E+03  0.7818608E-02  0.1136210E+00
          2   -1    0    0  501    0  0.00000000000E+00  0.00000000000E+00  0.18843733325E+03  0.18843733326E+03  0.25500000000E-02 0.  1.
         -2   -1    0    0    0  501 -0.00000000000E+00 -0.00000000000E+00 -0.62419518315E+02  0.62419518367E+02  0.25500000000E-02 0. -1.
    5000001    1    1    2    0    0  0.47599277813E+02 -0.56621612546E+02  0.41020791667E+02  0.11438270676E+03  0.77000000000E+02 0.  0.
   -5000001    1    1    2    0    0 -0.47599277813E+02  0.56621612546E+02  0.84997023266E+02  0.13647414488E+03  0.77000000000E+02 0.  0.
<mgrwt>
<rscale>  0 0.21690705E+03</rscale>
<asrwt>0</asrwt>
<pdfrwt beam="1">  1        2 0.28990359E-01 0.21690705E+03</pdfrwt>
<pdfrwt beam="2">  1       -2 0.96030028E-02 0.21690705E+03</pdfrwt>
<totfact> 0.12558374E+04</totfact>
</mgrwt>
</event>
<event>
 4    1  0.1171488E-003  0.2299754E+03  0.7818608E-02  0.1126657E+00
         -2   -1    0    0    0  501 -0.00000000000E+00  0.00000000000E+00  0.95717673568E+02  0.95717673602E+02  0.25500000000E-02 0. -1.
          2   -1    0    0  501    0  0.00000000000E+00 -0.00000000000E+00 -0.13813718617E+03  0.13813718619E+03  0.25500000000E-02 0.  1.
    5000001    1    1    2    0    0 -0.50982408744E+02 -0.68245178304E+02 -0.15061293312E+02  0.11581214496E+03  0.77000000000E+02 0.  0.
   -5000001    1    1    2    0    0  0.50982408744E+02  0.68245178304E+02 -0.27358219285E+02  0.11804271483E+03  0.77000000000E+02 0.  0.
<mgrwt>
<rscale>  0 0.22997539E+03</rscale>
<asrwt>0</asrwt>
<pdfrwt beam="1">  1        2 0.21251875E-01 0.22997539E+03</pdfrwt>
<pdfrwt beam="2">  1       -2 0.14725796E-01 0.22997539E+03</pdfrwt>
<totfact> 0.89509688E+03</totfact>
</mgrwt>
</event>
<event>
 4    1  0.1171488E-003  0.2479482E+03  0.7818608E-02  0.1114608E+00
         -2   -1    0    0    0  501 -0.00000000000E+00  0.00000000000E+00  0.74769988367E+01  0.74769992715E+01  0.25500000000E-02 0. -1.
          2   -1    0    0  501    0  0.00000000000E+00 -0.00000000000E+00 -0.20555808354E+04  0.20555808354E+04  0.25500000000E-02 0.  1.
    5000001    1    1    2    0    0 -0.10009747739E+02 -0.81937299991E+02 -0.59761737555E+03  0.60818536955E+03  0.77000000000E+02 0.  0.
   -5000001    1    1    2    0    0  0.10009747739E+02  0.81937299991E+02 -0.14504864610E+04  0.14548724651E+04  0.77000000000E+02 0.  0.
<mgrwt>
<rscale>  0 0.24794819E+03</rscale>
<asrwt>0</asrwt>
<pdfrwt beam="1">  1        2 0.31624275E+00 0.24794819E+03</pdfrwt>
<pdfrwt beam="2">  1       -2 0.11503092E-02 0.24794819E+03</pdfrwt>
<totfact> 0.12050126E+04</totfact>
</mgrwt>
</event>
<event>
 4    1  0.1171488E-003  0.6297017E+03  0.7818608E-02  0.9845631E-01
         -2   -1    0    0    0  501 -0.00000000000E+00  0.00000000000E+00  0.49431582081E+02  0.49431582146E+02  0.25500000000E-02 0. -1.
          2   -1    0    0  501    0  0.00000000000E+00 -0.00000000000E+00 -0.20054197464E+04  0.20054197464E+04  0.25500000000E-02 0.  1.
    5000001    1    1    2    0    0  0.12506092288E+02 -0.27570892625E+03 -0.55214461746E+03  0.62206470158E+03  0.77000000000E+02 0.  0.
   -5000001    1    1    2    0    0 -0.12506092288E+02  0.27570892625E+03 -0.14038435468E+04  0.14327866269E+04  0.77000000000E+02 0.  0.
<mgrwt>
<rscale>  0 0.62970174E+03</rscale>
<asrwt>0</asrwt>
<pdfrwt beam="1">  1        2 0.30852605E+00 0.62970174E+03</pdfrwt>
<pdfrwt beam="2">  1       -2 0.76048603E-02 0.62970174E+03</pdfrwt>
<totfact> 0.73039138E+02</totfact>
</mgrwt>
</event>
<event>
 4    1  0.1171488E-003  0.3166303E+03  0.7818608E-02  0.1077211E+00
          2   -1    0    0  501    0  0.00000000000E+00  0.00000000000E+00  0.73173572496E+03  0.73173572496E+03  0.25500000000E-02 0.  1.
         -2   -1    0    0    0  501 -0.00000000000E+00 -0.00000000000E+00 -0.34252370358E+02  0.34252370453E+02  0.25500000000E-02 0. -1.
    5000001    1    1    2    0    0 -0.52809691872E+02 -0.76493455336E+02  0.10091279365E+03  0.15732928585E+03  0.77000000000E+02 0.  0.
   -5000001    1    1    2    0    0  0.52809691872E+02  0.76493455336E+02  0.59657056095E+03  0.60865880957E+03  0.77000000000E+02 0.  0.
<mgrwt>
<rscale>  0 0.31663028E+03</rscale>
<asrwt>0</asrwt>
<pdfrwt beam="1">  1        2 0.11257473E+00 0.31663028E+03</pdfrwt>
<pdfrwt beam="2">  1       -2 0.52695953E-02 0.31663028E+03</pdfrwt>
<totfact> 0.71877108E+03</totfact>
</mgrwt>
</event>
<event>
 4    1  0.1171488E-003  0.3470928E+03  0.7818608E-02  0.1063815E+00
         -2   -1    0    0    0  501 -0.00000000000E+00  0.00000000000E+00  0.27257142058E+02  0.27257142177E+02  0.25500000000E-02 0. -1.
          2   -1    0    0  501    0  0.00000000000E+00 -0.00000000000E+00 -0.11049707421E+04  0.11049707421E+04  0.25500000000E-02 0.  1.
    5000001    1    1    2    0    0  0.99301967037E+02  0.10740640888E+03 -0.71123068029E+03  0.73018839892E+03  0.77000000000E+02 0.  0.
   -5000001    1    1    2    0    0 -0.99301967037E+02 -0.10740640888E+03 -0.36648291980E+03  0.40203948541E+03  0.77000000000E+02 0.  0.
<mgrwt>
<rscale>  0 0.34709275E+03</rscale>
<asrwt>0</asrwt>
<pdfrwt beam="1">  1        2 0.16999546E+00 0.34709275E+03</pdfrwt>
<pdfrwt beam="2">  1       -2 0.41934073E-02 0.34709275E+03</pdfrwt>
<totfact> 0.58292402E+03</totfact>
</mgrwt>
</event>
<event>
 4    1  0.1171488E-003  0.1966066E+03  0.7818608E-02  0.1152634E+00
          2   -1    0    0  501    0  0.00000000000E+00  0.00000000000E+00  0.14363183481E+04  0.14363183481E+04  0.25500000000E-02 0.  1.
         -2   -1    0    0    0  501 -0.00000000000E+00 -0.00000000000E+00 -0.67279930374E+01  0.67279935206E+01  0.25500000000E-02 0. -1.
    5000001    1    1    2    0    0  0.46583910358E+02 -0.38887028610E+02  0.76786451931E+03  0.77409765644E+03  0.77000000000E+02 0.  0.
   -5000001    1    1    2    0    0 -0.46583910358E+02  0.38887028610E+02  0.66172583573E+03  0.66894868516E+03  0.77000000000E+02 0.  0.
<mgrwt>
<rscale>  0 0.19660661E+03</rscale>
<asrwt>0</asrwt>
<pdfrwt beam="1">  1        2 0.22097229E+00 0.19660661E+03</pdfrwt>
<pdfrwt beam="2">  1       -2 0.10350748E-02 0.19660661E+03</pdfrwt>
<totfact> 0.29386135E+04</totfact>
</mgrwt>
</event>
<event>
 4    1  0.1171488E-003  0.2372249E+03  0.7818608E-02  0.1121655E+00
         -2   -1    0    0    0  501 -0.00000000000E+00  0.00000000000E+00  0.62439628975E+01  0.62439634182E+01  0.25500000000E-02 0. -1.
          2   -1    0    0  501    0  0.00000000000E+00 -0.00000000000E+00 -0.22532018633E+04  0.22532018633E+04  0.25500000000E-02 0.  1.
    5000001    1    1    2    0    0  0.65296636329E+02  0.60972752325E+02 -0.12434202955E+04  0.12490013445E+04  0.77000000000E+02 0.  0.
   -5000001    1    1    2    0    0 -0.65296636329E+02 -0.60972752325E+02 -0.10035376048E+04  0.10104444822E+04  0.77000000000E+02 0.  0.
<mgrwt>
<rscale>  0 0.23722487E+03</rscale>
<asrwt>0</asrwt>
<pdfrwt beam="1">  1        2 0.34664579E+00 0.23722487E+03</pdfrwt>
<pdfrwt beam="2">  1       -2 0.96061151E-03 0.23722487E+03</pdfrwt>
<totfact> 0.12295900E+04</totfact>
</mgrwt>
</event>
<event>
 4    1  0.1171488E-003  0.2682652E+03  0.7818608E-02  0.1102277E+00
         -2   -1    0    0    0  501 -0.00000000000E+00  0.00000000000E+00  0.20724737528E+02  0.20724737685E+02  0.25500000000E-02 0. -1.
          2   -1    0    0  501    0  0.00000000000E+00 -0.00000000000E+00 -0.86811988892E+03  0.86811988892E+03  0.25500000000E-02 0.  1.
    5000001    1    1    2    0    0 -0.54409740695E+02  0.95404916021E+02 -0.42304301118E+03  0.44379827309E+03  0.77000000000E+02 0.  0.
   -5000001    1    1    2    0    0  0.54409740695E+02 -0.95404916021E+02 -0.42435214020E+03  0.44504635352E+03  0.77000000000E+02 0.  0.
<mgrwt>
<rscale>  0 0.26826522E+03</rscale>
<asrwt>0</asrwt>
<pdfrwt beam="1">  1        2 0.13355688E+00 0.26826522E+03</pdfrwt>
<pdfrwt beam="2">  1       -2 0.31884218E-02 0.26826522E+03</pdfrwt>
<totfact> 0.12274395E+04</totfact>
</mgrwt>
</event>
<event>
 4    1  0.1171488E-003  0.2471621E+03  0.7818608E-02  0.1115112E+00
         -2   -1    0    0    0  501 -0.00000000000E+00  0.00000000000E+00  0.32170717961E+03  0.32170717962E+03  0.25500000000E-02 0. -1.
          2   -1    0    0  501    0  0.00000000000E+00 -0.00000000000E+00 -0.47472593826E+02  0.47472593895E+02  0.25500000000E-02 0.  1.
    5000001    1    1    2    0    0  0.56587573559E+02  0.77576307783E+02  0.15368545724E+03  0.19689707153E+03  0.77000000000E+02 0.  0.
   -5000001    1    1    2    0    0 -0.56587573559E+02 -0.77576307783E+02  0.12054912855E+03  0.17228270199E+03  0.77000000000E+02 0.  0.
<mgrwt>
<rscale>  0 0.24716209E+03</rscale>
<asrwt>0</asrwt>
<pdfrwt beam="1">  1        2 0.73034760E-02 0.24716209E+03</pdfrwt>
<pdfrwt beam="2">  1       -2 0.49493412E-01 0.24716209E+03</pdfrwt>
<totfact> 0.37119197E+03</totfact>
</mgrwt>
</event>
<event>
 4    1  0.1171488E-003  0.3094164E+03  0.7818608E-02  0.1080626E+00
          2   -1    0    0  501    0  0.00000000000E+00  0.00000000000E+00  0.17200476622E+03  0.17200476624E+03  0.25500000000E-02 0.  1.
         -2   -1    0    0    0  501 -0.00000000000E+00 -0.00000000000E+00 -0.13915098315E+03  0.13915098317E+03  0.25500000000E-02 0. -1.
    5000001    1    1    2    0    0  0.11227608028E+03  0.45831347867E+02  0.74188447925E+02  0.16167670350E+03  0.77000000000E+02 0.  0.
   -5000001    1    1    2    0    0 -0.11227608028E+03 -0.45831347867E+02 -0.41334664848E+02  0.14947904591E+03  0.77000000000E+02 0.  0.
<mgrwt>
<rscale>  0 0.30941643E+03</rscale>
<asrwt>0</asrwt>
<pdfrwt beam="1">  1        2 0.26462272E-01 0.30941643E+03</pdfrwt>
<pdfrwt beam="2">  1       -2 0.21407844E-01 0.30941643E+03</pdfrwt>
<totfact> 0.37665342E+03</totfact>
</mgrwt>
</event>
<event>
 4    1  0.1171488E-003  0.2168735E+03  0.7818608E-02  0.1136236E+00
         -2   -1    0    0    0  501 -0.00000000000E+00  0.00000000000E+00  0.84604207116E+01  0.84604210958E+01  0.25500000000E-02 0. -1.
          2   -1    0    0  501    0  0.00000000000E+00 -0.00000000000E+00 -0.13898272874E+04  0.13898272875E+04  0.25500000000E-02 0.  1.
    5000001    1    1    2    0    0  0.53176874656E+02 -0.30767529357E+02 -0.39839815835E+03  0.41039555729E+03  0.77000000000E+02 0.  0.
   -5000001    1    1    2    0    0 -0.53176874656E+02  0.30767529357E+02 -0.98296870838E+03  0.98789215126E+03  0.77000000000E+02 0.  0.
<mgrwt>
<rscale>  0 0.21687345E+03</rscale>
<asrwt>0</asrwt>
<pdfrwt beam="1">  1        2 0.21381940E+00 0.21687345E+03</pdfrwt>
<pdfrwt beam="2">  1       -2 0.13016043E-02 0.21687345E+03</pdfrwt>
<totfact> 0.22458619E+04</totfact>
</mgrwt>
</event>
<event>
 4    1  0.1171488E-003  0.2317679E+03  0.7818608E-02  0.1125402E+00
          2   -1    0    0  501    0  0.00000000000E+00  0.00000000000E+00  0.13862318154E+04  0.13862318154E+04  0.25500000000E-02 0.  1.
         -2   -1    0    0    0  501 -0.00000000000E+00 -0.00000000000E+00 -0.96874767036E+01  0.96874770392E+01  0.25500000000E-02 0. -1.
    5000001    1    1    2    0    0 -0.82250756321E+02  0.23301877560E+02  0.77171172041E+03  0.78024108058E+03  0.77000000000E+02 0.  0.
   -5000001    1    1    2    0    0  0.82250756321E+02 -0.23301877560E+02  0.60483261832E+03  0.61567821189E+03  0.77000000000E+02 0.  0.
<mgrwt>
<rscale>  0 0.23176789E+03</rscale>
<asrwt>0</asrwt>
<pdfrwt beam="1">  1        2 0.21326647E+00 0.23176789E+03</pdfrwt>
<pdfrwt beam="2">  1       -2 0.14903808E-02 0.23176789E+03</pdfrwt>
<totfact> 0.18582473E+04</totfact>
</mgrwt>
</event>
<event>
 4    1  0.1171488E-003  0.2454188E+03  0.7818608E-02  0.1116235E+00
          2   -1    0    0  501    0  0.00000000000E+00  0.00000000000E+00  0.34898678263E+03  0.34898678264E+03  0.25500000000E-02 0.  1.
         -2   -1    0    0    0  501 -0.00000000000E+00 -0.00000000000E+00 -0.43146624543E+02  0.43146624619E+02  0.25500000000E-02 0. -1.
    5000001    1    1    2    0    0  0.84923901037E+02 -0.34787519383E+02  0.11045427314E+03  0.16294596321E+03  0.77000000000E+02 0.  0.
   -5000001    1    1    2    0    0 -0.84923901037E+02  0.34787519383E+02  0.19538588495E+03  0.22918744405E+03  0.77000000000E+02 0.  0.
<mgrwt>
<rscale>  0 0.24541884E+03</rscale>
<asrwt>0</asrwt>
<pdfrwt beam="1">  1        2 0.53690275E-01 0.24541884E+03</pdfrwt>
<pdfrwt beam="2">  1       -2 0.66379421E-02 0.24541884E+03</pdfrwt>
<totfact> 0.11562584E+04</totfact>
</mgrwt>
</event>
<event>
 4    1  0.1171488E-003  0.3672637E+03  0.7818608E-02  0.1055744E+00
         -2   -1    0    0    0  501 -0.00000000000E+00  0.00000000000E+00  0.14775124663E+02  0.14775124883E+02  0.25500000000E-02 0. -1.
          2   -1    0    0  501    0  0.00000000000E+00 -0.00000000000E+00 -0.22822585981E+04  0.22822585981E+04  0.25500000000E-02 0.  1.
    5000001    1    1    2    0    0  0.14784448817E+03  0.68041743474E+02 -0.90788892308E+03  0.92556953719E+03  0.77000000000E+02 0.  0.
   -5000001    1    1    2    0    0 -0.14784448817E+03 -0.68041743474E+02 -0.13595945503E+04  0.13714641858E+04  0.77000000000E+02 0.  0.
<mgrwt>
<rscale>  0 0.36726370E+03</rscale>
<asrwt>0</asrwt>
<pdfrwt beam="1">  1        2 0.35111643E+00 0.36726370E+03</pdfrwt>
<pdfrwt beam="2">  1       -2 0.22730979E-02 0.36726370E+03</pdfrwt>
<totfact> 0.33520781E+03</totfact>
</mgrwt>
</event>
<event>
 4    1  0.1171488E-003  0.2717135E+03  0.7818608E-02  0.1100303E+00
         -2   -1    0    0    0  501 -0.00000000000E+00  0.00000000000E+00  0.46968403281E+02  0.46968403350E+02  0.25500000000E-02 0. -1.
          2   -1    0    0  501    0  0.00000000000E+00 -0.00000000000E+00 -0.39296765068E+03  0.39296765069E+03  0.25500000000E-02 0.  1.
    5000001    1    1    2    0    0 -0.79043800951E+02 -0.77707961921E+02 -0.14783220491E+03  0.20017445048E+03  0.77000000000E+02 0.  0.
   -5000001    1    1    2    0    0  0.79043800951E+02  0.77707961921E+02 -0.19816704249E+03  0.23976160357E+03  0.77000000000E+02 0.  0.
<mgrwt>
<rscale>  0 0.27171355E+03</rscale>
<asrwt>0</asrwt>
<pdfrwt beam="1">  1        2 0.60456560E-01 0.27171355E+03</pdfrwt>
<pdfrwt beam="2">  1       -2 0.72259085E-02 0.27171355E+03</pdfrwt>
<totfact> 0.89606213E+03</totfact>
</mgrwt>
</event>
<event>
 4    1  0.1171488E-003  0.1910436E+03  0.7818608E-02  0.1157523E+00
         -2   -1    0    0    0  501 -0.00000000000E+00  0.00000000000E+00  0.22465699848E+02  0.22465699993E+02  0.25500000000E-02 0. -1.
          2   -1    0    0  501    0  0.00000000000E+00 -0.00000000000E+00 -0.40614877737E+03  0.40614877738E+03  0.25500000000E-02 0.  1.
    5000001    1    1    2    0    0  0.60883737780E+00 -0.46324097029E+02 -0.26451028730E+03  0.27935816569E+03  0.77000000000E+02 0.  0.
   -5000001    1    1    2    0    0 -0.60883737780E+00  0.46324097029E+02 -0.11917279022E+03  0.14925631169E+03  0.77000000000E+02 0.  0.
<mgrwt>
<rscale>  0 0.19104362E+03</rscale>
<asrwt>0</asrwt>
<pdfrwt beam="1">  1        2 0.62484422E-01 0.19104362E+03</pdfrwt>
<pdfrwt beam="2">  1       -2 0.34562618E-02 0.19104362E+03</pdfrwt>
<totfact> 0.25911604E+04</totfact>
</mgrwt>
</event>
<event>
 4    1  0.1171488E-003  0.2844019E+03  0.7818608E-02  0.1093309E+00
          2   -1    0    0  501    0  0.00000000000E+00  0.00000000000E+00  0.34770924651E+03  0.34770924652E+03  0.25500000000E-02 0.  1.
         -2   -1    0    0    0  501 -0.00000000000E+00 -0.00000000000E+00 -0.58155239274E+02  0.58155239330E+02  0.25500000000E-02 0. -1.
    5000001    1    1    2    0    0 -0.76313467044E+02 -0.91971193114E+02  0.14921447333E+03  0.20609804625E+03  0.77000000000E+02 0.  0.
   -5000001    1    1    2    0    0  0.76313467044E+02  0.91971193114E+02  0.14033953390E+03  0.19976643960E+03  0.77000000000E+02 0.  0.
<mgrwt>
<rscale>  0 0.28440193E+03</rscale>
<asrwt>0</asrwt>
<pdfrwt beam="1">  1        2 0.53493730E-01 0.28440193E+03</pdfrwt>
<pdfrwt beam="2">  1       -2 0.89469600E-02 0.28440193E+03</pdfrwt>
<totfact> 0.73372060E+03</totfact>
</mgrwt>
</event>
<event>
 4    1  0.1171488E-003  0.2580461E+03  0.7818608E-02  0.1108323E+00
         -2   -1    0    0    0  501 -0.00000000000E+00  0.00000000000E+00  0.26888474101E+03  0.26888474102E+03  0.25500000000E-02 0. -1.
          2   -1    0    0  501    0  0.00000000000E+00 -0.00000000000E+00 -0.61911086916E+02  0.61911086968E+02  0.25500000000E-02 0.  1.
    5000001    1    1    2    0    0 -0.69555530739E+02 -0.76373902945E+02  0.11227542098E+03  0.17089679653E+03  0.77000000000E+02 0.  0.
   -5000001    1    1    2    0    0  0.69555530739E+02  0.76373902945E+02  0.94698233111E+02  0.15989903146E+03  0.77000000000E+02 0.  0.
<mgrwt>
<rscale>  0 0.25804609E+03</rscale>
<asrwt>0</asrwt>
<pdfrwt beam="1">  1        2 0.95247826E-02 0.25804609E+03</pdfrwt>
<pdfrwt beam="2">  1       -2 0.41366883E-01 0.25804609E+03</pdfrwt>
<totfact> 0.37732769E+03</totfact>
</mgrwt>
</event>
<event>
 4    1  0.1171488E-003  0.2650808E+03  0.7818608E-02  0.1104128E+00
         -2   -1    0    0    0  501 -0.00000000000E+00  0.00000000000E+00  0.14168817103E+03  0.14168817106E+03  0.25500000000E-02 0. -1.
          2   -1    0    0  501    0  0.00000000000E+00 -0.00000000000E+00 -0.12398324492E+03  0.12398324494E+03  0.25500000000E-02 0.  1.
    5000001    1    1    2    0    0  0.38130268548E+02  0.46282816445E+02  0.98729144126E+02  0.13882528724E+03  0.77000000000E+02 0.  0.
   -5000001    1    1    2    0    0 -0.38130268548E+02 -0.46282816445E+02 -0.81024218008E+02  0.12684612876E+03  0.77000000000E+02 0.  0.
<mgrwt>
<rscale>  0 0.26508081E+03</rscale>
<asrwt>0</asrwt>
<pdfrwt beam="1">  1        2 0.19074346E-01 0.26508081E+03</pdfrwt>
<pdfrwt beam="2">  1       -2 0.21798180E-01 0.26508081E+03</pdfrwt>
<totfact> 0.52630936E+03</totfact>
</mgrwt>
</event>
<event>
 4    1  0.1171488E-003  0.1909820E+03  0.7818608E-02  0.1157579E+00
         -2   -1    0    0    0  501 -0.00000000000E+00  0.00000000000E+00  0.27007700068E+03  0.27007700069E+03  0.25500000000E-02 0. -1.
          2   -1    0    0  501    0  0.00000000000E+00 -0.00000000000E+00 -0.33762702865E+02  0.33762702961E+02  0.25500000000E-02 0.  1.
    5000001    1    1    2    0    0 -0.47318466545E+02  0.29472053424E+02  0.10376026711E+03  0.14072253636E+03  0.77000000000E+02 0.  0.
   -5000001    1    1    2    0    0  0.47318466545E+02 -0.29472053424E+02  0.13255403070E+03  0.16311716729E+03  0.77000000000E+02 0.  0.
<mgrwt>
<rscale>  0 0.19098198E+03</rscale>
<asrwt>0</asrwt>
<pdfrwt beam="1">  1        2 0.51942620E-02 0.19098198E+03</pdfrwt>
<pdfrwt beam="2">  1       -2 0.41550308E-01 0.19098198E+03</pdfrwt>
<totfact> 0.80084452E+03</totfact>
</mgrwt>
</event>
<event>
 4    1  0.1171488E-003  0.1762893E+03  0.7818608E-02  0.1171443E+00
         -2   -1    0    0    0  501 -0.00000000000E+00  0.00000000000E+00  0.15796494766E+04  0.15796494767E+04  0.25500000000E-02 0. -1.
          2   -1    0    0  501    0  0.00000000000E+00 -0.00000000000E+00 -0.49184817354E+01  0.49184823965E+01  0.25500000000E-02 0.  1.
    5000001    1    1    2    0    0 -0.17570232893E+02  0.38762630850E+02  0.73877545361E+03  0.74399558163E+03  0.77000000000E+02 0.  0.
   -5000001    1    1    2    0    0  0.17570232893E+02 -0.38762630850E+02  0.83595554131E+03  0.84057237742E+03  0.77000000000E+02 0.  0.
<mgrwt>
<rscale>  0 0.17628928E+03</rscale>
<asrwt>0</asrwt>
<pdfrwt beam="1">  1        2 0.75668978E-03 0.17628928E+03</pdfrwt>
<pdfrwt beam="2">  1       -2 0.24302292E+00 0.17628928E+03</pdfrwt>
<totfact> 0.16502327E+03</totfact>
</mgrwt>
</event>
<event>
 4    1  0.1171488E-003  0.1721608E+03  0.7818608E-02  0.1175613E+00
          2   -1    0    0  501    0  0.00000000000E+00  0.00000000000E+00  0.91567292536E+03  0.91567292536E+03  0.25500000000E-02 0.  1.
         -2   -1    0    0    0  501 -0.00000000000E+00 -0.00000000000E+00 -0.80922285709E+01  0.80922289727E+01  0.25500000000E-02 0. -1.
    5000001    1    1    2    0    0 -0.17983419077E+02  0.23410099274E+02  0.32133238468E+03  0.33174529018E+03  0.77000000000E+02 0.  0.
   -5000001    1    1    2    0    0  0.17983419077E+02 -0.23410099274E+02  0.58624831210E+03  0.59201986416E+03  0.77000000000E+02 0.  0.
<mgrwt>
<rscale>  0 0.17216079E+03</rscale>
<asrwt>0</asrwt>
<pdfrwt beam="1">  1        2 0.14087271E+00 0.17216079E+03</pdfrwt>
<pdfrwt beam="2">  1       -2 0.12449587E-02 0.17216079E+03</pdfrwt>
<totfact> 0.44174156E+04</totfact>
</mgrwt>
</event>
<event>
 4    1  0.1171488E-003  0.5311773E+03  0.7818608E-02  0.1005947E+00
         -2   -1    0    0    0  501 -0.00000000000E+00  0.00000000000E+00  0.60783117059E+02  0.60783117112E+02  0.25500000000E-02 0. -1.
          2   -1    0    0  501    0  0.00000000000E+00 -0.00000000000E+00 -0.11604755971E+04  0.11604755972E+04  0.25500000000E-02 0.  1.
    5000001    1    1    2    0    0  0.14807926767E+03 -0.20487705345E+03 -0.61094700813E+03  0.66564804761E+03  0.77000000000E+02 0.  0.
   -5000001    1    1    2    0    0 -0.14807926767E+03  0.20487705345E+03 -0.48874547196E+03  0.55561066666E+03  0.77000000000E+02 0.  0.
<mgrwt>
<rscale>  0 0.53117727E+03</rscale>
<asrwt>0</asrwt>
<pdfrwt beam="1">  1        2 0.17853469E+00 0.53117727E+03</pdfrwt>
<pdfrwt beam="2">  1       -2 0.93512496E-02 0.53117727E+03</pdfrwt>
<totfact> 0.15478156E+03</totfact>
</mgrwt>
</event>
<event>
 4    1  0.1171488E-003  0.4569863E+03  0.7818608E-02  0.1025659E+00
         -2   -1    0    0    0  501 -0.00000000000E+00  0.00000000000E+00  0.54407388709E+02  0.54407388769E+02  0.25500000000E-02 0. -1.
          2   -1    0    0  501    0  0.00000000000E+00 -0.00000000000E+00 -0.95959620034E+03  0.95959620034E+03  0.25500000000E-02 0.  1.
    5000001    1    1    2    0    0  0.26611493459E+02 -0.21347034068E+03 -0.44918165397E+03  0.50395527202E+03  0.77000000000E+02 0.  0.
   -5000001    1    1    2    0    0 -0.26611493459E+02  0.21347034068E+03 -0.45600715765E+03  0.51004831709E+03  0.77000000000E+02 0.  0.
<mgrwt>
<rscale>  0 0.45698632E+03</rscale>
<asrwt>0</asrwt>
<pdfrwt beam="1">  1        2 0.14763017E+00 0.45698632E+03</pdfrwt>
<pdfrwt beam="2">  1       -2 0.83703682E-02 0.45698632E+03</pdfrwt>
<totfact> 0.24558751E+03</totfact>
</mgrwt>
</event>
<event>
 4    1  0.1171488E-003  0.3025286E+03  0.7818608E-02  0.1083983E+00
         -2   -1    0    0    0  501 -0.00000000000E+00  0.00000000000E+00  0.57167945180E+01  0.57167950867E+01  0.25500000000E-02 0. -1.
          2   -1    0    0  501    0  0.00000000000E+00 -0.00000000000E+00 -0.40023976236E+04  0.40023976236E+04  0.25500000000E-02 0.  1.
    5000001    1    1    2    0    0 -0.17193145466E+02 -0.11474598217E+03 -0.12156967236E+04  0.12236460961E+04  0.77000000000E+02 0.  0.
   -5000001    1    1    2    0    0  0.17193145466E+02  0.11474598217E+03 -0.27809841055E+04  0.27844683226E+04  0.77000000000E+02 0.  0.
<mgrwt>
<rscale>  0 0.30252858E+03</rscale>
<asrwt>0</asrwt>
<pdfrwt beam="1">  1        2 0.61575124E+00 0.30252858E+03</pdfrwt>
<pdfrwt beam="2">  1       -2 0.87951009E-03 0.30252858E+03</pdfrwt>
<totfact> 0.11374323E+03</totfact>
</mgrwt>
</event>
<event>
 4    1  0.1171488E-003  0.2903555E+03  0.7818608E-02  0.1090164E+00
         -2   -1    0    0    0  501 -0.00000000000E+00  0.00000000000E+00  0.54272365685E+02  0.54272365745E+02  0.25500000000E-02 0. -1.
          2   -1    0    0  501    0  0.00000000000E+00 -0.00000000000E+00 -0.38834818297E+03  0.38834818298E+03  0.25500000000E-02 0.  1.
    5000001    1    1    2    0    0 -0.50431058412E+02  0.92122579228E+02 -0.26485834979E+03  0.29514201109E+03  0.77000000000E+02 0.  0.
   -5000001    1    1    2    0    0  0.50431058412E+02 -0.92122579228E+02 -0.69217467494E+02  0.14747853763E+03  0.77000000000E+02 0.  0.
<mgrwt>
<rscale>  0 0.29035547E+03</rscale>
<asrwt>0</asrwt>
<pdfrwt beam="1">  1        2 0.59745872E-01 0.29035547E+03</pdfrwt>
<pdfrwt beam="2">  1       -2 0.83495950E-02 0.29035547E+03</pdfrwt>
<totfact> 0.72614678E+03</totfact>
</mgrwt>
</event>
<event>
 4    1  0.1171488E-003  0.1961955E+03  0.7818608E-02  0.1152989E+00
          2   -1    0    0  501    0  0.00000000000E+00  0.00000000000E+00  0.13875507184E+03  0.13875507187E+03  0.25500000000E-02 0.  1.
         -2   -1    0    0    0  501 -0.00000000000E+00 -0.00000000000E+00 -0.69353613449E+02  0.69353613496E+02  0.25500000000E-02 0. -1.
    5000001    1    1    2    0    0 -0.52385108671E+02  0.20095928329E+02  0.99125205698E+01  0.95787807209E+02  0.77000000000E+02 0.  0.
   -5000001    1    1    2    0    0  0.52385108671E+02 -0.20095928329E+02  0.59488937825E+02  0.11232087815E+03  0.77000000000E+02 0.  0.
<mgrwt>
<rscale>  0 0.19619547E+03</rscale>
<asrwt>0</asrwt>
<pdfrwt beam="1">  1        2 0.21346934E-01 0.19619547E+03</pdfrwt>
<pdfrwt beam="2">  1       -2 0.10669787E-01 0.19619547E+03</pdfrwt>
<totfact> 0.14841671E+04</totfact>
</mgrwt>
</event>
<event>
 4    1  0.1171488E-003  0.1836418E+03  0.7818608E-02  0.1164324E+00
          2   -1    0    0  501    0  0.00000000000E+00  0.00000000000E+00  0.30070835639E+04  0.30070835639E+04  0.25500000000E-02 0.  1.
         -2   -1    0    0    0  501 -0.00000000000E+00 -0.00000000000E+00 -0.28037379902E+01  0.28037391498E+01  0.25500000000E-02 0. -1.
    5000001    1    1    2    0    0 -0.35664281749E+02  0.34340196341E+02  0.16190570855E+04  0.16216430051E+04  0.77000000000E+02 0.  0.
   -5000001    1    1    2    0    0  0.35664281749E+02 -0.34340196341E+02  0.13852227404E+04  0.13882442979E+04  0.77000000000E+02 0.  0.
<mgrwt>
<rscale>  0 0.18364178E+03</rscale>
<asrwt>0</asrwt>
<pdfrwt beam="1">  1        2 0.46262894E+00 0.18364178E+03</pdfrwt>
<pdfrwt beam="2">  1       -2 0.43134374E-03 0.18364178E+03</pdfrwt>
<totfact> 0.14755471E+04</totfact>
</mgrwt>
</event>
<event>
 4    1  0.1171488E-003  0.4228211E+03  0.7818608E-02  0.1036152E+00
         -2   -1    0    0    0  501 -0.00000000000E+00  0.00000000000E+00  0.20850321239E+02  0.20850321395E+02  0.25500000000E-02 0. -1.
          2   -1    0    0  501    0  0.00000000000E+00 -0.00000000000E+00 -0.21435843615E+04  0.21435843615E+04  0.25500000000E-02 0.  1.
    5000001    1    1    2    0    0 -0.15167316223E+03  0.21436170217E+01 -0.41880965769E+03  0.45203968034E+03  0.77000000000E+02 0.  0.
   -5000001    1    1    2    0    0  0.15167316223E+03 -0.21436170217E+01 -0.17039243826E+04  0.17123950026E+04  0.77000000000E+02 0.  0.
<mgrwt>
<rscale>  0 0.42282111E+03</rscale>
<asrwt>0</asrwt>
<pdfrwt beam="1">  1        2 0.32978204E+00 0.42282111E+03</pdfrwt>
<pdfrwt beam="2">  1       -2 0.32077434E-02 0.42282111E+03</pdfrwt>
<totfact> 0.23692307E+03</totfact>
</mgrwt>
</event>
<event>
 4    1  0.1171488E-003  0.3684514E+03  0.7818608E-02  0.1055287E+00
          2   -1    0    0  501    0  0.00000000000E+00  0.00000000000E+00  0.28647467376E+04  0.28647467376E+04  0.25500000000E-02 0.  1.
         -2   -1    0    0    0  501 -0.00000000000E+00 -0.00000000000E+00 -0.11847156407E+02  0.11847156681E+02  0.25500000000E-02 0. -1.
    5000001    1    1    2    0    0  0.49148502964E+02  0.14295790247E+03  0.19871371547E+04  0.19943659666E+04  0.77000000000E+02 0.  0.
   -5000001    1    1    2    0    0 -0.49148502964E+02 -0.14295790247E+03  0.86576242653E+03  0.88222792770E+03  0.77000000000E+02 0.  0.
<mgrwt>
<rscale>  0 0.36845137E+03</rscale>
<asrwt>0</asrwt>
<pdfrwt beam="1">  1        2 0.44073050E+00 0.36845137E+03</pdfrwt>
<pdfrwt beam="2">  1       -2 0.18226385E-02 0.36845137E+03</pdfrwt>
<totfact> 0.21947247E+03</totfact>
</mgrwt>
</event>
<event>
 4    1  0.1171488E-003  0.2020386E+03  0.7818608E-02  0.1148030E+00
         -2   -1    0    0    0  501 -0.00000000000E+00  0.00000000000E+00  0.17180638866E+02  0.17180639055E+02  0.25500000000E-02 0. -1.
          2   -1    0    0  501    0  0.00000000000E+00 -0.00000000000E+00 -0.59397688622E+03  0.59397688622E+03  0.25500000000E-02 0.  1.
    5000001    1    1    2    0    0 -0.32709031062E+02 -0.52281158011E+02 -0.35416581091E+03  0.36764877507E+03  0.77000000000E+02 0.  0.
   -5000001    1    1    2    0    0  0.32709031062E+02  0.52281158011E+02 -0.22263043645E+03  0.24350875021E+03  0.77000000000E+02 0.  0.
<mgrwt>
<rscale>  0 0.20203863E+03</rscale>
<asrwt>0</asrwt>
<pdfrwt beam="1">  1        2 0.91381043E-01 0.20203863E+03</pdfrwt>
<pdfrwt beam="2">  1       -2 0.26431757E-02 0.20203863E+03</pdfrwt>
<totfact> 0.25389427E+04</totfact>
</mgrwt>
</event>
<event>
 4    1  0.1171488E-003  0.2048251E+03  0.7818608E-02  0.1145731E+00
          2   -1    0    0  501    0  0.00000000000E+00  0.00000000000E+00  0.21652496027E+04  0.21652496027E+04  0.25500000000E-02 0.  1.
         -2   -1    0    0    0  501 -0.00000000000E+00 -0.00000000000E+00 -0.48439352876E+01  0.48439359588E+01  0.25500000000E-02 0. -1.
    5000001    1    1    2    0    0  0.62880299802E+02 -0.99980712140E+01  0.84201013462E+03  0.84791742543E+03  0.77000000000E+02 0.  0.
   -5000001    1    1    2    0    0 -0.62880299802E+02  0.99980712140E+01  0.13183955328E+04  0.13221761132E+04  0.77000000000E+02 0.  0.
<mgrwt>
<rscale>  0 0.20482509E+03</rscale>
<asrwt>0</asrwt>
<pdfrwt beam="1">  1        2 0.33311465E+00 0.20482509E+03</pdfrwt>
<pdfrwt beam="2">  1       -2 0.74522238E-03 0.20482509E+03</pdfrwt>
<totfact> 0.19661007E+04</totfact>
</mgrwt>
</event>
<event>
 4    1  0.1171488E-003  0.2764731E+03  0.7818608E-02  0.1097631E+00
         -2   -1    0    0    0  501 -0.00000000000E+00  0.00000000000E+00  0.19104195483E+02  0.19104195653E+02  0.25500000000E-02 0. -1.
          2   -1    0    0  501    0  0.00000000000E+00 -0.00000000000E+00 -0.10002697981E+04  0.10002697981E+04  0.25500000000E-02 0.  1.
    5000001    1    1    2    0    0  0.86285878665E+02 -0.25365351365E+02 -0.75367733739E+03  0.76292016804E+03  0.77000000000E+02 0.  0.
   -5000001    1    1    2    0    0 -0.86285878665E+02  0.25365351365E+02 -0.22748826520E+03  0.25645382569E+03  0.77000000000E+02 0.  0.
<mgrwt>
<rscale>  0 0.27647314E+03</rscale>
<asrwt>0</asrwt>
<pdfrwt beam="1">  1        2 0.15388762E+00 0.27647314E+03</pdfrwt>
<pdfrwt beam="2">  1       -2 0.29391078E-02 0.27647314E+03</pdfrwt>
<totfact> 0.11436967E+04</totfact>
</mgrwt>
</event>
<event>
 4    1  0.1171488E-003  0.2083504E+03  0.7818608E-02  0.1142879E+00
         -2   -1    0    0    0  501 -0.00000000000E+00  0.00000000000E+00  0.32853741612E+03  0.32853741613E+03  0.25500000000E-02 0. -1.
          2   -1    0    0  501    0  0.00000000000E+00 -0.00000000000E+00 -0.33032669038E+02  0.33032669136E+02  0.25500000000E-02 0.  1.
    5000001    1    1    2    0    0 -0.51739955469E+02 -0.34785464867E+02  0.20362065846E+03  0.22644519008E+03  0.77000000000E+02 0.  0.
   -5000001    1    1    2    0    0  0.51739955469E+02  0.34785464867E+02  0.91884088625E+02  0.13512489519E+03  0.77000000000E+02 0.  0.
<mgrwt>
<rscale>  0 0.20835036E+03</rscale>
<asrwt>0</asrwt>
<pdfrwt beam="1">  1        2 0.50819492E-02 0.20835036E+03</pdfrwt>
<pdfrwt beam="2">  1       -2 0.50544217E-01 0.20835036E+03</pdfrwt>
<totfact> 0.56520279E+03</totfact>
</mgrwt>
</event>
<event>
 4    1  0.1171488E-003  0.2545985E+03  0.7818608E-02  0.1110433E+00
          2   -1    0    0  501    0  0.00000000000E+00  0.00000000000E+00  0.26468477573E+04  0.26468477573E+04  0.25500000000E-02 0.  1.
         -2   -1    0    0    0  501 -0.00000000000E+00 -0.00000000000E+00 -0.61224120195E+01  0.61224125505E+01  0.25500000000E-02 0. -1.
    5000001    1    1    2    0    0 -0.35701237374E+02 -0.88016817562E+02  0.95128191288E+03  0.95910782308E+03  0.77000000000E+02 0.  0.
   -5000001    1    1    2    0    0  0.35701237374E+02  0.88016817562E+02  0.16894434324E+04  0.16938623467E+04  0.77000000000E+02 0.  0.
<mgrwt>
<rscale>  0 0.25459845E+03</rscale>
<asrwt>0</asrwt>
<pdfrwt beam="1">  1        2 0.40720666E+00 0.25459845E+03</pdfrwt>
<pdfrwt beam="2">  1       -2 0.94191117E-03 0.25459845E+03</pdfrwt>
<totfact> 0.77360062E+03</totfact>
</mgrwt>
</event>
<event>
 4    1  0.1171488E-003  0.1668449E+03  0.7818608E-02  0.1181179E+00
         -2   -1    0    0    0  501 -0.00000000000E+00  0.00000000000E+00  0.32776386843E+03  0.32776386844E+03  0.25500000000E-02 0. -1.
          2   -1    0    0  501    0  0.00000000000E+00 -0.00000000000E+00 -0.21232672746E+02  0.21232672899E+02  0.25500000000E-02 0.  1.
    5000001    1    1    2    0    0  0.10022525086E+02  0.28133934102E+02  0.12866349130E+03  0.15288970944E+03  0.77000000000E+02 0.  0.
   -5000001    1    1    2    0    0 -0.10022525086E+02 -0.28133934102E+02  0.17786770438E+03  0.19610683190E+03  0.77000000000E+02 0.  0.
<mgrwt>
<rscale>  0 0.16684487E+03</rscale>
<asrwt>0</asrwt>
<pdfrwt beam="1">  1        2 0.32665650E-02 0.16684487E+03</pdfrwt>
<pdfrwt beam="2">  1       -2 0.50425211E-01 0.16684487E+03</pdfrwt>
<totfact> 0.10060512E+04</totfact>
</mgrwt>
</event>
<event>
 4    1  0.1171488E-003  0.2595178E+03  0.7818608E-02  0.1107433E+00
         -2   -1    0    0    0  501 -0.00000000000E+00  0.00000000000E+00  0.48193402962E+03  0.48193402962E+03  0.25500000000E-02 0. -1.
          2   -1    0    0  501    0  0.00000000000E+00 -0.00000000000E+00 -0.34937080094E+02  0.34937080187E+02  0.25500000000E-02 0.  1.
    5000001    1    1    2    0    0  0.57480149657E+02  0.74168922010E+02  0.13215592579E+03  0.17944131441E+03  0.77000000000E+02 0.  0.
   -5000001    1    1    2    0    0 -0.57480149657E+02 -0.74168922010E+02  0.31484102374E+03  0.33742979540E+03  0.77000000000E+02 0.  0.
<mgrwt>
<rscale>  0 0.25951777E+03</rscale>
<asrwt>0</asrwt>
<pdfrwt beam="1">  1        2 0.53749356E-02 0.25951777E+03</pdfrwt>
<pdfrwt beam="2">  1       -2 0.74143695E-01 0.25951777E+03</pdfrwt>
<totfact> 0.23928225E+03</totfact>
</mgrwt>
</event>
<event>
 4    1  0.1171488E-003  0.3422076E+03  0.7818608E-02  0.1065860E+00
          2   -1    0    0  501    0  0.00000000000E+00  0.00000000000E+00  0.24497936520E+03  0.24497936521E+03  0.25500000000E-02 0.  1.
         -2   -1    0    0    0  501 -0.00000000000E+00 -0.00000000000E+00 -0.11950604020E+03  0.11950604023E+03  0.25500000000E-02 0. -1.
    5000001    1    1    2    0    0  0.14949806590E+03  0.22048800297E+02  0.38643432740E+02  0.17394865966E+03  0.77000000000E+02 0.  0.
   -5000001    1    1    2    0    0 -0.14949806590E+03 -0.22048800297E+02  0.86829892259E+02  0.19053674578E+03  0.77000000000E+02 0.  0.
<mgrwt>
<rscale>  0 0.34220762E+03</rscale>
<asrwt>0</asrwt>
<pdfrwt beam="1">  1        2 0.37689133E-01 0.34220762E+03</pdfrwt>
<pdfrwt beam="2">  1       -2 0.18385545E-01 0.34220762E+03</pdfrwt>
<totfact> 0.33220886E+03</totfact>
</mgrwt>
</event>
<event>
 4    1  0.1171488E-003  0.2035435E+03  0.7818608E-02  0.1146783E+00
         -2   -1    0    0    0  501 -0.00000000000E+00  0.00000000000E+00  0.57741922812E+02  0.57741922869E+02  0.25500000000E-02 0. -1.
          2   -1    0    0  501    0  0.00000000000E+00 -0.00000000000E+00 -0.17937551175E+03  0.17937551176E+03  0.25500000000E-02 0.  1.
    5000001    1    1    2    0    0 -0.43370142691E+02 -0.32371493289E+02 -0.10592905659E+03  0.14169985140E+03  0.77000000000E+02 0.  0.
   -5000001    1    1    2    0    0  0.43370142691E+02  0.32371493289E+02 -0.15704532340E+02  0.95417583237E+02  0.77000000000E+02 0.  0.
<mgrwt>
<rscale>  0 0.20354348E+03</rscale>
<asrwt>0</asrwt>
<pdfrwt beam="1">  1        2 0.27596232E-01 0.20354348E+03</pdfrwt>
<pdfrwt beam="2">  1       -2 0.88833728E-02 0.20354348E+03</pdfrwt>
<totfact> 0.14922665E+04</totfact>
</mgrwt>
</event>
<event>
 4    1  0.1171488E-003  0.2538465E+03  0.7818608E-02  0.1110898E+00
          2   -1    0    0  501    0  0.00000000000E+00  0.00000000000E+00  0.35692863088E+03  0.35692863089E+03  0.25500000000E-02 0.  1.
         -2   -1    0    0    0  501 -0.00000000000E+00 -0.00000000000E+00 -0.45133713553E+02  0.45133713625E+02  0.25500000000E-02 0. -1.
    5000001    1    1    2    0    0  0.33195620609E+02 -0.80520119318E+02  0.23658327515E+03  0.26360213376E+03  0.77000000000E+02 0.  0.
   -5000001    1    1    2    0    0 -0.33195620609E+02  0.80520119318E+02  0.75211642174E+02  0.13846021075E+03  0.77000000000E+02 0.  0.
<mgrwt>
<rscale>  0 0.25384653E+03</rscale>
<asrwt>0</asrwt>
<pdfrwt beam="1">  1        2 0.54912098E-01 0.25384653E+03</pdfrwt>
<pdfrwt beam="2">  1       -2 0.69436481E-02 0.25384653E+03</pdfrwt>
<totfact> 0.10544946E+04</totfact>
</mgrwt>
</event>
<event>
 4    1  0.1171488E-003  0.2121155E+03  0.7818608E-02  0.1139902E+00
          2   -1    0    0  501    0  0.00000000000E+00  0.00000000000E+00  0.42491544035E+02  0.42491544112E+02  0.25500000000E-02 0.  1.
         -2   -1    0    0    0  501 -0.00000000000E+00 -0.00000000000E+00 -0.26471731932E+03  0.26471731933E+03  0.25500000000E-02 0. -1.
    5000001    1    1    2    0    0 -0.47430797542E+02  0.28447898631E+02 -0.42256722538E+02  0.10379592522E+03  0.77000000000E+02 0.  0.
   -5000001    1    1    2    0    0  0.47430797542E+02 -0.28447898631E+02 -0.17996905275E+03  0.20341293823E+03  0.77000000000E+02 0.  0.
<mgrwt>
<rscale>  0 0.21211551E+03</rscale>
<asrwt>0</asrwt>
<pdfrwt beam="1">  1        2 0.65371608E-02 0.21211551E+03</pdfrwt>
<pdfrwt beam="2">  1       -2 0.40725741E-01 0.21211551E+03</pdfrwt>
<totfact> 0.62118294E+03</totfact>
</mgrwt>
</event>
<event>
 4    1  0.1171488E-003  0.6396497E+03  0.7818608E-02  0.9826397E-01
          2   -1    0    0  501    0  0.00000000000E+00  0.00000000000E+00  0.51832123037E+03  0.51832123038E+03  0.25500000000E-02 0.  1.
         -2   -1    0    0    0  501 -0.00000000000E+00 -0.00000000000E+00 -0.19734467633E+03  0.19734467635E+03  0.25500000000E-02 0. -1.
    5000001    1    1    2    0    0  0.39214415338E+02 -0.30792939869E+03  0.16139066718E+03  0.35823767585E+03  0.77000000000E+02 0.  0.
   -5000001    1    1    2    0    0 -0.39214415338E+02  0.30792939869E+03  0.15958588685E+03  0.35742823088E+03  0.77000000000E+02 0.  0.
<mgrwt>
<rscale>  0 0.63964970E+03</rscale>
<asrwt>0</asrwt>
<pdfrwt beam="1">  1        2 0.79741727E-01 0.63964970E+03</pdfrwt>
<pdfrwt beam="2">  1       -2 0.30360720E-01 0.63964970E+03</pdfrwt>
<totfact> 0.59562675E+02</totfact>
</mgrwt>
</event>
<event>
 4    1  0.1171488E-003  0.1793626E+03  0.7818608E-02  0.1168421E+00
         -2   -1    0    0    0  501 -0.00000000000E+00  0.00000000000E+00  0.44169415082E+02  0.44169415155E+02  0.25500000000E-02 0. -1.
          2   -1    0    0  501    0  0.00000000000E+00 -0.00000000000E+00 -0.18208830577E+03  0.18208830579E+03  0.25500000000E-02 0.  1.
    5000001    1    1    2    0    0  0.18726332536E+02 -0.41278432255E+02 -0.78661126320E+02  0.11904267005E+03  0.77000000000E+02 0.  0.
   -5000001    1    1    2    0    0 -0.18726332536E+02  0.41278432255E+02 -0.59257764373E+02  0.10721505089E+03  0.77000000000E+02 0.  0.
<mgrwt>
<rscale>  0 0.17936258E+03</rscale>
<asrwt>0</asrwt>
<pdfrwt beam="1">  1        2 0.28013585E-01 0.17936258E+03</pdfrwt>
<pdfrwt beam="2">  1       -2 0.67952947E-02 0.17936258E+03</pdfrwt>
<totfact> 0.22025653E+04</totfact>
</mgrwt>
</event>
<event>
 4    1  0.1171488E-003  0.3100987E+03  0.7818608E-02  0.1080299E+00
          2   -1    0    0  501    0  0.00000000000E+00  0.00000000000E+00  0.20855563607E+04  0.20855563607E+04  0.25500000000E-02 0.  1.
         -2   -1    0    0    0  501 -0.00000000000E+00 -0.00000000000E+00 -0.11527046037E+02  0.11527046319E+02  0.25500000000E-02 0. -1.
    5000001    1    1    2    0    0 -0.12099464718E+03  0.57395222078E+02  0.11270842569E+04  0.11376211313E+04  0.77000000000E+02 0.  0.
   -5000001    1    1    2    0    0  0.12099464718E+03 -0.57395222078E+02  0.94694505769E+03  0.95946227567E+03  0.77000000000E+02 0.  0.
<mgrwt>
<rscale>  0 0.31009872E+03</rscale>
<asrwt>0</asrwt>
<pdfrwt beam="1">  1        2 0.32085485E+00 0.31009872E+03</pdfrwt>
<pdfrwt beam="2">  1       -2 0.17733916E-02 0.31009872E+03</pdfrwt>
<totfact> 0.61807814E+03</totfact>
</mgrwt>
</event>
<event>
 4    1  0.1171488E-003  0.2474598E+03  0.7818608E-02  0.1114921E+00
          2   -1    0    0  501    0  0.00000000000E+00  0.00000000000E+00  0.49565254354E+03  0.49565254355E+03  0.25500000000E-02 0.  1.
         -2   -1    0    0    0  501 -0.00000000000E+00 -0.00000000000E+00 -0.30886729907E+02  0.30886730013E+02  0.25500000000E-02 0. -1.
    5000001    1    1    2    0    0 -0.87714892947E+02 -0.35231397650E+02  0.18750080600E+03  0.22365309315E+03  0.77000000000E+02 0.  0.
   -5000001    1    1    2    0    0  0.87714892947E+02  0.35231397650E+02  0.27726500763E+03  0.30288618041E+03  0.77000000000E+02 0.  0.
<mgrwt>
<rscale>  0 0.24745978E+03</rscale>
<asrwt>0</asrwt>
<pdfrwt beam="1">  1        2 0.76254228E-01 0.24745978E+03</pdfrwt>
<pdfrwt beam="2">  1       -2 0.47518052E-02 0.24745978E+03</pdfrwt>
<totfact> 0.13140371E+04</totfact>
</mgrwt>
</event>
<event>
 4    1  0.1171488E-003  0.1783774E+03  0.7818608E-02  0.1169383E+00
         -2   -1    0    0    0  501 -0.00000000000E+00  0.00000000000E+00  0.33896536241E+02  0.33896536336E+02  0.25500000000E-02 0. -1.
          2   -1    0    0  501    0  0.00000000000E+00 -0.00000000000E+00 -0.23467357867E+03  0.23467357868E+03  0.25500000000E-02 0.  1.
    5000001    1    1    2    0    0 -0.14165913612E+02 -0.21263945085E+02 -0.15617390944E+03  0.17598897255E+03  0.77000000000E+02 0.  0.
   -5000001    1    1    2    0    0  0.14165913612E+02  0.21263945085E+02 -0.44603132992E+02  0.92581142474E+02  0.77000000000E+02 0.  0.
<mgrwt>
<rscale>  0 0.17837737E+03</rscale>
<asrwt>0</asrwt>
<pdfrwt beam="1">  1        2 0.36103627E-01 0.17837737E+03</pdfrwt>
<pdfrwt beam="2">  1       -2 0.52148519E-02 0.17837737E+03</pdfrwt>
<totfact> 0.25022494E+04</totfact>
</mgrwt>
</event>
<event>
 4    1  0.1171488E-003  0.1902546E+03  0.7818608E-02  0.1158232E+00
          2   -1    0    0  501    0  0.00000000000E+00  0.00000000000E+00  0.19055162743E+03  0.19055162744E+03  0.25500000000E-02 0.  1.
         -2   -1    0    0    0  501 -0.00000000000E+00 -0.00000000000E+00 -0.47489524675E+02  0.47489524744E+02  0.25500000000E-02 0. -1.
    5000001    1    1    2    0    0 -0.22820608929E+02  0.49891816112E+02  0.84667321163E+02  0.12691543948E+03  0.77000000000E+02 0.  0.
   -5000001    1    1    2    0    0  0.22820608929E+02 -0.49891816112E+02  0.58394781588E+02  0.11112571270E+03  0.77000000000E+02 0.  0.
<mgrwt>
<rscale>  0 0.19025463E+03</rscale>
<asrwt>0</asrwt>
<pdfrwt beam="1">  1        2 0.29315635E-01 0.19025463E+03</pdfrwt>
<pdfrwt beam="2">  1       -2 0.73060806E-02 0.19025463E+03</pdfrwt>
<totfact> 0.18835206E+04</totfact>
</mgrwt>
</event>
<event>
 4    1  0.1171488E-003  0.1691320E+03  0.7818608E-02  0.1178756E+00
          2   -1    0    0  501    0  0.00000000000E+00  0.00000000000E+00  0.28270057260E+03  0.28270057262E+03  0.25500000000E-02 0.  1.
         -2   -1    0    0    0  501 -0.00000000000E+00 -0.00000000000E+00 -0.25296761797E+02  0.25296761925E+02  0.25500000000E-02 0. -1.
    5000001    1    1    2    0    0 -0.24547288182E+02  0.23735605924E+02  0.14238531608E+03  0.16543435732E+03  0.77000000000E+02 0.  0.
   -5000001    1    1    2    0    0  0.24547288182E+02 -0.23735605924E+02  0.11501849473E+03  0.14256297723E+03  0.77000000000E+02 0.  0.
<mgrwt>
<rscale>  0 0.16913201E+03</rscale>
<asrwt>0</asrwt>
<pdfrwt beam="1">  1        2 0.43492395E-01 0.16913201E+03</pdfrwt>
<pdfrwt beam="2">  1       -2 0.38918096E-02 0.16913201E+03</pdfrwt>
<totfact> 0.31660332E+04</totfact>
</mgrwt>
</event>
<event>
 4    1  0.1171488E-003  0.2344362E+03  0.7818608E-02  0.1123556E+00
          2   -1    0    0  501    0  0.00000000000E+00  0.00000000000E+00  0.25801810845E+04  0.25801810845E+04  0.25500000000E-02 0.  1.
         -2   -1    0    0    0  501 -0.00000000000E+00 -0.00000000000E+00 -0.53252406992E+01  0.53252413098E+01  0.25500000000E-02 0. -1.
    5000001    1    1    2    0    0 -0.42393083329E+01  0.72889573386E+02  0.18366732553E+04  0.18397359888E+04  0.77000000000E+02 0.  0.
   -5000001    1    1    2    0    0  0.42393083329E+01 -0.72889573386E+02  0.73818258849E+03  0.74577033703E+03  0.77000000000E+02 0.  0.
<mgrwt>
<rscale>  0 0.23443623E+03</rscale>
<asrwt>0</asrwt>
<pdfrwt beam="1">  1        2 0.39695204E+00 0.23443623E+03</pdfrwt>
<pdfrwt beam="2">  1       -2 0.81926558E-03 0.23443623E+03</pdfrwt>
<totfact> 0.10301695E+04</totfact>
</mgrwt>
</event>
<event>
 4    1  0.1171488E-003  0.2307981E+03  0.7818608E-02  0.1126079E+00
          2   -1    0    0  501    0  0.00000000000E+00  0.00000000000E+00  0.13684872874E+03  0.13684872876E+03  0.25500000000E-02 0.  1.
         -2   -1    0    0    0  501 -0.00000000000E+00 -0.00000000000E+00 -0.97311417809E+02  0.97311417842E+02  0.25500000000E-02 0. -1.
    5000001    1    1    2    0    0 -0.27307656114E+02 -0.81381883437E+02  0.15320176694E+02  0.11632895963E+03  0.77000000000E+02 0.  0.
   -5000001    1    1    2    0    0  0.27307656114E+02  0.81381883437E+02  0.24217134237E+02  0.11783118698E+03  0.77000000000E+02 0.  0.
<mgrwt>
<rscale>  0 0.23079813E+03</rscale>
<asrwt>0</asrwt>
<pdfrwt beam="1">  1        2 0.21053650E-01 0.23079813E+03</pdfrwt>
<pdfrwt beam="2">  1       -2 0.14970987E-01 0.23079813E+03</pdfrwt>
<totfact> 0.88057547E+03</totfact>
</mgrwt>
</event>
<event>
 4    1  0.1171488E-003  0.2106560E+03  0.7818608E-02  0.1141048E+00
          2   -1    0    0  501    0  0.00000000000E+00  0.00000000000E+00  0.10714758080E+04  0.10714758080E+04  0.25500000000E-02 0.  1.
         -2   -1    0    0    0  501 -0.00000000000E+00 -0.00000000000E+00 -0.10353928954E+02  0.10353929268E+02  0.25500000000E-02 0. -1.
    5000001    1    1    2    0    0  0.28133491353E+02 -0.35482329440E+02  0.24395908488E+03  0.25979900718E+03  0.77000000000E+02 0.  0.
   -5000001    1    1    2    0    0 -0.28133491353E+02  0.35482329440E+02  0.81716279417E+03  0.82203073009E+03  0.77000000000E+02 0.  0.
<mgrwt>
<rscale>  0 0.21065597E+03</rscale>
<asrwt>0</asrwt>
<pdfrwt beam="1">  1        2 0.16484239E+00 0.21065597E+03</pdfrwt>
<pdfrwt beam="2">  1       -2 0.15929126E-02 0.21065597E+03</pdfrwt>
<totfact> 0.25210998E+04</totfact>
</mgrwt>
</event>
<event>
 4    1  0.1171488E-003  0.3520361E+03  0.7818608E-02  0.1061782E+00
         -2   -1    0    0    0  501 -0.00000000000E+00  0.00000000000E+00  0.65766770315E+02  0.65766770365E+02  0.25500000000E-02 0. -1.
          2   -1    0    0  501    0  0.00000000000E+00 -0.00000000000E+00 -0.47109425922E+03  0.47109425923E+03  0.25500000000E-02 0.  1.
    5000001    1    1    2    0    0  0.67848283035E+01  0.14504089834E+03 -0.29875739422E+03  0.34098075706E+03  0.77000000000E+02 0.  0.
   -5000001    1    1    2    0    0 -0.67848283035E+01 -0.14504089834E+03 -0.10657009469E+03  0.19588027253E+03  0.77000000000E+02 0.  0.
<mgrwt>
<rscale>  0 0.35203607E+03</rscale>
<asrwt>0</asrwt>
<pdfrwt beam="1">  1        2 0.72476038E-01 0.35203607E+03</pdfrwt>
<pdfrwt beam="2">  1       -2 0.10117965E-01 0.35203607E+03</pdfrwt>
<totfact> 0.43518223E+03</totfact>
</mgrwt>
</event>
<event>
 4    1  0.1171488E-003  0.2690509E+03  0.7818608E-02  0.1101824E+00
          2   -1    0    0  501    0  0.00000000000E+00  0.00000000000E+00  0.49500764973E+03  0.49500764974E+03  0.25500000000E-02 0.  1.
         -2   -1    0    0    0  501 -0.00000000000E+00 -0.00000000000E+00 -0.36559216071E+02  0.36559216160E+02  0.25500000000E-02 0. -1.
    5000001    1    1    2    0    0 -0.72346240856E+01  0.10882734454E+03  0.26183009698E+03  0.29390428781E+03  0.77000000000E+02 0.  0.
   -5000001    1    1    2    0    0  0.72346240856E+01 -0.10882734454E+03  0.19661833668E+03  0.23766257809E+03  0.77000000000E+02 0.  0.
<mgrwt>
<rscale>  0 0.26905086E+03</rscale>
<asrwt>0</asrwt>
<pdfrwt beam="1">  1        2 0.76155013E-01 0.26905086E+03</pdfrwt>
<pdfrwt beam="2">  1       -2 0.56244956E-02 0.26905086E+03</pdfrwt>
<totfact> 0.10221448E+04</totfact>
</mgrwt>
</event>
<event>
 4    1  0.1171488E-003  0.2713811E+03  0.7818608E-02  0.1100492E+00
          2   -1    0    0  501    0  0.00000000000E+00  0.00000000000E+00  0.10211372971E+04  0.10211372971E+04  0.25500000000E-02 0.  1.
         -2   -1    0    0    0  501 -0.00000000000E+00 -0.00000000000E+00 -0.18030799648E+02  0.18030799828E+02  0.25500000000E-02 0. -1.
    5000001    1    1    2    0    0  0.71517205951E+02  0.62191029381E+02  0.27499989589E+03  0.30089263471E+03  0.77000000000E+02 0.  0.
   -5000001    1    1    2    0    0 -0.71517205951E+02 -0.62191029381E+02  0.72810660158E+03  0.73827546224E+03  0.77000000000E+02 0.  0.
<mgrwt>
<rscale>  0 0.27138108E+03</rscale>
<asrwt>0</asrwt>
<pdfrwt beam="1">  1        2 0.15709803E+00 0.27138108E+03</pdfrwt>
<pdfrwt beam="2">  1       -2 0.27739694E-02 0.27138108E+03</pdfrwt>
<totfact> 0.12096155E+04</totfact>
</mgrwt>
</event>
<event>
 4    1  0.1171488E-003  0.2071392E+03  0.7818608E-02  0.1143852E+00
          2   -1    0    0  501    0  0.00000000000E+00  0.00000000000E+00  0.19339815424E+02  0.19339815592E+02  0.25500000000E-02 0.  1.
         -2   -1    0    0    0  501 -0.00000000000E+00 -0.00000000000E+00 -0.55464119139E+03  0.55464119139E+03  0.25500000000E-02 0. -1.
    5000001    1    1    2    0    0  0.51908867587E+02  0.19326211409E+02 -0.38289282998E+03  0.39446666808E+03  0.77000000000E+02 0.  0.
   -5000001    1    1    2    0    0 -0.51908867587E+02 -0.19326211409E+02 -0.15240854599E+03  0.17951433890E+03  0.77000000000E+02 0.  0.
<mgrwt>
<rscale>  0 0.20713916E+03</rscale>
<asrwt>0</asrwt>
<pdfrwt beam="1">  1        2 0.29753566E-02 0.20713916E+03</pdfrwt>
<pdfrwt beam="2">  1       -2 0.85329402E-01 0.20713916E+03</pdfrwt>
<totfact> 0.38326181E+03</totfact>
</mgrwt>
</event>
<event>
 4    1  0.1171488E-003  0.3346051E+03  0.7818608E-02  0.1069117E+00
          2   -1    0    0  501    0  0.00000000000E+00  0.00000000000E+00  0.76847845442E+03  0.76847845442E+03  0.25500000000E-02 0.  1.
         -2   -1    0    0    0  501 -0.00000000000E+00 -0.00000000000E+00 -0.36422798041E+02  0.36422798130E+02  0.25500000000E-02 0. -1.
    5000001    1    1    2    0    0 -0.98663250495E+02  0.19714112720E+01  0.63306088053E+03  0.64531651298E+03  0.77000000000E+02 0.  0.
   -5000001    1    1    2    0    0  0.98663250495E+02 -0.19714112720E+01  0.98994775843E+02  0.15958473957E+03  0.77000000000E+02 0.  0.
<mgrwt>
<rscale>  0 0.33460505E+03</rscale>
<asrwt>0</asrwt>
<pdfrwt beam="1">  1        2 0.11822744E+00 0.33460505E+03</pdfrwt>
<pdfrwt beam="2">  1       -2 0.56035079E-02 0.33460505E+03</pdfrwt>
<totfact> 0.61607666E+03</totfact>
</mgrwt>
</event>
<event>
 4    1  0.1171488E-003  0.2202925E+03  0.7818608E-02  0.1133665E+00
         -2   -1    0    0    0  501 -0.00000000000E+00  0.00000000000E+00  0.12337356761E+03  0.12337356764E+03  0.25500000000E-02 0. -1.
          2   -1    0    0  501    0  0.00000000000E+00 -0.00000000000E+00 -0.98337050594E+02  0.98337050627E+02  0.25500000000E-02 0.  1.
    5000001    1    1    2    0    0  0.53057505410E+02 -0.52335565039E+02 -0.13122850356E+02  0.10795980479E+03  0.77000000000E+02 0.  0.
   -5000001    1    1    2    0    0 -0.53057505410E+02  0.52335565039E+02  0.38159367371E+02  0.11375081348E+03  0.77000000000E+02 0.  0.
<mgrwt>
<rscale>  0 0.22029247E+03</rscale>
<asrwt>0</asrwt>
<pdfrwt beam="1">  1        2 0.15128777E-01 0.22029247E+03</pdfrwt>
<pdfrwt beam="2">  1       -2 0.18980549E-01 0.22029247E+03</pdfrwt>
<totfact> 0.86633194E+03</totfact>
</mgrwt>
</event>
<event>
 4    1  0.1171488E-003  0.2557492E+03  0.7818608E-02  0.1109724E+00
          2   -1    0    0  501    0  0.00000000000E+00  0.00000000000E+00  0.36008676742E+04  0.36008676742E+04  0.25500000000E-02 0.  1.
         -2   -1    0    0    0  501 -0.00000000000E+00 -0.00000000000E+00 -0.45411045147E+01  0.45411052307E+01  0.25500000000E-02 0. -1.
    5000001    1    1    2    0    0  0.88682341074E+02 -0.24409307469E+02  0.24226886379E+04  0.24256565314E+04  0.77000000000E+02 0.  0.
   -5000001    1    1    2    0    0 -0.88682341074E+02  0.24409307469E+02  0.11736379318E+04  0.11797522481E+04  0.77000000000E+02 0.  0.
<mgrwt>
<rscale>  0 0.25574923E+03</rscale>
<asrwt>0</asrwt>
<pdfrwt beam="1">  1        2 0.55398076E+00 0.25574923E+03</pdfrwt>
<pdfrwt beam="2">  1       -2 0.69863011E-03 0.25574923E+03</pdfrwt>
<totfact> 0.31195800E+03</totfact>
</mgrwt>
</event>
<event>
 4    1  0.1171488E-003  0.2130191E+03  0.7818608E-02  0.1139197E+00
         -2   -1    0    0    0  501 -0.00000000000E+00  0.00000000000E+00  0.18664204744E+03  0.18664204746E+03  0.25500000000E-02 0. -1.
          2   -1    0    0  501    0  0.00000000000E+00 -0.00000000000E+00 -0.60780986559E+02  0.60780986612E+02  0.25500000000E-02 0.  1.
    5000001    1    1    2    0    0 -0.29053968926E+02  0.49141493948E+02  0.89952540319E+01  0.96275303858E+02  0.77000000000E+02 0.  0.
   -5000001    1    1    2    0    0  0.29053968926E+02 -0.49141493948E+02  0.11686580685E+03  0.15114773021E+03  0.77000000000E+02 0.  0.
<mgrwt>
<rscale>  0 0.21301913E+03</rscale>
<asrwt>0</asrwt>
<pdfrwt beam="1">  1        2 0.93509212E-02 0.21301913E+03</pdfrwt>
<pdfrwt beam="2">  1       -2 0.28714161E-01 0.21301913E+03</pdfrwt>
<totfact> 0.75360449E+03</totfact>
</mgrwt>
</event>
<event>
 4    1  0.1171488E-003  0.5746247E+03  0.7818608E-02  0.9959497E-01
          2   -1    0    0  501    0  0.00000000000E+00  0.00000000000E+00  0.79317018642E+03  0.79317018643E+03  0.25500000000E-02 0.  1.
         -2   -1    0    0    0  501 -0.00000000000E+00 -0.00000000000E+00 -0.10407400433E+03  0.10407400436E+03  0.25500000000E-02 0. -1.
    5000001    1    1    2    0    0 -0.25352651282E+03 -0.81251704595E+02  0.22622954239E+03  0.35775178274E+03  0.77000000000E+02 0.  0.
   -5000001    1    1    2    0    0  0.25352651282E+03  0.81251704595E+02  0.46286663970E+03  0.53949240805E+03  0.77000000000E+02 0.  0.
<mgrwt>
<rscale>  0 0.57462474E+03</rscale>
<asrwt>0</asrwt>
<pdfrwt beam="1">  1        2 0.12202618E+00 0.57462474E+03</pdfrwt>
<pdfrwt beam="2">  1       -2 0.16011385E-01 0.57462474E+03</pdfrwt>
<totfact> 0.10978678E+03</totfact>
</mgrwt>
</event>
<event>
 4    1  0.1171488E-003  0.5922527E+03  0.7818608E-02  0.9921611E-01
         -2   -1    0    0    0  501 -0.00000000000E+00  0.00000000000E+00  0.13865509555E+03  0.13865509557E+03  0.25500000000E-02 0. -1.
          2   -1    0    0  501    0  0.00000000000E+00 -0.00000000000E+00 -0.63243854870E+03  0.63243854870E+03  0.25500000000E-02 0.  1.
    5000001    1    1    2    0    0 -0.12574838352E+03  0.19124579728E+03 -0.47003468642E+03  0.52844036312E+03  0.77000000000E+02 0.  0.
   -5000001    1    1    2    0    0  0.12574838352E+03 -0.19124579728E+03 -0.23748766732E+02  0.24265328116E+03  0.77000000000E+02 0.  0.
<mgrwt>
<rscale>  0 0.59225274E+03</rscale>
<asrwt>0</asrwt>
<pdfrwt beam="1">  1        2 0.97298237E-01 0.59225274E+03</pdfrwt>
<pdfrwt beam="2">  1       -2 0.21331553E-01 0.59225274E+03</pdfrwt>
<totfact> 0.88975918E+02</totfact>
</mgrwt>
</event>
<event>
 4    1  0.1171488E-003  0.2606418E+03  0.7818608E-02  0.1106758E+00
         -2   -1    0    0    0  501 -0.00000000000E+00  0.00000000000E+00  0.95280970982E+01  0.95280974394E+01  0.25500000000E-02 0. -1.
          2   -1    0    0  501    0  0.00000000000E+00 -0.00000000000E+00 -0.17824695571E+04  0.17824695571E+04  0.25500000000E-02 0.  1.
    5000001    1    1    2    0    0 -0.97384884475E+02 -0.12429890851E+02 -0.62773316847E+03  0.64001269418E+03  0.77000000000E+02 0.  0.
   -5000001    1    1    2    0    0  0.97384884475E+02  0.12429890851E+02 -0.11452082915E+04  0.11519849603E+04  0.77000000000E+02 0.  0.
<mgrwt>
<rscale>  0 0.26064185E+03</rscale>
<asrwt>0</asrwt>
<pdfrwt beam="1">  1        2 0.27422582E+00 0.26064185E+03</pdfrwt>
<pdfrwt beam="2">  1       -2 0.14658625E-02 0.26064185E+03</pdfrwt>
<totfact> 0.11781432E+04</totfact>
</mgrwt>
</event>
<event>
 4    1  0.1171488E-003  0.1830978E+03  0.7818608E-02  0.1164838E+00
         -2   -1    0    0    0  501 -0.00000000000E+00  0.00000000000E+00  0.25708935758E+02  0.25708935885E+02  0.25500000000E-02 0. -1.
          2   -1    0    0  501    0  0.00000000000E+00 -0.00000000000E+00 -0.32600354709E+03  0.32600354710E+03  0.25500000000E-02 0.  1.
    5000001    1    1    2    0    0  0.48593223506E+02 -0.69150214297E+01 -0.13753862796E+03  0.16509086308E+03  0.77000000000E+02 0.  0.
   -5000001    1    1    2    0    0 -0.48593223506E+02  0.69150214297E+01 -0.16275598338E+03  0.18662161991E+03  0.77000000000E+02 0.  0.
<mgrwt>
<rscale>  0 0.18309783E+03</rscale>
<asrwt>0</asrwt>
<pdfrwt beam="1">  1        2 0.50154389E-01 0.18309783E+03</pdfrwt>
<pdfrwt beam="2">  1       -2 0.39552211E-02 0.18309783E+03</pdfrwt>
<totfact> 0.26736879E+04</totfact>
</mgrwt>
</event>
<event>
 4    1  0.1171488E-003  0.2333547E+03  0.7818608E-02  0.1124301E+00
          2   -1    0    0  501    0  0.00000000000E+00  0.00000000000E+00  0.60021921792E+03  0.60021921792E+03  0.25500000000E-02 0.  1.
         -2   -1    0    0    0  501 -0.00000000000E+00 -0.00000000000E+00 -0.22681058214E+02  0.22681058357E+02  0.25500000000E-02 0. -1.
    5000001    1    1    2    0    0  0.82719302069E+02  0.64910900606E+01  0.36426859625E+03  0.38145147450E+03  0.77000000000E+02 0.  0.
   -5000001    1    1    2    0    0 -0.82719302069E+02 -0.64910900606E+01  0.21326956346E+03  0.24144880178E+03  0.77000000000E+02 0.  0.
<mgrwt>
<rscale>  0 0.23335473E+03</rscale>
<asrwt>0</asrwt>
<pdfrwt beam="1">  1        2 0.92341404E-01 0.23335473E+03</pdfrwt>
<pdfrwt beam="2">  1       -2 0.34893941E-02 0.23335473E+03</pdfrwt>
<totfact> 0.16769194E+04</totfact>
</mgrwt>
</event>
<event>
 4    1  0.1171488E-003  0.3326340E+03  0.7818608E-02  0.1069977E+00
          2   -1    0    0  501    0  0.00000000000E+00  0.00000000000E+00  0.13228554083E+04  0.13228554083E+04  0.25500000000E-02 0.  1.
         -2   -1    0    0    0  501 -0.00000000000E+00 -0.00000000000E+00 -0.20910327446E+02  0.20910327602E+02  0.25500000000E-02 0. -1.
    5000001    1    1    2    0    0  0.57585061806E+02 -0.10458943355E+03  0.10002984851E+04  0.10103370963E+04  0.77000000000E+02 0.  0.
   -5000001    1    1    2    0    0 -0.57585061806E+02  0.10458943355E+03  0.30164659580E+03  0.33342863961E+03  0.77000000000E+02 0.  0.
<mgrwt>
<rscale>  0 0.33263397E+03</rscale>
<asrwt>0</asrwt>
<pdfrwt beam="1">  1        2 0.20351626E+00 0.33263397E+03</pdfrwt>
<pdfrwt beam="2">  1       -2 0.32169728E-02 0.33263397E+03</pdfrwt>
<totfact> 0.65220063E+03</totfact>
</mgrwt>
</event>
<event>
 4    1  0.1171488E-003  0.3539599E+03  0.7818608E-02  0.1061001E+00
         -2   -1    0    0    0  501 -0.00000000000E+00  0.00000000000E+00  0.53175668275E+03  0.53175668275E+03  0.25500000000E-02 0. -1.
          2   -1    0    0  501    0  0.00000000000E+00 -0.00000000000E+00 -0.58902698418E+02  0.58902698473E+02  0.25500000000E-02 0.  1.
    5000001    1    1    2    0    0  0.36866778925E+02 -0.14611026598E+03  0.14995043520E+03  0.22610064624E+03  0.77000000000E+02 0.  0.
   -5000001    1    1    2    0    0 -0.36866778925E+02  0.14611026598E+03  0.32290354913E+03  0.36455873499E+03  0.77000000000E+02 0.  0.
<mgrwt>
<rscale>  0 0.35395990E+03</rscale>
<asrwt>0</asrwt>
<pdfrwt beam="1">  1        2 0.90619538E-02 0.35395990E+03</pdfrwt>
<pdfrwt beam="2">  1       -2 0.81808718E-01 0.35395990E+03</pdfrwt>
<totfact> 0.98873780E+02</totfact>
</mgrwt>
</event>
<event>
 4    1  0.1171488E-003  0.2532028E+03  0.7818608E-02  0.1111297E+00
          2   -1    0    0  501    0  0.00000000000E+00  0.00000000000E+00  0.32380292536E+04  0.32380292536E+04  0.25500000000E-02 0.  1.
         -2   -1    0    0    0  501 -0.00000000000E+00 -0.00000000000E+00 -0.49498957687E+01  0.49498964255E+01  0.25500000000E-02 0. -1.
    5000001    1    1    2    0    0 -0.59274012210E+02 -0.80661011208E+02  0.17305949560E+04  0.17351966773E+04  0.77000000000E+02 0.  0.
   -5000001    1    1    2    0    0  0.59274012210E+02  0.80661011208E+02  0.15024844019E+04  0.15077824728E+04  0.77000000000E+02 0.  0.
<mgrwt>
<rscale>  0 0.25320275E+03</rscale>
<asrwt>0</asrwt>
<pdfrwt beam="1">  1        2 0.49815944E+00 0.25320275E+03</pdfrwt>
<pdfrwt beam="2">  1       -2 0.76152081E-03 0.25320275E+03</pdfrwt>
<totfact> 0.47362862E+03</totfact>
</mgrwt>
</event>
<event>
 4    1  0.1171488E-003  0.2295548E+03  0.7818608E-02  0.1126954E+00
          2   -1    0    0  501    0  0.00000000000E+00  0.00000000000E+00  0.81298118578E+03  0.81298118578E+03  0.25500000000E-02 0. -1.
         -2   -1    0    0    0  501 -0.00000000000E+00 -0.00000000000E+00 -0.16204372469E+02  0.16204372670E+02  0.25500000000E-02 0.  1.
    5000001    1    1    2    0    0 -0.47213909204E+01 -0.69268506653E+02  0.57624518587E+03  0.58549802031E+03  0.77000000000E+02 0.  0.
   -5000001    1    1    2    0    0  0.47213909204E+01  0.69268506653E+02  0.22053162744E+03  0.24368753814E+03  0.77000000000E+02 0.  0.
<mgrwt>
<rscale>  0 0.22955479E+03</rscale>
<asrwt>0</asrwt>
<pdfrwt beam="1">  1        2 0.12507404E+00 0.22955479E+03</pdfrwt>
<pdfrwt beam="2">  1       -2 0.24929802E-02 0.22955479E+03</pdfrwt>
<totfact> 0.19111685E+04</totfact>
</mgrwt>
</event>
<event>
 4    1  0.1171488E-003  0.3250055E+03  0.7818608E-02  0.1073368E+00
         -2   -1    0    0    0  501 -0.00000000000E+00  0.00000000000E+00  0.11920903676E+02  0.11920903949E+02  0.25500000000E-02 0.  1.
          2   -1    0    0  501    0  0.00000000000E+00 -0.00000000000E+00 -0.22151963352E+04  0.22151963352E+04  0.25500000000E-02 0. -1.
    5000001    1    1    2    0    0  0.12859261667E+03 -0.63393999946E+00 -0.15318601312E+04  0.15391754040E+04  0.77000000000E+02 0.  0.
   -5000001    1    1    2    0    0 -0.12859261667E+03  0.63393999946E+00 -0.67141530038E+03  0.68794183513E+03  0.77000000000E+02 0.  0.
<mgrwt>
<rscale>  0 0.32500549E+03</rscale>
<asrwt>0</asrwt>
<pdfrwt beam="1">  1        2 0.34079911E+00 0.32500549E+03</pdfrwt>
<pdfrwt beam="2">  1       -2 0.18339870E-02 0.32500549E+03</pdfrwt>
<totfact> 0.50155837E+03</totfact>
</mgrwt>
</event>
<event>
 4    1  0.1171488E-003  0.2424407E+03  0.7818608E-02  0.1118178E+00
          2   -1    0    0  501    0  0.00000000000E+00  0.00000000000E+00  0.19117257430E+04  0.19117257430E+04  0.25500000000E-02 0.  1.
         -2   -1    0    0    0  501 -0.00000000000E+00 -0.00000000000E+00 -0.76864436675E+01  0.76864440905E+01  0.25500000000E-02 0. -1.
    5000001    1    1    2    0    0 -0.29426753813E+02  0.88653876321E+02  0.10020469437E+04  0.10093327107E+04  0.77000000000E+02 0.  0.
   -5000001    1    1    2    0    0  0.29426753813E+02 -0.88653876321E+02  0.90199235571E+03  0.91007947642E+03  0.77000000000E+02 0.  0.
<mgrwt>
<rscale>  0 0.24244069E+03</rscale>
<asrwt>0</asrwt>
<pdfrwt beam="1">  1        2 0.29411188E+00 0.24244069E+03</pdfrwt>
<pdfrwt beam="2">  1       -2 0.11825289E-02 0.24244069E+03</pdfrwt>
<totfact> 0.13762778E+04</totfact>
</mgrwt>
</event>
<event>
 4    1  0.1171488E-003  0.2903833E+03  0.7818608E-02  0.1090149E+00
         -2   -1    0    0    0  501 -0.00000000000E+00  0.00000000000E+00  0.11269745608E+03  0.11269745611E+03  0.25500000000E-02 0. -1.
          2   -1    0    0  501    0  0.00000000000E+00 -0.00000000000E+00 -0.18705497507E+03  0.18705497509E+03  0.25500000000E-02 0.  1.
    5000001    1    1    2    0    0 -0.89500745558E+02 -0.42932443905E+02 -0.11231487081E+03  0.16851471271E+03  0.77000000000E+02 0.  0.
   -5000001    1    1    2    0    0  0.89500745558E+02  0.42932443905E+02  0.37957351829E+02  0.13123771848E+03  0.77000000000E+02 0.  0.
<mgrwt>
<rscale>  0 0.29038333E+03</rscale>
<asrwt>0</asrwt>
<pdfrwt beam="1">  1        2 0.28777688E-01 0.29038333E+03</pdfrwt>
<pdfrwt beam="2">  1       -2 0.17338070E-01 0.29038333E+03</pdfrwt>
<totfact> 0.49087513E+03</totfact>
</mgrwt>
</event>
<event>
 4    1  0.1171488E-003  0.2458710E+03  0.7818608E-02  0.1115942E+00
         -2   -1    0    0    0  501 -0.00000000000E+00  0.00000000000E+00  0.14826689534E+03  0.14826689536E+03  0.25500000000E-02 0. -1.
          2   -1    0    0  501    0  0.00000000000E+00 -0.00000000000E+00 -0.10193193960E+03  0.10193193963E+03  0.25500000000E-02 0.  1.
    5000001    1    1    2    0    0 -0.91177725998E+02  0.24280657448E+02  0.40231795834E+02  0.12825960175E+03  0.77000000000E+02 0.  0.
   -5000001    1    1    2    0    0  0.91177725998E+02 -0.24280657448E+02  0.61031599020E+01  0.12193923325E+03  0.77000000000E+02 0.  0.
<mgrwt>
<rscale>  0 0.24587096E+03</rscale>
<asrwt>0</asrwt>
<pdfrwt beam="1">  1        2 0.15681837E-01 0.24587096E+03</pdfrwt>
<pdfrwt beam="2">  1       -2 0.22810292E-01 0.24587096E+03</pdfrwt>
<totfact> 0.60919534E+03</totfact>
</mgrwt>
</event>
<event>
 4    1  0.1171488E-003  0.3297482E+03  0.7818608E-02  0.1071248E+00
          2   -1    0    0  501    0  0.00000000000E+00  0.00000000000E+00  0.57669926002E+03  0.57669926003E+03  0.25500000000E-02 0.  1.
         -2   -1    0    0    0  501 -0.00000000000E+00 -0.00000000000E+00 -0.47136288286E+02  0.47136288355E+02  0.25500000000E-02 0. -1.
    5000001    1    1    2    0    0  0.85890208838E+02 -0.10551128183E+03  0.16566737368E+03  0.22778155604E+03  0.77000000000E+02 0.  0.
   -5000001    1    1    2    0    0 -0.85890208838E+02  0.10551128183E+03  0.36389559806E+03  0.39605399234E+03  0.77000000000E+02 0.  0.
<mgrwt>
<rscale>  0 0.32974816E+03</rscale>
<asrwt>0</asrwt>
<pdfrwt beam="1">  1        2 0.88722960E-01 0.32974816E+03</pdfrwt>
<pdfrwt beam="2">  1       -2 0.72517369E-02 0.32974816E+03</pdfrwt>
<totfact> 0.58425222E+03</totfact>
</mgrwt>
</event>
<event>
 4    1  0.1171488E-003  0.4368087E+03  0.7818608E-02  0.1031730E+00
         -2   -1    0    0    0  501 -0.00000000000E+00  0.00000000000E+00  0.49554662133E+02  0.49554662199E+02  0.25500000000E-02 0. -1.
          2   -1    0    0  501    0  0.00000000000E+00 -0.00000000000E+00 -0.96258258648E+03  0.96258258648E+03  0.25500000000E-02 0.  1.
    5000001    1    1    2    0    0 -0.55730827978E+00 -0.18799464367E+03 -0.27072273227E+03  0.33847022677E+03  0.77000000000E+02 0.  0.
   -5000001    1    1    2    0    0  0.55730827978E+00  0.18799464367E+03 -0.64230519208E+03  0.67366702191E+03  0.77000000000E+02 0.  0.
<mgrwt>
<rscale>  0 0.43680868E+03</rscale>
<asrwt>0</asrwt>
<pdfrwt beam="1">  1        2 0.14808962E+00 0.43680868E+03</pdfrwt>
<pdfrwt beam="2">  1       -2 0.76237949E-02 0.43680868E+03</pdfrwt>
<totfact> 0.28347043E+03</totfact>
</mgrwt>
</event>
<event>
 4    1  0.1171488E-003  0.4326374E+03  0.7818608E-02  0.1033030E+00
         -2   -1    0    0    0  501 -0.00000000000E+00  0.00000000000E+00  0.38271117516E+02  0.38271117601E+02  0.25500000000E-02 0. -1.
          2   -1    0    0  501    0  0.00000000000E+00 -0.00000000000E+00 -0.12226917281E+04  0.12226917281E+04  0.25500000000E-02 0.  1.
    5000001    1    1    2    0    0 -0.12610266267E+03  0.15796773041E+03 -0.60099938551E+03  0.63873699342E+03  0.77000000000E+02 0.  0.
   -5000001    1    1    2    0    0  0.12610266267E+03 -0.15796773041E+03 -0.58342122508E+03  0.62222585229E+03  0.77000000000E+02 0.  0.
<mgrwt>
<rscale>  0 0.43263739E+03</rscale>
<asrwt>0</asrwt>
<pdfrwt beam="1">  1        2 0.18810639E+00 0.43263739E+03</pdfrwt>
<pdfrwt beam="2">  1       -2 0.58878652E-02 0.43263739E+03</pdfrwt>
<totfact> 0.29600547E+03</totfact>
</mgrwt>
</event>
<event>
 4    1  0.1171488E-003  0.4077279E+03  0.7818608E-02  0.1041136E+00
          2   -1    0    0  501    0  0.00000000000E+00  0.00000000000E+00  0.37985154298E+04  0.37985154298E+04  0.25500000000E-02 0. -1.
         -2   -1    0    0    0  501 -0.00000000000E+00 -0.00000000000E+00 -0.10941248279E+02  0.10941248576E+02  0.25500000000E-02 0.  1.
    5000001    1    1    2    0    0  0.47105462099E+02 -0.18233631760E+03  0.17733933641E+04  0.17850261850E+04  0.77000000000E+02 0.  0.
   -5000001    1    1    2    0    0 -0.47105462099E+02  0.18233631760E+03  0.20141808174E+04  0.20244304933E+04  0.77000000000E+02 0.  0.
<mgrwt>
<rscale>  0 0.40772786E+03</rscale>
<asrwt>0</asrwt>
<pdfrwt beam="1">  1        2 0.58438741E+00 0.40772786E+03</pdfrwt>
<pdfrwt beam="2">  1       -2 0.16832678E-02 0.40772786E+03</pdfrwt>
<totfact> 0.61067617E+02</totfact>
</mgrwt>
</event>
<event>
 4    1  0.1171488E-003  0.2850818E+03  0.7818608E-02  0.1092945E+00
          2   -1    0    0  501    0  0.00000000000E+00  0.00000000000E+00  0.47526223006E+03  0.47526223007E+03  0.25500000000E-02 0.  1.
         -2   -1    0    0    0  501 -0.00000000000E+00 -0.00000000000E+00 -0.42750953628E+02  0.42750953704E+02  0.25500000000E-02 0. -1.
    5000001    1    1    2    0    0  0.36918861616E+02 -0.11369110691E+03  0.23444842620E+03  0.27419652565E+03  0.77000000000E+02 0.  0.
   -5000001    1    1    2    0    0 -0.36918861616E+02  0.11369110691E+03  0.19806285023E+03  0.24381665812E+03  0.77000000000E+02 0.  0.
<mgrwt>
<rscale>  0 0.28508184E+03</rscale>
<asrwt>0</asrwt>
<pdfrwt beam="1">  1        2 0.73117268E-01 0.28508184E+03</pdfrwt>
<pdfrwt beam="2">  1       -2 0.65770696E-02 0.28508184E+03</pdfrwt>
<totfact> 0.84291534E+03</totfact>
</mgrwt>
</event>
<event>
 4    1  0.1171488E-003  0.2390225E+03  0.7818608E-02  0.1120446E+00
          2   -1    0    0  501    0  0.00000000000E+00  0.00000000000E+00  0.11223511022E+04  0.11223511022E+04  0.25500000000E-02 0.  1.
         -2   -1    0    0    0  501 -0.00000000000E+00 -0.00000000000E+00 -0.12725904568E+02  0.12725904823E+02  0.25500000000E-02 0. -1.
    5000001    1    1    2    0    0  0.70543953406E+00  0.24072952748E+02  0.97351639527E+03  0.97685371298E+03  0.77000000000E+02 0.  0.
   -5000001    1    1    2    0    0 -0.70543953406E+00 -0.24072952748E+02  0.13610880236E+03  0.15822329405E+03  0.77000000000E+02 0.  0.
<mgrwt>
<rscale>  0 0.23902245E+03</rscale>
<asrwt>0</asrwt>
<pdfrwt beam="1">  1        2 0.17266941E+00 0.23902245E+03</pdfrwt>
<pdfrwt beam="2">  1       -2 0.19578314E-02 0.23902245E+03</pdfrwt>
<totfact> 0.17530421E+04</totfact>
</mgrwt>
</event>
<event>
 4    1  0.1171488E-003  0.2640830E+03  0.7818608E-02  0.1104715E+00
          2   -1    0    0  501    0  0.00000000000E+00  0.00000000000E+00  0.15477951525E+04  0.15477951525E+04  0.25500000000E-02 0.  1.
         -2   -1    0    0    0  501 -0.00000000000E+00 -0.00000000000E+00 -0.11264384399E+02  0.11264384688E+02  0.25500000000E-02 0. -1.
    5000001    1    1    2    0    0  0.26722235185E+01  0.95819921241E+02  0.10524621575E+04  0.10596198333E+04  0.77000000000E+02 0.  0.
   -5000001    1    1    2    0    0 -0.26722235185E+01 -0.95819921241E+02  0.48406861062E+03  0.49943970394E+03  0.77000000000E+02 0.  0.
<mgrwt>
<rscale>  0 0.26408302E+03</rscale>
<asrwt>0</asrwt>
<pdfrwt beam="1">  1        2 0.23812219E+00 0.26408302E+03</pdfrwt>
<pdfrwt beam="2">  1       -2 0.17329833E-02 0.26408302E+03</pdfrwt>
<totfact> 0.12265311E+04</totfact>
</mgrwt>
</event>
<event>
 4    1  0.1171488E-003  0.3311959E+03  0.7818608E-02  0.1070609E+00
         -2   -1    0    0    0  501 -0.00000000000E+00  0.00000000000E+00  0.85183366890E+02  0.85183366929E+02  0.25500000000E-02 0. -1.
          2   -1    0    0  501    0  0.00000000000E+00 -0.00000000000E+00 -0.32192526243E+03  0.32192526244E+03  0.25500000000E-02 0.  1.
    5000001    1    1    2    0    0 -0.48580851164E+02  0.13154224441E+03 -0.65784162106E+02  0.17297403606E+03  0.77000000000E+02 0.  0.
   -5000001    1    1    2    0    0  0.48580851164E+02 -0.13154224441E+03 -0.17095773343E+03  0.23413459331E+03  0.77000000000E+02 0.  0.
<mgrwt>
<rscale>  0 0.33119588E+03</rscale>
<asrwt>0</asrwt>
<pdfrwt beam="1">  1        2 0.49526963E-01 0.33119588E+03</pdfrwt>
<pdfrwt beam="2">  1       -2 0.13105134E-01 0.33119588E+03</pdfrwt>
<totfact> 0.43410135E+03</totfact>
</mgrwt>
</event>
<event>
 4    1  0.1171488E-003  0.1996598E+03  0.7818608E-02  0.1150026E+00
          2   -1    0    0  501    0  0.00000000000E+00  0.00000000000E+00  0.31251678857E+03  0.31251678858E+03  0.25500000000E-02 0.  1.
         -2   -1    0    0    0  501 -0.00000000000E+00 -0.00000000000E+00 -0.31889523517E+02  0.31889523619E+02  0.25500000000E-02 0. -1.
    5000001    1    1    2    0    0  0.11466556983E+02 -0.62011096295E+02  0.15369223915E+03  0.18310423908E+03  0.77000000000E+02 0.  0.
   -5000001    1    1    2    0    0 -0.11466556983E+02  0.62011096295E+02  0.12693502590E+03  0.16130207312E+03  0.77000000000E+02 0.  0.
<mgrwt>
<rscale>  0 0.19965983E+03</rscale>
<asrwt>0</asrwt>
<pdfrwt beam="1">  1        2 0.48079506E-01 0.19965983E+03</pdfrwt>
<pdfrwt beam="2">  1       -2 0.49060805E-02 0.19965983E+03</pdfrwt>
<totfact> 0.20378663E+04</totfact>
</mgrwt>
</event>
<event>
 4    1  0.1171488E-003  0.2940035E+03  0.7818608E-02  0.1088277E+00
         -2   -1    0    0    0  501 -0.00000000000E+00  0.00000000000E+00  0.89360836145E+02  0.89360836181E+02  0.25500000000E-02 0. -1.
          2   -1    0    0  501    0  0.00000000000E+00 -0.00000000000E+00 -0.24182310524E+03  0.24182310526E+03  0.25500000000E-02 0.  1.
    5000001    1    1    2    0    0  0.17793139222E+02  0.11888299937E+03 -0.11574977194E+03  0.18378458326E+03  0.77000000000E+02 0.  0.
   -5000001    1    1    2    0    0 -0.17793139222E+02 -0.11888299937E+03 -0.36712497158E+02  0.14739935817E+03  0.77000000000E+02 0.  0.
<mgrwt>
<rscale>  0 0.29400350E+03</rscale>
<asrwt>0</asrwt>
<pdfrwt beam="1">  1        2 0.37203554E-01 0.29400350E+03</pdfrwt>
<pdfrwt beam="2">  1       -2 0.13747821E-01 0.29400350E+03</pdfrwt>
<totfact> 0.54513440E+03</totfact>
</mgrwt>
</event>
<event>
 4    1  0.1171488E-003  0.2993837E+03  0.7818608E-02  0.1085549E+00
         -2   -1    0    0    0  501 -0.00000000000E+00  0.00000000000E+00  0.17384355114E+02  0.17384355301E+02  0.25500000000E-02 0. -1.
          2   -1    0    0  501    0  0.00000000000E+00 -0.00000000000E+00 -0.12889549829E+04  0.12889549829E+04  0.25500000000E-02 0.  1.
    5000001    1    1    2    0    0 -0.10254525563E+03 -0.73340719920E+02 -0.53031477885E+03  0.55050627183E+03  0.77000000000E+02 0.  0.
   -5000001    1    1    2    0    0  0.10254525563E+03  0.73340719920E+02 -0.74125584891E+03  0.75583306636E+03  0.77000000000E+02 0.  0.
<mgrwt>
<rscale>  0 0.29938371E+03</rscale>
<asrwt>0</asrwt>
<pdfrwt beam="1">  1        2 0.19830069E+00 0.29938371E+03</pdfrwt>
<pdfrwt beam="2">  1       -2 0.26745172E-02 0.29938371E+03</pdfrwt>
<totfact> 0.89598697E+03</totfact>
</mgrwt>
</event>
<event>
 4    1  0.1171488E-003  0.2625638E+03  0.7818608E-02  0.1105613E+00
          2   -1    0    0  501    0  0.00000000000E+00  0.00000000000E+00  0.90528698004E+03  0.90528698004E+03  0.25500000000E-02 0.  1.
         -2   -1    0    0    0  501 -0.00000000000E+00 -0.00000000000E+00 -0.19038085821E+02  0.19038085992E+02  0.25500000000E-02 0. -1.
    5000001    1    1    2    0    0 -0.95566991081E+02  0.12022826462E+02  0.60167202135E+03  0.61417897995E+03  0.77000000000E+02 0.  0.
   -5000001    1    1    2    0    0  0.95566991081E+02 -0.12022826462E+02  0.28457687287E+03  0.31014608609E+03  0.77000000000E+02 0.  0.
<mgrwt>
<rscale>  0 0.26256375E+03</rscale>
<asrwt>0</asrwt>
<pdfrwt beam="1">  1        2 0.13927491E+00 0.26256375E+03</pdfrwt>
<pdfrwt beam="2">  1       -2 0.29289366E-02 0.26256375E+03</pdfrwt>
<totfact> 0.13162634E+04</totfact>
</mgrwt>
</event>
<event>
 4    1  0.1171488E-003  0.2321682E+03  0.7818608E-02  0.1125123E+00
          2   -1    0    0  501    0  0.00000000000E+00  0.00000000000E+00  0.39645117279E+04  0.39645117279E+04  0.25500000000E-02 0.  1.
         -2   -1    0    0    0  501 -0.00000000000E+00 -0.00000000000E+00 -0.33990358127E+01  0.33990367692E+01  0.25500000000E-02 0. -1.
    5000001    1    1    2    0    0 -0.64766222421E+02 -0.16082353092E+02  0.29310825673E+04  0.29328531027E+04  0.77000000000E+02 0.  0.
   -5000001    1    1    2    0    0  0.64766222421E+02  0.16082353092E+02  0.10300301248E+04  0.10350576620E+04  0.77000000000E+02 0.  0.
<mgrwt>
<rscale>  0 0.23216821E+03</rscale>
<asrwt>0</asrwt>
<pdfrwt beam="1">  1        2 0.60992523E+00 0.23216821E+03</pdfrwt>
<pdfrwt beam="2">  1       -2 0.52292836E-03 0.23216821E+03</pdfrwt>
<totfact> 0.26110371E+03</totfact>
</mgrwt>
</event>
<event>
 4    1  0.1171488E-003  0.2942590E+03  0.7818608E-02  0.1088146E+00
          2   -1    0    0  501    0  0.00000000000E+00  0.00000000000E+00  0.29512725138E+04  0.29512725138E+04  0.25500000000E-02 0.  1.
         -2   -1    0    0    0  501 -0.00000000000E+00 -0.00000000000E+00 -0.73348342381E+01  0.73348346813E+01  0.25500000000E-02 0. -1.
    5000001    1    1    2    0    0 -0.21274322745E+02 -0.12337131339E+03  0.14045085038E+04  0.14121778270E+04  0.77000000000E+02 0.  0.
   -5000001    1    1    2    0    0  0.21274322745E+02  0.12337131339E+03  0.15394291757E+04  0.15464295215E+04  0.77000000000E+02 0.  0.
<mgrwt>
<rscale>  0 0.29425904E+03</rscale>
<asrwt>0</asrwt>
<pdfrwt beam="1">  1        2 0.45404231E+00 0.29425904E+03</pdfrwt>
<pdfrwt beam="2">  1       -2 0.11284351E-02 0.29425904E+03</pdfrwt>
<totfact> 0.39756459E+03</totfact>
</mgrwt>
</event>
<event>
 4    1  0.1171488E-003  0.5223493E+03  0.7818608E-02  0.1008105E+00
         -2   -1    0    0    0  501 -0.00000000000E+00  0.00000000000E+00  0.12595333721E+03  0.12595333723E+03  0.25500000000E-02 0. -1.
          2   -1    0    0  501    0  0.00000000000E+00 -0.00000000000E+00 -0.54156723939E+03  0.54156723940E+03  0.25500000000E-02 0.  1.
    5000001    1    1    2    0    0  0.20477447361E+03 -0.13599151316E+03 -0.15273876820E+03  0.29947355143E+03  0.77000000000E+02 0.  0.
   -5000001    1    1    2    0    0 -0.20477447361E+03  0.13599151316E+03 -0.26287513399E+03  0.36804702520E+03  0.77000000000E+02 0.  0.
<mgrwt>
<rscale>  0 0.52234931E+03</rscale>
<asrwt>0</asrwt>
<pdfrwt beam="1">  1        2 0.83318036E-01 0.52234931E+03</pdfrwt>
<pdfrwt beam="2">  1       -2 0.19377437E-01 0.52234931E+03</pdfrwt>
<totfact> 0.12659518E+03</totfact>
</mgrwt>
</event>
<event>
 4    1  0.1171488E-003  0.2997264E+03  0.7818608E-02  0.1085377E+00
          2   -1    0    0  501    0  0.00000000000E+00  0.00000000000E+00  0.19629965500E+04  0.19629965500E+04  0.25500000000E-02 0.  1.
         -2   -1    0    0    0  501 -0.00000000000E+00 -0.00000000000E+00 -0.11441167050E+02  0.11441167334E+02  0.25500000000E-02 0. -1.
    5000001    1    1    2    0    0 -0.10247445412E+03  0.61696568814E+02  0.12863327096E+04  0.12941747641E+04  0.77000000000E+02 0.  0.
   -5000001    1    1    2    0    0  0.10247445412E+03 -0.61696568814E+02  0.66522267333E+03  0.68026295318E+03  0.77000000000E+02 0.  0.
<mgrwt>
<rscale>  0 0.29972635E+03</rscale>
<asrwt>0</asrwt>
<pdfrwt beam="1">  1        2 0.30199934E+00 0.29972635E+03</pdfrwt>
<pdfrwt beam="2">  1       -2 0.17601803E-02 0.29972635E+03</pdfrwt>
<totfact> 0.72545195E+03</totfact>
</mgrwt>
</event>
<event>
 4    1  0.1171488E-003  0.3445309E+03  0.7818608E-02  0.1064882E+00
         -2   -1    0    0    0  501 -0.00000000000E+00  0.00000000000E+00  0.21888477140E+02  0.21888477288E+02  0.25500000000E-02 0. -1.
          2   -1    0    0  501    0  0.00000000000E+00 -0.00000000000E+00 -0.13557538374E+04  0.13557538374E+04  0.25500000000E-02 0.  1.
    5000001    1    1    2    0    0  0.23974531346E+02 -0.12653021992E+03 -0.32854330602E+03  0.36118468771E+03  0.77000000000E+02 0.  0.
   -5000001    1    1    2    0    0 -0.23974531346E+02  0.12653021992E+03 -0.10053220542E+04  0.10164576270E+04  0.77000000000E+02 0.  0.
<mgrwt>
<rscale>  0 0.34453091E+03</rscale>
<asrwt>0</asrwt>
<pdfrwt beam="1">  1        2 0.20857745E+00 0.34453091E+03</pdfrwt>
<pdfrwt beam="2">  1       -2 0.33674591E-02 0.34453091E+03</pdfrwt>
<totfact> 0.58408636E+03</totfact>
</mgrwt>
</event>
<event>
 4    1  0.1171488E-003  0.4865921E+03  0.7818608E-02  0.1017339E+00
          2   -1    0    0  501    0  0.00000000000E+00  0.00000000000E+00  0.16973460664E+04  0.16973460664E+04  0.25500000000E-02 0.  1.
         -2   -1    0    0    0  501 -0.00000000000E+00 -0.00000000000E+00 -0.34873829700E+02  0.34873829794E+02  0.25500000000E-02 0. -1.
    5000001    1    1    2    0    0 -0.90464716570E+02  0.19918660801E+03  0.56952188787E+03  0.61493361473E+03  0.77000000000E+02 0.  0.
   -5000001    1    1    2    0    0  0.90464716570E+02 -0.19918660801E+03  0.10929503488E+04  0.11172862815E+04  0.77000000000E+02 0.  0.
<mgrwt>
<rscale>  0 0.48659206E+03</rscale>
<asrwt>0</asrwt>
<pdfrwt beam="1">  1        2 0.26113017E+00 0.48659206E+03</pdfrwt>
<pdfrwt beam="2">  1       -2 0.53652044E-02 0.48659206E+03</pdfrwt>
<totfact> 0.18671394E+03</totfact>
</mgrwt>
</event>
<event>
 4    1  0.1171488E-003  0.4089178E+03  0.7818608E-02  0.1040735E+00
         -2   -1    0    0    0  501 -0.00000000000E+00  0.00000000000E+00  0.44939484627E+02  0.44939484699E+02  0.25500000000E-02 0. -1.
          2   -1    0    0  501    0  0.00000000000E+00 -0.00000000000E+00 -0.93021627807E+03  0.93021627807E+03  0.25500000000E-02 0.  1.
    5000001    1    1    2    0    0  0.12997553308E+03  0.13724370024E+03 -0.47135106948E+03  0.51364414058E+03  0.77000000000E+02 0.  0.
   -5000001    1    1    2    0    0 -0.12997553308E+03 -0.13724370024E+03 -0.41392572396E+03  0.46151162219E+03  0.77000000000E+02 0.  0.
<mgrwt>
<rscale>  0 0.40891779E+03</rscale>
<asrwt>0</asrwt>
<pdfrwt beam="1">  1        2 0.14311018E+00 0.40891779E+03</pdfrwt>
<pdfrwt beam="2">  1       -2 0.69137676E-02 0.40891779E+03</pdfrwt>
<totfact> 0.34660203E+03</totfact>
</mgrwt>
</event>
<event>
 4    1  0.1171488E-003  0.1734072E+03  0.7818608E-02  0.1174341E+00
         -2   -1    0    0    0  501 -0.00000000000E+00  0.00000000000E+00  0.77768132026E+01  0.77768136207E+01  0.25500000000E-02 0. -1.
          2   -1    0    0  501    0  0.00000000000E+00 -0.00000000000E+00 -0.96665792558E+03  0.96665792559E+03  0.25500000000E-02 0.  1.
    5000001    1    1    2    0    0  0.26059365187E+02  0.24613466828E+02 -0.57735347967E+03  0.58356743719E+03  0.77000000000E+02 0.  0.
   -5000001    1    1    2    0    0 -0.26059365187E+02 -0.24613466828E+02 -0.38152763271E+03  0.39086730202E+03  0.77000000000E+02 0.  0.
<mgrwt>
<rscale>  0 0.17340725E+03</rscale>
<asrwt>0</asrwt>
<pdfrwt beam="1">  1        2 0.14871651E+00 0.17340725E+03</pdfrwt>
<pdfrwt beam="2">  1       -2 0.11964336E-02 0.17340725E+03</pdfrwt>
<totfact> 0.43516492E+04</totfact>
</mgrwt>
</event>
<event>
 4    1  0.1171488E-003  0.6149099E+03  0.7818608E-02  0.9874947E-01
          2   -1    0    0  501    0  0.00000000000E+00  0.00000000000E+00  0.98038861946E+02  0.98038861979E+02  0.25500000000E-02 0.  1.
         -2   -1    0    0    0  501 -0.00000000000E+00 -0.00000000000E+00 -0.96419469554E+03  0.96419469554E+03  0.25500000000E-02 0. -1.
    5000001    1    1    2    0    0  0.20638233694E+02 -0.22676812048E+03 -0.76423664800E+03  0.80114690994E+03  0.77000000000E+02 0.  0.
   -5000001    1    1    2    0    0 -0.20638233694E+02  0.22676812048E+03 -0.10191918560E+03  0.26108664759E+03  0.77000000000E+02 0.  0.
<mgrwt>
<rscale>  0 0.61490991E+03</rscale>
<asrwt>0</asrwt>
<pdfrwt beam="1">  1        2 0.15082902E-01 0.61490991E+03</pdfrwt>
<pdfrwt beam="2">  1       -2 0.14833764E+00 0.61490991E+03</pdfrwt>
<totfact> 0.12489500E+02</totfact>
</mgrwt>
</event>
<event>
 4    1  0.1171488E-003  0.2349972E+03  0.7818608E-02  0.1123171E+00
          2   -1    0    0  501    0  0.00000000000E+00  0.00000000000E+00  0.83319974332E+03  0.83319974332E+03  0.25500000000E-02 0.  1.
         -2   -1    0    0    0  501 -0.00000000000E+00 -0.00000000000E+00 -0.16569761605E+02  0.16569761801E+02  0.25500000000E-02 0. -1.
    5000001    1    1    2    0    0 -0.27623207773E+02  0.82753160357E+02  0.46726869179E+03  0.48153936234E+03  0.77000000000E+02 0.  0.
   -5000001    1    1    2    0    0  0.27623207773E+02 -0.82753160357E+02  0.34936128992E+03  0.36823014278E+03  0.77000000000E+02 0.  0.
<mgrwt>
<rscale>  0 0.23499720E+03</rscale>
<asrwt>0</asrwt>
<pdfrwt beam="1">  1        2 0.12818458E+00 0.23499720E+03</pdfrwt>
<pdfrwt beam="2">  1       -2 0.25491939E-02 0.23499720E+03</pdfrwt>
<totfact> 0.17942286E+04</totfact>
</mgrwt>
</event>
<event>
 4    1  0.1171488E-003  0.2254758E+03  0.7818608E-02  0.1129865E+00
          2   -1    0    0  501    0  0.00000000000E+00  0.00000000000E+00  0.25611034776E+03  0.25611034777E+03  0.25500000000E-02 0.  1.
         -2   -1    0    0    0  501 -0.00000000000E+00 -0.00000000000E+00 -0.49626387438E+02  0.49626387503E+02  0.25500000000E-02 0. -1.
    5000001    1    1    2    0    0  0.51442411446E+02 -0.63957334619E+02  0.94250709390E+02  0.14679597599E+03  0.77000000000E+02 0.  0.
   -5000001    1    1    2    0    0 -0.51442411446E+02  0.63957334619E+02  0.11223325093E+03  0.15894075928E+03  0.77000000000E+02 0.  0.
<mgrwt>
<rscale>  0 0.22547578E+03</rscale>
<asrwt>0</asrwt>
<pdfrwt beam="1">  1        2 0.39401592E-01 0.22547578E+03</pdfrwt>
<pdfrwt beam="2">  1       -2 0.76348288E-02 0.22547578E+03</pdfrwt>
<totfact> 0.12921185E+04</totfact>
</mgrwt>
</event>
<event>
 4    1  0.1171488E-003  0.2244489E+03  0.7818608E-02  0.1130609E+00
          2   -1    0    0  501    0  0.00000000000E+00  0.00000000000E+00  0.67660553934E+03  0.67660553935E+03  0.25500000000E-02 0.  1.
         -2   -1    0    0    0  501 -0.00000000000E+00 -0.00000000000E+00 -0.18613980215E+02  0.18613980389E+02  0.25500000000E-02 0. -1.
    5000001    1    1    2    0    0 -0.15389483565E+02  0.79815311565E+02  0.35258568078E+03  0.36993645732E+03  0.77000000000E+02 0.  0.
   -5000001    1    1    2    0    0  0.15389483565E+02 -0.79815311565E+02  0.30540587835E+03  0.32528306242E+03  0.77000000000E+02 0.  0.
<mgrwt>
<rscale>  0 0.22444886E+03</rscale>
<asrwt>0</asrwt>
<pdfrwt beam="1">  1        2 0.10409315E+00 0.22444886E+03</pdfrwt>
<pdfrwt beam="2">  1       -2 0.28636894E-02 0.22444886E+03</pdfrwt>
<totfact> 0.19498198E+04</totfact>
</mgrwt>
</event>
<event>
 4    1  0.1171488E-003  0.1858832E+03  0.7818608E-02  0.1162228E+00
         -2   -1    0    0    0  501 -0.00000000000E+00  0.00000000000E+00  0.81113579280E+03  0.81113579280E+03  0.25500000000E-02 0. -1.
          2   -1    0    0  501    0  0.00000000000E+00 -0.00000000000E+00 -0.10649435769E+02  0.10649436074E+02  0.25500000000E-02 0.  1.
    5000001    1    1    2    0    0 -0.15935994762E+02  0.49549765421E+02  0.40050359955E+03  0.41114628593E+03  0.77000000000E+02 0.  0.
   -5000001    1    1    2    0    0  0.15935994762E+02 -0.49549765421E+02  0.39998275748E+03  0.41063894295E+03  0.77000000000E+02 0.  0.
<mgrwt>
<rscale>  0 0.18588317E+03</rscale>
<asrwt>0</asrwt>
<pdfrwt beam="1">  1        2 0.16383743E-02 0.18588317E+03</pdfrwt>
<pdfrwt beam="2">  1       -2 0.12479016E+00 0.18588317E+03</pdfrwt>
<totfact> 0.35518253E+03</totfact>
</mgrwt>
</event>
<event>
 4    1  0.1171488E-003  0.2357589E+03  0.7818608E-02  0.1122651E+00
         -2   -1    0    0    0  501 -0.00000000000E+00  0.00000000000E+00  0.85909325161E+02  0.85909325199E+02  0.25500000000E-02 0. -1.
          2   -1    0    0  501    0  0.00000000000E+00 -0.00000000000E+00 -0.16174684266E+03  0.16174684268E+03  0.25500000000E-02 0.  1.
    5000001    1    1    2    0    0  0.30840358392E+02  0.69426682684E+02 -0.87138006156E+02  0.13890005072E+03  0.77000000000E+02 0.  0.
   -5000001    1    1    2    0    0 -0.30840358392E+02 -0.69426682684E+02  0.11300488659E+02  0.10875611715E+03  0.77000000000E+02 0.  0.
<mgrwt>
<rscale>  0 0.23575888E+03</rscale>
<asrwt>0</asrwt>
<pdfrwt beam="1">  1        2 0.24884130E-01 0.23575888E+03</pdfrwt>
<pdfrwt beam="2">  1       -2 0.13216819E-01 0.23575888E+03</pdfrwt>
<totfact> 0.89575358E+03</totfact>
</mgrwt>
</event>
<event>
 4    1  0.1171488E-003  0.2274981E+03  0.7818608E-02  0.1128413E+00
          2   -1    0    0  501    0  0.00000000000E+00  0.00000000000E+00  0.26417602418E+03  0.26417602419E+03  0.25500000000E-02 0.  1.
         -2   -1    0    0    0  501 -0.00000000000E+00 -0.00000000000E+00 -0.48978121141E+02  0.48978121207E+02  0.25500000000E-02 0. -1.
    5000001    1    1    2    0    0  0.66539523484E+02 -0.41076789795E+02  0.66417628746E+02  0.12827748148E+03  0.77000000000E+02 0.  0.
   -5000001    1    1    2    0    0 -0.66539523484E+02  0.41076789795E+02  0.14878027430E+03  0.18487666393E+03  0.77000000000E+02 0.  0.
<mgrwt>
<rscale>  0 0.22749809E+03</rscale>
<asrwt>0</asrwt>
<pdfrwt beam="1">  1        2 0.40642466E-01 0.22749809E+03</pdfrwt>
<pdfrwt beam="2">  1       -2 0.75350955E-02 0.22749809E+03</pdfrwt>
<totfact> 0.12762500E+04</totfact>
</mgrwt>
</event>
<event>
 4    1  0.1171488E-003  0.2290649E+03  0.7818608E-02  0.1127300E+00
          2   -1    0    0  501    0  0.00000000000E+00  0.00000000000E+00  0.58897045927E+03  0.58897045928E+03  0.25500000000E-02 0.  1.
         -2   -1    0    0    0  501 -0.00000000000E+00 -0.00000000000E+00 -0.22272225244E+02  0.22272225390E+02  0.25500000000E-02 0. -1.
    5000001    1    1    2    0    0 -0.57326500570E+02  0.53929371856E+02  0.19922054946E+03  0.22762366341E+03  0.77000000000E+02 0.  0.
   -5000001    1    1    2    0    0  0.57326500570E+02 -0.53929371856E+02  0.36747768457E+03  0.38361902126E+03  0.77000000000E+02 0.  0.
<mgrwt>
<rscale>  0 0.22906491E+03</rscale>
<asrwt>0</asrwt>
<pdfrwt beam="1">  1        2 0.90610829E-01 0.22906491E+03</pdfrwt>
<pdfrwt beam="2">  1       -2 0.34264966E-02 0.22906491E+03</pdfrwt>
<totfact> 0.17591899E+04</totfact>
</mgrwt>
</event>
<event>
 4    1  0.1171488E-003  0.3997118E+03  0.7818608E-02  0.1043880E+00
          2   -1    0    0  501    0  0.00000000000E+00  0.00000000000E+00  0.16772172710E+04  0.16772172710E+04  0.25500000000E-02 0.  1.
         -2   -1    0    0    0  501 -0.00000000000E+00 -0.00000000000E+00 -0.23814668533E+02  0.23814668669E+02  0.25500000000E-02 0. -1.
    5000001    1    1    2    0    0  0.49027325202E+02  0.16811336827E+03  0.58047656126E+03  0.61118558669E+03  0.77000000000E+02 0.  0.
   -5000001    1    1    2    0    0 -0.49027325202E+02 -0.16811336827E+03  0.10729260412E+04  0.10898463530E+04  0.77000000000E+02 0.  0.
<mgrwt>
<rscale>  0 0.39971176E+03</rscale>
<asrwt>0</asrwt>
<pdfrwt beam="1">  1        2 0.25803346E+00 0.39971176E+03</pdfrwt>
<pdfrwt beam="2">  1       -2 0.36637946E-02 0.39971176E+03</pdfrwt>
<totfact> 0.34429978E+03</totfact>
</mgrwt>
</event>
<event>
 4    1  0.1171488E-003  0.6392391E+03  0.7818608E-02  0.9827183E-01
         -2   -1    0    0    0  501 -0.00000000000E+00  0.00000000000E+00  0.46657372086E+02  0.46657372156E+02  0.25500000000E-02 0. -1.
          2   -1    0    0  501    0  0.00000000000E+00 -0.00000000000E+00 -0.21895070084E+04  0.21895070084E+04  0.25500000000E-02 0.  1.
    5000001    1    1    2    0    0  0.23608777007E+03  0.46017447503E+02 -0.38617165223E+03  0.46142451781E+03  0.77000000000E+02 0.  0.
   -5000001    1    1    2    0    0 -0.23608777007E+03 -0.46017447503E+02 -0.17566779841E+04  0.17747398628E+04  0.77000000000E+02 0.  0.
<mgrwt>
<rscale>  0 0.63923906E+03</rscale>
<asrwt>0</asrwt>
<pdfrwt beam="1">  1        2 0.33684715E+00 0.63923906E+03</pdfrwt>
<pdfrwt beam="2">  1       -2 0.71780590E-02 0.63923906E+03</pdfrwt>
<totfact> 0.63496127E+02</totfact>
</mgrwt>
</event>
<event>
 4    1  0.1171488E-003  0.2707409E+03  0.7818608E-02  0.1100856E+00
         -2   -1    0    0    0  501 -0.00000000000E+00  0.00000000000E+00  0.76302783807E+01  0.76302788068E+01  0.25500000000E-02 0. -1.
          2   -1    0    0  501    0  0.00000000000E+00 -0.00000000000E+00 -0.24016374048E+04  0.24016374048E+04  0.25500000000E-02 0.  1.
    5000001    1    1    2    0    0 -0.25666850493E+02 -0.10376180081E+03 -0.14742783199E+04  0.14801523107E+04  0.77000000000E+02 0.  0.
   -5000001    1    1    2    0    0  0.25666850493E+02  0.10376180081E+03 -0.91972880653E+03  0.92911537285E+03  0.77000000000E+02 0.  0.
<mgrwt>
<rscale>  0 0.27074093E+03</rscale>
<asrwt>0</asrwt>
<pdfrwt beam="1">  1        2 0.36948208E+00 0.27074093E+03</pdfrwt>
<pdfrwt beam="2">  1       -2 0.11738909E-02 0.27074093E+03</pdfrwt>
<totfact> 0.76603651E+03</totfact>
</mgrwt>
</event>
<event>
 4    1  0.1171488E-003  0.2346102E+03  0.7818608E-02  0.1123436E+00
          2   -1    0    0  501    0  0.00000000000E+00  0.00000000000E+00  0.26817241876E+04  0.26817241876E+04  0.25500000000E-02 0.  1.
         -2   -1    0    0    0  501 -0.00000000000E+00 -0.00000000000E+00 -0.51312096197E+01  0.51312102534E+01  0.25500000000E-02 0. -1.
    5000001    1    1    2    0    0  0.69837830343E+01  0.86446131779E+02  0.15398665635E+04  0.15442278784E+04  0.77000000000E+02 0.  0.
   -5000001    1    1    2    0    0 -0.69837830343E+01 -0.86446131779E+02  0.11367264145E+04  0.11426275195E+04  0.77000000000E+02 0.  0.
<mgrwt>
<rscale>  0 0.23461023E+03</rscale>
<asrwt>0</asrwt>
<pdfrwt beam="1">  1        2 0.41257393E+00 0.23461023E+03</pdfrwt>
<pdfrwt beam="2">  1       -2 0.78941504E-03 0.23461023E+03</pdfrwt>
<totfact> 0.95465307E+03</totfact>
</mgrwt>
</event>
<event>
 4    1  0.1171488E-003  0.2913239E+03  0.7818608E-02  0.1089660E+00
         -2   -1    0    0    0  501 -0.00000000000E+00  0.00000000000E+00  0.17956929675E+02  0.17956929856E+02  0.25500000000E-02 0. -1.
          2   -1    0    0  501    0  0.00000000000E+00 -0.00000000000E+00 -0.11815720113E+04  0.11815720113E+04  0.25500000000E-02 0.  1.
    5000001    1    1    2    0    0  0.40093144649E+02  0.10703389949E+03 -0.77601652695E+03  0.78815884566E+03  0.77000000000E+02 0.  0.
   -5000001    1    1    2    0    0 -0.40093144649E+02 -0.10703389949E+03 -0.38759855468E+03  0.41137009550E+03  0.77000000000E+02 0.  0.
<mgrwt>
<rscale>  0 0.29132391E+03</rscale>
<asrwt>0</asrwt>
<pdfrwt beam="1">  1        2 0.18178025E+00 0.29132391E+03</pdfrwt>
<pdfrwt beam="2">  1       -2 0.27626055E-02 0.29132391E+03</pdfrwt>
<totfact> 0.98120846E+03</totfact>
</mgrwt>
</event>
<event>
 4    1  0.1171488E-003  0.1872293E+03  0.7818608E-02  0.1160984E+00
         -2   -1    0    0    0  501 -0.00000000000E+00  0.00000000000E+00  0.77720681918E+01  0.77720686102E+01  0.25500000000E-02 0. -1.
          2   -1    0    0  501    0  0.00000000000E+00 -0.00000000000E+00 -0.11275893931E+04  0.11275893931E+04  0.25500000000E-02 0.  1.
    5000001    1    1    2    0    0  0.14632857955E+02 -0.41711504904E+02 -0.37994609760E+03  0.39018201811E+03  0.77000000000E+02 0.  0.
   -5000001    1    1    2    0    0 -0.14632857955E+02  0.41711504904E+02 -0.73987122730E+03  0.74517944360E+03  0.77000000000E+02 0.  0.
<mgrwt>
<rscale>  0 0.18722929E+03</rscale>
<asrwt>0</asrwt>
<pdfrwt beam="1">  1        2 0.17347516E+00 0.18722929E+03</pdfrwt>
<pdfrwt beam="2">  1       -2 0.11957037E-02 0.18722929E+03</pdfrwt>
<totfact> 0.35182565E+04</totfact>
</mgrwt>
</event>
<event>
 4    1  0.1171488E-003  0.4204320E+03  0.7818608E-02  0.1036926E+00
          2   -1    0    0  501    0  0.00000000000E+00  0.00000000000E+00  0.74032952738E+03  0.74032952738E+03  0.25500000000E-02 0.  1.
         -2   -1    0    0    0  501 -0.00000000000E+00 -0.00000000000E+00 -0.59690676032E+02  0.59690676087E+02  0.25500000000E-02 0. -1.
    5000001    1    1    2    0    0 -0.13997679362E+02  0.17092368426E+03  0.16130022806E+03  0.24770467182E+03  0.77000000000E+02 0.  0.
   -5000001    1    1    2    0    0  0.13997679362E+02 -0.17092368426E+03  0.51933862328E+03  0.55231553165E+03  0.77000000000E+02 0.  0.
<mgrwt>
<rscale>  0 0.42043202E+03</rscale>
<asrwt>0</asrwt>
<pdfrwt beam="1">  1        2 0.11389684E+00 0.42043202E+03</pdfrwt>
<pdfrwt beam="2">  1       -2 0.91831816E-02 0.42043202E+03</pdfrwt>
<totfact> 0.29906218E+03</totfact>
</mgrwt>
</event>
<event>
 4    1  0.1171488E-003  0.1910144E+03  0.7818608E-02  0.1157550E+00
          2   -1    0    0  501    0  0.00000000000E+00  0.00000000000E+00  0.17674742628E+03  0.17674742630E+03  0.25500000000E-02 0.  1.
         -2   -1    0    0    0  501 -0.00000000000E+00 -0.00000000000E+00 -0.51608260431E+02  0.51608260494E+02  0.25500000000E-02 0. -1.
    5000001    1    1    2    0    0 -0.23552285686E+02 -0.47383570595E+02  0.38878548197E+02  0.10119513048E+03  0.77000000000E+02 0.  0.
   -5000001    1    1    2    0    0  0.23552285686E+02  0.47383570595E+02  0.86260617652E+02  0.12716055631E+03  0.77000000000E+02 0.  0.
<mgrwt>
<rscale>  0 0.19101442E+03</rscale>
<asrwt>0</asrwt>
<pdfrwt beam="1">  1        2 0.27191912E-01 0.19101442E+03</pdfrwt>
<pdfrwt beam="2">  1       -2 0.79397323E-02 0.19101442E+03</pdfrwt>
<totfact> 0.17988117E+04</totfact>
</mgrwt>
</event>
<event>
 4    1  0.1171488E-003  0.2324929E+03  0.7818608E-02  0.1124897E+00
         -2   -1    0    0    0  501 -0.00000000000E+00  0.00000000000E+00  0.69480790989E+02  0.69480791035E+02  0.25500000000E-02 0. -1.
          2   -1    0    0  501    0  0.00000000000E+00 -0.00000000000E+00 -0.19448875610E+03  0.19448875612E+03  0.25500000000E-02 0.  1.
    5000001    1    1    2    0    0 -0.29209832792E+02 -0.59687833602E+02 -0.12641311061E+03  0.16225019675E+03  0.77000000000E+02 0.  0.
   -5000001    1    1    2    0    0  0.29209832792E+02  0.59687833602E+02  0.14051455002E+01  0.10171935040E+03  0.77000000000E+02 0.  0.
<mgrwt>
<rscale>  0 0.23249286E+03</rscale>
<asrwt>0</asrwt>
<pdfrwt beam="1">  1        2 0.29921347E-01 0.23249286E+03</pdfrwt>
<pdfrwt beam="2">  1       -2 0.10689353E-01 0.23249286E+03</pdfrwt>
<totfact> 0.10276333E+04</totfact>
</mgrwt>
</event>
<event>
 4    1  0.1171488E-003  0.5673938E+03  0.7818608E-02  0.9975462E-01
          2   -1    0    0  501    0  0.00000000000E+00  0.00000000000E+00  0.22818325639E+04  0.22818325639E+04  0.25500000000E-02 0.  1.
         -2   -1    0    0    0  501 -0.00000000000E+00 -0.00000000000E+00 -0.35271620773E+02  0.35271620866E+02  0.25500000000E-02 0. -1.
    5000001    1    1    2    0    0 -0.23897181024E+03  0.13158500198E+03  0.11703403083E+04  0.12041792126E+04  0.77000000000E+02 0.  0.
   -5000001    1    1    2    0    0  0.23897181024E+03 -0.13158500198E+03  0.10762206347E+04  0.11129249721E+04  0.77000000000E+02 0.  0.
<mgrwt>
<rscale>  0 0.56739381E+03</rscale>
<asrwt>0</asrwt>
<pdfrwt beam="1">  1        2 0.35105118E+00 0.56739381E+03</pdfrwt>
<pdfrwt beam="2">  1       -2 0.54264030E-02 0.56739381E+03</pdfrwt>
<totfact> 0.88159865E+02</totfact>
</mgrwt>
</event>
<event>
 4    1  0.1171488E-003  0.3238227E+03  0.7818608E-02  0.1073903E+00
         -2   -1    0    0    0  501 -0.00000000000E+00  0.00000000000E+00  0.12938895855E+02  0.12938896107E+02  0.25500000000E-02 0. -1.
          2   -1    0    0  501    0  0.00000000000E+00 -0.00000000000E+00 -0.20260836654E+04  0.20260836654E+04  0.25500000000E-02 0.  1.
    5000001    1    1    2    0    0  0.13863961446E+03 -0.28834913814E+01 -0.80185340821E+03  0.81739044860E+03  0.77000000000E+02 0.  0.
   -5000001    1    1    2    0    0 -0.13863961446E+03  0.28834913814E+01 -0.12112913613E+04  0.12216321129E+04  0.77000000000E+02 0.  0.
<mgrwt>
<rscale>  0 0.32382270E+03</rscale>
<asrwt>0</asrwt>
<pdfrwt beam="1">  1        2 0.31170493E+00 0.32382270E+03</pdfrwt>
<pdfrwt beam="2">  1       -2 0.19906010E-02 0.32382270E+03</pdfrwt>
<totfact> 0.56038157E+03</totfact>
</mgrwt>
</event>
<event>
 4    1  0.1171488E-003  0.3310208E+03  0.7818608E-02  0.1070686E+00
         -2   -1    0    0    0  501 -0.00000000000E+00  0.00000000000E+00  0.23725195135E+02  0.23725195272E+02  0.25500000000E-02 0. -1.
          2   -1    0    0  501    0  0.00000000000E+00 -0.00000000000E+00 -0.11546247728E+04  0.11546247728E+04  0.25500000000E-02 0.  1.
    5000001    1    1    2    0    0 -0.11863197120E+03  0.85819001360E+02 -0.54721063800E+03  0.57167029652E+03  0.77000000000E+02 0.  0.
   -5000001    1    1    2    0    0  0.11863197120E+03 -0.85819001360E+02 -0.58368893963E+03  0.60667967152E+03  0.77000000000E+02 0.  0.
<mgrwt>
<rscale>  0 0.33102083E+03</rscale>
<asrwt>0</asrwt>
<pdfrwt beam="1">  1        2 0.17763454E+00 0.33102083E+03</pdfrwt>
<pdfrwt beam="2">  1       -2 0.36500309E-02 0.33102083E+03</pdfrwt>
<totfact> 0.67192559E+03</totfact>
</mgrwt>
</event>
<event>
 4    1  0.1171488E-003  0.2071864E+03  0.7818608E-02  0.1143814E+00
          2   -1    0    0  501    0  0.00000000000E+00  0.00000000000E+00  0.27133353040E+04  0.27133353040E+04  0.25500000000E-02 0.  1.
         -2   -1    0    0    0  501 -0.00000000000E+00 -0.00000000000E+00 -0.39551144775E+01  0.39551152996E+01  0.25500000000E-02 0. -1.
    5000001    1    1    2    0    0 -0.61704265265E+02  0.27706328940E+02  0.15525061392E+04  0.15558853972E+04  0.77000000000E+02 0.  0.
   -5000001    1    1    2    0    0  0.61704265265E+02 -0.27706328940E+02  0.11568740503E+04  0.11614050221E+04  0.77000000000E+02 0.  0.
<mgrwt>
<rscale>  0 0.20718642E+03</rscale>
<asrwt>0</asrwt>
<pdfrwt beam="1">  1        2 0.41743533E+00 0.20718642E+03</pdfrwt>
<pdfrwt beam="2">  1       -2 0.60848048E-03 0.20718642E+03</pdfrwt>
<totfact> 0.13312518E+04</totfact>
</mgrwt>
</event>
<event>
 4    1  0.1171488E-003  0.1805668E+03  0.7818608E-02  0.1167256E+00
          2   -1    0    0  501    0  0.00000000000E+00  0.00000000000E+00  0.60888837272E+03  0.60888837273E+03  0.25500000000E-02 0.  1.
         -2   -1    0    0    0  501 -0.00000000000E+00 -0.00000000000E+00 -0.13386835236E+02  0.13386835479E+02  0.25500000000E-02 0. -1.
    5000001    1    1    2    0    0  0.33674492931E+02  0.33798645197E+01  0.41083205386E+03  0.41935351607E+03  0.77000000000E+02 0.  0.
   -5000001    1    1    2    0    0 -0.33674492931E+02 -0.33798645197E+01  0.18466948363E+03  0.20292169214E+03  0.77000000000E+02 0.  0.
<mgrwt>
<rscale>  0 0.18056676E+03</rscale>
<asrwt>0</asrwt>
<pdfrwt beam="1">  1        2 0.93675148E-01 0.18056676E+03</pdfrwt>
<pdfrwt beam="2">  1       -2 0.20595128E-02 0.18056676E+03</pdfrwt>
<totfact> 0.35274872E+04</totfact>
</mgrwt>
</event>
<event>
 4    1  0.1171488E-003  0.2400617E+03  0.7818608E-02  0.1119752E+00
         -2   -1    0    0    0  501 -0.00000000000E+00  0.00000000000E+00  0.24258857705E+02  0.24258857839E+02  0.25500000000E-02 0. -1.
          2   -1    0    0  501    0  0.00000000000E+00 -0.00000000000E+00 -0.59390309661E+03  0.59390309662E+03  0.25500000000E-02 0.  1.
    5000001    1    1    2    0    0  0.28815078040E+02 -0.79537531678E+02 -0.19120056869E+03  0.22280750691E+03  0.77000000000E+02 0.  0.
   -5000001    1    1    2    0    0 -0.28815078040E+02  0.79537531678E+02 -0.37844367021E+03  0.39535444754E+03  0.77000000000E+02 0.  0.
<mgrwt>
<rscale>  0 0.24006175E+03</rscale>
<asrwt>0</asrwt>
<pdfrwt beam="1">  1        2 0.91369696E-01 0.24006175E+03</pdfrwt>
<pdfrwt beam="2">  1       -2 0.37321324E-02 0.24006175E+03</pdfrwt>
<totfact> 0.15375173E+04</totfact>
</mgrwt>
</event>
<event>
 4    1  0.1171488E-003  0.2882685E+03  0.7818608E-02  0.1091257E+00
         -2   -1    0    0    0  501 -0.00000000000E+00  0.00000000000E+00  0.36142089653E+03  0.36142089654E+03  0.25500000000E-02 0. -1.
          2   -1    0    0  501    0  0.00000000000E+00 -0.00000000000E+00 -0.57480567639E+02  0.57480567695E+02  0.25500000000E-02 0.  1.
    5000001    1    1    2    0    0 -0.80377759943E+02  0.42008957378E+02  0.33732749644E+02  0.12366177741E+03  0.77000000000E+02 0.  0.
   -5000001    1    1    2    0    0  0.80377759943E+02 -0.42008957378E+02  0.27020757924E+03  0.29523968682E+03  0.77000000000E+02 0.  0.
<mgrwt>
<rscale>  0 0.28826847E+03</rscale>
<asrwt>0</asrwt>
<pdfrwt beam="1">  1        2 0.88431644E-02 0.28826847E+03</pdfrwt>
<pdfrwt beam="2">  1       -2 0.55603214E-01 0.28826847E+03</pdfrwt>
<totfact> 0.23141768E+03</totfact>
</mgrwt>
</event>
<event>
 4    1  0.1171488E-003  0.3718721E+03  0.7818608E-02  0.1053979E+00
         -2   -1    0    0    0  501 -0.00000000000E+00  0.00000000000E+00  0.35660166677E+02  0.35660166768E+02  0.25500000000E-02 0.  1.
          2   -1    0    0  501    0  0.00000000000E+00 -0.00000000000E+00 -0.96949125801E+03  0.96949125802E+03  0.25500000000E-02 0. -1.
    5000001    1    1    2    0    0  0.16637353373E+02  0.16834333942E+03 -0.48094446202E+03  0.51560920958E+03  0.77000000000E+02 0.  0.
   -5000001    1    1    2    0    0 -0.16637353373E+02 -0.16834333942E+03 -0.45288662932E+03  0.48954221521E+03  0.77000000000E+02 0.  0.
<mgrwt>
<rscale>  0 0.37187213E+03</rscale>
<asrwt>0</asrwt>
<pdfrwt beam="1">  1        2 0.14915248E+00 0.37187213E+03</pdfrwt>
<pdfrwt beam="2">  1       -2 0.54861802E-02 0.37187213E+03</pdfrwt>
<totfact> 0.46801549E+03</totfact>
</mgrwt>
</event>
<event>
 4    1  0.1171488E-003  0.2425628E+03  0.7818608E-02  0.1118097E+00
          2   -1    0    0  501    0  0.00000000000E+00  0.00000000000E+00  0.20161425555E+04  0.20161425555E+04  0.25500000000E-02 0.  1.
         -2   -1    0    0    0  501 -0.00000000000E+00 -0.00000000000E+00 -0.72957002571E+01  0.72957007028E+01  0.25500000000E-02 0. -1.
    5000001    1    1    2    0    0  0.50037215082E+02  0.71786190981E+02  0.72485194753E+03  0.73416369152E+03  0.77000000000E+02 0.  0.
   -5000001    1    1    2    0    0 -0.50037215082E+02 -0.71786190981E+02  0.12839949077E+04  0.12892745647E+04  0.77000000000E+02 0.  0.
<mgrwt>
<rscale>  0 0.24256275E+03</rscale>
<asrwt>0</asrwt>
<pdfrwt beam="1">  1        2 0.31017636E+00 0.24256275E+03</pdfrwt>
<pdfrwt beam="2">  1       -2 0.11224134E-02 0.24256275E+03</pdfrwt>
<totfact> 0.13090912E+04</totfact>
</mgrwt>
</event>
<event>
 4    1  0.1171488E-003  0.1894300E+03  0.7818608E-02  0.1158976E+00
         -2   -1    0    0    0  501 -0.00000000000E+00  0.00000000000E+00  0.40047922792E+01  0.40047930910E+01  0.25500000000E-02 0. -1.
          2   -1    0    0  501    0  0.00000000000E+00 -0.00000000000E+00 -0.22400484168E+04  0.22400484168E+04  0.25500000000E-02 0.  1.
    5000001    1    1    2    0    0  0.53409945045E+02  0.12187668617E+02 -0.11936605456E+04  0.11973953648E+04  0.77000000000E+02 0.  0.
   -5000001    1    1    2    0    0 -0.53409945045E+02 -0.12187668617E+02 -0.10423830789E+04  0.10466578451E+04  0.77000000000E+02 0.  0.
<mgrwt>
<rscale>  0 0.18942998E+03</rscale>
<asrwt>0</asrwt>
<pdfrwt beam="1">  1        2 0.34462183E+00 0.18942998E+03</pdfrwt>
<pdfrwt beam="2">  1       -2 0.61612374E-03 0.18942998E+03</pdfrwt>
<totfact> 0.23523921E+04</totfact>
</mgrwt>
</event>
<event>
 4    1  0.1171488E-003  0.1979371E+03  0.7818608E-02  0.1151491E+00
         -2   -1    0    0    0  501 -0.00000000000E+00  0.00000000000E+00  0.28745182143E+02  0.28745182256E+02  0.25500000000E-02 0. -1.
          2   -1    0    0  501    0  0.00000000000E+00 -0.00000000000E+00 -0.34074486102E+03  0.34074486103E+03  0.25500000000E-02 0.  1.
    5000001    1    1    2    0    0  0.33627188931E+02  0.46071473669E+02 -0.20219481849E+03  0.22375234780E+03  0.77000000000E+02 0.  0.
   -5000001    1    1    2    0    0 -0.33627188931E+02 -0.46071473669E+02 -0.10980486039E+03  0.14573769549E+03  0.77000000000E+02 0.  0.
<mgrwt>
<rscale>  0 0.19793709E+03</rscale>
<asrwt>0</asrwt>
<pdfrwt beam="1">  1        2 0.52422284E-01 0.19793709E+03</pdfrwt>
<pdfrwt beam="2">  1       -2 0.44223360E-02 0.19793709E+03</pdfrwt>
<totfact> 0.21709249E+04</totfact>
</mgrwt>
</event>
<event>
 4    1  0.1171488E-003  0.1996240E+03  0.7818608E-02  0.1150057E+00
          2   -1    0    0  501    0  0.00000000000E+00  0.00000000000E+00  0.53782275929E+02  0.53782275989E+02  0.25500000000E-02 0.  1.
         -2   -1    0    0    0  501 -0.00000000000E+00 -0.00000000000E+00 -0.18523646822E+03  0.18523646824E+03  0.25500000000E-02 0. -1.
    5000001    1    1    2    0    0  0.93715499067E+01 -0.62402933276E+02 -0.74318560458E+02  0.12423445761E+03  0.77000000000E+02 0.  0.
   -5000001    1    1    2    0    0 -0.93715499067E+01  0.62402933276E+02 -0.57135631833E+02  0.11478428662E+03  0.77000000000E+02 0.  0.
<mgrwt>
<rscale>  0 0.19962404E+03</rscale>
<asrwt>0</asrwt>
<pdfrwt beam="1">  1        2 0.82741964E-02 0.19962404E+03</pdfrwt>
<pdfrwt beam="2">  1       -2 0.28497918E-01 0.19962404E+03</pdfrwt>
<totfact> 0.88694771E+03</totfact>
</mgrwt>
</event>
<event>
 4    1  0.1171488E-003  0.2289393E+03  0.7818608E-02  0.1127389E+00
          2   -1    0    0  501    0  0.00000000000E+00  0.00000000000E+00  0.12873993245E+03  0.12873993248E+03  0.25500000000E-02 0.  1.
         -2   -1    0    0    0  501 -0.00000000000E+00 -0.00000000000E+00 -0.10178117132E+03  0.10178117135E+03  0.25500000000E-02 0. -1.
    5000001    1    1    2    0    0  0.50607761640E+02  0.40708370188E+02 -0.41265232072E+02  0.10885833142E+03  0.77000000000E+02 0.  0.
   -5000001    1    1    2    0    0 -0.50607761640E+02 -0.40708370188E+02  0.68223993207E+02  0.12166277241E+03  0.77000000000E+02 0.  0.
<mgrwt>
<rscale>  0 0.22893930E+03</rscale>
<asrwt>0</asrwt>
<pdfrwt beam="1">  1        2 0.19806143E-01 0.22893930E+03</pdfrwt>
<pdfrwt beam="2">  1       -2 0.15658642E-01 0.22893930E+03</pdfrwt>
<totfact> 0.87614599E+03</totfact>
</mgrwt>
</event>
<event>
 4    1  0.1171488E-003  0.2980346E+03  0.7818608E-02  0.1086227E+00
         -2   -1    0    0    0  501 -0.00000000000E+00  0.00000000000E+00  0.27072500995E+02  0.27072501116E+02  0.25500000000E-02 0. -1.
          2   -1    0    0  501    0  0.00000000000E+00 -0.00000000000E+00 -0.82024771474E+03  0.82024771474E+03  0.25500000000E-02 0.  1.
    5000001    1    1    2    0    0  0.55119058798E+02  0.73410486286E+02 -0.64847952307E+03  0.65945576196E+03  0.77000000000E+02 0.  0.
   -5000001    1    1    2    0    0 -0.55119058798E+02 -0.73410486286E+02 -0.14469569067E+03  0.18786445390E+03  0.77000000000E+02 0.  0.
<mgrwt>
<rscale>  0 0.29803461E+03</rscale>
<asrwt>0</asrwt>
<pdfrwt beam="1">  1        2 0.12619194E+00 0.29803461E+03</pdfrwt>
<pdfrwt beam="2">  1       -2 0.41650008E-02 0.29803461E+03</pdfrwt>
<totfact> 0.88813952E+03</totfact>
</mgrwt>
</event>
<event>
 4    1  0.1171488E-003  0.2511867E+03  0.7818608E-02  0.1112557E+00
          2   -1    0    0  501    0  0.00000000000E+00  0.00000000000E+00  0.20680281248E+04  0.20680281248E+04  0.25500000000E-02 0.  1.
         -2   -1    0    0    0  501 -0.00000000000E+00 -0.00000000000E+00 -0.76274059718E+01  0.76274063981E+01  0.25500000000E-02 0. -1.
    5000001    1    1    2    0    0  0.70974373610E+02 -0.41056227604E+01  0.45826386266E+03  0.47009465608E+03  0.77000000000E+02 0.  0.
   -5000001    1    1    2    0    0 -0.70974373610E+02  0.41056227604E+01  0.16021368562E+04  0.16055608751E+04  0.77000000000E+02 0.  0.
<mgrwt>
<rscale>  0 0.25118671E+03</rscale>
<asrwt>0</asrwt>
<pdfrwt beam="1">  1        2 0.31815815E+00 0.25118671E+03</pdfrwt>
<pdfrwt beam="2">  1       -2 0.11734472E-02 0.25118671E+03</pdfrwt>
<totfact> 0.11533987E+04</totfact>
</mgrwt>
</event>
<event>
 4    1  0.1171488E-003  0.1916603E+03  0.7818608E-02  0.1156972E+00
          2   -1    0    0  501    0  0.00000000000E+00  0.00000000000E+00  0.73358433842E+03  0.73358433843E+03  0.25500000000E-02 0.  1.
         -2   -1    0    0    0  501 -0.00000000000E+00 -0.00000000000E+00 -0.12518558711E+02  0.12518558970E+02  0.25500000000E-02 0. -1.
    5000001    1    1    2    0    0 -0.40847476657E+02 -0.31467740920E+02  0.26552178369E+03  0.28122864840E+03  0.77000000000E+02 0.  0.
   -5000001    1    1    2    0    0  0.40847476657E+02  0.31467740920E+02  0.45554399602E+03  0.46487424900E+03  0.77000000000E+02 0.  0.
<mgrwt>
<rscale>  0 0.19166031E+03</rscale>
<asrwt>0</asrwt>
<pdfrwt beam="1">  1        2 0.11285914E+00 0.19166031E+03</pdfrwt>
<pdfrwt beam="2">  1       -2 0.19259320E-02 0.19166031E+03</pdfrwt>
<totfact> 0.31353707E+04</totfact>
</mgrwt>
</event>
<event>
 4    1  0.1171488E-003  0.2632489E+03  0.7818608E-02  0.1105207E+00
          2   -1    0    0  501    0  0.00000000000E+00  0.00000000000E+00  0.83762503958E+03  0.83762503958E+03  0.25500000000E-02 0.  1.
         -2   -1    0    0    0  501 -0.00000000000E+00 -0.00000000000E+00 -0.20683476050E+02  0.20683476207E+02  0.25500000000E-02 0. -1.
    5000001    1    1    2    0    0 -0.61947441269E+02  0.13360301611E+02  0.12837572829E+03  0.16255863789E+03  0.77000000000E+02 0.  0.
   -5000001    1    1    2    0    0  0.61947441269E+02 -0.13360301611E+02  0.68856583523E+03  0.69574987789E+03  0.77000000000E+02 0.  0.
<mgrwt>
<rscale>  0 0.26324891E+03</rscale>
<asrwt>0</asrwt>
<pdfrwt beam="1">  1        2 0.12886540E+00 0.26324891E+03</pdfrwt>
<pdfrwt beam="2">  1       -2 0.31820731E-02 0.26324891E+03</pdfrwt>
<totfact> 0.12890138E+04</totfact>
</mgrwt>
</event>
<event>
 4    1  0.1171488E-003  0.2049766E+03  0.7818608E-02  0.1145607E+00
          2   -1    0    0  501    0  0.00000000000E+00  0.00000000000E+00  0.34395007290E+03  0.34395007291E+03  0.25500000000E-02 0.  1.
         -2   -1    0    0    0  501 -0.00000000000E+00 -0.00000000000E+00 -0.30538898569E+02  0.30538898676E+02  0.25500000000E-02 0. -1.
    5000001    1    1    2    0    0  0.33609691869E+02 -0.48608792578E+02  0.96597262890E+02  0.13693961188E+03  0.77000000000E+02 0.  0.
   -5000001    1    1    2    0    0 -0.33609691869E+02  0.48608792578E+02  0.21681391145E+03  0.23754935971E+03  0.77000000000E+02 0.  0.
<mgrwt>
<rscale>  0 0.20497665E+03</rscale>
<asrwt>0</asrwt>
<pdfrwt beam="1">  1        2 0.52915394E-01 0.20497665E+03</pdfrwt>
<pdfrwt beam="2">  1       -2 0.46982922E-02 0.20497665E+03</pdfrwt>
<totfact> 0.19670005E+04</totfact>
</mgrwt>
</event>
<event>
 4    1  0.1171488E-003  0.2480227E+03  0.7818608E-02  0.1114561E+00
         -2   -1    0    0    0  501 -0.00000000000E+00  0.00000000000E+00  0.86522944858E+02  0.86522944895E+02  0.25500000000E-02 0.  1.
          2   -1    0    0  501    0  0.00000000000E+00 -0.00000000000E+00 -0.17774256494E+03  0.17774256496E+03  0.25500000000E-02 0. -1.
    5000001    1    1    2    0    0 -0.92012779441E+02 -0.31315830654E+02 -0.47385480128E+02  0.13274568376E+03  0.77000000000E+02 0.  0.
   -5000001    1    1    2    0    0  0.92012779441E+02  0.31315830654E+02 -0.43834139955E+02  0.13151982609E+03  0.77000000000E+02 0.  0.
<mgrwt>
<rscale>  0 0.24802266E+03</rscale>
<asrwt>0</asrwt>
<pdfrwt beam="1">  1        2 0.27345010E-01 0.24802266E+03</pdfrwt>
<pdfrwt beam="2">  1       -2 0.13311222E-01 0.24802266E+03</pdfrwt>
<totfact> 0.79934216E+03</totfact>
</mgrwt>
</event>
<event>
 4    1  0.1171488E-003  0.2309830E+03  0.7818608E-02  0.1125950E+00
          2   -1    0    0  501    0  0.00000000000E+00  0.00000000000E+00  0.10833526522E+03  0.10833526525E+03  0.25500000000E-02 0.  1.
         -2   -1    0    0    0  501 -0.00000000000E+00 -0.00000000000E+00 -0.12312049709E+03  0.12312049712E+03  0.25500000000E-02 0. -1.
    5000001    1    1    2    0    0 -0.14545760892E+02  0.83505252779E+02 -0.22409456526E+02  0.11668714644E+03  0.77000000000E+02 0.  0.
   -5000001    1    1    2    0    0  0.14545760892E+02 -0.83505252779E+02  0.76242246604E+01  0.11476861593E+03  0.77000000000E+02 0.  0.
<mgrwt>
<rscale>  0 0.23098304E+03</rscale>
<asrwt>0</asrwt>
<pdfrwt beam="1">  1        2 0.16666964E-01 0.23098304E+03</pdfrwt>
<pdfrwt beam="2">  1       -2 0.18941615E-01 0.23098304E+03</pdfrwt>
<totfact> 0.77798754E+03</totfact>
</mgrwt>
</event>
<event>
 4    1  0.1171488E-003  0.2507942E+03  0.7818608E-02  0.1112804E+00
         -2   -1    0    0    0  501 -0.00000000000E+00  0.00000000000E+00  0.20372743787E+03  0.20372743789E+03  0.25500000000E-02 0. -1.
          2   -1    0    0  501    0  0.00000000000E+00 -0.00000000000E+00 -0.77183703998E+02  0.77183704041E+02  0.25500000000E-02 0.  1.
    5000001    1    1    2    0    0  0.43900571168E+02 -0.64873199511E+02  0.13103148428E+03  0.17097965387E+03  0.77000000000E+02 0.  0.
   -5000001    1    1    2    0    0 -0.43900571168E+02  0.64873199511E+02 -0.44877504072E+01  0.10993148806E+03  0.77000000000E+02 0.  0.
<mgrwt>
<rscale>  0 0.25079424E+03</rscale>
<asrwt>0</asrwt>
<pdfrwt beam="1">  1        2 0.11874416E-01 0.25079424E+03</pdfrwt>
<pdfrwt beam="2">  1       -2 0.31342682E-01 0.25079424E+03</pdfrwt>
<totfact> 0.48294047E+03</totfact>
</mgrwt>
</event>
<event>
 4    1  0.1171488E-003  0.1913159E+03  0.7818608E-02  0.1157280E+00
         -2   -1    0    0    0  501 -0.00000000000E+00  0.00000000000E+00  0.37210441168E+03  0.37210441168E+03  0.25500000000E-02 0. -1.
          2   -1    0    0  501    0  0.00000000000E+00 -0.00000000000E+00 -0.24591056847E+02  0.24591056979E+02  0.25500000000E-02 0.  1.
    5000001    1    1    2    0    0 -0.30635209585E+02 -0.43462134353E+02  0.13260036274E+03  0.16229395980E+03  0.77000000000E+02 0.  0.
   -5000001    1    1    2    0    0  0.30635209585E+02  0.43462134353E+02  0.21491299209E+03  0.23440150886E+03  0.77000000000E+02 0.  0.
<mgrwt>
<rscale>  0 0.19131587E+03</rscale>
<asrwt>0</asrwt>
<pdfrwt beam="1">  1        2 0.37832393E-02 0.19131587E+03</pdfrwt>
<pdfrwt beam="2">  1       -2 0.57246837E-01 0.19131587E+03</pdfrwt>
<totfact> 0.64675816E+03</totfact>
</mgrwt>
</event>
<event>
 4    1  0.1171488E-003  0.1860950E+03  0.7818608E-02  0.1162031E+00
         -2   -1    0    0    0  501 -0.00000000000E+00  0.00000000000E+00  0.90478961199E+01  0.90478964793E+01  0.25500000000E-02 0. -1.
          2   -1    0    0  501    0  0.00000000000E+00 -0.00000000000E+00 -0.95688962465E+03  0.95688962466E+03  0.25500000000E-02 0.  1.
    5000001    1    1    2    0    0 -0.33382766615E+02  0.38169365004E+02 -0.40877393202E+03  0.41904228549E+03  0.77000000000E+02 0.  0.
   -5000001    1    1    2    0    0  0.33382766615E+02 -0.38169365004E+02 -0.53906779652E+03  0.54689523565E+03  0.77000000000E+02 0.  0.
<mgrwt>
<rscale>  0 0.18609501E+03</rscale>
<asrwt>0</asrwt>
<pdfrwt beam="1">  1        2 0.14721371E+00 0.18609501E+03</pdfrwt>
<pdfrwt beam="2">  1       -2 0.13919848E-02 0.18609501E+03</pdfrwt>
<totfact> 0.35650498E+04</totfact>
</mgrwt>
</event>
<event>
 4    1  0.1171488E-003  0.2112160E+03  0.7818608E-02  0.1140607E+00
         -2   -1    0    0    0  501 -0.00000000000E+00  0.00000000000E+00  0.25967727685E+02  0.25967727811E+02  0.25500000000E-02 0. -1.
          2   -1    0    0  501    0  0.00000000000E+00 -0.00000000000E+00 -0.42949649999E+03  0.42949650000E+03  0.25500000000E-02 0.  1.
    5000001    1    1    2    0    0 -0.71997786756E+02  0.58613586585E+01 -0.20705144179E+03  0.23241629971E+03  0.77000000000E+02 0.  0.
   -5000001    1    1    2    0    0  0.71997786756E+02 -0.58613586585E+01 -0.19647733051E+03  0.22304792810E+03  0.77000000000E+02 0.  0.
<mgrwt>
<rscale>  0 0.21121599E+03</rscale>
<asrwt>0</asrwt>
<pdfrwt beam="1">  1        2 0.66076379E-01 0.21121599E+03</pdfrwt>
<pdfrwt beam="2">  1       -2 0.39950354E-02 0.21121599E+03</pdfrwt>
<totfact> 0.19791818E+04</totfact>
</mgrwt>
</event>
<event>
 4    1  0.1171488E-003  0.3185355E+03  0.7818608E-02  0.1076325E+00
         -2   -1    0    0    0  501 -0.00000000000E+00  0.00000000000E+00  0.73617160385E+02  0.73617160429E+02  0.25500000000E-02 0. -1.
          2   -1    0    0  501    0  0.00000000000E+00 -0.00000000000E+00 -0.34456926487E+03  0.34456926488E+03  0.25500000000E-02 0.  1.
    5000001    1    1    2    0    0  0.10951061942E+03  0.81153999206E+02 -0.17394618065E+03  0.23401884778E+03  0.77000000000E+02 0.  0.
   -5000001    1    1    2    0    0 -0.10951061942E+03 -0.81153999206E+02 -0.97005923832E+02  0.18416757753E+03  0.77000000000E+02 0.  0.
<mgrwt>
<rscale>  0 0.31853547E+03</rscale>
<asrwt>0</asrwt>
<pdfrwt beam="1">  1        2 0.53010655E-01 0.31853547E+03</pdfrwt>
<pdfrwt beam="2">  1       -2 0.11325717E-01 0.31853547E+03</pdfrwt>
<totfact> 0.51059341E+03</totfact>
</mgrwt>
</event>
<event>
 4    1  0.1171488E-003  0.2256293E+03  0.7818608E-02  0.1129754E+00
         -2   -1    0    0    0  501 -0.00000000000E+00  0.00000000000E+00  0.32418960347E+03  0.32418960348E+03  0.25500000000E-02 0. -1.
          2   -1    0    0  501    0  0.00000000000E+00 -0.00000000000E+00 -0.39258353986E+02  0.39258354069E+02  0.25500000000E-02 0.  1.
    5000001    1    1    2    0    0  0.19747493855E+02  0.77763505662E+02  0.17307219246E+03  0.20571852160E+03  0.77000000000E+02 0.  0.
   -5000001    1    1    2    0    0 -0.19747493855E+02 -0.77763505662E+02  0.11185905702E+03  0.15772943595E+03  0.77000000000E+02 0.  0.
<mgrwt>
<rscale>  0 0.22562934E+03</rscale>
<asrwt>0</asrwt>
<pdfrwt beam="1">  1        2 0.60397467E-02 0.22562934E+03</pdfrwt>
<pdfrwt beam="2">  1       -2 0.49875325E-01 0.22562934E+03</pdfrwt>
<totfact> 0.46517098E+03</totfact>
</mgrwt>
</event>
<event>
 4    1  0.1171488E-003  0.2960798E+03  0.7818608E-02  0.1087217E+00
          2   -1    0    0  501    0  0.00000000000E+00  0.00000000000E+00  0.10891977328E+04  0.10891977328E+04  0.25500000000E-02 0.  1.
         -2   -1    0    0    0  501 -0.00000000000E+00 -0.00000000000E+00 -0.20121061892E+02  0.20121062053E+02  0.25500000000E-02 0. -1.
    5000001    1    1    2    0    0 -0.77034787264E+02 -0.48460224005E+02  0.20568103775E+03  0.23773186797E+03  0.77000000000E+02 0.  0.
   -5000001    1    1    2    0    0  0.77034787264E+02  0.48460224005E+02  0.86339563318E+03  0.87158692690E+03  0.77000000000E+02 0.  0.
<mgrwt>
<rscale>  0 0.29607982E+03</rscale>
<asrwt>0</asrwt>
<pdfrwt beam="1">  1        2 0.16756886E+00 0.29607982E+03</pdfrwt>
<pdfrwt beam="2">  1       -2 0.30955484E-02 0.29607982E+03</pdfrwt>
<totfact> 0.93765705E+03</totfact>
</mgrwt>
</event>
<event>
 4    1  0.1171488E-003  0.2342736E+03  0.7818608E-02  0.1123667E+00
          2   -1    0    0  501    0  0.00000000000E+00  0.00000000000E+00  0.64332780031E+03  0.64332780031E+03  0.25500000000E-02 0.  1.
         -2   -1    0    0    0  501 -0.00000000000E+00 -0.00000000000E+00 -0.21328211959E+02  0.21328212112E+02  0.25500000000E-02 0. -1.
    5000001    1    1    2    0    0 -0.74427126850E+01  0.74434812650E+02  0.17804645153E+03  0.20790736930E+03  0.77000000000E+02 0.  0.
   -5000001    1    1    2    0    0  0.74427126850E+01 -0.74434812650E+02  0.44395313682E+03  0.45674864312E+03  0.77000000000E+02 0.  0.
<mgrwt>
<rscale>  0 0.23427362E+03</rscale>
<asrwt>0</asrwt>
<pdfrwt beam="1">  1        2 0.98973482E-01 0.23427362E+03</pdfrwt>
<pdfrwt beam="2">  1       -2 0.32812642E-02 0.23427362E+03</pdfrwt>
<totfact> 0.16953379E+04</totfact>
</mgrwt>
</event>
<event>
 4    1  0.1171488E-003  0.1780253E+03  0.7818608E-02  0.1169728E+00
         -2   -1    0    0    0  501 -0.00000000000E+00  0.00000000000E+00  0.82387074732E+02  0.82387074772E+02  0.25500000000E-02 0. -1.
          2   -1    0    0  501    0  0.00000000000E+00 -0.00000000000E+00 -0.96171061658E+02  0.96171061692E+02  0.25500000000E-02 0.  1.
    5000001    1    1    2    0    0 -0.37720613413E+02  0.20811211314E+02 -0.18687347134E+02  0.90189623214E+02  0.77000000000E+02 0.  0.
   -5000001    1    1    2    0    0  0.37720613413E+02 -0.20811211314E+02  0.49033602078E+01  0.88368513249E+02  0.77000000000E+02 0.  0.
<mgrwt>
<rscale>  0 0.17802531E+03</rscale>
<asrwt>0</asrwt>
<pdfrwt beam="1">  1        2 0.14795548E-01 0.17802531E+03</pdfrwt>
<pdfrwt beam="2">  1       -2 0.12674935E-01 0.17802531E+03</pdfrwt>
<totfact> 0.17070333E+04</totfact>
</mgrwt>
</event>
<event>
 4    1  0.1171488E-003  0.1810416E+03  0.7818608E-02  0.1166799E+00
          2   -1    0    0  501    0  0.00000000000E+00  0.00000000000E+00  0.30806893173E+04  0.30806893173E+04  0.25500000000E-02 0.  1.
         -2   -1    0    0    0  501 -0.00000000000E+00 -0.00000000000E+00 -0.26597974561E+01  0.26597986785E+01  0.25500000000E-02 0. -1.
    5000001    1    1    2    0    0 -0.19297835676E+02  0.94784761185E+01  0.81588905101E+03  0.81979643299E+03  0.77000000000E+02 0.  0.
   -5000001    1    1    2    0    0  0.19297835676E+02 -0.94784761185E+01  0.22621404688E+04  0.22635526830E+04  0.77000000000E+02 0.  0.
<mgrwt>
<rscale>  0 0.18104156E+03</rscale>
<asrwt>0</asrwt>
<pdfrwt beam="1">  1        2 0.47395167E+00 0.18104156E+03</pdfrwt>
<pdfrwt beam="2">  1       -2 0.40920016E-03 0.18104156E+03</pdfrwt>
<totfact> 0.14388887E+04</totfact>
</mgrwt>
</event>
<event>
 4    1  0.1171488E-003  0.1829527E+03  0.7818608E-02  0.1164976E+00
         -2   -1    0    0    0  501 -0.00000000000E+00  0.00000000000E+00  0.19677973344E+03  0.19677973346E+03  0.25500000000E-02 0. -1.
          2   -1    0    0  501    0  0.00000000000E+00 -0.00000000000E+00 -0.42524304995E+02  0.42524305072E+02  0.25500000000E-02 0.  1.
    5000001    1    1    2    0    0  0.46721611124E+02  0.15974246066E+02  0.78323617604E+02  0.12042289881E+03  0.77000000000E+02 0.  0.
   -5000001    1    1    2    0    0 -0.46721611124E+02 -0.15974246066E+02  0.75931810844E+02  0.11888113972E+03  0.77000000000E+02 0.  0.
<mgrwt>
<rscale>  0 0.18295269E+03</rscale>
<asrwt>0</asrwt>
<pdfrwt beam="1">  1        2 0.65422008E-02 0.18295269E+03</pdfrwt>
<pdfrwt beam="2">  1       -2 0.30273805E-01 0.18295269E+03</pdfrwt>
<totfact> 0.10661888E+04</totfact>
</mgrwt>
</event>
<event>
 4    1  0.1171488E-003  0.1723466E+03  0.7818608E-02  0.1175423E+00
          2   -1    0    0  501    0  0.00000000000E+00  0.00000000000E+00  0.11000742016E+04  0.11000742016E+04  0.25500000000E-02 0.  1.
         -2   -1    0    0    0  501 -0.00000000000E+00 -0.00000000000E+00 -0.67503035390E+01  0.67503040206E+01  0.25500000000E-02 0. -1.
    5000001    1    1    2    0    0  0.34591673307E+02  0.52998827645E+01  0.44071457314E+03  0.44875718111E+03  0.77000000000E+02 0.  0.
   -5000001    1    1    2    0    0 -0.34591673307E+02 -0.52998827645E+01  0.65260932496E+03  0.65806732455E+03  0.77000000000E+02 0.  0.
<mgrwt>
<rscale>  0 0.17234657E+03</rscale>
<asrwt>0</asrwt>
<pdfrwt beam="1">  1        2 0.16924230E+00 0.17234657E+03</pdfrwt>
<pdfrwt beam="2">  1       -2 0.10385076E-02 0.17234657E+03</pdfrwt>
<totfact> 0.44431645E+04</totfact>
</mgrwt>
</event>
<event>
 4    1  0.1171488E-003  0.2683009E+03  0.7818608E-02  0.1102256E+00
         -2   -1    0    0    0  501 -0.00000000000E+00  0.00000000000E+00  0.37623655145E+02  0.37623655231E+02  0.25500000000E-02 0. -1.
          2   -1    0    0  501    0  0.00000000000E+00 -0.00000000000E+00 -0.47832536100E+03  0.47832536101E+03  0.25500000000E-02 0.  1.
    5000001    1    1    2    0    0 -0.86707051323E+02  0.55742165140E+02 -0.29337630652E+03  0.32034974474E+03  0.77000000000E+02 0.  0.
   -5000001    1    1    2    0    0  0.86707051323E+02 -0.55742165140E+02 -0.14732539933E+03  0.19559927150E+03  0.77000000000E+02 0.  0.
<mgrwt>
<rscale>  0 0.26830094E+03</rscale>
<asrwt>0</asrwt>
<pdfrwt beam="1">  1        2 0.73588513E-01 0.26830094E+03</pdfrwt>
<pdfrwt beam="2">  1       -2 0.57882550E-02 0.26830094E+03</pdfrwt>
<totfact> 0.10161903E+04</totfact>
</mgrwt>
</event>
<event>
 4    1  0.1171488E-003  0.1916479E+03  0.7818608E-02  0.1156983E+00
          2   -1    0    0  501    0  0.00000000000E+00  0.00000000000E+00  0.13599404308E+04  0.13599404308E+04  0.25500000000E-02 0.  1.
         -2   -1    0    0    0  501 -0.00000000000E+00 -0.00000000000E+00 -0.67519340062E+01  0.67519344878E+01  0.25500000000E-02 0. -1.
    5000001    1    1    2    0    0 -0.53917153181E+02  0.18333078536E+02  0.69922093635E+03  0.70574930323E+03  0.77000000000E+02 0.  0.
   -5000001    1    1    2    0    0  0.53917153181E+02 -0.18333078536E+02  0.65396756041E+03  0.66094306202E+03  0.77000000000E+02 0.  0.
<mgrwt>
<rscale>  0 0.19164789E+03</rscale>
<asrwt>0</asrwt>
<pdfrwt beam="1">  1        2 0.20922178E+00 0.19164789E+03</pdfrwt>
<pdfrwt beam="2">  1       -2 0.10387582E-02 0.19164789E+03</pdfrwt>
<totfact> 0.32079803E+04</totfact>
</mgrwt>
</event>
<event>
 4    1  0.1171488E-003  0.2296291E+03  0.7818608E-02  0.1126901E+00
          2   -1    0    0  501    0  0.00000000000E+00  0.00000000000E+00  0.25687990755E+04  0.25687990755E+04  0.25500000000E-02 0.  1.
         -2   -1    0    0    0  501 -0.00000000000E+00 -0.00000000000E+00 -0.51317304834E+01  0.51317311170E+01  0.25500000000E-02 0. -1.
    5000001    1    1    2    0    0  0.66626222158E+02  0.89413854776E+01  0.18679712731E+04  0.18707658001E+04  0.77000000000E+02 0.  0.
   -5000001    1    1    2    0    0 -0.66626222158E+02 -0.89413854776E+01  0.69569607195E+03  0.70316500651E+03  0.77000000000E+02 0.  0.
<mgrwt>
<rscale>  0 0.22962914E+03</rscale>
<asrwt>0</asrwt>
<pdfrwt beam="1">  1        2 0.39519877E+00 0.22962914E+03</pdfrwt>
<pdfrwt beam="2">  1       -2 0.78949922E-03 0.22962914E+03</pdfrwt>
<totfact> 0.11022672E+04</totfact>
</mgrwt>
</event>
<event>
 4    1  0.1171488E-003  0.3267533E+03  0.7818608E-02  0.1072583E+00
         -2   -1    0    0    0  501 -0.00000000000E+00  0.00000000000E+00  0.93309295626E+02  0.93309295661E+02  0.25500000000E-02 0. -1.
          2   -1    0    0  501    0  0.00000000000E+00 -0.00000000000E+00 -0.28605865242E+03  0.28605865243E+03  0.25500000000E-02 0.  1.
    5000001    1    1    2    0    0  0.73600707545E+02  0.12350828766E+03 -0.10748476620E+03  0.19532879009E+03  0.77000000000E+02 0.  0.
   -5000001    1    1    2    0    0 -0.73600707545E+02 -0.12350828766E+03 -0.85264590598E+02  0.18403915801E+03  0.77000000000E+02 0.  0.
<mgrwt>
<rscale>  0 0.32675331E+03</rscale>
<asrwt>0</asrwt>
<pdfrwt beam="1">  1        2 0.44009023E-01 0.32675331E+03</pdfrwt>
<pdfrwt beam="2">  1       -2 0.14355276E-01 0.32675331E+03</pdfrwt>
<totfact> 0.42453381E+03</totfact>
</mgrwt>
</event>
<event>
 4    1  0.1171488E-003  0.2410291E+03  0.7818608E-02  0.1119109E+00
         -2   -1    0    0    0  501 -0.00000000000E+00  0.00000000000E+00  0.59873215384E+03  0.59873215385E+03  0.25500000000E-02 0. -1.
          2   -1    0    0  501    0  0.00000000000E+00 -0.00000000000E+00 -0.24257527062E+02  0.24257527196E+02  0.25500000000E-02 0.  1.
    5000001    1    1    2    0    0 -0.38539576872E+02 -0.59495842687E+02  0.44166586581E+03  0.45389733564E+03  0.77000000000E+02 0.  0.
   -5000001    1    1    2    0    0  0.38539576872E+02  0.59495842687E+02  0.13280876097E+03  0.16909234540E+03  0.77000000000E+02 0.  0.
<mgrwt>
<rscale>  0 0.24102914E+03</rscale>
<asrwt>0</asrwt>
<pdfrwt beam="1">  1        2 0.37319279E-02 0.24102914E+03</pdfrwt>
<pdfrwt beam="2">  1       -2 0.92112622E-01 0.24102914E+03</pdfrwt>
<totfact> 0.23946249E+03</totfact>
</mgrwt>
</event>
<event>
 4    1  0.1171488E-003  0.2335649E+03  0.7818608E-02  0.1124155E+00
         -2   -1    0    0    0  501 -0.00000000000E+00  0.00000000000E+00  0.81640538497E+03  0.81640538497E+03  0.25500000000E-02 0. -1.
          2   -1    0    0  501    0  0.00000000000E+00 -0.00000000000E+00 -0.16705110362E+02  0.16705110557E+02  0.25500000000E-02 0.  1.
    5000001    1    1    2    0    0 -0.50739342274E+02  0.71117387093E+02  0.43114548867E+03  0.44659556200E+03  0.77000000000E+02 0.  0.
   -5000001    1    1    2    0    0  0.50739342274E+02 -0.71117387093E+02  0.36855478594E+03  0.38651493353E+03  0.77000000000E+02 0.  0.
<mgrwt>
<rscale>  0 0.23356491E+03</rscale>
<asrwt>0</asrwt>
<pdfrwt beam="1">  1        2 0.25700174E-02 0.23356491E+03</pdfrwt>
<pdfrwt beam="2">  1       -2 0.12560081E+00 0.23356491E+03</pdfrwt>
<totfact> 0.19077601E+03</totfact>
</mgrwt>
</event>
<event>
 4    1  0.1171488E-003  0.2874882E+03  0.7818608E-02  0.1091668E+00
         -2   -1    0    0    0  501 -0.00000000000E+00  0.00000000000E+00  0.59100740059E+02  0.59100740114E+02  0.25500000000E-02 0. -1.
          2   -1    0    0  501    0  0.00000000000E+00 -0.00000000000E+00 -0.34961268029E+03  0.34961268030E+03  0.25500000000E-02 0.  1.
    5000001    1    1    2    0    0 -0.97459761116E+02 -0.53715130221E+01 -0.42677663935E+02  0.13144444145E+03  0.77000000000E+02 0.  0.
   -5000001    1    1    2    0    0  0.97459761116E+02  0.53715130221E+01 -0.24783427630E+03  0.27726897897E+03  0.77000000000E+02 0.  0.
<mgrwt>
<rscale>  0 0.28748821E+03</rscale>
<asrwt>0</asrwt>
<pdfrwt beam="1">  1        2 0.53786565E-01 0.28748821E+03</pdfrwt>
<pdfrwt beam="2">  1       -2 0.90924217E-02 0.28748821E+03</pdfrwt>
<totfact> 0.71133197E+03</totfact>
</mgrwt>
</event>
<event>
 4    1  0.1171488E-003  0.2292686E+03  0.7818608E-02  0.1127156E+00
         -2   -1    0    0    0  501 -0.00000000000E+00  0.00000000000E+00  0.11279289210E+02  0.11279289498E+02  0.25500000000E-02 0. -1.
          2   -1    0    0  501    0  0.00000000000E+00 -0.00000000000E+00 -0.11650579714E+04  0.11650579714E+04  0.25500000000E-02 0.  1.
    5000001    1    1    2    0    0 -0.15837689345E+02  0.79064650239E+02 -0.44017670923E+03  0.45407773196E+03  0.77000000000E+02 0.  0.
   -5000001    1    1    2    0    0  0.15837689345E+02 -0.79064650239E+02 -0.71360197300E+03  0.72225952897E+03  0.77000000000E+02 0.  0.
<mgrwt>
<rscale>  0 0.22926863E+03</rscale>
<asrwt>0</asrwt>
<pdfrwt beam="1">  1        2 0.17923959E+00 0.22926863E+03</pdfrwt>
<pdfrwt beam="2">  1       -2 0.17352762E-02 0.22926863E+03</pdfrwt>
<totfact> 0.19729285E+04</totfact>
</mgrwt>
</event>
<event>
 4    1  0.1171488E-003  0.1701109E+03  0.7818608E-02  0.1177732E+00
          2   -1    0    0  501    0  0.00000000000E+00  0.00000000000E+00  0.94376098277E+02  0.94376098312E+02  0.25500000000E-02 0.  1.
         -2   -1    0    0    0  501 -0.00000000000E+00 -0.00000000000E+00 -0.76655286635E+02  0.76655286678E+02  0.25500000000E-02 0. -1.
    5000001    1    1    2    0    0 -0.14101937515E+02 -0.31851173868E+02 -0.78656399121E+00  0.84516155860E+02  0.77000000000E+02 0.  0.
   -5000001    1    1    2    0    0  0.14101937515E+02  0.31851173868E+02  0.18507375633E+02  0.86515229129E+02  0.77000000000E+02 0.  0.
<mgrwt>
<rscale>  0 0.17011087E+03</rscale>
<asrwt>0</asrwt>
<pdfrwt beam="1">  1        2 0.14519400E-01 0.17011087E+03</pdfrwt>
<pdfrwt beam="2">  1       -2 0.11793121E-01 0.17011087E+03</pdfrwt>
<totfact> 0.19522564E+04</totfact>
</mgrwt>
</event>
<event>
 4    1  0.1171488E-003  0.2908723E+03  0.7818608E-02  0.1089895E+00
         -2   -1    0    0    0  501 -0.00000000000E+00  0.00000000000E+00  0.18510199760E+02  0.18510199936E+02  0.25500000000E-02 0. -1.
          2   -1    0    0  501    0  0.00000000000E+00 -0.00000000000E+00 -0.11427034853E+04  0.11427034853E+04  0.25500000000E-02 0.  1.
    5000001    1    1    2    0    0 -0.11615248903E+03 -0.11206300293E+02 -0.72206732692E+03  0.73547753635E+03  0.77000000000E+02 0.  0.
   -5000001    1    1    2    0    0  0.11615248903E+03  0.11206300293E+02 -0.40212595866E+03  0.42573614893E+03  0.77000000000E+02 0.  0.
<mgrwt>
<rscale>  0 0.29087227E+03</rscale>
<asrwt>0</asrwt>
<pdfrwt beam="1">  1        2 0.17580048E+00 0.29087227E+03</pdfrwt>
<pdfrwt beam="2">  1       -2 0.28477239E-02 0.29087227E+03</pdfrwt>
<totfact> 0.98751489E+03</totfact>
</mgrwt>
</event>
<event>
 4    1  0.1171488E-003  0.3536257E+03  0.7818608E-02  0.1061137E+00
          2   -1    0    0  501    0  0.00000000000E+00  0.00000000000E+00  0.43804573673E+03  0.43804573674E+03  0.25500000000E-02 0.  1.
         -2   -1    0    0    0  501 -0.00000000000E+00 -0.00000000000E+00 -0.71368758101E+02  0.71368758146E+02  0.25500000000E-02 0. -1.
    5000001    1    1    2    0    0  0.33053955856E+02  0.15209876155E+03  0.23127177534E+03  0.28920966673E+03  0.77000000000E+02 0.  0.
   -5000001    1    1    2    0    0 -0.33053955856E+02 -0.15209876155E+03  0.13540520329E+03  0.22020482815E+03  0.77000000000E+02 0.  0.
<mgrwt>
<rscale>  0 0.35362568E+03</rscale>
<asrwt>0</asrwt>
<pdfrwt beam="1">  1        2 0.67391653E-01 0.35362568E+03</pdfrwt>
<pdfrwt beam="2">  1       -2 0.10979809E-01 0.35362568E+03</pdfrwt>
<totfact> 0.41384283E+03</totfact>
</mgrwt>
</event>
<event>
 4    1  0.1171488E-003  0.5701734E+03  0.7818608E-02  0.9969295E-01
          2   -1    0    0  501    0  0.00000000000E+00  0.00000000000E+00  0.17244112082E+04  0.17244112082E+04  0.25500000000E-02 0.  1.
         -2   -1    0    0    0  501 -0.00000000000E+00 -0.00000000000E+00 -0.47131692440E+02  0.47131692509E+02  0.25500000000E-02 0. -1.
    5000001    1    1    2    0    0  0.23692213046E+03 -0.11698446448E+03  0.10696478040E+04  0.11044876122E+04  0.77000000000E+02 0.  0.
   -5000001    1    1    2    0    0 -0.23692213046E+03  0.11698446448E+03  0.60763171176E+03  0.66705528854E+03  0.77000000000E+02 0.  0.
<mgrwt>
<rscale>  0 0.57017337E+03</rscale>
<asrwt>0</asrwt>
<pdfrwt beam="1">  1        2 0.26529406E+00 0.57017337E+03</pdfrwt>
<pdfrwt beam="2">  1       -2 0.72510288E-02 0.57017337E+03</pdfrwt>
<totfact> 0.11221607E+03</totfact>
</mgrwt>
</event>
<event>
 4    1  0.1171488E-003  0.2587568E+03  0.7818608E-02  0.1107892E+00
         -2   -1    0    0    0  501 -0.00000000000E+00  0.00000000000E+00  0.20711834164E+02  0.20711834321E+02  0.25500000000E-02 0. -1.
          2   -1    0    0  501    0  0.00000000000E+00 -0.00000000000E+00 -0.80817429998E+03  0.80817429998E+03  0.25500000000E-02 0.  1.
    5000001    1    1    2    0    0 -0.75404720760E+02  0.65177019346E+02 -0.48853367593E+03  0.50450774848E+03  0.77000000000E+02 0.  0.
   -5000001    1    1    2    0    0  0.75404720760E+02 -0.65177019346E+02 -0.29892878989E+03  0.32437838582E+03  0.77000000000E+02 0.  0.
<mgrwt>
<rscale>  0 0.25875681E+03</rscale>
<asrwt>0</asrwt>
<pdfrwt beam="1">  1        2 0.12433448E+00 0.25875681E+03</pdfrwt>
<pdfrwt beam="2">  1       -2 0.31864366E-02 0.25875681E+03</pdfrwt>
<totfact> 0.13460290E+04</totfact>
</mgrwt>
</event>
<event>
 4    1  0.1171488E-003  0.5721007E+03  0.7818608E-02  0.9965041E-01
         -2   -1    0    0    0  501 -0.00000000000E+00  0.00000000000E+00  0.21746712714E+02  0.21746712863E+02  0.25500000000E-02 0. -1.
          2   -1    0    0  501    0  0.00000000000E+00 -0.00000000000E+00 -0.37626291063E+04  0.37626291063E+04  0.25500000000E-02 0.  1.
    5000001    1    1    2    0    0 -0.91907562947E+02 -0.19350644298E+03 -0.72463322362E+03  0.75954858461E+03  0.77000000000E+02 0.  0.
   -5000001    1    1    2    0    0  0.91907562947E+02  0.19350644298E+03 -0.30162491699E+04  0.30248272345E+04  0.77000000000E+02 0.  0.
<mgrwt>
<rscale>  0 0.57210074E+03</rscale>
<asrwt>0</asrwt>
<pdfrwt beam="1">  1        2 0.57886550E+00 0.57210074E+03</pdfrwt>
<pdfrwt beam="2">  1       -2 0.33456511E-02 0.57210074E+03</pdfrwt>
<totfact> 0.22477124E+02</totfact>
</mgrwt>
</event>
<event>
 4    1  0.1171488E-003  0.2063378E+03  0.7818608E-02  0.1144499E+00
          2   -1    0    0  501    0  0.00000000000E+00  0.00000000000E+00  0.10704293341E+04  0.10704293341E+04  0.25500000000E-02 0.  1.
         -2   -1    0    0    0  501 -0.00000000000E+00 -0.00000000000E+00 -0.99435088424E+01  0.99435091693E+01  0.25500000000E-02 0. -1.
    5000001    1    1    2    0    0 -0.58982884226E+02 -0.10245872006E+02  0.35416687886E+03  0.36735151641E+03  0.77000000000E+02 0.  0.
   -5000001    1    1    2    0    0  0.58982884226E+02  0.10245872006E+02  0.70631894637E+03  0.71302132683E+03  0.77000000000E+02 0.  0.
<mgrwt>
<rscale>  0 0.20633782E+03</rscale>
<asrwt>0</asrwt>
<pdfrwt beam="1">  1        2 0.16468131E+00 0.20633782E+03</pdfrwt>
<pdfrwt beam="2">  1       -2 0.15297718E-02 0.20633782E+03</pdfrwt>
<totfact> 0.26744211E+04</totfact>
</mgrwt>
</event>
<event>
 4    1  0.1171488E-003  0.1565157E+03  0.7818608E-02  0.1192688E+00
          2   -1    0    0  501    0  0.00000000000E+00  0.00000000000E+00  0.14521566035E+04  0.14521566035E+04  0.25500000000E-02 0.  1.
         -2   -1    0    0    0  501 -0.00000000000E+00 -0.00000000000E+00 -0.42173787244E+01  0.42173794953E+01  0.25500000000E-02 0. -1.
    5000001    1    1    2    0    0 -0.13460811500E+01 -0.13896253503E+02  0.72968388586E+03  0.73386817009E+03  0.77000000000E+02 0.  0.
   -5000001    1    1    2    0    0  0.13460811500E+01  0.13896253503E+02  0.71825533888E+03  0.72250581286E+03  0.77000000000E+02 0.  0.
<mgrwt>
<rscale>  0 0.15651575E+03</rscale>
<asrwt>0</asrwt>
<pdfrwt beam="1">  1        2 0.22340871E+00 0.15651575E+03</pdfrwt>
<pdfrwt beam="2">  1       -2 0.64882754E-03 0.15651575E+03</pdfrwt>
<totfact> 0.55421024E+04</totfact>
</mgrwt>
</event>
<event>
 4    1  0.1171488E-003  0.3908432E+03  0.7818608E-02  0.1046997E+00
          2   -1    0    0  501    0  0.00000000000E+00  0.00000000000E+00  0.31501714295E+03  0.31501714296E+03  0.25500000000E-02 0.  1.
         -2   -1    0    0    0  501 -0.00000000000E+00 -0.00000000000E+00 -0.12123026127E+03  0.12123026130E+03  0.25500000000E-02 0. -1.
    5000001    1    1    2    0    0  0.11163925445E+03  0.28929928328E+01 -0.60121604873E+02  0.14837553678E+03  0.77000000000E+02 0.  0.
   -5000001    1    1    2    0    0 -0.11163925445E+03 -0.28929928328E+01  0.25390848655E+03  0.28787186748E+03  0.77000000000E+02 0.  0.
<mgrwt>
<rscale>  0 0.39084325E+03</rscale>
<asrwt>0</asrwt>
<pdfrwt beam="1">  1        2 0.48464176E-01 0.39084325E+03</pdfrwt>
<pdfrwt beam="2">  1       -2 0.18650809E-01 0.39084325E+03</pdfrwt>
<totfact> 0.24718318E+03</totfact>
</mgrwt>
</event>
<event>
 4    1  0.1171488E-003  0.6000106E+03  0.7818608E-02  0.9905384E-01
         -2   -1    0    0    0  501 -0.00000000000E+00  0.00000000000E+00  0.17914591958E+03  0.17914591960E+03  0.25500000000E-02 0. -1.
          2   -1    0    0  501    0  0.00000000000E+00 -0.00000000000E+00 -0.50240157676E+03  0.50240157677E+03  0.25500000000E-02 0.  1.
    5000001    1    1    2    0    0 -0.23048083345E+01  0.26615487958E+03 -0.29228241295E+03  0.40274277273E+03  0.77000000000E+02 0.  0.
   -5000001    1    1    2    0    0  0.23048083345E+01 -0.26615487958E+03 -0.30973244222E+02  0.27880472364E+03  0.77000000000E+02 0.  0.
<mgrwt>
<rscale>  0 0.60001064E+03</rscale>
<asrwt>0</asrwt>
<pdfrwt beam="1">  1        2 0.77292550E-01 0.60001064E+03</pdfrwt>
<pdfrwt beam="2">  1       -2 0.27560911E-01 0.60001064E+03</pdfrwt>
<totfact> 0.73838740E+02</totfact>
</mgrwt>
</event>
<event>
 4    1  0.1171488E-003  0.2029511E+03  0.7818608E-02  0.1147273E+00
          2   -1    0    0  501    0  0.00000000000E+00  0.00000000000E+00  0.36233544564E+03  0.36233544565E+03  0.25500000000E-02 0.  1.
         -2   -1    0    0    0  501 -0.00000000000E+00 -0.00000000000E+00 -0.28419216927E+02  0.28419217041E+02  0.25500000000E-02 0. -1.
    5000001    1    1    2    0    0 -0.54001353949E+02  0.33146823822E+02  0.20315451056E+03  0.22630866823E+03  0.77000000000E+02 0.  0.
   -5000001    1    1    2    0    0  0.54001353949E+02 -0.33146823822E+02  0.13076171815E+03  0.16444599445E+03  0.77000000000E+02 0.  0.
<mgrwt>
<rscale>  0 0.20295112E+03</rscale>
<asrwt>0</asrwt>
<pdfrwt beam="1">  1        2 0.55743918E-01 0.20295112E+03</pdfrwt>
<pdfrwt beam="2">  1       -2 0.43721870E-02 0.20295112E+03</pdfrwt>
<totfact> 0.20713585E+04</totfact>
</mgrwt>
</event>
<event>
 4    1  0.1171488E-003  0.2882958E+03  0.7818608E-02  0.1091242E+00
          2   -1    0    0  501    0  0.00000000000E+00  0.00000000000E+00  0.10184673318E+04  0.10184673318E+04  0.25500000000E-02 0.  1.
         -2   -1    0    0    0  501 -0.00000000000E+00 -0.00000000000E+00 -0.20401846437E+02  0.20401846597E+02  0.25500000000E-02 0. -1.
    5000001    1    1    2    0    0 -0.65663031979E+02 -0.93463648489E+02  0.65202288380E+03  0.66641573237E+03  0.77000000000E+02 0.  0.
   -5000001    1    1    2    0    0  0.65663031979E+02  0.93463648489E+02  0.34604260152E+03  0.37245344598E+03  0.77000000000E+02 0.  0.
<mgrwt>
<rscale>  0 0.28829578E+03</rscale>
<asrwt>0</asrwt>
<pdfrwt beam="1">  1        2 0.15668725E+00 0.28829578E+03</pdfrwt>
<pdfrwt beam="2">  1       -2 0.31387463E-02 0.28829578E+03</pdfrwt>
<totfact> 0.10120320E+04</totfact>
</mgrwt>
</event>
<event>
 4    1  0.1171488E-003  0.1914808E+03  0.7818608E-02  0.1157132E+00
         -2   -1    0    0    0  501 -0.00000000000E+00  0.00000000000E+00  0.14451580673E+03  0.14451580675E+03  0.25500000000E-02 0. -1.
          2   -1    0    0  501    0  0.00000000000E+00 -0.00000000000E+00 -0.63427148079E+02  0.63427148130E+02  0.25500000000E-02 0.  1.
    5000001    1    1    2    0    0  0.45105530725E+02 -0.34474234330E+02  0.36445771596E+02  0.10237321916E+03  0.77000000000E+02 0.  0.
   -5000001    1    1    2    0    0 -0.45105530725E+02  0.34474234330E+02  0.44642887051E+02  0.10556973571E+03  0.77000000000E+02 0.  0.
<mgrwt>
<rscale>  0 0.19148081E+03</rscale>
<asrwt>0</asrwt>
<pdfrwt beam="1">  1        2 0.97580229E-02 0.19148081E+03</pdfrwt>
<pdfrwt beam="2">  1       -2 0.22233201E-01 0.19148081E+03</pdfrwt>
<totfact> 0.11136563E+04</totfact>
</mgrwt>
</event>
<event>
 4    1  0.1171488E-003  0.1836735E+03  0.7818608E-02  0.1164294E+00
          2   -1    0    0  501    0  0.00000000000E+00  0.00000000000E+00  0.16269093626E+04  0.16269093626E+04  0.25500000000E-02 0.  1.
         -2   -1    0    0    0  501 -0.00000000000E+00 -0.00000000000E+00 -0.51840528164E+01  0.51840534436E+01  0.25500000000E-02 0. -1.
    5000001    1    1    2    0    0 -0.18934574354E+02 -0.46297602684E+02  0.82624942619E+03  0.83133573266E+03  0.77000000000E+02 0.  0.
   -5000001    1    1    2    0    0  0.18934574354E+02  0.46297602684E+02  0.79547588361E+03  0.80075768340E+03  0.77000000000E+02 0.  0.
<mgrwt>
<rscale>  0 0.18367346E+03</rscale>
<asrwt>0</asrwt>
<pdfrwt beam="1">  1        2 0.25029365E+00 0.18367346E+03</pdfrwt>
<pdfrwt beam="2">  1       -2 0.79754695E-03 0.18367346E+03</pdfrwt>
<totfact> 0.33799432E+04</totfact>
</mgrwt>
</event>
<event>
 4    1  0.1171488E-003  0.2700946E+03  0.7818608E-02  0.1101225E+00
         -2   -1    0    0    0  501 -0.00000000000E+00  0.00000000000E+00  0.17292956558E+02  0.17292956746E+02  0.25500000000E-02 0. -1.
          2   -1    0    0  501    0  0.00000000000E+00 -0.00000000000E+00 -0.10546362451E+04  0.10546362451E+04  0.25500000000E-02 0.  1.
    5000001    1    1    2    0    0 -0.80647426306E+02 -0.67330944986E+02 -0.37716501719E+03  0.39902370069E+03  0.77000000000E+02 0.  0.
   -5000001    1    1    2    0    0  0.80647426306E+02  0.67330944986E+02 -0.66017827139E+03  0.67290550120E+03  0.77000000000E+02 0.  0.
<mgrwt>
<rscale>  0 0.27009464E+03</rscale>
<asrwt>0</asrwt>
<pdfrwt beam="1">  1        2 0.16225168E+00 0.27009464E+03</pdfrwt>
<pdfrwt beam="2">  1       -2 0.26604557E-02 0.27009464E+03</pdfrwt>
<totfact> 0.12283665E+04</totfact>
</mgrwt>
</event>
<event>
 4    1  0.1171488E-003  0.2199359E+03  0.7818608E-02  0.1133931E+00
          2   -1    0    0  501    0  0.00000000000E+00  0.00000000000E+00  0.33759763647E+02  0.33759763743E+02  0.25500000000E-02 0.  1.
         -2   -1    0    0    0  501 -0.00000000000E+00 -0.00000000000E+00 -0.35820595482E+03  0.35820595483E+03  0.25500000000E-02 0. -1.
    5000001    1    1    2    0    0 -0.17275927671E+02  0.45066165065E+02 -0.27258219395E+03  0.28733163656E+03  0.77000000000E+02 0.  0.
   -5000001    1    1    2    0    0  0.17275927671E+02 -0.45066165065E+02 -0.51863997227E+02  0.10463408201E+03  0.77000000000E+02 0.  0.
<mgrwt>
<rscale>  0 0.21993589E+03</rscale>
<asrwt>0</asrwt>
<pdfrwt beam="1">  1        2 0.51938100E-02 0.21993589E+03</pdfrwt>
<pdfrwt beam="2">  1       -2 0.55108606E-01 0.21993589E+03</pdfrwt>
<totfact> 0.46299538E+03</totfact>
</mgrwt>
</event>
<event>
 4    1  0.1171488E-003  0.5920727E+03  0.7818608E-02  0.9921991E-01
         -2   -1    0    0    0  501 -0.00000000000E+00  0.00000000000E+00  0.28392748712E+02  0.28392748826E+02  0.25500000000E-02 0. -1.
          2   -1    0    0  501    0  0.00000000000E+00 -0.00000000000E+00 -0.30866159397E+04  0.30866159397E+04  0.25500000000E-02 0.  1.
    5000001    1    1    2    0    0 -0.10638149217E+03 -0.23475154698E+03 -0.87869531842E+03  0.91894492397E+03  0.77000000000E+02 0.  0.
   -5000001    1    1    2    0    0  0.10638149217E+03  0.23475154698E+03 -0.21795278726E+04  0.21960637645E+04  0.77000000000E+02 0.  0.
<mgrwt>
<rscale>  0 0.59207267E+03</rscale>
<asrwt>0</asrwt>
<pdfrwt beam="1">  1        2 0.47486373E+00 0.59207267E+03</pdfrwt>
<pdfrwt beam="2">  1       -2 0.43681176E-02 0.59207267E+03</pdfrwt>
<totfact> 0.42103369E+02</totfact>
</mgrwt>
</event>
<event>
 4    1  0.1171488E-003  0.1921569E+03  0.7818608E-02  0.1156530E+00
         -2   -1    0    0    0  501 -0.00000000000E+00  0.00000000000E+00  0.77373870569E+01  0.77373874771E+01  0.25500000000E-02 0. -1.
          2   -1    0    0  501    0  0.00000000000E+00 -0.00000000000E+00 -0.11930469211E+04  0.11930469211E+04  0.25500000000E-02 0.  1.
    5000001    1    1    2    0    0  0.19956341231E+02 -0.46370778784E+02 -0.42111358627E+03  0.43106166290E+03  0.77000000000E+02 0.  0.
   -5000001    1    1    2    0    0 -0.19956341231E+02  0.46370778784E+02 -0.76419594775E+03  0.76972264566E+03  0.77000000000E+02 0.  0.
<mgrwt>
<rscale>  0 0.19215687E+03</rscale>
<asrwt>0</asrwt>
<pdfrwt beam="1">  1        2 0.18354553E+00 0.19215687E+03</pdfrwt>
<pdfrwt beam="2">  1       -2 0.11903682E-02 0.19215687E+03</pdfrwt>
<totfact> 0.32563852E+04</totfact>
</mgrwt>
</event>
<event>
 4    1  0.1171488E-003  0.2272281E+03  0.7818608E-02  0.1128606E+00
         -2   -1    0    0    0  501 -0.00000000000E+00  0.00000000000E+00  0.42602615516E+01  0.42602623148E+01  0.25500000000E-02 0. -1.
          2   -1    0    0  501    0  0.00000000000E+00 -0.00000000000E+00 -0.30298972830E+04  0.30298972830E+04  0.25500000000E-02 0.  1.
    5000001    1    1    2    0    0 -0.23797489473E+02  0.72097655407E+02 -0.19782137324E+04  0.19811670710E+04  0.77000000000E+02 0.  0.
   -5000001    1    1    2    0    0  0.23797489473E+02 -0.72097655407E+02 -0.10474232891E+04  0.10529904743E+04  0.77000000000E+02 0.  0.
<mgrwt>
<rscale>  0 0.22722813E+03</rscale>
<asrwt>0</asrwt>
<pdfrwt beam="1">  1        2 0.46613632E+00 0.22722813E+03</pdfrwt>
<pdfrwt beam="2">  1       -2 0.65542733E-03 0.22722813E+03</pdfrwt>
<totfact> 0.78722623E+03</totfact>
</mgrwt>
</event>
<event>
 4    1  0.1171488E-003  0.2098255E+03  0.7818608E-02  0.1141704E+00
         -2   -1    0    0    0  501 -0.00000000000E+00  0.00000000000E+00  0.18713037622E+02  0.18713037795E+02  0.25500000000E-02 0. -1.
          2   -1    0    0  501    0  0.00000000000E+00 -0.00000000000E+00 -0.58818289819E+03  0.58818289820E+03  0.25500000000E-02 0.  1.
    5000001    1    1    2    0    0  0.31952637033E+02  0.60561398750E+02 -0.34178419804E+03  0.35697911993E+03  0.77000000000E+02 0.  0.
   -5000001    1    1    2    0    0 -0.31952637033E+02 -0.60561398750E+02 -0.22768566253E+03  0.24991681607E+03  0.77000000000E+02 0.  0.
<mgrwt>
<rscale>  0 0.20982553E+03</rscale>
<asrwt>0</asrwt>
<pdfrwt beam="1">  1        2 0.90489663E-01 0.20982553E+03</pdfrwt>
<pdfrwt beam="2">  1       -2 0.28789293E-02 0.20982553E+03</pdfrwt>
<totfact> 0.22692513E+04</totfact>
</mgrwt>
</event>
<event>
 4    1  0.1171488E-003  0.3394585E+03  0.7818608E-02  0.1067027E+00
         -2   -1    0    0    0  501 -0.00000000000E+00  0.00000000000E+00  0.10771260914E+02  0.10771261216E+02  0.25500000000E-02 0. -1.
          2   -1    0    0  501    0  0.00000000000E+00 -0.00000000000E+00 -0.26745256944E+04  0.26745256944E+04  0.25500000000E-02 0.  1.
    5000001    1    1    2    0    0 -0.67678959377E+02  0.98181703351E+02 -0.59577576166E+03  0.61245232190E+03  0.77000000000E+02 0.  0.
   -5000001    1    1    2    0    0  0.67678959377E+02 -0.98181703351E+02 -0.20679786718E+04  0.20728446337E+04  0.77000000000E+02 0.  0.
<mgrwt>
<rscale>  0 0.33945848E+03</rscale>
<asrwt>0</asrwt>
<pdfrwt beam="1">  1        2 0.41146496E+00 0.33945848E+03</pdfrwt>
<pdfrwt beam="2">  1       -2 0.16571192E-02 0.33945848E+03</pdfrwt>
<totfact> 0.32568148E+03</totfact>
</mgrwt>
</event>
<event>
 4    1  0.1171488E-003  0.2027714E+03  0.7818608E-02  0.1147422E+00
         -2   -1    0    0    0  501 -0.00000000000E+00  0.00000000000E+00  0.32608326907E+02  0.32608327007E+02  0.25500000000E-02 0. -1.
          2   -1    0    0  501    0  0.00000000000E+00 -0.00000000000E+00 -0.31522820395E+03  0.31522820396E+03  0.25500000000E-02 0.  1.
    5000001    1    1    2    0    0  0.36135580811E+02 -0.52800195792E+02 -0.16877921924E+03  0.19623726895E+03  0.77000000000E+02 0.  0.
   -5000001    1    1    2    0    0 -0.36135580811E+02  0.52800195792E+02 -0.11384065780E+03  0.15159926202E+03  0.77000000000E+02 0.  0.
<mgrwt>
<rscale>  0 0.20277144E+03</rscale>
<asrwt>0</asrwt>
<pdfrwt beam="1">  1        2 0.48496644E-01 0.20277144E+03</pdfrwt>
<pdfrwt beam="2">  1       -2 0.50166659E-02 0.20277144E+03</pdfrwt>
<totfact> 0.19544076E+04</totfact>
</mgrwt>
</event>
<event>
 4    1  0.1171488E-003  0.4129499E+03  0.7818608E-02  0.1039386E+00
         -2   -1    0    0    0  501 -0.00000000000E+00  0.00000000000E+00  0.92628645576E+02  0.92628645611E+02  0.25500000000E-02 0.  1.
          2   -1    0    0  501    0  0.00000000000E+00 -0.00000000000E+00 -0.46024537204E+03  0.46024537205E+03  0.25500000000E-02 0. -1.
    5000001    1    1    2    0    0 -0.18111126366E+03  0.57157035206E+02 -0.15007891130E+03  0.25400963784E+03  0.77000000000E+02 0.  0.
   -5000001    1    1    2    0    0  0.18111126366E+03 -0.57157035206E+02 -0.21753781516E+03  0.29886437982E+03  0.77000000000E+02 0.  0.
<mgrwt>
<rscale>  0 0.41294990E+03</rscale>
<asrwt>0</asrwt>
<pdfrwt beam="1">  1        2 0.70806979E-01 0.41294990E+03</pdfrwt>
<pdfrwt beam="2">  1       -2 0.14250561E-01 0.41294990E+03</pdfrwt>
<totfact> 0.25631290E+03</totfact>
</mgrwt>
</event>
<event>
 4    1  0.1171488E-003  0.2177288E+03  0.7818608E-02  0.1135588E+00
         -2   -1    0    0    0  501 -0.00000000000E+00  0.00000000000E+00  0.43399285255E+01  0.43399292747E+01  0.25500000000E-02 0. -1.
          2   -1    0    0  501    0  0.00000000000E+00 -0.00000000000E+00 -0.27307959200E+04  0.27307959200E+04  0.25500000000E-02 0.  1.
    5000001    1    1    2    0    0 -0.71639875844E+02  0.39070356049E+01 -0.17129253635E+04  0.17161555401E+04  0.77000000000E+02 0.  0.
   -5000001    1    1    2    0    0  0.71639875844E+02 -0.39070356049E+01 -0.10135306279E+04  0.10189803092E+04  0.77000000000E+02 0.  0.
<mgrwt>
<rscale>  0 0.21772882E+03</rscale>
<asrwt>0</asrwt>
<pdfrwt beam="1">  1        2 0.42012108E+00 0.21772882E+03</pdfrwt>
<pdfrwt beam="2">  1       -2 0.66768355E-03 0.21772882E+03</pdfrwt>
<totfact> 0.11399330E+04</totfact>
</mgrwt>
</event>
<event>
 4    1  0.1171488E-003  0.4317628E+03  0.7818608E-02  0.1033305E+00
         -2   -1    0    0    0  501 -0.00000000000E+00  0.00000000000E+00  0.45513767218E+02  0.45513767289E+02  0.25500000000E-02 0. -1.
          2   -1    0    0  501    0  0.00000000000E+00 -0.00000000000E+00 -0.10239708785E+04  0.10239708785E+04  0.25500000000E-02 0.  1.
    5000001    1    1    2    0    0  0.19586908042E+03 -0.44474828999E+02 -0.53443433600E+03  0.57610048306E+03  0.77000000000E+02 0.  0.
   -5000001    1    1    2    0    0 -0.19586908042E+03  0.44474828999E+02 -0.44402277532E+03  0.49338416277E+03  0.77000000000E+02 0.  0.
<mgrwt>
<rscale>  0 0.43176277E+03</rscale>
<asrwt>0</asrwt>
<pdfrwt beam="1">  1        2 0.15753396E+00 0.43176277E+03</pdfrwt>
<pdfrwt beam="2">  1       -2 0.70021188E-02 0.43176277E+03</pdfrwt>
<totfact> 0.29655104E+03</totfact>
</mgrwt>
</event>
<event>
 4    1  0.1171488E-003  0.1694559E+03  0.7818608E-02  0.1178416E+00
         -2   -1    0    0    0  501 -0.00000000000E+00  0.00000000000E+00  0.10291157590E+03  0.10291157593E+03  0.25500000000E-02 0. -1.
          2   -1    0    0  501    0  0.00000000000E+00 -0.00000000000E+00 -0.69757254376E+02  0.69757254423E+02  0.25500000000E-02 0.  1.
    5000001    1    1    2    0    0 -0.32446725949E+02  0.14036162963E+02  0.16415761529E+02  0.86303424742E+02  0.77000000000E+02 0.  0.
   -5000001    1    1    2    0    0  0.32446725949E+02 -0.14036162963E+02  0.16738559990E+02  0.86365405609E+02  0.77000000000E+02 0.  0.
<mgrwt>
<rscale>  0 0.16945594E+03</rscale>
<asrwt>0</asrwt>
<pdfrwt beam="1">  1        2 0.10731885E-01 0.16945594E+03</pdfrwt>
<pdfrwt beam="2">  1       -2 0.15832550E-01 0.16945594E+03</pdfrwt>
<totfact> 0.17392951E+04</totfact>
</mgrwt>
</event>
<event>
 4    1  0.1171488E-003  0.1953174E+03  0.7818608E-02  0.1153751E+00
         -2   -1    0    0    0  501 -0.00000000000E+00  0.00000000000E+00  0.27016429176E+02  0.27016429296E+02  0.25500000000E-02 0. -1.
          2   -1    0    0  501    0  0.00000000000E+00 -0.00000000000E+00 -0.35301569069E+03  0.35301569070E+03  0.25500000000E-02 0.  1.
    5000001    1    1    2    0    0 -0.56956440172E+02  0.16341362165E+02 -0.14382201762E+03  0.17356511443E+03  0.77000000000E+02 0.  0.
   -5000001    1    1    2    0    0  0.56956440172E+02 -0.16341362165E+02 -0.18217724389E+03  0.20646700557E+03  0.77000000000E+02 0.  0.
<mgrwt>
<rscale>  0 0.19531742E+03</rscale>
<asrwt>0</asrwt>
<pdfrwt beam="1">  1        2 0.54310103E-01 0.19531742E+03</pdfrwt>
<pdfrwt beam="2">  1       -2 0.41563740E-02 0.19531742E+03</pdfrwt>
<totfact> 0.22917683E+04</totfact>
</mgrwt>
</event>
<event>
 4    1  0.1171488E-003  0.3382272E+03  0.7818608E-02  0.1067553E+00
         -2   -1    0    0    0  501 -0.00000000000E+00  0.00000000000E+00  0.50540747129E+02  0.50540747194E+02  0.25500000000E-02 0. -1.
          2   -1    0    0  501    0  0.00000000000E+00 -0.00000000000E+00 -0.56586838873E+03  0.56586838873E+03  0.25500000000E-02 0.  1.
    5000001    1    1    2    0    0 -0.68624171729E+02 -0.13152892938E+03 -0.21079850333E+03  0.26902443238E+03  0.77000000000E+02 0.  0.
   -5000001    1    1    2    0    0  0.68624171729E+02  0.13152892938E+03 -0.30452913827E+03  0.34738470355E+03  0.77000000000E+02 0.  0.
<mgrwt>
<rscale>  0 0.33822721E+03</rscale>
<asrwt>0</asrwt>
<pdfrwt beam="1">  1        2 0.87056671E-01 0.33822721E+03</pdfrwt>
<pdfrwt beam="2">  1       -2 0.77755000E-02 0.33822721E+03</pdfrwt>
<totfact> 0.53584201E+03</totfact>
</mgrwt>
</event>
<event>
 4    1  0.1171488E-003  0.2839883E+03  0.7818608E-02  0.1093530E+00
          2   -1    0    0  501    0  0.00000000000E+00  0.00000000000E+00  0.10395990013E+03  0.10395990016E+03  0.25500000000E-02 0.  1.
         -2   -1    0    0    0  501 -0.00000000000E+00 -0.00000000000E+00 -0.19394347745E+03  0.19394347747E+03  0.25500000000E-02 0. -1.
    5000001    1    1    2    0    0  0.60813452171E+02  0.49805681618E+02  0.49152331710E+02  0.12051486879E+03  0.77000000000E+02 0.  0.
   -5000001    1    1    2    0    0 -0.60813452171E+02 -0.49805681618E+02 -0.13913590903E+03  0.17738850884E+03  0.77000000000E+02 0.  0.
<mgrwt>
<rscale>  0 0.28398834E+03</rscale>
<asrwt>0</asrwt>
<pdfrwt beam="1">  1        2 0.15993831E-01 0.28398834E+03</pdfrwt>
<pdfrwt beam="2">  1       -2 0.29837458E-01 0.28398834E+03</pdfrwt>
<totfact> 0.37142356E+03</totfact>
</mgrwt>
</event>
<event>
 4    1  0.1171488E-003  0.2795730E+03  0.7818608E-02  0.1095922E+00
         -2   -1    0    0    0  501 -0.00000000000E+00  0.00000000000E+00  0.56464980019E+02  0.56464980077E+02  0.25500000000E-02 0. -1.
          2   -1    0    0  501    0  0.00000000000E+00 -0.00000000000E+00 -0.34605980115E+03  0.34605980116E+03  0.25500000000E-02 0.  1.
    5000001    1    1    2    0    0 -0.70341825471E+02 -0.11932569721E+02 -0.11892745962E+02  0.10564466876E+03  0.77000000000E+02 0.  0.
   -5000001    1    1    2    0    0  0.70341825471E+02  0.11932569721E+02 -0.27770207517E+03  0.29688011248E+03  0.77000000000E+02 0.  0.
<mgrwt>
<rscale>  0 0.27957296E+03</rscale>
<asrwt>0</asrwt>
<pdfrwt beam="1">  1        2 0.53239968E-01 0.27957296E+03</pdfrwt>
<pdfrwt beam="2">  1       -2 0.86869202E-02 0.27957296E+03</pdfrwt>
<totfact> 0.77208640E+03</totfact>
</mgrwt>
</event>
<event>
 4    1  0.1171488E-003  0.2360345E+03  0.7818608E-02  0.1122463E+00
         -2   -1    0    0    0  501 -0.00000000000E+00  0.00000000000E+00  0.67610493116E+02  0.67610493164E+02  0.25500000000E-02 0. -1.
          2   -1    0    0  501    0  0.00000000000E+00 -0.00000000000E+00 -0.20600456749E+03  0.20600456750E+03  0.25500000000E-02 0.  1.
    5000001    1    1    2    0    0 -0.79171751529E+02  0.12319326283E+02 -0.11526241295E+03  0.16010732613E+03  0.77000000000E+02 0.  0.
   -5000001    1    1    2    0    0  0.79171751529E+02 -0.12319326283E+02 -0.23131661419E+02  0.11350773454E+03  0.77000000000E+02 0.  0.
<mgrwt>
<rscale>  0 0.23603449E+03</rscale>
<asrwt>0</asrwt>
<pdfrwt beam="1">  1        2 0.31693010E-01 0.23603449E+03</pdfrwt>
<pdfrwt beam="2">  1       -2 0.10401614E-01 0.23603449E+03</pdfrwt>
<totfact> 0.10087077E+04</totfact>
</mgrwt>
</event>
<event>
 4    1  0.1171488E-003  0.2676834E+03  0.7818608E-02  0.1102613E+00
          2   -1    0    0  501    0  0.00000000000E+00  0.00000000000E+00  0.23765115808E+04  0.23765115808E+04  0.25500000000E-02 0.  1.
         -2   -1    0    0    0  501 -0.00000000000E+00 -0.00000000000E+00 -0.75377700061E+01  0.75377704375E+01  0.25500000000E-02 0. -1.
    5000001    1    1    2    0    0  0.72535601950E+02  0.29486436223E+02  0.18658998051E+04  0.18691286596E+04  0.77000000000E+02 0.  0.
   -5000001    1    1    2    0    0 -0.72535601950E+02 -0.29486436223E+02  0.50307400569E+03  0.51492069164E+03  0.77000000000E+02 0.  0.
<mgrwt>
<rscale>  0 0.26768338E+03</rscale>
<asrwt>0</asrwt>
<pdfrwt beam="1">  1        2 0.36561765E+00 0.26768338E+03</pdfrwt>
<pdfrwt beam="2">  1       -2 0.11596554E-02 0.26768338E+03</pdfrwt>
<totfact> 0.80453153E+03</totfact>
</mgrwt>
</event>
<event>
 4    1  0.1171488E-003  0.2332485E+03  0.7818608E-02  0.1124374E+00
         -2   -1    0    0    0  501 -0.00000000000E+00  0.00000000000E+00  0.13137317821E+03  0.13137317823E+03  0.25500000000E-02 0. -1.
          2   -1    0    0  501    0  0.00000000000E+00 -0.00000000000E+00 -0.10353118513E+03  0.10353118516E+03  0.25500000000E-02 0.  1.
    5000001    1    1    2    0    0 -0.67538946937E+02 -0.88960597149E+01 -0.41529578952E+02  0.11087991324E+03  0.77000000000E+02 0.  0.
   -5000001    1    1    2    0    0  0.67538946937E+02  0.88960597149E+01  0.69371572026E+02  0.12402445016E+03  0.77000000000E+02 0.  0.
<mgrwt>
<rscale>  0 0.23324854E+03</rscale>
<asrwt>0</asrwt>
<pdfrwt beam="1">  1        2 0.15927875E-01 0.23324854E+03</pdfrwt>
<pdfrwt beam="2">  1       -2 0.20211258E-01 0.23324854E+03</pdfrwt>
<totfact> 0.73503666E+03</totfact>
</mgrwt>
</event>
<event>
 4    1  0.1171488E-003  0.2507731E+03  0.7818608E-02  0.1112817E+00
         -2   -1    0    0    0  501 -0.00000000000E+00  0.00000000000E+00  0.80442187094E+03  0.80442187095E+03  0.25500000000E-02 0. -1.
          2   -1    0    0  501    0  0.00000000000E+00 -0.00000000000E+00 -0.19544210465E+02  0.19544210631E+02  0.25500000000E-02 0.  1.
    5000001    1    1    2    0    0 -0.91218805607E+02  0.36014782666E+02  0.43588663138E+03  0.45336970618E+03  0.77000000000E+02 0.  0.
   -5000001    1    1    2    0    0  0.91218805607E+02 -0.36014782666E+02  0.34899102910E+03  0.37059637540E+03  0.77000000000E+02 0.  0.
<mgrwt>
<rscale>  0 0.25077313E+03</rscale>
<asrwt>0</asrwt>
<pdfrwt beam="1">  1        2 0.30068020E-02 0.25077313E+03</pdfrwt>
<pdfrwt beam="2">  1       -2 0.12375719E+00 0.25077313E+03</pdfrwt>
<totfact> 0.16014894E+03</totfact>
</mgrwt>
</event>
<event>
 4    1  0.1171488E-003  0.2487993E+03  0.7818608E-02  0.1114066E+00
          2   -1    0    0  501    0  0.00000000000E+00  0.00000000000E+00  0.48570950999E+03  0.48570951000E+03  0.25500000000E-02 0.  1.
         -2   -1    0    0    0  501 -0.00000000000E+00 -0.00000000000E+00 -0.31861181289E+02  0.31861181392E+02  0.25500000000E-02 0. -1.
    5000001    1    1    2    0    0  0.41804880007E+02 -0.41271755733E+02  0.38933575464E+03  0.40120111622E+03  0.77000000000E+02 0.  0.
   -5000001    1    1    2    0    0 -0.41804880007E+02  0.41271755733E+02  0.64512574064E+02  0.11636957517E+03  0.77000000000E+02 0.  0.
<mgrwt>
<rscale>  0 0.24879935E+03</rscale>
<asrwt>0</asrwt>
<pdfrwt beam="1">  1        2 0.74724538E-01 0.24879935E+03</pdfrwt>
<pdfrwt beam="2">  1       -2 0.49017204E-02 0.24879935E+03</pdfrwt>
<totfact> 0.12825722E+04</totfact>
</mgrwt>
</event>
<event>
 4    1  0.1171488E-003  0.1852418E+03  0.7818608E-02  0.1162824E+00
          2   -1    0    0  501    0  0.00000000000E+00  0.00000000000E+00  0.89712493009E+03  0.89712493010E+03  0.25500000000E-02 0.  1.
         -2   -1    0    0    0  501 -0.00000000000E+00 -0.00000000000E+00 -0.95623566444E+01  0.95623569844E+01  0.25500000000E-02 0. -1.
    5000001    1    1    2    0    0 -0.42734969551E+02  0.15721444159E+02  0.32629141701E+03  0.33833198229E+03  0.77000000000E+02 0.  0.
   -5000001    1    1    2    0    0  0.42734969551E+02 -0.15721444159E+02  0.56127115644E+03  0.56835530479E+03  0.77000000000E+02 0.  0.
<mgrwt>
<rscale>  0 0.18524177E+03</rscale>
<asrwt>0</asrwt>
<pdfrwt beam="1">  1        2 0.13801921E+00 0.18524177E+03</pdfrwt>
<pdfrwt beam="2">  1       -2 0.14711319E-02 0.18524177E+03</pdfrwt>
<totfact> 0.35862423E+04</totfact>
</mgrwt>
</event>
<event>
 4    1  0.1171488E-003  0.3194783E+03  0.7818608E-02  0.1075890E+00
          2   -1    0    0  501    0  0.00000000000E+00  0.00000000000E+00  0.24058936213E+03  0.24058936214E+03  0.25500000000E-02 0.  1.
         -2   -1    0    0    0  501 -0.00000000000E+00 -0.00000000000E+00 -0.10605869527E+03  0.10605869530E+03  0.25500000000E-02 0. -1.
    5000001    1    1    2    0    0 -0.12289445059E+03 -0.46170898370E+02  0.14634583037E+02  0.15289855743E+03  0.77000000000E+02 0.  0.
   -5000001    1    1    2    0    0  0.12289445059E+03  0.46170898370E+02  0.11989608382E+03  0.19374950002E+03  0.77000000000E+02 0.  0.
<mgrwt>
<rscale>  0 0.31947829E+03</rscale>
<asrwt>0</asrwt>
<pdfrwt beam="1">  1        2 0.37013748E-01 0.31947829E+03</pdfrwt>
<pdfrwt beam="2">  1       -2 0.16316722E-01 0.31947829E+03</pdfrwt>
<totfact> 0.41371629E+03</totfact>
</mgrwt>
</event>
<event>
 4    1  0.1171488E-003  0.2031958E+03  0.7818608E-02  0.1147070E+00
         -2   -1    0    0    0  501 -0.00000000000E+00  0.00000000000E+00  0.87523004765E+01  0.87523008480E+01  0.25500000000E-02 0. -1.
          2   -1    0    0  501    0  0.00000000000E+00 -0.00000000000E+00 -0.11793620641E+04  0.11793620641E+04  0.25500000000E-02 0.  1.
    5000001    1    1    2    0    0 -0.59174887360E+02  0.18376411152E+01 -0.41105545619E+03  0.42237499012E+03  0.77000000000E+02 0.  0.
   -5000001    1    1    2    0    0  0.59174887360E+02 -0.18376411152E+01 -0.75955430746E+03  0.76573937485E+03  0.77000000000E+02 0.  0.
<mgrwt>
<rscale>  0 0.20319578E+03</rscale>
<asrwt>0</asrwt>
<pdfrwt beam="1">  1        2 0.18144019E+00 0.20319578E+03</pdfrwt>
<pdfrwt beam="2">  1       -2 0.13465087E-02 0.20319578E+03</pdfrwt>
<totfact> 0.27829051E+04</totfact>
</mgrwt>
</event>
<event>
 4    1  0.1171488E-003  0.3943563E+03  0.7818608E-02  0.1045752E+00
         -2   -1    0    0    0  501 -0.00000000000E+00  0.00000000000E+00  0.25497096592E+03  0.25497096593E+03  0.25500000000E-02 0. -1.
          2   -1    0    0  501    0  0.00000000000E+00 -0.00000000000E+00 -0.15248486594E+03  0.15248486596E+03  0.25500000000E-02 0.  1.
    5000001    1    1    2    0    0 -0.20182741688E+02  0.17357580766E+03  0.10201084229E+03  0.21649738108E+03  0.77000000000E+02 0.  0.
   -5000001    1    1    2    0    0  0.20182741688E+02 -0.17357580766E+03  0.47525768832E+00  0.19095845082E+03  0.77000000000E+02 0.  0.
<mgrwt>
<rscale>  0 0.39435625E+03</rscale>
<asrwt>0</asrwt>
<pdfrwt beam="1">  1        2 0.23459210E-01 0.39435625E+03</pdfrwt>
<pdfrwt beam="2">  1       -2 0.39226302E-01 0.39435625E+03</pdfrwt>
<totfact> 0.14402551E+03</totfact>
</mgrwt>
</event>
<event>
 4    1  0.1171488E-003  0.2642892E+03  0.7818608E-02  0.1104593E+00
         -2   -1    0    0    0  501 -0.00000000000E+00  0.00000000000E+00  0.10379791739E+02  0.10379792053E+02  0.25500000000E-02 0. -1.
          2   -1    0    0  501    0  0.00000000000E+00 -0.00000000000E+00 -0.16823259738E+04  0.16823259738E+04  0.25500000000E-02 0.  1.
    5000001    1    1    2    0    0  0.15154199226E+02  0.10437327714E+03 -0.96562184029E+03  0.97441160153E+03  0.77000000000E+02 0.  0.
   -5000001    1    1    2    0    0 -0.15154199226E+02 -0.10437327714E+03 -0.70632434172E+03  0.71829416428E+03  0.77000000000E+02 0.  0.
<mgrwt>
<rscale>  0 0.26428919E+03</rscale>
<asrwt>0</asrwt>
<pdfrwt beam="1">  1        2 0.25881916E+00 0.26428919E+03</pdfrwt>
<pdfrwt beam="2">  1       -2 0.15968924E-02 0.26428919E+03</pdfrwt>
<totfact> 0.11737138E+04</totfact>
</mgrwt>
</event>
<event>
 4    1  0.1171488E-003  0.1856956E+03  0.7818608E-02  0.1162402E+00
         -2   -1    0    0    0  501 -0.00000000000E+00  0.00000000000E+00  0.25435458568E+02  0.25435458696E+02  0.25500000000E-02 0. -1.
          2   -1    0    0  501    0  0.00000000000E+00 -0.00000000000E+00 -0.33892508362E+03  0.33892508363E+03  0.25500000000E-02 0.  1.
    5000001    1    1    2    0    0 -0.34868438000E+02  0.11323942334E+02 -0.22877629242E+03  0.24415493362E+03  0.77000000000E+02 0.  0.
   -5000001    1    1    2    0    0  0.34868438000E+02 -0.11323942334E+02 -0.84713332636E+02  0.12020560871E+03  0.77000000000E+02 0.  0.
<mgrwt>
<rscale>  0 0.18569561E+03</rscale>
<asrwt>0</asrwt>
<pdfrwt beam="1">  1        2 0.52142317E-01 0.18569561E+03</pdfrwt>
<pdfrwt beam="2">  1       -2 0.39131477E-02 0.18569561E+03</pdfrwt>
<totfact> 0.26092891E+04</totfact>
</mgrwt>
</event>
<event>
 4    1  0.1171488E-003  0.1899390E+03  0.7818608E-02  0.1158516E+00
         -2   -1    0    0    0  501 -0.00000000000E+00  0.00000000000E+00  0.13678787555E+03  0.13678787557E+03  0.25500000000E-02 0.  1.
          2   -1    0    0  501    0  0.00000000000E+00 -0.00000000000E+00 -0.65935736505E+02  0.65935736554E+02  0.25500000000E-02 0. -1.
    5000001    1    1    2    0    0 -0.30434536811E+02  0.43158096083E+02  0.53953242587E+02  0.10783707467E+03  0.77000000000E+02 0.  0.
   -5000001    1    1    2    0    0  0.30434536811E+02 -0.43158096083E+02  0.16898896458E+02  0.94886537453E+02  0.77000000000E+02 0.  0.
<mgrwt>
<rscale>  0 0.18993904E+03</rscale>
<asrwt>0</asrwt>
<pdfrwt beam="1">  1        2 0.10143959E-01 0.18993904E+03</pdfrwt>
<pdfrwt beam="2">  1       -2 0.21044289E-01 0.18993904E+03</pdfrwt>
<totfact> 0.11660553E+04</totfact>
</mgrwt>
</event>
<event>
 4    1  0.1171488E-003  0.2110898E+03  0.7818608E-02  0.1140706E+00
          2   -1    0    0  501    0  0.00000000000E+00  0.00000000000E+00  0.11672610317E+04  0.11672610318E+04  0.25500000000E-02 0.  1.
         -2   -1    0    0    0  501 -0.00000000000E+00 -0.00000000000E+00 -0.95434717710E+01  0.95434721116E+01  0.25500000000E-02 0. -1.
    5000001    1    1    2    0    0  0.57583144172E+02 -0.44353960835E+01  0.82027397258E+03  0.82590185938E+03  0.77000000000E+02 0.  0.
   -5000001    1    1    2    0    0 -0.57583144172E+02  0.44353960835E+01  0.33744358740E+03  0.35090264449E+03  0.77000000000E+02 0.  0.
<mgrwt>
<rscale>  0 0.21108977E+03</rscale>
<asrwt>0</asrwt>
<pdfrwt beam="1">  1        2 0.17957873E+00 0.21108977E+03</pdfrwt>
<pdfrwt beam="2">  1       -2 0.14682256E-02 0.21108977E+03</pdfrwt>
<totfact> 0.24989568E+04</totfact>
</mgrwt>
</event>
<event>
 4    1  0.1171488E-003  0.4289774E+03  0.7818608E-02  0.1034183E+00
          2   -1    0    0  501    0  0.00000000000E+00  0.00000000000E+00  0.11060150337E+04  0.11060150337E+04  0.25500000000E-02 0.  1.
         -2   -1    0    0    0  501 -0.00000000000E+00 -0.00000000000E+00 -0.41595639224E+02  0.41595639302E+02  0.25500000000E-02 0. -1.
    5000001    1    1    2    0    0 -0.88933190267E+02 -0.10320322499E+03  0.92462398663E+03  0.93777317867E+03  0.77000000000E+02 0.  0.
   -5000001    1    1    2    0    0  0.88933190267E+02  0.10320322499E+03  0.13979540788E+03  0.20983749437E+03  0.77000000000E+02 0.  0.
<mgrwt>
<rscale>  0 0.42897740E+03</rscale>
<asrwt>0</asrwt>
<pdfrwt beam="1">  1        2 0.17015615E+00 0.42897740E+03</pdfrwt>
<pdfrwt beam="2">  1       -2 0.63993296E-02 0.42897740E+03</pdfrwt>
<totfact> 0.30437045E+03</totfact>
</mgrwt>
</event>
<event>
 4    1  0.1171488E-003  0.2532132E+03  0.7818608E-02  0.1111291E+00
         -2   -1    0    0    0  501 -0.00000000000E+00  0.00000000000E+00  0.32765598995E+03  0.32765598996E+03  0.25500000000E-02 0. -1.
          2   -1    0    0  501    0  0.00000000000E+00 -0.00000000000E+00 -0.48920924358E+02  0.48920924425E+02  0.25500000000E-02 0.  1.
    5000001    1    1    2    0    0  0.54769816071E+02  0.74345647789E+01  0.26419634913E+03  0.28068437149E+03  0.77000000000E+02 0.  0.
   -5000001    1    1    2    0    0 -0.54769816071E+02 -0.74345647789E+01  0.14538716460E+02  0.95892542892E+02  0.77000000000E+02 0.  0.
<mgrwt>
<rscale>  0 0.25321322E+03</rscale>
<asrwt>0</asrwt>
<pdfrwt beam="1">  1        2 0.75262960E-02 0.25321322E+03</pdfrwt>
<pdfrwt beam="2">  1       -2 0.50408614E-01 0.25321322E+03</pdfrwt>
<totfact> 0.34471471E+03</totfact>
</mgrwt>
</event>
<event>
 4    1  0.1171488E-003  0.2201926E+03  0.7818608E-02  0.1133740E+00
         -2   -1    0    0    0  501 -0.00000000000E+00  0.00000000000E+00  0.11624243542E+02  0.11624243821E+02  0.25500000000E-02 0. -1.
          2   -1    0    0  501    0  0.00000000000E+00 -0.00000000000E+00 -0.10427515698E+04  0.10427515698E+04  0.25500000000E-02 0.  1.
    5000001    1    1    2    0    0  0.64185396094E+02  0.43381894059E+02 -0.58164471245E+03  0.59181190029E+03  0.77000000000E+02 0.  0.
   -5000001    1    1    2    0    0 -0.64185396094E+02 -0.43381894059E+02 -0.44948261385E+03  0.46256391337E+03  0.77000000000E+02 0.  0.
<mgrwt>
<rscale>  0 0.22019263E+03</rscale>
<asrwt>0</asrwt>
<pdfrwt beam="1">  1        2 0.16042324E+00 0.22019263E+03</pdfrwt>
<pdfrwt beam="2">  1       -2 0.17883460E-02 0.22019263E+03</pdfrwt>
<totfact> 0.22202056E+04</totfact>
</mgrwt>
</event>
<event>
 4    1  0.1171488E-003  0.2371437E+03  0.7818608E-02  0.1121710E+00
         -2   -1    0    0    0  501 -0.00000000000E+00  0.00000000000E+00  0.28864419778E+02  0.28864419891E+02  0.25500000000E-02 0. -1.
          2   -1    0    0  501    0  0.00000000000E+00 -0.00000000000E+00 -0.48708013858E+03  0.48708013858E+03  0.25500000000E-02 0.  1.
    5000001    1    1    2    0    0 -0.86929993799E+02  0.13430488087E+02 -0.18597244467E+03  0.21966326960E+03  0.77000000000E+02 0.  0.
   -5000001    1    1    2    0    0  0.86929993799E+02 -0.13430488087E+02 -0.27224327413E+03  0.29628128888E+03  0.77000000000E+02 0.  0.
<mgrwt>
<rscale>  0 0.23714372E+03</rscale>
<asrwt>0</asrwt>
<pdfrwt beam="1">  1        2 0.74935400E-01 0.23714372E+03</pdfrwt>
<pdfrwt beam="2">  1       -2 0.44406803E-02 0.23714372E+03</pdfrwt>
<totfact> 0.14808706E+04</totfact>
</mgrwt>
</event>
<event>
 4    1  0.1171488E-003  0.1751300E+03  0.7818608E-02  0.1172601E+00
          2   -1    0    0  501    0  0.00000000000E+00  0.00000000000E+00  0.14199862709E+04  0.14199862709E+04  0.25500000000E-02 0.  1.
         -2   -1    0    0    0  501 -0.00000000000E+00 -0.00000000000E+00 -0.53997880948E+01  0.53997886969E+01  0.25500000000E-02 0. -1.
    5000001    1    1    2    0    0 -0.11005012132E+02 -0.28454700328E+02  0.47596102272E+03  0.48311352229E+03  0.77000000000E+02 0.  0.
   -5000001    1    1    2    0    0  0.11005012132E+02  0.28454700328E+02  0.93862546010E+03  0.94227253733E+03  0.77000000000E+02 0.  0.
<mgrwt>
<rscale>  0 0.17512996E+03</rscale>
<asrwt>0</asrwt>
<pdfrwt beam="1">  1        2 0.21845956E+00 0.17512996E+03</pdfrwt>
<pdfrwt beam="2">  1       -2 0.83073617E-03 0.17512996E+03</pdfrwt>
<totfact> 0.40830061E+04</totfact>
</mgrwt>
</event>
<event>
 4    1  0.1171488E-003  0.2351174E+03  0.7818608E-02  0.1123089E+00
         -2   -1    0    0    0  501 -0.00000000000E+00  0.00000000000E+00  0.92736338492E+01  0.92736341998E+01  0.25500000000E-02 0. -1.
          2   -1    0    0  501    0  0.00000000000E+00 -0.00000000000E+00 -0.14902517696E+04  0.14902517696E+04  0.25500000000E-02 0.  1.
    5000001    1    1    2    0    0 -0.74086546827E+02  0.41982307132E+02 -0.57917819082E+03  0.59044704018E+03  0.77000000000E+02 0.  0.
   -5000001    1    1    2    0    0  0.74086546827E+02 -0.41982307132E+02 -0.90179994493E+03  0.90907836362E+03  0.77000000000E+02 0.  0.
<mgrwt>
<rscale>  0 0.23511741E+03</rscale>
<asrwt>0</asrwt>
<pdfrwt beam="1">  1        2 0.22926931E+00 0.23511741E+03</pdfrwt>
<pdfrwt beam="2">  1       -2 0.14267141E-02 0.23511741E+03</pdfrwt>
<totfact> 0.17423133E+04</totfact>
</mgrwt>
</event>
<event>
 4    1  0.1171488E-003  0.2031076E+03  0.7818608E-02  0.1147143E+00
         -2   -1    0    0    0  501 -0.00000000000E+00  0.00000000000E+00  0.14628985077E+02  0.14628985299E+02  0.25500000000E-02 0. -1.
          2   -1    0    0  501    0  0.00000000000E+00 -0.00000000000E+00 -0.70498235003E+03  0.70498235004E+03  0.25500000000E-02 0.  1.
    5000001    1    1    2    0    0 -0.14913215422E+02  0.60706997014E+02 -0.42251106821E+03  0.43399579058E+03  0.77000000000E+02 0.  0.
   -5000001    1    1    2    0    0  0.14913215422E+02 -0.60706997014E+02 -0.26784229675E+03  0.28561554476E+03  0.77000000000E+02 0.  0.
<mgrwt>
<rscale>  0 0.20310762E+03</rscale>
<asrwt>0</asrwt>
<pdfrwt beam="1">  1        2 0.10845880E+00 0.20310762E+03</pdfrwt>
<pdfrwt beam="2">  1       -2 0.22506136E-02 0.20310762E+03</pdfrwt>
<totfact> 0.26303609E+04</totfact>
</mgrwt>
</event>
<event>
 4    1  0.1171488E-003  0.2006144E+03  0.7818608E-02  0.1149222E+00
         -2   -1    0    0    0  501 -0.00000000000E+00  0.00000000000E+00  0.31539191405E+03  0.31539191406E+03  0.25500000000E-02 0. -1.
          2   -1    0    0  501    0  0.00000000000E+00 -0.00000000000E+00 -0.31901691355E+02  0.31901691457E+02  0.25500000000E-02 0.  1.
    5000001    1    1    2    0    0 -0.56769863577E+02  0.27698048518E+02  0.16241305507E+03  0.19051771508E+03  0.77000000000E+02 0.  0.
   -5000001    1    1    2    0    0  0.56769863577E+02 -0.27698048518E+02  0.12107716762E+03  0.15677589043E+03  0.77000000000E+02 0.  0.
<mgrwt>
<rscale>  0 0.20061441E+03</rscale>
<asrwt>0</asrwt>
<pdfrwt beam="1">  1        2 0.49079526E-02 0.20061441E+03</pdfrwt>
<pdfrwt beam="2">  1       -2 0.48521833E-01 0.20061441E+03</pdfrwt>
<totfact> 0.64017695E+03</totfact>
</mgrwt>
</event>
<event>
 4    1  0.1171488E-003  0.2426104E+03  0.7818608E-02  0.1118066E+00
         -2   -1    0    0    0  501 -0.00000000000E+00  0.00000000000E+00  0.42640008010E+02  0.42640008087E+02  0.25500000000E-02 0. -1.
          2   -1    0    0  501    0  0.00000000000E+00 -0.00000000000E+00 -0.34509740743E+03  0.34509740744E+03  0.25500000000E-02 0.  1.
    5000001    1    1    2    0    0 -0.15441798948E+02 -0.92246687247E+02 -0.16108782740E+03  0.20155939223E+03  0.77000000000E+02 0.  0.
   -5000001    1    1    2    0    0  0.15441798948E+02  0.92246687247E+02 -0.14136957203E+03  0.18617802329E+03  0.77000000000E+02 0.  0.
<mgrwt>
<rscale>  0 0.24261044E+03</rscale>
<asrwt>0</asrwt>
<pdfrwt beam="1">  1        2 0.53091907E-01 0.24261044E+03</pdfrwt>
<pdfrwt beam="2">  1       -2 0.65600015E-02 0.24261044E+03</pdfrwt>
<totfact> 0.11910906E+04</totfact>
</mgrwt>
</event>
<event>
 4    1  0.1171488E-003  0.1865304E+03  0.7818608E-02  0.1161628E+00
         -2   -1    0    0    0  501 -0.00000000000E+00  0.00000000000E+00  0.99427454643E+02  0.99427454676E+02  0.25500000000E-02 0. -1.
          2   -1    0    0  501    0  0.00000000000E+00 -0.00000000000E+00 -0.87484867292E+02  0.87484867329E+02  0.25500000000E-02 0.  1.
    5000001    1    1    2    0    0  0.32682653003E+02  0.19027245693E+02 -0.30698795615E+02  0.91113160071E+02  0.77000000000E+02 0.  0.
   -5000001    1    1    2    0    0 -0.32682653003E+02 -0.19027245693E+02  0.42641382966E+02  0.95799161934E+02  0.77000000000E+02 0.  0.
<mgrwt>
<rscale>  0 0.18653040E+03</rscale>
<asrwt>0</asrwt>
<pdfrwt beam="1">  1        2 0.13459210E-01 0.18653040E+03</pdfrwt>
<pdfrwt beam="2">  1       -2 0.15296531E-01 0.18653040E+03</pdfrwt>
<totfact> 0.14112066E+04</totfact>
</mgrwt>
</event>
<event>
 4    1  0.1171488E-003  0.2594800E+03  0.7818608E-02  0.1107456E+00
         -2   -1    0    0    0  501 -0.00000000000E+00  0.00000000000E+00  0.22816987258E+03  0.22816987260E+03  0.25500000000E-02 0. -1.
          2   -1    0    0  501    0  0.00000000000E+00 -0.00000000000E+00 -0.73771655684E+02  0.73771655728E+02  0.25500000000E-02 0.  1.
    5000001    1    1    2    0    0 -0.10140630550E+03  0.24192679575E+02  0.70320352706E+02  0.14745330293E+03  0.77000000000E+02 0.  0.
   -5000001    1    1    2    0    0  0.10140630550E+03 -0.24192679575E+02  0.84077864194E+02  0.15448822540E+03  0.77000000000E+02 0.  0.
<mgrwt>
<rscale>  0 0.25948001E+03</rscale>
<asrwt>0</asrwt>
<pdfrwt beam="1">  1        2 0.11349486E-01 0.25948001E+03</pdfrwt>
<pdfrwt beam="2">  1       -2 0.35103056E-01 0.25948001E+03</pdfrwt>
<totfact> 0.41459326E+03</totfact>
</mgrwt>
</event>
<event>
 4    1  0.1171488E-003  0.2581900E+03  0.7818608E-02  0.1108236E+00
          2   -1    0    0  501    0  0.00000000000E+00  0.00000000000E+00  0.27157229670E+03  0.27157229671E+03  0.25500000000E-02 0.  1.
         -2   -1    0    0    0  501 -0.00000000000E+00 -0.00000000000E+00 -0.61366799164E+02  0.61366799217E+02  0.25500000000E-02 0. -1.
    5000001    1    1    2    0    0 -0.36253669346E+02  0.87335138613E+02  0.15973252794E+03  0.20096078090E+03  0.77000000000E+02 0.  0.
   -5000001    1    1    2    0    0  0.36253669346E+02 -0.87335138613E+02  0.50472969594E+02  0.13197831503E+03  0.77000000000E+02 0.  0.
<mgrwt>
<rscale>  0 0.25819003E+03</rscale>
<asrwt>0</asrwt>
<pdfrwt beam="1">  1        2 0.41780353E-01 0.25819003E+03</pdfrwt>
<pdfrwt beam="2">  1       -2 0.94410462E-02 0.25819003E+03</pdfrwt>
<totfact> 0.87601986E+03</totfact>
</mgrwt>
</event>
<event>
 4    1  0.1171488E-003  0.2069990E+03  0.7818608E-02  0.1143965E+00
          2   -1    0    0  501    0  0.00000000000E+00  0.00000000000E+00  0.82327935244E+02  0.82327935284E+02  0.25500000000E-02 0.  1.
         -2   -1    0    0    0  501 -0.00000000000E+00 -0.00000000000E+00 -0.13011559858E+03  0.13011559861E+03  0.25500000000E-02 0. -1.
    5000001    1    1    2    0    0  0.50135018642E+02 -0.40973266876E+02  0.10522753245E+01  0.10061031744E+03  0.77000000000E+02 0.  0.
   -5000001    1    1    2    0    0 -0.50135018642E+02  0.40973266876E+02 -0.48839938665E+02  0.11183321645E+03  0.77000000000E+02 0.  0.
<mgrwt>
<rscale>  0 0.20699902E+03</rscale>
<asrwt>0</asrwt>
<pdfrwt beam="1">  1        2 0.12665836E-01 0.20699902E+03</pdfrwt>
<pdfrwt beam="2">  1       -2 0.20017785E-01 0.20699902E+03</pdfrwt>
<totfact> 0.97454687E+03</totfact>
</mgrwt>
</event>
<event>
 4    1  0.1171488E-003  0.3421761E+03  0.7818608E-02  0.1065873E+00
         -2   -1    0    0    0  501 -0.00000000000E+00  0.00000000000E+00  0.10389014628E+03  0.10389014631E+03  0.25500000000E-02 0. -1.
          2   -1    0    0  501    0  0.00000000000E+00 -0.00000000000E+00 -0.28175076716E+03  0.28175076717E+03  0.25500000000E-02 0.  1.
    5000001    1    1    2    0    0 -0.13309054832E+03 -0.73739479682E+02 -0.10452743059E+03  0.20001397117E+03  0.77000000000E+02 0.  0.
   -5000001    1    1    2    0    0  0.13309054832E+03  0.73739479682E+02 -0.73333190286E+02  0.18562694232E+03  0.77000000000E+02 0.  0.
<mgrwt>
<rscale>  0 0.34217614E+03</rscale>
<asrwt>0</asrwt>
<pdfrwt beam="1">  1        2 0.43346272E-01 0.34217614E+03</pdfrwt>
<pdfrwt beam="2">  1       -2 0.15983100E-01 0.34217614E+03</pdfrwt>
<totfact> 0.36140654E+03</totfact>
</mgrwt>
</event>
<event>
 4    1  0.1171488E-003  0.2236153E+03  0.7818608E-02  0.1131216E+00
         -2   -1    0    0    0  501 -0.00000000000E+00  0.00000000000E+00  0.94827508876E+01  0.94827512304E+01  0.25500000000E-02 0. -1.
          2   -1    0    0  501    0  0.00000000000E+00 -0.00000000000E+00 -0.13182828277E+04  0.13182828277E+04  0.25500000000E-02 0.  1.
    5000001    1    1    2    0    0 -0.27543707460E+02  0.75203398886E+02 -0.72897482823E+03  0.73739236992E+03  0.77000000000E+02 0.  0.
   -5000001    1    1    2    0    0  0.27543707460E+02 -0.75203398886E+02 -0.57982524855E+03  0.59037320898E+03  0.77000000000E+02 0.  0.
<mgrwt>
<rscale>  0 0.22361528E+03</rscale>
<asrwt>0</asrwt>
<pdfrwt beam="1">  1        2 0.20281260E+00 0.22361528E+03</pdfrwt>
<pdfrwt beam="2">  1       -2 0.14588858E-02 0.22361528E+03</pdfrwt>
<totfact> 0.20840326E+04</totfact>
</mgrwt>
</event>
<event>
 4    1  0.1171488E-003  0.2549882E+03  0.7818608E-02  0.1110192E+00
          2   -1    0    0  501    0  0.00000000000E+00  0.00000000000E+00  0.31601067062E+03  0.31601067063E+03  0.25500000000E-02 0.  1.
         -2   -1    0    0    0  501 -0.00000000000E+00 -0.00000000000E+00 -0.51437343697E+02  0.51437343760E+02  0.25500000000E-02 0. -1.
    5000001    1    1    2    0    0  0.28023431481E+02  0.96195347809E+02  0.10787851337E+03  0.16614942461E+03  0.77000000000E+02 0.  0.
   -5000001    1    1    2    0    0 -0.28023431481E+02 -0.96195347809E+02  0.15669481355E+03  0.20129858977E+03  0.77000000000E+02 0.  0.
<mgrwt>
<rscale>  0 0.25498823E+03</rscale>
<asrwt>0</asrwt>
<pdfrwt beam="1">  1        2 0.48617028E-01 0.25498823E+03</pdfrwt>
<pdfrwt beam="2">  1       -2 0.79134373E-02 0.25498823E+03</pdfrwt>
<totfact> 0.98150489E+03</totfact>
</mgrwt>
</event>
<event>
 4    1  0.1171488E-003  0.2061820E+03  0.7818608E-02  0.1144626E+00
          2   -1    0    0  501    0  0.00000000000E+00  0.00000000000E+00  0.91207504825E+02  0.91207504860E+02  0.25500000000E-02 0.  1.
         -2   -1    0    0    0  501 -0.00000000000E+00 -0.00000000000E+00 -0.11652283524E+03  0.11652283526E+03  0.25500000000E-02 0. -1.
    5000001    1    1    2    0    0 -0.33656570612E+02 -0.58385124901E+02 -0.26794928999E-01  0.10232589249E+03  0.77000000000E+02 0.  0.
   -5000001    1    1    2    0    0  0.33656570612E+02  0.58385124901E+02 -0.25288535482E+02  0.10540444764E+03  0.77000000000E+02 0.  0.
<mgrwt>
<rscale>  0 0.20618203E+03</rscale>
<asrwt>0</asrwt>
<pdfrwt beam="1">  1        2 0.14031924E-01 0.20618203E+03</pdfrwt>
<pdfrwt beam="2">  1       -2 0.17926590E-01 0.20618203E+03</pdfrwt>
<totfact> 0.10387492E+04</totfact>
</mgrwt>
</event>
<event>
 4    1  0.1171488E-003  0.2090289E+03  0.7818608E-02  0.1142337E+00
          2   -1    0    0  501    0  0.00000000000E+00  0.00000000000E+00  0.46500572400E+02  0.46500572469E+02  0.25500000000E-02 0.  1.
         -2   -1    0    0    0  501 -0.00000000000E+00 -0.00000000000E+00 -0.23490620429E+03  0.23490620430E+03  0.25500000000E-02 0. -1.
    5000001    1    1    2    0    0 -0.19556979560E+02  0.67122322793E+02 -0.10808894605E+03  0.15000033975E+03  0.77000000000E+02 0.  0.
   -5000001    1    1    2    0    0  0.19556979560E+02 -0.67122322793E+02 -0.80316685840E+02  0.13140643702E+03  0.77000000000E+02 0.  0.
<mgrwt>
<rscale>  0 0.20902893E+03</rscale>
<asrwt>0</asrwt>
<pdfrwt beam="1">  1        2 0.71539344E-02 0.20902893E+03</pdfrwt>
<pdfrwt beam="2">  1       -2 0.36139415E-01 0.20902893E+03</pdfrwt>
<totfact> 0.69275101E+03</totfact>
</mgrwt>
</event>
<event>
 4    1  0.1171488E-003  0.2728412E+03  0.7818608E-02  0.1099664E+00
          2   -1    0    0  501    0  0.00000000000E+00  0.00000000000E+00  0.59232559594E+03  0.59232559594E+03  0.25500000000E-02 0.  1.
         -2   -1    0    0    0  501 -0.00000000000E+00 -0.00000000000E+00 -0.31419512696E+02  0.31419512799E+02  0.25500000000E-02 0. -1.
    5000001    1    1    2    0    0 -0.19075264459E+02 -0.85441111531E+02  0.44238861954E+03  0.45749397805E+03  0.77000000000E+02 0.  0.
   -5000001    1    1    2    0    0  0.19075264459E+02  0.85441111531E+02  0.11851746370E+03  0.16625113069E+03  0.77000000000E+02 0.  0.
<mgrwt>
<rscale>  0 0.27284121E+03</rscale>
<asrwt>0</asrwt>
<pdfrwt beam="1">  1        2 0.91127005E-01 0.27284121E+03</pdfrwt>
<pdfrwt beam="2">  1       -2 0.48337717E-02 0.27284121E+03</pdfrwt>
<totfact> 0.10505517E+04</totfact>
</mgrwt>
</event>
<event>
 4    1  0.1171488E-003  0.2061477E+03  0.7818608E-02  0.1144653E+00
         -2   -1    0    0    0  501 -0.00000000000E+00  0.00000000000E+00  0.90781667464E+01  0.90781671045E+01  0.25500000000E-02 0. -1.
          2   -1    0    0  501    0  0.00000000000E+00 -0.00000000000E+00 -0.11703041614E+04  0.11703041614E+04  0.25500000000E-02 0.  1.
    5000001    1    1    2    0    0  0.62887656523E+02  0.24513083724E+02 -0.64817668133E+03  0.65621472007E+03  0.77000000000E+02 0.  0.
   -5000001    1    1    2    0    0 -0.62887656523E+02 -0.24513083724E+02 -0.51304931334E+03  0.52316760846E+03  0.77000000000E+02 0.  0.
<mgrwt>
<rscale>  0 0.20614768E+03</rscale>
<asrwt>0</asrwt>
<pdfrwt beam="1">  1        2 0.18004667E+00 0.20614768E+03</pdfrwt>
<pdfrwt beam="2">  1       -2 0.13966420E-02 0.20614768E+03</pdfrwt>
<totfact> 0.26728358E+04</totfact>
</mgrwt>
</event>
<event>
 4    1  0.1171488E-003  0.1630503E+03  0.7818608E-02  0.1185295E+00
          2   -1    0    0  501    0  0.00000000000E+00  0.00000000000E+00  0.69500288759E+03  0.69500288760E+03  0.25500000000E-02 0.  1.
         -2   -1    0    0    0  501 -0.00000000000E+00 -0.00000000000E+00 -0.95630561929E+01  0.95630565329E+01  0.25500000000E-02 0. -1.
    5000001    1    1    2    0    0 -0.24489235617E+02 -0.41026484038E+01  0.38610342351E+03  0.39448879329E+03  0.77000000000E+02 0.  0.
   -5000001    1    1    2    0    0  0.24489235617E+02  0.41026484038E+01  0.29933640788E+03  0.31007715083E+03  0.77000000000E+02 0.  0.
<mgrwt>
<rscale>  0 0.16305032E+03</rscale>
<asrwt>0</asrwt>
<pdfrwt beam="1">  1        2 0.10692356E+00 0.16305032E+03</pdfrwt>
<pdfrwt beam="2">  1       -2 0.14712390E-02 0.16305032E+03</pdfrwt>
<totfact> 0.48811590E+04</totfact>
</mgrwt>
</event>
<event>
 4    1  0.1171488E-003  0.2180816E+03  0.7818608E-02  0.1135321E+00
          2   -1    0    0  501    0  0.00000000000E+00  0.00000000000E+00  0.59901206273E+03  0.59901206274E+03  0.25500000000E-02 0.  1.
         -2   -1    0    0    0  501 -0.00000000000E+00 -0.00000000000E+00 -0.19849182519E+02  0.19849182683E+02  0.25500000000E-02 0. -1.
    5000001    1    1    2    0    0 -0.71958934412E+02 -0.35802799629E+01  0.36832546877E+03  0.38312342344E+03  0.77000000000E+02 0.  0.
   -5000001    1    1    2    0    0  0.71958934412E+02  0.35802799629E+01  0.21083741144E+03  0.23573782198E+03  0.77000000000E+02 0.  0.
<mgrwt>
<rscale>  0 0.21808163E+03</rscale>
<asrwt>0</asrwt>
<pdfrwt beam="1">  1        2 0.92155709E-01 0.21808163E+03</pdfrwt>
<pdfrwt beam="2">  1       -2 0.30537202E-02 0.21808163E+03</pdfrwt>
<totfact> 0.20414395E+04</totfact>
</mgrwt>
</event>
<event>
 4    1  0.1171488E-003  0.1863605E+03  0.7818608E-02  0.1161785E+00
         -2   -1    0    0    0  501 -0.00000000000E+00  0.00000000000E+00  0.82170987304E+01  0.82170991261E+01  0.25500000000E-02 0. -1.
          2   -1    0    0  501    0  0.00000000000E+00 -0.00000000000E+00 -0.10566450995E+04  0.10566450995E+04  0.25500000000E-02 0.  1.
    5000001    1    1    2    0    0  0.31962443775E+02 -0.38098999381E+02 -0.61990002940E+03  0.62664038971E+03  0.77000000000E+02 0.  0.
   -5000001    1    1    2    0    0 -0.31962443775E+02  0.38098999381E+02 -0.42852797135E+03  0.43822180890E+03  0.77000000000E+02 0.  0.
<mgrwt>
<rscale>  0 0.18636048E+03</rscale>
<asrwt>0</asrwt>
<pdfrwt beam="1">  1        2 0.16256068E+00 0.18636048E+03</pdfrwt>
<pdfrwt beam="2">  1       -2 0.12641699E-02 0.18636048E+03</pdfrwt>
<totfact> 0.35685156E+04</totfact>
</mgrwt>
</event>
<event>
 4    1  0.1171488E-003  0.2107538E+03  0.7818608E-02  0.1140970E+00
         -2   -1    0    0    0  501 -0.00000000000E+00  0.00000000000E+00  0.20762502830E+02  0.20762502987E+02  0.25500000000E-02 0. -1.
          2   -1    0    0  501    0  0.00000000000E+00 -0.00000000000E+00 -0.53482431640E+03  0.53482431641E+03  0.25500000000E-02 0.  1.
    5000001    1    1    2    0    0  0.15231338612E+01 -0.65989572559E+02 -0.33244377759E+03  0.34756986187E+03  0.77000000000E+02 0.  0.
   -5000001    1    1    2    0    0 -0.15231338612E+01  0.65989572559E+02 -0.18161803598E+03  0.20801695752E+03  0.77000000000E+02 0.  0.
<mgrwt>
<rscale>  0 0.21075380E+03</rscale>
<asrwt>0</asrwt>
<pdfrwt beam="1">  1        2 0.82280654E-01 0.21075380E+03</pdfrwt>
<pdfrwt beam="2">  1       -2 0.31942316E-02 0.21075380E+03</pdfrwt>
<totfact> 0.21678178E+04</totfact>
</mgrwt>
</event>
<event>
 4    1  0.1171488E-003  0.1989362E+03  0.7818608E-02  0.1150640E+00
          2   -1    0    0  501    0  0.00000000000E+00  0.00000000000E+00  0.16123341492E+03  0.16123341494E+03  0.25500000000E-02 0.  1.
         -2   -1    0    0    0  501 -0.00000000000E+00 -0.00000000000E+00 -0.61363840224E+02  0.61363840277E+02  0.25500000000E-02 0. -1.
    5000001    1    1    2    0    0  0.33698875408E+02 -0.20969797616E+02  0.10463191549E+03  0.13583881755E+03  0.77000000000E+02 0.  0.
   -5000001    1    1    2    0    0 -0.33698875408E+02  0.20969797616E+02 -0.47623407920E+01  0.86758437663E+02  0.77000000000E+02 0.  0.
<mgrwt>
<rscale>  0 0.19893619E+03</rscale>
<asrwt>0</asrwt>
<pdfrwt beam="1">  1        2 0.24805141E-01 0.19893619E+03</pdfrwt>
<pdfrwt beam="2">  1       -2 0.94405907E-02 0.19893619E+03</pdfrwt>
<totfact> 0.15236845E+04</totfact>
</mgrwt>
</event>
<event>
 4    1  0.1171488E-003  0.2140705E+03  0.7818608E-02  0.1138383E+00
         -2   -1    0    0    0  501 -0.00000000000E+00  0.00000000000E+00  0.76224696209E+01  0.76224700475E+01  0.25500000000E-02 0. -1.
          2   -1    0    0  501    0  0.00000000000E+00 -0.00000000000E+00 -0.15029959745E+04  0.15029959745E+04  0.25500000000E-02 0.  1.
    5000001    1    1    2    0    0  0.61807021520E+02 -0.51241459910E+00 -0.45612098386E+03  0.46668589265E+03  0.77000000000E+02 0.  0.
   -5000001    1    1    2    0    0 -0.61807021520E+02  0.51241459910E+00 -0.10392525210E+04  0.10439325519E+04  0.77000000000E+02 0.  0.
<mgrwt>
<rscale>  0 0.21407047E+03</rscale>
<asrwt>0</asrwt>
<pdfrwt beam="1">  1        2 0.23122991E+00 0.21407047E+03</pdfrwt>
<pdfrwt beam="2">  1       -2 0.11726889E-02 0.21407047E+03</pdfrwt>
<totfact> 0.22712858E+04</totfact>
</mgrwt>
</event>
<event>
 4    1  0.1171488E-003  0.2490883E+03  0.7818608E-02  0.1113882E+00
         -2   -1    0    0    0  501 -0.00000000000E+00  0.00000000000E+00  0.14905358169E+02  0.14905358387E+02  0.25500000000E-02 0. -1.
          2   -1    0    0  501    0  0.00000000000E+00 -0.00000000000E+00 -0.10406492424E+04  0.10406492424E+04  0.25500000000E-02 0.  1.
    5000001    1    1    2    0    0 -0.13128994964E+01  0.95975704756E+02 -0.43144795024E+03  0.44865286511E+03  0.77000000000E+02 0.  0.
   -5000001    1    1    2    0    0  0.13128994964E+01 -0.95975704756E+02 -0.59429593398E+03  0.60690173567E+03  0.77000000000E+02 0.  0.
<mgrwt>
<rscale>  0 0.24908834E+03</rscale>
<asrwt>0</asrwt>
<pdfrwt beam="1">  1        2 0.16009983E+00 0.24908834E+03</pdfrwt>
<pdfrwt beam="2">  1       -2 0.22931329E-02 0.24908834E+03</pdfrwt>
<totfact> 0.15551552E+04</totfact>
</mgrwt>
</event>
<event>
 4    1  0.1171488E-003  0.3423478E+03  0.7818608E-02  0.1065800E+00
         -2   -1    0    0    0  501 -0.00000000000E+00  0.00000000000E+00  0.11773921766E+03  0.11773921768E+03  0.25500000000E-02 0. -1.
          2   -1    0    0  501    0  0.00000000000E+00 -0.00000000000E+00 -0.24885940508E+03  0.24885940509E+03  0.25500000000E-02 0.  1.
    5000001    1    1    2    0    0  0.13184335063E+03  0.30410692291E+02 -0.14176298809E+03  0.21055456324E+03  0.77000000000E+02 0.  0.
   -5000001    1    1    2    0    0 -0.13184335063E+03 -0.30410692291E+02  0.10642800665E+02  0.15604405953E+03  0.77000000000E+02 0.  0.
<mgrwt>
<rscale>  0 0.34234784E+03</rscale>
<asrwt>0</asrwt>
<pdfrwt beam="1">  1        2 0.38286062E-01 0.34234784E+03</pdfrwt>
<pdfrwt beam="2">  1       -2 0.18113726E-01 0.34234784E+03</pdfrwt>
<totfact> 0.33494140E+03</totfact>
</mgrwt>
</event>
<event>
 4    1  0.1171488E-003  0.4120702E+03  0.7818608E-02  0.1039679E+00
          2   -1    0    0  501    0  0.00000000000E+00  0.00000000000E+00  0.28457850457E+03  0.28457850458E+03  0.25500000000E-02 0.  1.
         -2   -1    0    0    0  501 -0.00000000000E+00 -0.00000000000E+00 -0.14916957009E+03  0.14916957011E+03  0.25500000000E-02 0. -1.
    5000001    1    1    2    0    0  0.82549108138E+02  0.16686930173E+03  0.11312217620E+03  0.23105269066E+03  0.77000000000E+02 0.  0.
   -5000001    1    1    2    0    0 -0.82549108138E+02 -0.16686930173E+03  0.22286758275E+02  0.20269538403E+03  0.77000000000E+02 0.  0.
<mgrwt>
<rscale>  0 0.41207016E+03</rscale>
<asrwt>0</asrwt>
<pdfrwt beam="1">  1        2 0.43781308E-01 0.41207016E+03</pdfrwt>
<pdfrwt beam="2">  1       -2 0.22949165E-01 0.41207016E+03</pdfrwt>
<totfact> 0.19284846E+03</totfact>
</mgrwt>
</event>
<event>
 4    1  0.1171488E-003  0.4002485E+03  0.7818608E-02  0.1043694E+00
          2   -1    0    0  501    0  0.00000000000E+00  0.00000000000E+00  0.12360744525E+04  0.12360744525E+04  0.25500000000E-02 0.  1.
         -2   -1    0    0    0  501 -0.00000000000E+00 -0.00000000000E+00 -0.32400735130E+02  0.32400735230E+02  0.25500000000E-02 0. -1.
    5000001    1    1    2    0    0 -0.15925309078E+03  0.80512003931E+02  0.45060861123E+03  0.49073501017E+03  0.77000000000E+02 0.  0.
   -5000001    1    1    2    0    0  0.15925309078E+03 -0.80512003931E+02  0.75306510616E+03  0.77774017757E+03  0.77000000000E+02 0.  0.
<mgrwt>
<rscale>  0 0.40024853E+03</rscale>
<asrwt>0</asrwt>
<pdfrwt beam="1">  1        2 0.19016528E+00 0.40024853E+03</pdfrwt>
<pdfrwt beam="2">  1       -2 0.49847291E-02 0.40024853E+03</pdfrwt>
<totfact> 0.37606527E+03</totfact>
</mgrwt>
</event>
<event>
 4    1  0.1171488E-003  0.3267808E+03  0.7818608E-02  0.1072570E+00
          2   -1    0    0  501    0  0.00000000000E+00  0.00000000000E+00  0.18552713040E+04  0.18552713040E+04  0.25500000000E-02 0.  1.
         -2   -1    0    0    0  501 -0.00000000000E+00 -0.00000000000E+00 -0.14389498797E+02  0.14389499023E+02  0.25500000000E-02 0. -1.
    5000001    1    1    2    0    0  0.89935683384E+02  0.11205542089E+03  0.85709537869E+03  0.87245993185E+03  0.77000000000E+02 0.  0.
   -5000001    1    1    2    0    0 -0.89935683384E+02 -0.11205542089E+03  0.98378642648E+03  0.99720087115E+03  0.77000000000E+02 0.  0.
<mgrwt>
<rscale>  0 0.32678081E+03</rscale>
<asrwt>0</asrwt>
<pdfrwt beam="1">  1        2 0.28542635E+00 0.32678081E+03</pdfrwt>
<pdfrwt beam="2">  1       -2 0.22137691E-02 0.32678081E+03</pdfrwt>
<totfact> 0.58949466E+03</totfact>
</mgrwt>
</event>
<event>
 4    1  0.1171488E-003  0.3269349E+03  0.7818608E-02  0.1072501E+00
         -2   -1    0    0    0  501 -0.00000000000E+00  0.00000000000E+00  0.24946332412E+02  0.24946332543E+02  0.25500000000E-02 0. -1.
          2   -1    0    0  501    0  0.00000000000E+00 -0.00000000000E+00 -0.10711635150E+04  0.10711635150E+04  0.25500000000E-02 0.  1.
    5000001    1    1    2    0    0  0.12369442616E+03  0.11409722462E+02 -0.27760342379E+03  0.31372464635E+03  0.77000000000E+02 0.  0.
   -5000001    1    1    2    0    0 -0.12369442616E+03 -0.11409722462E+02 -0.76861375882E+03  0.78238520121E+03  0.77000000000E+02 0.  0.
<mgrwt>
<rscale>  0 0.32693486E+03</rscale>
<asrwt>0</asrwt>
<pdfrwt beam="1">  1        2 0.16479435E+00 0.32693486E+03</pdfrwt>
<pdfrwt beam="2">  1       -2 0.38378981E-02 0.32693486E+03</pdfrwt>
<totfact> 0.69750796E+03</totfact>
</mgrwt>
</event>
<event>
 4    1  0.1171488E-003  0.2355445E+03  0.7818608E-02  0.1122797E+00
          2   -1    0    0  501    0  0.00000000000E+00  0.00000000000E+00  0.12237021651E+04  0.12237021651E+04  0.25500000000E-02 0.  1.
         -2   -1    0    0    0  501 -0.00000000000E+00 -0.00000000000E+00 -0.11334704221E+02  0.11334704508E+02  0.25500000000E-02 0. -1.
    5000001    1    1    2    0    0  0.42732671816E+01  0.60164843587E+02  0.95014092502E+03  0.95516220959E+03  0.77000000000E+02 0.  0.
   -5000001    1    1    2    0    0 -0.42732671816E+01 -0.60164843587E+02  0.26222653582E+03  0.27987465999E+03  0.77000000000E+02 0.  0.
<mgrwt>
<rscale>  0 0.23554449E+03</rscale>
<asrwt>0</asrwt>
<pdfrwt beam="1">  1        2 0.18826191E+00 0.23554449E+03</pdfrwt>
<pdfrwt beam="2">  1       -2 0.17438003E-02 0.23554449E+03</pdfrwt>
<totfact> 0.18169320E+04</totfact>
</mgrwt>
</event>
<event>
 4    1  0.1171488E-003  0.2338902E+03  0.7818608E-02  0.1123931E+00
         -2   -1    0    0    0  501 -0.00000000000E+00  0.00000000000E+00  0.25783310855E+03  0.25783310856E+03  0.25500000000E-02 0. -1.
          2   -1    0    0  501    0  0.00000000000E+00 -0.00000000000E+00 -0.53042685156E+02  0.53042685217E+02  0.25500000000E-02 0.  1.
    5000001    1    1    2    0    0 -0.70223168415E+02  0.91195951383E+01  0.32913453752E+02  0.10966656663E+03  0.77000000000E+02 0.  0.
   -5000001    1    1    2    0    0  0.70223168415E+02 -0.91195951383E+01  0.17187696964E+03  0.20120922715E+03  0.77000000000E+02 0.  0.
<mgrwt>
<rscale>  0 0.23389023E+03</rscale>
<asrwt>0</asrwt>
<pdfrwt beam="1">  1        2 0.81604130E-02 0.23389023E+03</pdfrwt>
<pdfrwt beam="2">  1       -2 0.39666632E-01 0.23389023E+03</pdfrwt>
<totfact> 0.49455127E+03</totfact>
</mgrwt>
</event>
<event>
 4    1  0.1171488E-003  0.1681049E+03  0.7818608E-02  0.1179839E+00
         -2   -1    0    0    0  501 -0.00000000000E+00  0.00000000000E+00  0.34300623171E+03  0.34300623171E+03  0.25500000000E-02 0. -1.
          2   -1    0    0  501    0  0.00000000000E+00 -0.00000000000E+00 -0.20596744462E+02  0.20596744620E+02  0.25500000000E-02 0.  1.
    5000001    1    1    2    0    0  0.19100741052E+02 -0.24331389010E+02  0.13226988249E+03  0.15614472970E+03  0.77000000000E+02 0.  0.
   -5000001    1    1    2    0    0 -0.19100741052E+02  0.24331389010E+02  0.19013960475E+03  0.20745824663E+03  0.77000000000E+02 0.  0.
<mgrwt>
<rscale>  0 0.16810487E+03</rscale>
<asrwt>0</asrwt>
<pdfrwt beam="1">  1        2 0.31687301E-02 0.16810487E+03</pdfrwt>
<pdfrwt beam="2">  1       -2 0.52770187E-01 0.16810487E+03</pdfrwt>
<totfact> 0.95777855E+03</totfact>
</mgrwt>
</event>
<event>
 4    1  0.1171488E-003  0.3347375E+03  0.7818608E-02  0.1069060E+00
         -2   -1    0    0    0  501 -0.00000000000E+00  0.00000000000E+00  0.24488434345E+02  0.24488434478E+02  0.25500000000E-02 0. -1.
          2   -1    0    0  501    0  0.00000000000E+00 -0.00000000000E+00 -0.11438992206E+04  0.11438992206E+04  0.25500000000E-02 0.  1.
    5000001    1    1    2    0    0  0.94867662477E+02 -0.11140672644E+03 -0.65018634850E+03  0.67088197163E+03  0.77000000000E+02 0.  0.
   -5000001    1    1    2    0    0 -0.94867662477E+02  0.11140672644E+03 -0.46922443771E+03  0.49750568340E+03  0.77000000000E+02 0.  0.
<mgrwt>
<rscale>  0 0.33473752E+03</rscale>
<asrwt>0</asrwt>
<pdfrwt beam="1">  1        2 0.17598445E+00 0.33473752E+03</pdfrwt>
<pdfrwt beam="2">  1       -2 0.37674523E-02 0.33473752E+03</pdfrwt>
<totfact> 0.64998487E+03</totfact>
</mgrwt>
</event>
<event>
 4    1  0.1171488E-003  0.2218071E+03  0.7818608E-02  0.1132543E+00
          2   -1    0    0  501    0  0.00000000000E+00  0.00000000000E+00  0.19982348535E+04  0.19982348535E+04  0.25500000000E-02 0.  1.
         -2   -1    0    0    0  501 -0.00000000000E+00 -0.00000000000E+00 -0.61552334276E+01  0.61552339559E+01  0.25500000000E-02 0. -1.
    5000001    1    1    2    0    0 -0.19580639777E+02  0.51848010397E+02  0.15150750842E+04  0.15180425319E+04  0.77000000000E+02 0.  0.
   -5000001    1    1    2    0    0  0.19580639777E+02 -0.51848010397E+02  0.47700453585E+03  0.48634755562E+03  0.77000000000E+02 0.  0.
<mgrwt>
<rscale>  0 0.22180715E+03</rscale>
<asrwt>0</asrwt>
<pdfrwt beam="1">  1        2 0.30742099E+00 0.22180715E+03</pdfrwt>
<pdfrwt beam="2">  1       -2 0.94695827E-03 0.22180715E+03</pdfrwt>
<totfact> 0.17069242E+04</totfact>
</mgrwt>
</event>
<event>
 4    1  0.1171488E-003  0.3523129E+03  0.7818608E-02  0.1061670E+00
         -2   -1    0    0    0  501 -0.00000000000E+00  0.00000000000E+00  0.27148223938E+02  0.27148224058E+02  0.25500000000E-02 0. -1.
          2   -1    0    0  501    0  0.00000000000E+00 -0.00000000000E+00 -0.11430250101E+04  0.11430250101E+04  0.25500000000E-02 0.  1.
    5000001    1    1    2    0    0  0.59109319556E+02 -0.63856568270E+02 -0.99770177117E+03  0.10044448204E+04  0.77000000000E+02 0.  0.
   -5000001    1    1    2    0    0 -0.59109319556E+02  0.63856568270E+02 -0.11817501499E+03  0.16572841379E+03  0.77000000000E+02 0.  0.
<mgrwt>
<rscale>  0 0.35231292E+03</rscale>
<asrwt>0</asrwt>
<pdfrwt beam="1">  1        2 0.17584996E+00 0.35231292E+03</pdfrwt>
<pdfrwt beam="2">  1       -2 0.41766507E-02 0.35231292E+03</pdfrwt>
<totfact> 0.55710292E+03</totfact>
</mgrwt>
</event>
<event>
 4    1  0.1171488E-003  0.2159463E+03  0.7818608E-02  0.1136942E+00
          2   -1    0    0  501    0  0.00000000000E+00  0.00000000000E+00  0.70966139471E+02  0.70966139517E+02  0.25500000000E-02 0.  1.
         -2   -1    0    0    0  501 -0.00000000000E+00 -0.00000000000E+00 -0.16427843041E+03  0.16427843043E+03  0.25500000000E-02 0. -1.
    5000001    1    1    2    0    0 -0.57047835938E+02 -0.40448554323E+02 -0.78203865479E+02  0.13013602771E+03  0.77000000000E+02 0.  0.
   -5000001    1    1    2    0    0  0.57047835938E+02  0.40448554323E+02 -0.15108425463E+02  0.10510854224E+03  0.77000000000E+02 0.  0.
<mgrwt>
<rscale>  0 0.21594635E+03</rscale>
<asrwt>0</asrwt>
<pdfrwt beam="1">  1        2 0.10917868E-01 0.21594635E+03</pdfrwt>
<pdfrwt beam="2">  1       -2 0.25273605E-01 0.21594635E+03</pdfrwt>
<totfact> 0.78149438E+03</totfact>
</mgrwt>
</event>
<event>
 4    1  0.1171488E-003  0.2994407E+03  0.7818608E-02  0.1085521E+00
          2   -1    0    0  501    0  0.00000000000E+00  0.00000000000E+00  0.66693236057E+03  0.66693236057E+03  0.25500000000E-02 0. -1.
         -2   -1    0    0    0  501 -0.00000000000E+00 -0.00000000000E+00 -0.33610886321E+02  0.33610886417E+02  0.25500000000E-02 0.  1.
    5000001    1    1    2    0    0 -0.51412298037E+02 -0.11028328877E+03  0.22072504523E+03  0.26354159778E+03  0.77000000000E+02 0.  0.
   -5000001    1    1    2    0    0  0.51412298037E+02  0.11028328877E+03  0.41259642902E+03  0.43700164921E+03  0.77000000000E+02 0.  0.
<mgrwt>
<rscale>  0 0.29944073E+03</rscale>
<asrwt>0</asrwt>
<pdfrwt beam="1">  1        2 0.10260498E+00 0.29944073E+03</pdfrwt>
<pdfrwt beam="2">  1       -2 0.51709057E-02 0.29944073E+03</pdfrwt>
<totfact> 0.82707550E+03</totfact>
</mgrwt>
</event>
<event>
 4    1  0.1171488E-003  0.3338208E+03  0.7818608E-02  0.1069459E+00
          2   -1    0    0  501    0  0.00000000000E+00  0.00000000000E+00  0.14442178221E+04  0.14442178221E+04  0.25500000000E-02 0.  1.
         -2   -1    0    0    0  501 -0.00000000000E+00 -0.00000000000E+00 -0.19290080055E+02  0.19290080224E+02  0.25500000000E-02 0. -1.
    5000001    1    1    2    0    0 -0.10495874140E+03  0.96399484670E+02  0.53595884625E+03  0.55990185114E+03  0.77000000000E+02 0.  0.
   -5000001    1    1    2    0    0  0.10495874140E+03 -0.96399484670E+02  0.88896889579E+03  0.90360605118E+03  0.77000000000E+02 0.  0.
<mgrwt>
<rscale>  0 0.33382078E+03</rscale>
<asrwt>0</asrwt>
<pdfrwt beam="1">  1        2 0.22218735E+00 0.33382078E+03</pdfrwt>
<pdfrwt beam="2">  1       -2 0.29677048E-02 0.33382078E+03</pdfrwt>
<totfact> 0.63126596E+03</totfact>
</mgrwt>
</event>
<event>
 4    1  0.1171488E-003  0.2791506E+03  0.7818608E-02  0.1096154E+00
         -2   -1    0    0    0  501 -0.00000000000E+00  0.00000000000E+00  0.32778846524E+02  0.32778846623E+02  0.25500000000E-02 0. -1.
          2   -1    0    0  501    0  0.00000000000E+00 -0.00000000000E+00 -0.59432438356E+03  0.59432438357E+03  0.25500000000E-02 0.  1.
    5000001    1    1    2    0    0  0.16619819632E+01  0.92681055887E+02 -0.12256444034E+03  0.17188246664E+03  0.77000000000E+02 0.  0.
   -5000001    1    1    2    0    0 -0.16619819632E+01 -0.92681055887E+02 -0.43898109670E+03  0.45522076355E+03  0.77000000000E+02 0.  0.
<mgrwt>
<rscale>  0 0.27915062E+03</rscale>
<asrwt>0</asrwt>
<pdfrwt beam="1">  1        2 0.91434513E-01 0.27915062E+03</pdfrwt>
<pdfrwt beam="2">  1       -2 0.50428999E-02 0.27915062E+03</pdfrwt>
<totfact> 0.98210468E+03</totfact>
</mgrwt>
</event>
<event>
 4    1  0.1171488E-003  0.2789124E+03  0.7818608E-02  0.1096284E+00
          2   -1    0    0  501    0  0.00000000000E+00  0.00000000000E+00  0.17634415915E+04  0.17634415915E+04  0.25500000000E-02 0.  1.
         -2   -1    0    0    0  501 -0.00000000000E+00 -0.00000000000E+00 -0.11028451519E+02  0.11028451814E+02  0.25500000000E-02 0. -1.
    5000001    1    1    2    0    0  0.59296905680E+02  0.77410465089E+02  0.47330255126E+03  0.48933915453E+03  0.77000000000E+02 0.  0.
   -5000001    1    1    2    0    0 -0.59296905680E+02 -0.77410465089E+02  0.12791105887E+04  0.12851308887E+04  0.77000000000E+02 0.  0.
<mgrwt>
<rscale>  0 0.27891239E+03</rscale>
<asrwt>0</asrwt>
<pdfrwt beam="1">  1        2 0.27129841E+00 0.27891239E+03</pdfrwt>
<pdfrwt beam="2">  1       -2 0.16966867E-02 0.27891239E+03</pdfrwt>
<totfact> 0.97440739E+03</totfact>
</mgrwt>
</event>
<event>
 4    1  0.1171488E-003  0.2887721E+03  0.7818608E-02  0.1090992E+00
         -2   -1    0    0    0  501 -0.00000000000E+00  0.00000000000E+00  0.16146075235E+02  0.16146075437E+02  0.25500000000E-02 0. -1.
          2   -1    0    0  501    0  0.00000000000E+00 -0.00000000000E+00 -0.12911699278E+04  0.12911699278E+04  0.25500000000E-02 0.  1.
    5000001    1    1    2    0    0 -0.11733833181E+03  0.29417403306E+02 -0.56113045744E+03  0.57916323951E+03  0.77000000000E+02 0.  0.
   -5000001    1    1    2    0    0  0.11733833181E+03 -0.29417403306E+02 -0.71389339513E+03  0.72815276374E+03  0.77000000000E+02 0.  0.
<mgrwt>
<rscale>  0 0.28877207E+03</rscale>
<asrwt>0</asrwt>
<pdfrwt beam="1">  1        2 0.19864145E+00 0.28877207E+03</pdfrwt>
<pdfrwt beam="2">  1       -2 0.24840126E-02 0.28877207E+03</pdfrwt>
<totfact> 0.99627203E+03</totfact>
</mgrwt>
</event>
<event>
 4    1  0.1171488E-003  0.2719950E+03  0.7818608E-02  0.1100143E+00
         -2   -1    0    0    0  501 -0.00000000000E+00  0.00000000000E+00  0.29425448746E+02  0.29425448856E+02  0.25500000000E-02 0. -1.
          2   -1    0    0  501    0  0.00000000000E+00 -0.00000000000E+00 -0.62854861856E+03  0.62854861857E+03  0.25500000000E-02 0.  1.
    5000001    1    1    2    0    0  0.72202594054E+02  0.77907032661E+02 -0.38623052272E+03  0.40790407819E+03  0.77000000000E+02 0.  0.
   -5000001    1    1    2    0    0 -0.72202594054E+02 -0.77907032661E+02 -0.21289264710E+03  0.25006998923E+03  0.77000000000E+02 0.  0.
<mgrwt>
<rscale>  0 0.27199504E+03</rscale>
<asrwt>0</asrwt>
<pdfrwt beam="1">  1        2 0.96699778E-01 0.27199504E+03</pdfrwt>
<pdfrwt beam="2">  1       -2 0.45269926E-02 0.27199504E+03</pdfrwt>
<totfact> 0.10825097E+04</totfact>
</mgrwt>
</event>
<event>
 4    1  0.1171488E-003  0.2329355E+03  0.7818608E-02  0.1124591E+00
         -2   -1    0    0    0  501 -0.00000000000E+00  0.00000000000E+00  0.20775577573E+02  0.20775577730E+02  0.25500000000E-02 0. -1.
          2   -1    0    0  501    0  0.00000000000E+00 -0.00000000000E+00 -0.65291724871E+03  0.65291724872E+03  0.25500000000E-02 0.  1.
    5000001    1    1    2    0    0 -0.24306805840E+02 -0.83133489693E+02 -0.34951720494E+03  0.36822992066E+03  0.77000000000E+02 0.  0.
   -5000001    1    1    2    0    0  0.24306805840E+02  0.83133489693E+02 -0.28262446619E+03  0.30546290579E+03  0.77000000000E+02 0.  0.
<mgrwt>
<rscale>  0 0.23293547E+03</rscale>
<asrwt>0</asrwt>
<pdfrwt beam="1">  1        2 0.10044879E+00 0.23293547E+03</pdfrwt>
<pdfrwt beam="2">  1       -2 0.31962432E-02 0.23293547E+03</pdfrwt>
<totfact> 0.17318282E+04</totfact>
</mgrwt>
</event>
<event>
 4    1  0.1171488E-003  0.1742704E+03  0.7818608E-02  0.1173466E+00
          2   -1    0    0  501    0  0.00000000000E+00  0.00000000000E+00  0.43464230593E+02  0.43464230668E+02  0.25500000000E-02 0.  1.
         -2   -1    0    0    0  501 -0.00000000000E+00 -0.00000000000E+00 -0.17468477178E+03  0.17468477180E+03  0.25500000000E-02 0. -1.
    5000001    1    1    2    0    0 -0.36920028382E+02  0.16555225545E+02 -0.72039039100E+02  0.11294152090E+03  0.77000000000E+02 0.  0.
   -5000001    1    1    2    0    0  0.36920028382E+02 -0.16555225545E+02 -0.59181502087E+02  0.10520748157E+03  0.77000000000E+02 0.  0.
<mgrwt>
<rscale>  0 0.17427036E+03</rscale>
<asrwt>0</asrwt>
<pdfrwt beam="1">  1        2 0.66868048E-02 0.17427036E+03</pdfrwt>
<pdfrwt beam="2">  1       -2 0.26874580E-01 0.17427036E+03</pdfrwt>
<totfact> 0.12782164E+04</totfact>
</mgrwt>
</event>
<event>
 4    1  0.1171488E-003  0.3177662E+03  0.7818608E-02  0.1076682E+00
          2   -1    0    0  501    0  0.00000000000E+00  0.00000000000E+00  0.70071191307E+03  0.70071191308E+03  0.25500000000E-02 0.  1.
         -2   -1    0    0    0  501 -0.00000000000E+00 -0.00000000000E+00 -0.36025997388E+02  0.36025997479E+02  0.25500000000E-02 0. -1.
    5000001    1    1    2    0    0 -0.10494949358E+03 -0.53877358641E+02  0.50267988804E+03  0.52204715861E+03  0.77000000000E+02 0.  0.
   -5000001    1    1    2    0    0  0.10494949358E+03  0.53877358641E+02  0.16200602765E+03  0.21469075195E+03  0.77000000000E+02 0.  0.
<mgrwt>
<rscale>  0 0.31776624E+03</rscale>
<asrwt>0</asrwt>
<pdfrwt beam="1">  1        2 0.10780183E+00 0.31776624E+03</pdfrwt>
<pdfrwt beam="2">  1       -2 0.55424613E-02 0.31776624E+03</pdfrwt>
<totfact> 0.70176507E+03</totfact>
</mgrwt>
</event>
<event>
 4    1  0.1171488E-003  0.4595722E+03  0.7818608E-02  0.1024905E+00
          2   -1    0    0  501    0  0.00000000000E+00  0.00000000000E+00  0.11339499606E+04  0.11339499606E+04  0.25500000000E-02 0.  1.
         -2   -1    0    0    0  501 -0.00000000000E+00 -0.00000000000E+00 -0.46564356221E+02  0.46564356290E+02  0.25500000000E-02 0. -1.
    5000001    1    1    2    0    0  0.54571692908E+00  0.19911610123E+03  0.32534925581E+03  0.38913835307E+03  0.77000000000E+02 0.  0.
   -5000001    1    1    2    0    0 -0.54571692908E+00 -0.19911610123E+03  0.76203634861E+03  0.79137596386E+03  0.77000000000E+02 0.  0.
<mgrwt>
<rscale>  0 0.45957219E+03</rscale>
<asrwt>0</asrwt>
<pdfrwt beam="1">  1        2 0.17445383E+00 0.45957219E+03</pdfrwt>
<pdfrwt beam="2">  1       -2 0.71637477E-02 0.45957219E+03</pdfrwt>
<totfact> 0.24545590E+03</totfact>
</mgrwt>
</event>
<event>
 4    1  0.1171488E-003  0.6001565E+03  0.7818608E-02  0.9905081E-01
         -2   -1    0    0    0  501 -0.00000000000E+00  0.00000000000E+00  0.28516622267E+02  0.28516622381E+02  0.25500000000E-02 0. -1.
          2   -1    0    0  501    0  0.00000000000E+00 -0.00000000000E+00 -0.31577003398E+04  0.31577003398E+04  0.25500000000E-02 0.  1.
    5000001    1    1    2    0    0  0.13589804003E+03  0.17224774182E+03 -0.25716249942E+04  0.25821157357E+04  0.77000000000E+02 0.  0.
   -5000001    1    1    2    0    0 -0.13589804003E+03 -0.17224774182E+03 -0.55755872328E+03  0.60410122641E+03  0.77000000000E+02 0.  0.
<mgrwt>
<rscale>  0 0.60015647E+03</rscale>
<asrwt>0</asrwt>
<pdfrwt beam="1">  1        2 0.48579978E+00 0.60015647E+03</pdfrwt>
<pdfrwt beam="2">  1       -2 0.43871752E-02 0.60015647E+03</pdfrwt>
<totfact> 0.37734115E+02</totfact>
</mgrwt>
</event>
<event>
 4    1  0.1171488E-003  0.3176331E+03  0.7818608E-02  0.1076744E+00
         -2   -1    0    0    0  501 -0.00000000000E+00  0.00000000000E+00  0.55621692255E+02  0.55621692314E+02  0.25500000000E-02 0. -1.
          2   -1    0    0  501    0  0.00000000000E+00 -0.00000000000E+00 -0.45346880821E+03  0.45346880822E+03  0.25500000000E-02 0.  1.
    5000001    1    1    2    0    0  0.70620963579E+02  0.10763494088E+03 -0.28253035023E+03  0.31988279072E+03  0.77000000000E+02 0.  0.
   -5000001    1    1    2    0    0 -0.70620963579E+02 -0.10763494088E+03 -0.11531676573E+03  0.18920770982E+03  0.77000000000E+02 0.  0.
<mgrwt>
<rscale>  0 0.31763314E+03</rscale>
<asrwt>0</asrwt>
<pdfrwt beam="1">  1        2 0.69764430E-01 0.31763314E+03</pdfrwt>
<pdfrwt beam="2">  1       -2 0.85571837E-02 0.31763314E+03</pdfrwt>
<totfact> 0.59102515E+03</totfact>
</mgrwt>
</event>
<event>
 4    1  0.1171488E-003  0.2617007E+03  0.7818608E-02  0.1106126E+00
          2   -1    0    0  501    0  0.00000000000E+00  0.00000000000E+00  0.17776928915E+03  0.17776928917E+03  0.25500000000E-02 0.  1.
         -2   -1    0    0    0  501 -0.00000000000E+00 -0.00000000000E+00 -0.96314812292E+02  0.96314812326E+02  0.25500000000E-02 0. -1.
    5000001    1    1    2    0    0 -0.69622342614E+02 -0.72195746443E+02  0.54694483827E+01  0.12656386238E+03  0.77000000000E+02 0.  0.
   -5000001    1    1    2    0    0  0.69622342614E+02  0.72195746443E+02  0.75985028474E+02  0.14752023911E+03  0.77000000000E+02 0.  0.
<mgrwt>
<rscale>  0 0.26170071E+03</rscale>
<asrwt>0</asrwt>
<pdfrwt beam="1">  1        2 0.27349121E-01 0.26170071E+03</pdfrwt>
<pdfrwt beam="2">  1       -2 0.14817664E-01 0.26170071E+03</pdfrwt>
<totfact> 0.67197777E+03</totfact>
</mgrwt>
</event>
<event>
 4    1  0.1171488E-003  0.3362987E+03  0.7818608E-02  0.1068383E+00
         -2   -1    0    0    0  501 -0.00000000000E+00  0.00000000000E+00  0.15329274272E+02  0.15329274484E+02  0.25500000000E-02 0. -1.
          2   -1    0    0  501    0  0.00000000000E+00 -0.00000000000E+00 -0.18444581528E+04  0.18444581528E+04  0.25500000000E-02 0.  1.
    5000001    1    1    2    0    0  0.57464489037E+02 -0.92340450531E+02 -0.34745202350E+03  0.37213013172E+03  0.77000000000E+02 0.  0.
   -5000001    1    1    2    0    0 -0.57464489037E+02  0.92340450531E+02 -0.14816768550E+04  0.14876572956E+04  0.77000000000E+02 0.  0.
<mgrwt>
<rscale>  0 0.33629871E+03</rscale>
<asrwt>0</asrwt>
<pdfrwt beam="1">  1        2 0.28376262E+00 0.33629871E+03</pdfrwt>
<pdfrwt beam="2">  1       -2 0.23583514E-02 0.33629871E+03</pdfrwt>
<totfact> 0.54374465E+03</totfact>
</mgrwt>
</event>
<event>
 4    1  0.1171488E-003  0.2347826E+03  0.7818608E-02  0.1123318E+00
          2   -1    0    0  501    0  0.00000000000E+00  0.00000000000E+00  0.99187088955E+03  0.99187088955E+03  0.25500000000E-02 0.  1.
         -2   -1    0    0    0  501 -0.00000000000E+00 -0.00000000000E+00 -0.13893656730E+02  0.13893656964E+02  0.25500000000E-02 0. -1.
    5000001    1    1    2    0    0  0.70658222632E+01  0.70073534460E+02  0.25863706297E+03  0.27889488417E+03  0.77000000000E+02 0.  0.
   -5000001    1    1    2    0    0 -0.70658222632E+01 -0.70073534460E+02  0.71934016985E+03  0.72686966235E+03  0.77000000000E+02 0.  0.
<mgrwt>
<rscale>  0 0.23478257E+03</rscale>
<asrwt>0</asrwt>
<pdfrwt beam="1">  1        2 0.15259553E+00 0.23478257E+03</pdfrwt>
<pdfrwt beam="2">  1       -2 0.21374855E-02 0.23478257E+03</pdfrwt>
<totfact> 0.18411728E+04</totfact>
</mgrwt>
</event>
<event>
 4    1  0.1171488E-003  0.3701700E+03  0.7818608E-02  0.1054628E+00
         -2   -1    0    0    0  501 -0.00000000000E+00  0.00000000000E+00  0.15284971866E+03  0.15284971869E+03  0.25500000000E-02 0. -1.
          2   -1    0    0  501    0  0.00000000000E+00 -0.00000000000E+00 -0.22411855863E+03  0.22411855864E+03  0.25500000000E-02 0.  1.
    5000001    1    1    2    0    0 -0.49072109372E+02  0.88288617594E+02 -0.17273417377E+03  0.21440393351E+03  0.77000000000E+02 0.  0.
   -5000001    1    1    2    0    0  0.49072109372E+02 -0.88288617594E+02  0.10146533381E+03  0.16256434382E+03  0.77000000000E+02 0.  0.
<mgrwt>
<rscale>  0 0.37017001E+03</rscale>
<asrwt>0</asrwt>
<pdfrwt beam="1">  1        2 0.34479778E-01 0.37017001E+03</pdfrwt>
<pdfrwt beam="2">  1       -2 0.23515341E-01 0.37017001E+03</pdfrwt>
<totfact> 0.23953035E+03</totfact>
</mgrwt>
</event>
<event>
 4    1  0.1171488E-003  0.1807463E+03  0.7818608E-02  0.1167083E+00
         -2   -1    0    0    0  501 -0.00000000000E+00  0.00000000000E+00  0.33103089737E+03  0.33103089738E+03  0.25500000000E-02 0. -1.
          2   -1    0    0  501    0  0.00000000000E+00 -0.00000000000E+00 -0.24672340733E+02  0.24672340865E+02  0.25500000000E-02 0.  1.
    5000001    1    1    2    0    0  0.40793490444E+02 -0.20663758229E+02  0.12930209303E+03  0.15728677957E+03  0.77000000000E+02 0.  0.
   -5000001    1    1    2    0    0 -0.40793490444E+02  0.20663758229E+02  0.17705646361E+03  0.19841645868E+03  0.77000000000E+02 0.  0.
<mgrwt>
<rscale>  0 0.18074631E+03</rscale>
<asrwt>0</asrwt>
<pdfrwt beam="1">  1        2 0.37957448E-02 0.18074631E+03</pdfrwt>
<pdfrwt beam="2">  1       -2 0.50927829E-01 0.18074631E+03</pdfrwt>
<totfact> 0.81186966E+03</totfact>
</mgrwt>
</event>
<event>
 4    1  0.1171488E-003  0.1986784E+03  0.7818608E-02  0.1150859E+00
          2   -1    0    0  501    0  0.00000000000E+00  0.00000000000E+00  0.25325889967E+03  0.25325889968E+03  0.25500000000E-02 0.  1.
         -2   -1    0    0    0  501 -0.00000000000E+00 -0.00000000000E+00 -0.38965171753E+02  0.38965171836E+02  0.25500000000E-02 0. -1.
    5000001    1    1    2    0    0  0.13155148293E+02 -0.49630464558E+02  0.54053104668E+02  0.10717732532E+03  0.77000000000E+02 0.  0.
   -5000001    1    1    2    0    0 -0.13155148293E+02  0.49630464558E+02  0.16024062325E+03  0.18504674619E+03  0.77000000000E+02 0.  0.
<mgrwt>
<rscale>  0 0.19867840E+03</rscale>
<asrwt>0</asrwt>
<pdfrwt beam="1">  1        2 0.38962907E-01 0.19867840E+03</pdfrwt>
<pdfrwt beam="2">  1       -2 0.59946419E-02 0.19867840E+03</pdfrwt>
<totfact> 0.18817979E+04</totfact>
</mgrwt>
</event>
<event>
 4    1  0.1171488E-003  0.3537020E+03  0.7818608E-02  0.1061106E+00
         -2   -1    0    0    0  501 -0.00000000000E+00  0.00000000000E+00  0.23585790773E+03  0.23585790774E+03  0.25500000000E-02 0. -1.
          2   -1    0    0  501    0  0.00000000000E+00 -0.00000000000E+00 -0.13260647020E+03  0.13260647022E+03  0.25500000000E-02 0.  1.
    5000001    1    1    2    0    0 -0.11340718488E+03 -0.73673069293E+02  0.13914631427E+03  0.20875729328E+03  0.77000000000E+02 0.  0.
   -5000001    1    1    2    0    0  0.11340718488E+03  0.73673069293E+02 -0.35894876745E+02  0.15970708469E+03  0.77000000000E+02 0.  0.
<mgrwt>
<rscale>  0 0.35370205E+03</rscale>
<asrwt>0</asrwt>
<pdfrwt beam="1">  1        2 0.20400996E-01 0.35370205E+03</pdfrwt>
<pdfrwt beam="2">  1       -2 0.36285832E-01 0.35370205E+03</pdfrwt>
<totfact> 0.19572235E+03</totfact>
</mgrwt>
</event>
<event>
 4    1  0.1171488E-003  0.2547167E+03  0.7818608E-02  0.1110360E+00
          2   -1    0    0  501    0  0.00000000000E+00  0.00000000000E+00  0.67122603893E+02  0.67122603942E+02  0.25500000000E-02 0.  1.
         -2   -1    0    0    0  501 -0.00000000000E+00 -0.00000000000E+00 -0.24164956795E+03  0.24164956797E+03  0.25500000000E-02 0. -1.
    5000001    1    1    2    0    0  0.31869932529E+02  0.92989720724E+02 -0.11765046609E+03  0.17156168841E+03  0.77000000000E+02 0.  0.
   -5000001    1    1    2    0    0 -0.31869932529E+02 -0.92989720724E+02 -0.56876497970E+02  0.13721048350E+03  0.77000000000E+02 0.  0.
<mgrwt>
<rscale>  0 0.25471669E+03</rscale>
<asrwt>0</asrwt>
<pdfrwt beam="1">  1        2 0.10326555E-01 0.25471669E+03</pdfrwt>
<pdfrwt beam="2">  1       -2 0.37176856E-01 0.25471669E+03</pdfrwt>
<totfact> 0.41792564E+03</totfact>
</mgrwt>
</event>
<event>
 4    1  0.1171488E-003  0.4800781E+03  0.7818608E-02  0.1019114E+00
          2   -1    0    0  501    0  0.00000000000E+00  0.00000000000E+00  0.11436899402E+04  0.11436899402E+04  0.25500000000E-02 0.  1.
         -2   -1    0    0    0  501 -0.00000000000E+00 -0.00000000000E+00 -0.50379687696E+02  0.50379687761E+02  0.25500000000E-02 0. -1.
    5000001    1    1    2    0    0 -0.97915394558E+02  0.20224985079E+03  0.46059102129E+03  0.51823307066E+03  0.77000000000E+02 0.  0.
   -5000001    1    1    2    0    0  0.97915394558E+02 -0.20224985079E+03  0.63271923117E+03  0.67583655726E+03  0.77000000000E+02 0.  0.
<mgrwt>
<rscale>  0 0.48007809E+03</rscale>
<asrwt>0</asrwt>
<pdfrwt beam="1">  1        2 0.17595229E+00 0.48007809E+03</pdfrwt>
<pdfrwt beam="2">  1       -2 0.77507215E-02 0.48007809E+03</pdfrwt>
<totfact> 0.21386558E+03</totfact>
</mgrwt>
</event>
<event>
 4    1  0.1171488E-003  0.2402291E+03  0.7818608E-02  0.1119640E+00
          2   -1    0    0  501    0  0.00000000000E+00  0.00000000000E+00  0.23845925488E+04  0.23845925488E+04  0.25500000000E-02 0.  1.
         -2   -1    0    0    0  501 -0.00000000000E+00 -0.00000000000E+00 -0.60503032539E+01  0.60503037912E+01  0.25500000000E-02 0. -1.
    5000001    1    1    2    0    0  0.75031562769E+02 -0.19655806540E+02  0.69344787416E+03  0.70200786343E+03  0.77000000000E+02 0.  0.
   -5000001    1    1    2    0    0 -0.75031562769E+02  0.19655806540E+02  0.16850943714E+04  0.16886349891E+04  0.77000000000E+02 0.  0.
<mgrwt>
<rscale>  0 0.24022913E+03</rscale>
<asrwt>0</asrwt>
<pdfrwt beam="1">  1        2 0.36686006E+00 0.24022913E+03</pdfrwt>
<pdfrwt beam="2">  1       -2 0.93081677E-03 0.24022913E+03</pdfrwt>
<totfact> 0.10949096E+04</totfact>
</mgrwt>
</event>
<event>
 4    1  0.1171488E-003  0.2522384E+03  0.7818608E-02  0.1111898E+00
          2   -1    0    0  501    0  0.00000000000E+00  0.00000000000E+00  0.22506951563E+03  0.22506951565E+03  0.25500000000E-02 0.  1.
         -2   -1    0    0    0  501 -0.00000000000E+00 -0.00000000000E+00 -0.70671745605E+02  0.70671745651E+02  0.25500000000E-02 0. -1.
    5000001    1    1    2    0    0  0.36902197499E+02 -0.77320046734E+02  0.13740588579E+03  0.17930292595E+03  0.77000000000E+02 0.  0.
   -5000001    1    1    2    0    0 -0.36902197499E+02  0.77320046734E+02  0.16991884239E+02  0.11643833534E+03  0.77000000000E+02 0.  0.
<mgrwt>
<rscale>  0 0.25223842E+03</rscale>
<asrwt>0</asrwt>
<pdfrwt beam="1">  1        2 0.34626079E-01 0.25223842E+03</pdfrwt>
<pdfrwt beam="2">  1       -2 0.10872576E-01 0.25223842E+03</pdfrwt>
<totfact> 0.85641782E+03</totfact>
</mgrwt>
</event>
<event>
 4    1  0.1171488E-003  0.2757309E+03  0.7818608E-02  0.1098044E+00
         -2   -1    0    0    0  501 -0.00000000000E+00  0.00000000000E+00  0.66838359784E+01  0.66838364648E+01  0.25500000000E-02 0. -1.
          2   -1    0    0  501    0  0.00000000000E+00 -0.00000000000E+00 -0.28437087886E+04  0.28437087886E+04  0.25500000000E-02 0.  1.
    5000001    1    1    2    0    0  0.11066090086E+03  0.27994577303E+02 -0.13466290845E+04  0.13536500369E+04  0.77000000000E+02 0.  0.
   -5000001    1    1    2    0    0 -0.11066090086E+03 -0.27994577303E+02 -0.14903958682E+04  0.14967425882E+04  0.77000000000E+02 0.  0.
<mgrwt>
<rscale>  0 0.27573091E+03</rscale>
<asrwt>0</asrwt>
<pdfrwt beam="1">  1        2 0.43749269E+00 0.27573091E+03</pdfrwt>
<pdfrwt beam="2">  1       -2 0.10282848E-02 0.27573091E+03</pdfrwt>
<totfact> 0.52645205E+03</totfact>
</mgrwt>
</event>
<event>
 4    1  0.1171488E-003  0.2358235E+03  0.7818608E-02  0.1122607E+00
          2   -1    0    0  501    0  0.00000000000E+00  0.00000000000E+00  0.28081488902E+04  0.28081488902E+04  0.25500000000E-02 0.  1.
         -2   -1    0    0    0  501 -0.00000000000E+00 -0.00000000000E+00 -0.49510110424E+01  0.49510116991E+01  0.25500000000E-02 0. -1.
    5000001    1    1    2    0    0 -0.40558257295E+02  0.66811481313E+02  0.19168129998E+04  0.19199504740E+04  0.77000000000E+02 0.  0.
   -5000001    1    1    2    0    0  0.40558257295E+02 -0.66811481313E+02  0.88638487933E+03  0.89314942791E+03  0.77000000000E+02 0.  0.
<mgrwt>
<rscale>  0 0.23582347E+03</rscale>
<asrwt>0</asrwt>
<pdfrwt beam="1">  1        2 0.43202322E+00 0.23582347E+03</pdfrwt>
<pdfrwt beam="2">  1       -2 0.76169351E-03 0.23582347E+03</pdfrwt>
<totfact> 0.85291697E+03</totfact>
</mgrwt>
</event>
<event>
 4    1  0.1171488E-003  0.2285247E+03  0.7818608E-02  0.1127682E+00
         -2   -1    0    0    0  501 -0.00000000000E+00  0.00000000000E+00  0.10320783249E+02  0.10320783564E+02  0.25500000000E-02 0. -1.
          2   -1    0    0  501    0  0.00000000000E+00 -0.00000000000E+00 -0.12650094450E+04  0.12650094450E+04  0.25500000000E-02 0.  1.
    5000001    1    1    2    0    0  0.58736456136E+02 -0.41729018222E+02 -0.38181807006E+03  0.39611276281E+03  0.77000000000E+02 0.  0.
   -5000001    1    1    2    0    0 -0.58736456136E+02  0.41729018222E+02 -0.87287059174E+03  0.87921746580E+03  0.77000000000E+02 0.  0.
<mgrwt>
<rscale>  0 0.22852473E+03</rscale>
<asrwt>0</asrwt>
<pdfrwt beam="1">  1        2 0.19461672E+00 0.22852473E+03</pdfrwt>
<pdfrwt beam="2">  1       -2 0.15878138E-02 0.22852473E+03</pdfrwt>
<totfact> 0.19729950E+04</totfact>
</mgrwt>
</event>
<event>
 4    1  0.1171488E-003  0.2058168E+03  0.7818608E-02  0.1144922E+00
          2   -1    0    0  501    0  0.00000000000E+00  0.00000000000E+00  0.18065207439E+03  0.18065207440E+03  0.25500000000E-02 0.  1.
         -2   -1    0    0    0  501 -0.00000000000E+00 -0.00000000000E+00 -0.58621754787E+02  0.58621754843E+02  0.25500000000E-02 0. -1.
    5000001    1    1    2    0    0 -0.81599746157E-01  0.62295313514E+02  0.93492539591E+02  0.13620046881E+03  0.77000000000E+02 0.  0.
   -5000001    1    1    2    0    0  0.81599746157E-01 -0.62295313514E+02  0.28537780008E+02  0.10307336044E+03  0.77000000000E+02 0.  0.
<mgrwt>
<rscale>  0 0.20581683E+03</rscale>
<asrwt>0</asrwt>
<pdfrwt beam="1">  1        2 0.27792627E-01 0.20581683E+03</pdfrwt>
<pdfrwt beam="2">  1       -2 0.90187315E-02 0.20581683E+03</pdfrwt>
<totfact> 0.14470559E+04</totfact>
</mgrwt>
</event>
<event>
 4    1  0.1171488E-003  0.9319024E+03  0.7818608E-02  0.9386558E-01
          2   -1    0    0  501    0  0.00000000000E+00  0.00000000000E+00  0.13140257433E+04  0.13140257433E+04  0.25500000000E-02 0.  1.
         -2   -1    0    0    0  501 -0.00000000000E+00 -0.00000000000E+00 -0.16522546582E+03  0.16522546584E+03  0.25500000000E-02 0. -1.
    5000001    1    1    2    0    0 -0.43990214267E+03 -0.12288982676E+03  0.65480371521E+03  0.80206777152E+03  0.77000000000E+02 0.  0.
   -5000001    1    1    2    0    0  0.43990214267E+03  0.12288982676E+03  0.49399656225E+03  0.67718343760E+03  0.77000000000E+02 0.  0.
<mgrwt>
<rscale>  0 0.93190239E+03</rscale>
<asrwt>0</asrwt>
<pdfrwt beam="1">  1        2 0.20215781E+00 0.93190239E+03</pdfrwt>
<pdfrwt beam="2">  1       -2 0.25419302E-01 0.93190239E+03</pdfrwt>
<totfact> 0.22582369E+02</totfact>
</mgrwt>
</event>
<event>
 4    1  0.1171488E-003  0.2706551E+03  0.7818608E-02  0.1100905E+00
         -2   -1    0    0    0  501 -0.00000000000E+00  0.00000000000E+00  0.20601991884E+02  0.20601992042E+02  0.25500000000E-02 0. -1.
          2   -1    0    0  501    0  0.00000000000E+00 -0.00000000000E+00 -0.88892103681E+03  0.88892103681E+03  0.25500000000E-02 0.  1.
    5000001    1    1    2    0    0 -0.77670322816E+01 -0.10810818340E+03 -0.34935637458E+03  0.37380019070E+03  0.77000000000E+02 0.  0.
   -5000001    1    1    2    0    0  0.77670322816E+01  0.10810818340E+03 -0.51896267034E+03  0.53572283815E+03  0.77000000000E+02 0.  0.
<mgrwt>
<rscale>  0 0.27065509E+03</rscale>
<asrwt>0</asrwt>
<pdfrwt beam="1">  1        2 0.13675705E+00 0.27065509E+03</pdfrwt>
<pdfrwt beam="2">  1       -2 0.31695379E-02 0.27065509E+03</pdfrwt>
<totfact> 0.12005392E+04</totfact>
</mgrwt>
</event>
<event>
 4    1  0.1171488E-003  0.7515791E+03  0.7818608E-02  0.9632876E-01
         -2   -1    0    0    0  501 -0.00000000000E+00  0.00000000000E+00  0.20563495382E+03  0.20563495384E+03  0.25500000000E-02 0. -1.
          2   -1    0    0  501    0  0.00000000000E+00 -0.00000000000E+00 -0.68674016896E+03  0.68674016896E+03  0.25500000000E-02 0.  1.
    5000001    1    1    2    0    0  0.81724560107E+02  0.33121810072E+03 -0.40380320380E+03  0.53420067518E+03  0.77000000000E+02 0.  0.
   -5000001    1    1    2    0    0 -0.81724560107E+02 -0.33121810072E+03 -0.77302011334E+02  0.35817444761E+03  0.77000000000E+02 0.  0.
<mgrwt>
<rscale>  0 0.75157909E+03</rscale>
<asrwt>0</asrwt>
<pdfrwt beam="1">  1        2 0.10565233E+00 0.75157909E+03</pdfrwt>
<pdfrwt beam="2">  1       -2 0.31636147E-01 0.75157909E+03</pdfrwt>
<totfact> 0.39183068E+02</totfact>
</mgrwt>
</event>
<event>
 4    1  0.1171488E-003  0.3739572E+03  0.7818608E-02  0.1053190E+00
          2   -1    0    0  501    0  0.00000000000E+00  0.00000000000E+00  0.76594459628E+03  0.76594459629E+03  0.25500000000E-02 0.  1.
         -2   -1    0    0    0  501 -0.00000000000E+00 -0.00000000000E+00 -0.45644300181E+02  0.45644300252E+02  0.25500000000E-02 0. -1.
    5000001    1    1    2    0    0 -0.64561526433E+02 -0.14713515559E+03  0.48320782556E+03  0.51501043425E+03  0.77000000000E+02 0.  0.
   -5000001    1    1    2    0    0  0.64561526433E+02  0.14713515559E+03  0.23709247054E+03  0.29657846229E+03  0.77000000000E+02 0.  0.
<mgrwt>
<rscale>  0 0.37395724E+03</rscale>
<asrwt>0</asrwt>
<pdfrwt beam="1">  1        2 0.11783763E+00 0.37395724E+03</pdfrwt>
<pdfrwt beam="2">  1       -2 0.70221999E-02 0.37395724E+03</pdfrwt>
<totfact> 0.43698181E+03</totfact>
</mgrwt>
</event>
<event>
 4    1  0.1171488E-003  0.2846112E+03  0.7818608E-02  0.1093197E+00
          2   -1    0    0  501    0  0.00000000000E+00  0.00000000000E+00  0.11905798507E+03  0.11905798510E+03  0.25500000000E-02 0.  1.
         -2   -1    0    0    0  501 -0.00000000000E+00 -0.00000000000E+00 -0.17009255613E+03  0.17009255615E+03  0.25500000000E-02 0. -1.
    5000001    1    1    2    0    0 -0.10627428492E+03  0.54045411160E+02 -0.15020658733E+02  0.14272263412E+03  0.77000000000E+02 0.  0.
   -5000001    1    1    2    0    0  0.10627428492E+03 -0.54045411160E+02 -0.36013912326E+02  0.14642790712E+03  0.77000000000E+02 0.  0.
<mgrwt>
<rscale>  0 0.28461115E+03</rscale>
<asrwt>0</asrwt>
<pdfrwt beam="1">  1        2 0.18316613E-01 0.28461115E+03</pdfrwt>
<pdfrwt beam="2">  1       -2 0.26168086E-01 0.28461115E+03</pdfrwt>
<totfact> 0.40133027E+03</totfact>
</mgrwt>
</event>
<event>
 4    1  0.1171488E-003  0.2495858E+03  0.7818608E-02  0.1113567E+00
         -2   -1    0    0    0  501 -0.00000000000E+00  0.00000000000E+00  0.14561512374E+02  0.14561512597E+02  0.25500000000E-02 0. -1.
          2   -1    0    0  501    0  0.00000000000E+00 -0.00000000000E+00 -0.10694817105E+04  0.10694817105E+04  0.25500000000E-02 0.  1.
    5000001    1    1    2    0    0  0.65228523357E+02  0.64762575202E+02 -0.67762510910E+03  0.68815241036E+03  0.77000000000E+02 0.  0.
   -5000001    1    1    2    0    0 -0.65228523357E+02 -0.64762575202E+02 -0.37729508903E+03  0.39589081274E+03  0.77000000000E+02 0.  0.
<mgrwt>
<rscale>  0 0.24958583E+03</rscale>
<asrwt>0</asrwt>
<pdfrwt beam="1">  1        2 0.16453559E+00 0.24958583E+03</pdfrwt>
<pdfrwt beam="2">  1       -2 0.22402335E-02 0.24958583E+03</pdfrwt>
<totfact> 0.15472445E+04</totfact>
</mgrwt>
</event>
<event>
 4    1  0.1171488E-003  0.2108681E+03  0.7818608E-02  0.1140880E+00
          2   -1    0    0  501    0  0.00000000000E+00  0.00000000000E+00  0.12721731137E+04  0.12721731137E+04  0.25500000000E-02 0.  1.
         -2   -1    0    0    0  501 -0.00000000000E+00 -0.00000000000E+00 -0.87380675938E+01  0.87380679659E+01  0.25500000000E-02 0. -1.
    5000001    1    1    2    0    0  0.46286916964E+02 -0.54279680046E+02  0.57140795660E+03  0.58096885908E+03  0.77000000000E+02 0.  0.
   -5000001    1    1    2    0    0 -0.46286916964E+02  0.54279680046E+02  0.69202708946E+03  0.69994232255E+03  0.77000000000E+02 0.  0.
<mgrwt>
<rscale>  0 0.21086806E+03</rscale>
<asrwt>0</asrwt>
<pdfrwt beam="1">  1        2 0.19571900E+00 0.21086806E+03</pdfrwt>
<pdfrwt beam="2">  1       -2 0.13443177E-02 0.21086806E+03</pdfrwt>
<totfact> 0.24807671E+04</totfact>
</mgrwt>
</event>
<event>
 4    1  0.1171488E-003  0.2290259E+03  0.7818608E-02  0.1127327E+00
          2   -1    0    0  501    0  0.00000000000E+00  0.00000000000E+00  0.23212598509E+04  0.23212598509E+04  0.25500000000E-02 0.  1.
         -2   -1    0    0    0  501 -0.00000000000E+00 -0.00000000000E+00 -0.56491792338E+01  0.56491798093E+01  0.25500000000E-02 0. -1.
    5000001    1    1    2    0    0  0.77718440205E+02 -0.14451502325E+02  0.84709920791E+03  0.85425702801E+03  0.77000000000E+02 0.  0.
   -5000001    1    1    2    0    0 -0.77718440205E+02  0.14451502325E+02  0.14685114638E+04  0.14726520027E+04  0.77000000000E+02 0.  0.
<mgrwt>
<rscale>  0 0.22902588E+03</rscale>
<asrwt>0</asrwt>
<pdfrwt beam="1">  1        2 0.35711711E+00 0.22902588E+03</pdfrwt>
<pdfrwt beam="2">  1       -2 0.86910404E-03 0.22902588E+03</pdfrwt>
<totfact> 0.13063834E+04</totfact>
</mgrwt>
</event>
<event>
 4    1  0.1171488E-003  0.2893725E+03  0.7818608E-02  0.1090677E+00
         -2   -1    0    0    0  501 -0.00000000000E+00  0.00000000000E+00  0.41830894822E+02  0.41830894899E+02  0.25500000000E-02 0. -1.
          2   -1    0    0  501    0  0.00000000000E+00 -0.00000000000E+00 -0.50044622983E+03  0.50044622984E+03  0.25500000000E-02 0.  1.
    5000001    1    1    2    0    0 -0.68247569503E+02  0.69785167498E+02 -0.90615557402E+02  0.15384368557E+03  0.77000000000E+02 0.  0.
   -5000001    1    1    2    0    0  0.68247569503E+02 -0.69785167498E+02 -0.36799977761E+03  0.38843343917E+03  0.77000000000E+02 0.  0.
<mgrwt>
<rscale>  0 0.28937252E+03</rscale>
<asrwt>0</asrwt>
<pdfrwt beam="1">  1        2 0.76991724E-01 0.28937252E+03</pdfrwt>
<pdfrwt beam="2">  1       -2 0.64355226E-02 0.28937252E+03</pdfrwt>
<totfact> 0.82329799E+03</totfact>
</mgrwt>
</event>
<event>
 4    1  0.1171488E-003  0.4194328E+03  0.7818608E-02  0.1037251E+00
          2   -1    0    0  501    0  0.00000000000E+00  0.00000000000E+00  0.24779714666E+04  0.24779714666E+04  0.25500000000E-02 0.  1.
         -2   -1    0    0    0  501 -0.00000000000E+00 -0.00000000000E+00 -0.17748782524E+02  0.17748782708E+02  0.25500000000E-02 0. -1.
    5000001    1    1    2    0    0  0.15561215830E+03  0.38280727492E+02  0.18919364345E+04  0.19002718306E+04  0.77000000000E+02 0.  0.
   -5000001    1    1    2    0    0 -0.15561215830E+03 -0.38280727492E+02  0.56828624955E+03  0.59544841871E+03  0.77000000000E+02 0.  0.
<mgrwt>
<rscale>  0 0.41943284E+03</rscale>
<asrwt>0</asrwt>
<pdfrwt beam="1">  1        2 0.38122652E+00 0.41943284E+03</pdfrwt>
<pdfrwt beam="2">  1       -2 0.27305809E-02 0.41943284E+03</pdfrwt>
<totfact> 0.19840108E+03</totfact>
</mgrwt>
</event>
<event>
 4    1  0.1171488E-003  0.6799272E+03  0.7818608E-02  0.9752189E-01
          2   -1    0    0  501    0  0.00000000000E+00  0.00000000000E+00  0.38059150937E+04  0.38059150937E+04  0.25500000000E-02 0.  1.
         -2   -1    0    0    0  501 -0.00000000000E+00 -0.00000000000E+00 -0.30367268620E+02  0.30367268727E+02  0.25500000000E-02 0. -1.
    5000001    1    1    2    0    0  0.12843872913E+03 -0.29208656287E+03  0.23872015976E+04  0.24096621205E+04  0.77000000000E+02 0.  0.
   -5000001    1    1    2    0    0 -0.12843872913E+03  0.29208656287E+03  0.13883462275E+04  0.14266202419E+04  0.77000000000E+02 0.  0.
<mgrwt>
<rscale>  0 0.67992719E+03</rscale>
<asrwt>0</asrwt>
<pdfrwt beam="1">  1        2 0.58552542E+00 0.67992719E+03</pdfrwt>
<pdfrwt beam="2">  1       -2 0.46718873E-02 0.67992719E+03</pdfrwt>
<totfact> 0.12298343E+02</totfact>
</mgrwt>
</event>
<event>
 4    1  0.1171488E-003  0.2600411E+03  0.7818608E-02  0.1107119E+00
          2   -1    0    0  501    0  0.00000000000E+00  0.00000000000E+00  0.65511487401E+03  0.65511487402E+03  0.25500000000E-02 0.  1.
         -2   -1    0    0    0  501 -0.00000000000E+00 -0.00000000000E+00 -0.25805150118E+02  0.25805150244E+02  0.25500000000E-02 0. -1.
    5000001    1    1    2    0    0  0.14087283163E+02 -0.63425436346E+02  0.99441078617E+02  0.14155834712E+03  0.77000000000E+02 0.  0.
   -5000001    1    1    2    0    0 -0.14087283163E+02  0.63425436346E+02  0.52986864527E+03  0.53936167714E+03  0.77000000000E+02 0.  0.
<mgrwt>
<rscale>  0 0.26004106E+03</rscale>
<asrwt>0</asrwt>
<pdfrwt beam="1">  1        2 0.10078690E+00 0.26004106E+03</pdfrwt>
<pdfrwt beam="2">  1       -2 0.39700232E-02 0.26004106E+03</pdfrwt>
<totfact> 0.12541241E+04</totfact>
</mgrwt>
</event>
<event>
 4    1  0.1171488E-003  0.2376497E+03  0.7818608E-02  0.1121368E+00
         -2   -1    0    0    0  501 -0.00000000000E+00  0.00000000000E+00  0.11520768322E+02  0.11520768604E+02  0.25500000000E-02 0. -1.
          2   -1    0    0  501    0  0.00000000000E+00 -0.00000000000E+00 -0.12255561275E+04  0.12255561275E+04  0.25500000000E-02 0.  1.
    5000001    1    1    2    0    0  0.11548718984E+01  0.87833325295E+02 -0.49364828287E+03  0.50728064613E+03  0.77000000000E+02 0.  0.
   -5000001    1    1    2    0    0 -0.11548718984E+01 -0.87833325295E+02 -0.72038707629E+03  0.72979624996E+03  0.77000000000E+02 0.  0.
<mgrwt>
<rscale>  0 0.23764973E+03</rscale>
<asrwt>0</asrwt>
<pdfrwt beam="1">  1        2 0.18854699E+00 0.23764973E+03</pdfrwt>
<pdfrwt beam="2">  1       -2 0.17724269E-02 0.23764973E+03</pdfrwt>
<totfact> 0.17705976E+04</totfact>
</mgrwt>
</event>
<event>
 4    1  0.1171488E-003  0.3159159E+03  0.7818608E-02  0.1077544E+00
          2   -1    0    0  501    0  0.00000000000E+00  0.00000000000E+00  0.89255394304E+02  0.89255394340E+02  0.25500000000E-02 0.  1.
         -2   -1    0    0    0  501 -0.00000000000E+00 -0.00000000000E+00 -0.27954286871E+03  0.27954286872E+03  0.25500000000E-02 0. -1.
    5000001    1    1    2    0    0 -0.12250308625E+03 -0.11378088746E+02 -0.22378079388E+02  0.14685450447E+03  0.77000000000E+02 0.  0.
   -5000001    1    1    2    0    0  0.12250308625E+03  0.11378088746E+02 -0.16790939502E+03  0.22194375860E+03  0.77000000000E+02 0.  0.
<mgrwt>
<rscale>  0 0.31591587E+03</rscale>
<asrwt>0</asrwt>
<pdfrwt beam="1">  1        2 0.13731599E-01 0.31591587E+03</pdfrwt>
<pdfrwt beam="2">  1       -2 0.43006595E-01 0.31591587E+03</pdfrwt>
<totfact> 0.22483392E+03</totfact>
</mgrwt>
</event>
<event>
 4    1  0.1171488E-003  0.2463055E+03  0.7818608E-02  0.1115662E+00
         -2   -1    0    0    0  501 -0.00000000000E+00  0.00000000000E+00  0.94328673384E+02  0.94328673418E+02  0.25500000000E-02 0. -1.
          2   -1    0    0  501    0  0.00000000000E+00 -0.00000000000E+00 -0.16078466167E+03  0.16078466169E+03  0.25500000000E-02 0.  1.
    5000001    1    1    2    0    0  0.57993801803E+02 -0.76491653498E+02 -0.28223040939E+02  0.12625289756E+03  0.77000000000E+02 0.  0.
   -5000001    1    1    2    0    0 -0.57993801803E+02  0.76491653498E+02 -0.38232947348E+02  0.12886043755E+03  0.77000000000E+02 0.  0.
<mgrwt>
<rscale>  0 0.24630553E+03</rscale>
<asrwt>0</asrwt>
<pdfrwt beam="1">  1        2 0.24736102E-01 0.24630553E+03</pdfrwt>
<pdfrwt beam="2">  1       -2 0.14512104E-01 0.24630553E+03</pdfrwt>
<totfact> 0.77552142E+03</totfact>
</mgrwt>
</event>
<event>
 4    1  0.1171488E-003  0.4438708E+03  0.7818608E-02  0.1029566E+00
         -2   -1    0    0    0  501 -0.00000000000E+00  0.00000000000E+00  0.22782719945E+03  0.22782719947E+03  0.25500000000E-02 0. -1.
          2   -1    0    0  501    0  0.00000000000E+00 -0.00000000000E+00 -0.21619594472E+03  0.21619594473E+03  0.25500000000E-02 0.  1.
    5000001    1    1    2    0    0  0.15959377737E+02 -0.15989729669E+03 -0.12653424597E+03  0.21854464676E+03  0.77000000000E+02 0.  0.
   -5000001    1    1    2    0    0 -0.15959377737E+02  0.15989729669E+03  0.13816550070E+03  0.22547849744E+03  0.77000000000E+02 0.  0.
<mgrwt>
<rscale>  0 0.44387078E+03</rscale>
<asrwt>0</asrwt>
<pdfrwt beam="1">  1        2 0.33260915E-01 0.44387078E+03</pdfrwt>
<pdfrwt beam="2">  1       -2 0.35050338E-01 0.44387078E+03</pdfrwt>
<totfact> 0.12073286E+03</totfact>
</mgrwt>
</event>
<event>
 4    1  0.1171488E-003  0.2453727E+03  0.7818608E-02  0.1116265E+00
          2   -1    0    0  501    0  0.00000000000E+00  0.00000000000E+00  0.53734638970E+03  0.53734638971E+03  0.25500000000E-02 0.  1.
         -2   -1    0    0    0  501 -0.00000000000E+00 -0.00000000000E+00 -0.28011625688E+02  0.28011625804E+02  0.25500000000E-02 0. -1.
    5000001    1    1    2    0    0  0.82681508737E+02  0.42250471198E+02  0.20306365257E+03  0.23618886764E+03  0.77000000000E+02 0.  0.
   -5000001    1    1    2    0    0 -0.82681508737E+02 -0.42250471198E+02  0.30627111145E+03  0.32916914787E+03  0.77000000000E+02 0.  0.
<mgrwt>
<rscale>  0 0.24537274E+03</rscale>
<asrwt>0</asrwt>
<pdfrwt beam="1">  1        2 0.82668668E-01 0.24537274E+03</pdfrwt>
<pdfrwt beam="2">  1       -2 0.43094813E-02 0.24537274E+03</pdfrwt>
<totfact> 0.13903773E+04</totfact>
</mgrwt>
</event>
<event>
 4    1  0.1171488E-003  0.2672303E+03  0.7818608E-02  0.1102875E+00
          2   -1    0    0  501    0  0.00000000000E+00  0.00000000000E+00  0.12594493277E+04  0.12594493277E+04  0.25500000000E-02 0.  1.
         -2   -1    0    0    0  501 -0.00000000000E+00 -0.00000000000E+00 -0.14175251623E+02  0.14175251853E+02  0.25500000000E-02 0. -1.
    5000001    1    1    2    0    0 -0.39666682153E+02  0.10035502070E+03  0.54296674312E+03  0.55891543187E+03  0.77000000000E+02 0.  0.
   -5000001    1    1    2    0    0  0.39666682153E+02 -0.10035502070E+03  0.70230733292E+03  0.71470914764E+03  0.77000000000E+02 0.  0.
<mgrwt>
<rscale>  0 0.26723032E+03</rscale>
<asrwt>0</asrwt>
<pdfrwt beam="1">  1        2 0.19376144E+00 0.26723032E+03</pdfrwt>
<pdfrwt beam="2">  1       -2 0.21808079E-02 0.26723032E+03</pdfrwt>
<totfact> 0.12552871E+04</totfact>
</mgrwt>
</event>
<event>
 4    1  0.1171488E-003  0.2105696E+03  0.7818608E-02  0.1141116E+00
          2   -1    0    0  501    0  0.00000000000E+00  0.00000000000E+00  0.71617123537E+03  0.71617123538E+03  0.25500000000E-02 0.  1.
         -2   -1    0    0    0  501 -0.00000000000E+00 -0.00000000000E+00 -0.15477982144E+02  0.15477982354E+02  0.25500000000E-02 0. -1.
    5000001    1    1    2    0    0 -0.38733121927E+02 -0.47740323652E+02  0.22143436660E+03  0.24236660651E+03  0.77000000000E+02 0.  0.
   -5000001    1    1    2    0    0  0.38733121927E+02  0.47740323652E+02  0.47925888663E+03  0.48928261122E+03  0.77000000000E+02 0.  0.
<mgrwt>
<rscale>  0 0.21056957E+03</rscale>
<asrwt>0</asrwt>
<pdfrwt beam="1">  1        2 0.11018015E+00 0.21056957E+03</pdfrwt>
<pdfrwt beam="2">  1       -2 0.23812290E-02 0.21056957E+03</pdfrwt>
<totfact> 0.23812286E+04</totfact>
</mgrwt>
</event>
<event>
 4    1  0.1171488E-003  0.2298621E+03  0.7818608E-02  0.1126737E+00
          2   -1    0    0  501    0  0.00000000000E+00  0.00000000000E+00  0.18517958470E+04  0.18517958470E+04  0.25500000000E-02 0.  1.
         -2   -1    0    0    0  501 -0.00000000000E+00 -0.00000000000E+00 -0.71331549438E+01  0.71331553996E+01  0.25500000000E-02 0. -1.
    5000001    1    1    2    0    0 -0.73403293429E+02  0.42977327788E+02  0.97661348722E+03  0.98333005528E+03  0.77000000000E+02 0.  0.
   -5000001    1    1    2    0    0  0.73403293429E+02 -0.42977327788E+02  0.86804920486E+03  0.87559894715E+03  0.77000000000E+02 0.  0.
<mgrwt>
<rscale>  0 0.22986211E+03</rscale>
<asrwt>0</asrwt>
<pdfrwt beam="1">  1        2 0.28489139E+00 0.22986211E+03</pdfrwt>
<pdfrwt beam="2">  1       -2 0.10974096E-02 0.22986211E+03</pdfrwt>
<totfact> 0.16459352E+04</totfact>
</mgrwt>
</event>
<event>
 4    1  0.1171488E-003  0.1692685E+03  0.7818608E-02  0.1178613E+00
         -2   -1    0    0    0  501 -0.00000000000E+00  0.00000000000E+00  0.10299908178E+02  0.10299908494E+02  0.25500000000E-02 0. -1.
          2   -1    0    0  501    0  0.00000000000E+00 -0.00000000000E+00 -0.69543862677E+03  0.69543862678E+03  0.25500000000E-02 0.  1.
    5000001    1    1    2    0    0  0.23517050830E+01  0.34843545634E+02 -0.32677479431E+03  0.33753573053E+03  0.77000000000E+02 0.  0.
   -5000001    1    1    2    0    0 -0.23517050830E+01 -0.34843545634E+02 -0.35836392429E+03  0.36820280475E+03  0.77000000000E+02 0.  0.
<mgrwt>
<rscale>  0 0.16926847E+03</rscale>
<asrwt>0</asrwt>
<pdfrwt beam="1">  1        2 0.10699052E+00 0.16926847E+03</pdfrwt>
<pdfrwt beam="2">  1       -2 0.15846018E-02 0.16926847E+03</pdfrwt>
<totfact> 0.43955424E+04</totfact>
</mgrwt>
</event>
<event>
 4    1  0.1171488E-003  0.2082493E+03  0.7818608E-02  0.1142960E+00
         -2   -1    0    0    0  501 -0.00000000000E+00  0.00000000000E+00  0.52913675319E+03  0.52913675320E+03  0.25500000000E-02 0. -1.
          2   -1    0    0  501    0  0.00000000000E+00 -0.00000000000E+00 -0.20489874524E+02  0.20489874683E+02  0.25500000000E-02 0.  1.
    5000001    1    1    2    0    0 -0.59364268233E+02 -0.27555710717E+02  0.18810388914E+03  0.21353104375E+03  0.77000000000E+02 0.  0.
   -5000001    1    1    2    0    0  0.59364268233E+02  0.27555710717E+02  0.32054298953E+03  0.33609558413E+03  0.77000000000E+02 0.  0.
<mgrwt>
<rscale>  0 0.20824933E+03</rscale>
<asrwt>0</asrwt>
<pdfrwt beam="1">  1        2 0.31522886E-02 0.20824933E+03</pdfrwt>
<pdfrwt beam="2">  1       -2 0.81405648E-01 0.20824933E+03</pdfrwt>
<totfact> 0.39356409E+03</totfact>
</mgrwt>
</event>
<event>
 4    1  0.1171488E-003  0.3686791E+03  0.7818608E-02  0.1055199E+00
         -2   -1    0    0    0  501 -0.00000000000E+00  0.00000000000E+00  0.66403190152E+03  0.66403190152E+03  0.25500000000E-02 0. -1.
          2   -1    0    0  501    0  0.00000000000E+00 -0.00000000000E+00 -0.51173847785E+02  0.51173847849E+02  0.25500000000E-02 0.  1.
    5000001    1    1    2    0    0 -0.14334932849E+03 -0.85644540094E+02  0.28128110668E+03  0.33605368351E+03  0.77000000000E+02 0.  0.
   -5000001    1    1    2    0    0  0.14334932849E+03  0.85644540094E+02  0.33157694705E+03  0.37915206586E+03  0.77000000000E+02 0.  0.
<mgrwt>
<rscale>  0 0.36867909E+03</rscale>
<asrwt>0</asrwt>
<pdfrwt beam="1">  1        2 0.78729003E-02 0.36867909E+03</pdfrwt>
<pdfrwt beam="2">  1       -2 0.10215875E+00 0.36867909E+03</pdfrwt>
<totfact> 0.71219002E+02</totfact>
</mgrwt>
</event>
<event>
 4    1  0.1171488E-003  0.4000757E+03  0.7818608E-02  0.1043753E+00
          2   -1    0    0  501    0  0.00000000000E+00  0.00000000000E+00  0.24359535911E+04  0.24359535911E+04  0.25500000000E-02 0.  1.
         -2   -1    0    0    0  501 -0.00000000000E+00 -0.00000000000E+00 -0.16426889232E+02  0.16426889430E+02  0.25500000000E-02 0. -1.
    5000001    1    1    2    0    0 -0.85651020122E+02 -0.14649560264E+03  0.76396772551E+03  0.78636680020E+03  0.77000000000E+02 0.  0.
   -5000001    1    1    2    0    0  0.85651020122E+02  0.14649560264E+03  0.16555589764E+04  0.16660136803E+04  0.77000000000E+02 0.  0.
<mgrwt>
<rscale>  0 0.40007569E+03</rscale>
<asrwt>0</asrwt>
<pdfrwt beam="1">  1        2 0.37476193E+00 0.40007569E+03</pdfrwt>
<pdfrwt beam="2">  1       -2 0.25272149E-02 0.40007569E+03</pdfrwt>
<totfact> 0.23539642E+03</totfact>
</mgrwt>
</event>
<event>
 4    1  0.1171488E-003  0.2220091E+03  0.7818608E-02  0.1132394E+00
          2   -1    0    0  501    0  0.00000000000E+00  0.00000000000E+00  0.24389290885E+04  0.24389290885E+04  0.25500000000E-02 0.  1.
         -2   -1    0    0    0  501 -0.00000000000E+00 -0.00000000000E+00 -0.50522190416E+01  0.50522196852E+01  0.25500000000E-02 0. -1.
    5000001    1    1    2    0    0 -0.67614516597E+02 -0.30232029215E+02  0.88534634073E+03  0.89176950020E+03  0.77000000000E+02 0.  0.
   -5000001    1    1    2    0    0  0.67614516597E+02  0.30232029215E+02  0.15485305287E+04  0.15522118080E+04  0.77000000000E+02 0.  0.
<mgrwt>
<rscale>  0 0.22200905E+03</rscale>
<asrwt>0</asrwt>
<pdfrwt beam="1">  1        2 0.37521880E+00 0.22200905E+03</pdfrwt>
<pdfrwt beam="2">  1       -2 0.77726672E-03 0.22200905E+03</pdfrwt>
<totfact> 0.13261921E+04</totfact>
</mgrwt>
</event>
<event>
 4    1  0.1171488E-003  0.1871269E+03  0.7818608E-02  0.1161079E+00
          2   -1    0    0  501    0  0.00000000000E+00  0.00000000000E+00  0.17611178826E+03  0.17611178828E+03  0.25500000000E-02 0.  1.
         -2   -1    0    0    0  501 -0.00000000000E+00 -0.00000000000E+00 -0.49707715054E+02  0.49707715120E+02  0.25500000000E-02 0. -1.
    5000001    1    1    2    0    0  0.30733154541E+01  0.52442443528E+02  0.53438402305E+02  0.10744448796E+03  0.77000000000E+02 0.  0.
   -5000001    1    1    2    0    0 -0.30733154541E+01 -0.52442443528E+02  0.72965670901E+02  0.11837501544E+03  0.77000000000E+02 0.  0.
<mgrwt>
<rscale>  0 0.18712685E+03</rscale>
<asrwt>0</asrwt>
<pdfrwt beam="1">  1        2 0.27094121E-01 0.18712685E+03</pdfrwt>
<pdfrwt beam="2">  1       -2 0.76473409E-02 0.18712685E+03</pdfrwt>
<totfact> 0.19110297E+04</totfact>
</mgrwt>
</event>
<event>
 4    1  0.1171488E-003  0.7623775E+03  0.7818608E-02  0.9616130E-01
         -2   -1    0    0    0  501 -0.00000000000E+00  0.00000000000E+00  0.22198362058E+03  0.22198362059E+03  0.25500000000E-02 0. -1.
          2   -1    0    0  501    0  0.00000000000E+00 -0.00000000000E+00 -0.65457477941E+03  0.65457477942E+03  0.25500000000E-02 0.  1.
    5000001    1    1    2    0    0 -0.34041734414E+03 -0.57482804385E+02 -0.52932647037E+02  0.35765780589E+03  0.77000000000E+02 0.  0.
   -5000001    1    1    2    0    0  0.34041734414E+03  0.57482804385E+02 -0.37965851180E+03  0.51890059411E+03  0.77000000000E+02 0.  0.
<mgrwt>
<rscale>  0 0.76237754E+03</rscale>
<asrwt>0</asrwt>
<pdfrwt beam="1">  1        2 0.10070381E+00 0.76237754E+03</pdfrwt>
<pdfrwt beam="2">  1       -2 0.34151326E-01 0.76237754E+03</pdfrwt>
<totfact> 0.35998846E+02</totfact>
</mgrwt>
</event>
<event>
 4    1  0.1171488E-003  0.3222983E+03  0.7818608E-02  0.1074596E+00
         -2   -1    0    0    0  501 -0.00000000000E+00  0.00000000000E+00  0.61712137887E+02  0.61712137939E+02  0.25500000000E-02 0. -1.
          2   -1    0    0  501    0  0.00000000000E+00 -0.00000000000E+00 -0.42080950191E+03  0.42080950191E+03  0.25500000000E-02 0.  1.
    5000001    1    1    2    0    0 -0.10182711904E+03  0.77275656772E+02 -0.88484878057E+02  0.17349023876E+03  0.77000000000E+02 0.  0.
   -5000001    1    1    2    0    0  0.10182711904E+03 -0.77275656772E+02 -0.27061248596E+03  0.30903140109E+03  0.77000000000E+02 0.  0.
<mgrwt>
<rscale>  0 0.32229833E+03</rscale>
<asrwt>0</asrwt>
<pdfrwt beam="1">  1        2 0.64739921E-01 0.32229833E+03</pdfrwt>
<pdfrwt beam="2">  1       -2 0.94941753E-02 0.32229833E+03</pdfrwt>
<totfact> 0.54473837E+03</totfact>
</mgrwt>
</event>
<event>
 4    1  0.1171488E-003  0.2858901E+03  0.7818608E-02  0.1092515E+00
          2   -1    0    0  501    0  0.00000000000E+00  0.00000000000E+00  0.27948270709E+04  0.27948270709E+04  0.25500000000E-02 0.  1.
         -2   -1    0    0    0  501 -0.00000000000E+00 -0.00000000000E+00 -0.73111081930E+01  0.73111086377E+01  0.25500000000E-02 0. -1.
    5000001    1    1    2    0    0 -0.76031435213E+02 -0.75277708427E+02  0.85185450732E+03  0.86199339566E+03  0.77000000000E+02 0.  0.
   -5000001    1    1    2    0    0  0.76031435213E+02  0.75277708427E+02  0.19356614554E+04  0.19401447839E+04  0.77000000000E+02 0.  0.
<mgrwt>
<rscale>  0 0.28589007E+03</rscale>
<asrwt>0</asrwt>
<pdfrwt beam="1">  1        2 0.42997372E+00 0.28589007E+03</pdfrwt>
<pdfrwt beam="2">  1       -2 0.11247851E-02 0.28589007E+03</pdfrwt>
<totfact> 0.49260611E+03</totfact>
</mgrwt>
</event>
<event>
 4    1  0.1171488E-003  0.3686894E+03  0.7818608E-02  0.1055195E+00
          2   -1    0    0  501    0  0.00000000000E+00  0.00000000000E+00  0.14386694346E+04  0.14386694346E+04  0.25500000000E-02 0.  1.
         -2   -1    0    0    0  501 -0.00000000000E+00 -0.00000000000E+00 -0.23621114111E+02  0.23621114249E+02  0.25500000000E-02 0. -1.
    5000001    1    1    2    0    0  0.51854335717E+02  0.15215578899E+03  0.89413385366E+03  0.91172616750E+03  0.77000000000E+02 0.  0.
   -5000001    1    1    2    0    0 -0.51854335717E+02 -0.15215578899E+03  0.52091446684E+03  0.55056438136E+03  0.77000000000E+02 0.  0.
<mgrwt>
<rscale>  0 0.36868944E+03</rscale>
<asrwt>0</asrwt>
<pdfrwt beam="1">  1        2 0.22133379E+00 0.36868944E+03</pdfrwt>
<pdfrwt beam="2">  1       -2 0.36340170E-02 0.36868944E+03</pdfrwt>
<totfact> 0.46902170E+03</totfact>
</mgrwt>
</event>
<event>
 4    1  0.1171488E-003  0.2223189E+03  0.7818608E-02  0.1132166E+00
         -2   -1    0    0    0  501 -0.00000000000E+00  0.00000000000E+00  0.58542223866E+02  0.58542223921E+02  0.25500000000E-02 0. -1.
          2   -1    0    0  501    0  0.00000000000E+00 -0.00000000000E+00 -0.21106855497E+03  0.21106855499E+03  0.25500000000E-02 0.  1.
    5000001    1    1    2    0    0 -0.79309235487E+02 -0.82675218471E+01 -0.86345235838E+02  0.14050909758E+03  0.77000000000E+02 0.  0.
   -5000001    1    1    2    0    0  0.79309235487E+02  0.82675218471E+01 -0.66181095269E+02  0.12910168133E+03  0.77000000000E+02 0.  0.
<mgrwt>
<rscale>  0 0.22231889E+03</rscale>
<asrwt>0</asrwt>
<pdfrwt beam="1">  1        2 0.32472085E-01 0.22231889E+03</pdfrwt>
<pdfrwt beam="2">  1       -2 0.90064961E-02 0.22231889E+03</pdfrwt>
<totfact> 0.12293928E+04</totfact>
</mgrwt>
</event>
<event>
 4    1  0.1171488E-003  0.2938816E+03  0.7818608E-02  0.1088340E+00
          2   -1    0    0  501    0  0.00000000000E+00  0.00000000000E+00  0.66264381455E+02  0.66264381504E+02  0.25500000000E-02 0.  1.
         -2   -1    0    0    0  501 -0.00000000000E+00 -0.00000000000E+00 -0.32584013841E+03  0.32584013842E+03  0.25500000000E-02 0. -1.
    5000001    1    1    2    0    0 -0.89366478776E+02  0.68199256378E+02 -0.20317140457E+03  0.24463263424E+03  0.77000000000E+02 0.  0.
   -5000001    1    1    2    0    0  0.89366478776E+02 -0.68199256378E+02 -0.56404352381E+02  0.14747188568E+03  0.77000000000E+02 0.  0.
<mgrwt>
<rscale>  0 0.29388158E+03</rscale>
<asrwt>0</asrwt>
<pdfrwt beam="1">  1        2 0.10194520E-01 0.29388158E+03</pdfrwt>
<pdfrwt beam="2">  1       -2 0.50129251E-01 0.29388158E+03</pdfrwt>
<totfact> 0.23890453E+03</totfact>
</mgrwt>
</event>
<event>
 4    1  0.1171488E-003  0.2376069E+03  0.7818608E-02  0.1121397E+00
          2   -1    0    0  501    0  0.00000000000E+00  0.00000000000E+00  0.11301303746E+04  0.11301303746E+04  0.25500000000E-02 0.  1.
         -2   -1    0    0    0  501 -0.00000000000E+00 -0.00000000000E+00 -0.12489051532E+02  0.12489051792E+02  0.25500000000E-02 0. -1.
    5000001    1    1    2    0    0  0.53891743549E+02 -0.59890856958E+02  0.36089499829E+03  0.37771078163E+03  0.77000000000E+02 0.  0.
   -5000001    1    1    2    0    0 -0.53891743549E+02  0.59890856958E+02  0.75674632482E+03  0.76490864481E+03  0.77000000000E+02 0.  0.
<mgrwt>
<rscale>  0 0.23760687E+03</rscale>
<asrwt>0</asrwt>
<pdfrwt beam="1">  1        2 0.17386618E+00 0.23760687E+03</pdfrwt>
<pdfrwt beam="2">  1       -2 0.19213929E-02 0.23760687E+03</pdfrwt>
<totfact> 0.17829385E+04</totfact>
</mgrwt>
</event>
<event>
 4    1  0.1171488E-003  0.2705985E+03  0.7818608E-02  0.1100938E+00
          2   -1    0    0  501    0  0.00000000000E+00  0.00000000000E+00  0.82071898181E+03  0.82071898182E+03  0.25500000000E-02 0.  1.
         -2   -1    0    0    0  501 -0.00000000000E+00 -0.00000000000E+00 -0.22304687586E+02  0.22304687732E+02  0.25500000000E-02 0. -1.
    5000001    1    1    2    0    0 -0.98268588427E+02 -0.48732345241E+02  0.45710035215E+03  0.47634156745E+03  0.77000000000E+02 0.  0.
   -5000001    1    1    2    0    0  0.98268588427E+02  0.48732345241E+02  0.34131394208E+03  0.36668210210E+03  0.77000000000E+02 0.  0.
<mgrwt>
<rscale>  0 0.27059845E+03</rscale>
<asrwt>0</asrwt>
<pdfrwt beam="1">  1        2 0.12626444E+00 0.27059845E+03</pdfrwt>
<pdfrwt beam="2">  1       -2 0.34314909E-02 0.27059845E+03</pdfrwt>
<totfact> 0.11836367E+04</totfact>
</mgrwt>
</event>
<event>
 4    1  0.1171488E-003  0.2525937E+03  0.7818608E-02  0.1111677E+00
         -2   -1    0    0    0  501 -0.00000000000E+00  0.00000000000E+00  0.44874559580E+02  0.44874559652E+02  0.25500000000E-02 0. -1.
          2   -1    0    0  501    0  0.00000000000E+00 -0.00000000000E+00 -0.35545512279E+03  0.35545512280E+03  0.25500000000E-02 0.  1.
    5000001    1    1    2    0    0  0.90088111034E+02  0.41062614037E+02 -0.17879170554E+03  0.21839752744E+03  0.77000000000E+02 0.  0.
   -5000001    1    1    2    0    0 -0.90088111034E+02 -0.41062614037E+02 -0.13178885766E+03  0.18193215501E+03  0.77000000000E+02 0.  0.
<mgrwt>
<rscale>  0 0.25259368E+03</rscale>
<asrwt>0</asrwt>
<pdfrwt beam="1">  1        2 0.54685402E-01 0.25259368E+03</pdfrwt>
<pdfrwt beam="2">  1       -2 0.69037786E-02 0.25259368E+03</pdfrwt>
<totfact> 0.10684336E+04</totfact>
</mgrwt>
</event>
<event>
 4    1  0.1171488E-003  0.4811230E+03  0.7818608E-02  0.1018827E+00
         -2   -1    0    0    0  501 -0.00000000000E+00  0.00000000000E+00  0.37757003929E+02  0.37757004015E+02  0.25500000000E-02 0. -1.
          2   -1    0    0  501    0  0.00000000000E+00 -0.00000000000E+00 -0.15326912310E+04  0.15326912310E+04  0.25500000000E-02 0.  1.
    5000001    1    1    2    0    0  0.18568965960E+03 -0.12945831931E+03 -0.83387246667E+03  0.86747472400E+03  0.77000000000E+02 0.  0.
   -5000001    1    1    2    0    0 -0.18568965960E+03  0.12945831931E+03 -0.66106176045E+03  0.70297351106E+03  0.77000000000E+02 0.  0.
<mgrwt>
<rscale>  0 0.48112297E+03</rscale>
<asrwt>0</asrwt>
<pdfrwt beam="1">  1        2 0.23579860E+00 0.48112297E+03</pdfrwt>
<pdfrwt beam="2">  1       -2 0.58087710E-02 0.48112297E+03</pdfrwt>
<totfact> 0.20274428E+03</totfact>
</mgrwt>
</event>
<event>
 4    1  0.1171488E-003  0.5132674E+03  0.7818608E-02  0.1010373E+00
          2   -1    0    0  501    0  0.00000000000E+00  0.00000000000E+00  0.44280332914E+03  0.44280332915E+03  0.25500000000E-02 0.  1.
         -2   -1    0    0    0  501 -0.00000000000E+00 -0.00000000000E+00 -0.14873615936E+03  0.14873615938E+03  0.25500000000E-02 0. -1.
    5000001    1    1    2    0    0 -0.22201521020E+03 -0.37056073610E+02  0.36082357747E+02  0.24061347155E+03  0.77000000000E+02 0.  0.
   -5000001    1    1    2    0    0  0.22201521020E+03  0.37056073610E+02  0.25798481203E+03  0.35092601698E+03  0.77000000000E+02 0.  0.
<mgrwt>
<rscale>  0 0.51326744E+03</rscale>
<asrwt>0</asrwt>
<pdfrwt beam="1">  1        2 0.68123589E-01 0.51326744E+03</pdfrwt>
<pdfrwt beam="2">  1       -2 0.22882486E-01 0.51326744E+03</pdfrwt>
<totfact> 0.11916470E+03</totfact>
</mgrwt>
</event>
<event>
 4    1  0.1171488E-003  0.1918253E+03  0.7818608E-02  0.1156825E+00
         -2   -1    0    0    0  501 -0.00000000000E+00  0.00000000000E+00  0.54510958920E+03  0.54510958921E+03  0.25500000000E-02 0. -1.
          2   -1    0    0  501    0  0.00000000000E+00 -0.00000000000E+00 -0.16875944185E+02  0.16875944377E+02  0.25500000000E-02 0.  1.
    5000001    1    1    2    0    0 -0.50844450066E+02 -0.84465048609E+01  0.33669574594E+03  0.34921272439E+03  0.77000000000E+02 0.  0.
   -5000001    1    1    2    0    0  0.50844450066E+02  0.84465048609E+01  0.19153789908E+03  0.21277280919E+03  0.77000000000E+02 0.  0.
<mgrwt>
<rscale>  0 0.19182533E+03</rscale>
<asrwt>0</asrwt>
<pdfrwt beam="1">  1        2 0.25962998E-02 0.19182533E+03</pdfrwt>
<pdfrwt beam="2">  1       -2 0.83862993E-01 0.19182533E+03</pdfrwt>
<totfact> 0.47699729E+03</totfact>
</mgrwt>
</event>
<event>
 4    1  0.1171488E-003  0.4425465E+03  0.7818608E-02  0.1029968E+00
         -2   -1    0    0    0  501 -0.00000000000E+00  0.00000000000E+00  0.11541263024E+03  0.11541263026E+03  0.25500000000E-02 0. -1.
          2   -1    0    0  501    0  0.00000000000E+00 -0.00000000000E+00 -0.42423302503E+03  0.42423302504E+03  0.25500000000E-02 0.  1.
    5000001    1    1    2    0    0 -0.99021154325E+02 -0.16904313499E+03 -0.71238931270E+02  0.22222681166E+03  0.77000000000E+02 0.  0.
   -5000001    1    1    2    0    0  0.99021154325E+02  0.16904313499E+03 -0.23758146352E+03  0.31741884364E+03  0.77000000000E+02 0.  0.
<mgrwt>
<rscale>  0 0.44254649E+03</rscale>
<asrwt>0</asrwt>
<pdfrwt beam="1">  1        2 0.65266618E-01 0.44254649E+03</pdfrwt>
<pdfrwt beam="2">  1       -2 0.17755790E-01 0.44254649E+03</pdfrwt>
<totfact> 0.19407412E+03</totfact>
</mgrwt>
</event>
<event>
 4    1  0.1171488E-003  0.2230168E+03  0.7818608E-02  0.1131654E+00
         -2   -1    0    0    0  501 -0.00000000000E+00  0.00000000000E+00  0.54190290894E+03  0.54190290895E+03  0.25500000000E-02 0. -1.
          2   -1    0    0  501    0  0.00000000000E+00 -0.00000000000E+00 -0.22945288648E+02  0.22945288789E+02  0.25500000000E-02 0.  1.
    5000001    1    1    2    0    0  0.57319185898E+01  0.77653615070E+02  0.20621972072E+03  0.23349199566E+03  0.77000000000E+02 0.  0.
   -5000001    1    1    2    0    0 -0.57319185898E+01 -0.77653615070E+02  0.31273789958E+03  0.33135620208E+03  0.77000000000E+02 0.  0.
<mgrwt>
<rscale>  0 0.22301676E+03</rscale>
<asrwt>0</asrwt>
<pdfrwt beam="1">  1        2 0.35300447E-02 0.22301676E+03</pdfrwt>
<pdfrwt beam="2">  1       -2 0.83369673E-01 0.22301676E+03</pdfrwt>
<totfact> 0.32167288E+03</totfact>
</mgrwt>
</event>
<event>
 4    1  0.1171488E-003  0.2784003E+03  0.7818608E-02  0.1096566E+00
         -2   -1    0    0    0  501 -0.00000000000E+00  0.00000000000E+00  0.10771924799E+02  0.10771925101E+02  0.25500000000E-02 0. -1.
          2   -1    0    0  501    0  0.00000000000E+00 -0.00000000000E+00 -0.17988129657E+04  0.17988129657E+04  0.25500000000E-02 0.  1.
    5000001    1    1    2    0    0 -0.10665067215E+03 -0.23980909512E+02 -0.11456133798E+04  0.11533899887E+04  0.77000000000E+02 0.  0.
   -5000001    1    1    2    0    0  0.10665067215E+03  0.23980909512E+02 -0.64242766105E+03  0.65619490212E+03  0.77000000000E+02 0.  0.
<mgrwt>
<rscale>  0 0.27840027E+03</rscale>
<asrwt>0</asrwt>
<pdfrwt beam="1">  1        2 0.27674022E+00 0.27840027E+03</pdfrwt>
<pdfrwt beam="2">  1       -2 0.16572206E-02 0.27840027E+03</pdfrwt>
<totfact> 0.96633993E+03</totfact>
</mgrwt>
</event>
<event>
 4    1  0.1171488E-003  0.2639138E+03  0.7818608E-02  0.1104814E+00
          2   -1    0    0  501    0  0.00000000000E+00  0.00000000000E+00  0.10040501368E+04  0.10040501368E+04  0.25500000000E-02 0.  1.
         -2   -1    0    0    0  501 -0.00000000000E+00 -0.00000000000E+00 -0.17342383188E+02  0.17342383376E+02  0.25500000000E-02 0. -1.
    5000001    1    1    2    0    0 -0.12432386098E+01 -0.10465225861E+03  0.40425732098E+03  0.42462527296E+03  0.77000000000E+02 0.  0.
   -5000001    1    1    2    0    0  0.12432386098E+01  0.10465225861E+03  0.58245043261E+03  0.59676724720E+03  0.77000000000E+02 0.  0.
<mgrwt>
<rscale>  0 0.26391379E+03</rscale>
<asrwt>0</asrwt>
<pdfrwt beam="1">  1        2 0.15446922E+00 0.26391379E+03</pdfrwt>
<pdfrwt beam="2">  1       -2 0.26680595E-02 0.26391379E+03</pdfrwt>
<totfact> 0.13112940E+04</totfact>
</mgrwt>
</event>
<event>
 4    1  0.1171488E-003  0.2618793E+03  0.7818608E-02  0.1106019E+00
         -2   -1    0    0    0  501 -0.00000000000E+00  0.00000000000E+00  0.49268851770E+02  0.49268851836E+02  0.25500000000E-02 0. -1.
          2   -1    0    0  501    0  0.00000000000E+00 -0.00000000000E+00 -0.34799242727E+03  0.34799242728E+03  0.25500000000E-02 0.  1.
    5000001    1    1    2    0    0 -0.10443586639E+03  0.15363968871E+02 -0.16234805867E+03  0.20839576263E+03  0.77000000000E+02 0.  0.
   -5000001    1    1    2    0    0  0.10443586639E+03 -0.15363968871E+02 -0.13637551683E+03  0.18886551648E+03  0.77000000000E+02 0.  0.
<mgrwt>
<rscale>  0 0.26187926E+03</rscale>
<asrwt>0</asrwt>
<pdfrwt beam="1">  1        2 0.53537295E-01 0.26187926E+03</pdfrwt>
<pdfrwt beam="2">  1       -2 0.75798236E-02 0.26187926E+03</pdfrwt>
<totfact> 0.94730355E+03</totfact>
</mgrwt>
</event>
<event>
 4    1  0.1171488E-003  0.2060139E+03  0.7818608E-02  0.1144762E+00
         -2   -1    0    0    0  501 -0.00000000000E+00  0.00000000000E+00  0.28685596465E+02  0.28685596579E+02  0.25500000000E-02 0. -1.
          2   -1    0    0  501    0  0.00000000000E+00 -0.00000000000E+00 -0.36988706416E+03  0.36988706417E+03  0.25500000000E-02 0.  1.
    5000001    1    1    2    0    0 -0.17716566237E+02  0.65408743741E+02 -0.15232324252E+03  0.18363973069E+03  0.77000000000E+02 0.  0.
   -5000001    1    1    2    0    0  0.17716566237E+02 -0.65408743741E+02 -0.18887822518E+03  0.21493293006E+03  0.77000000000E+02 0.  0.
<mgrwt>
<rscale>  0 0.20601389E+03</rscale>
<asrwt>0</asrwt>
<pdfrwt beam="1">  1        2 0.56905699E-01 0.20601389E+03</pdfrwt>
<pdfrwt beam="2">  1       -2 0.44131690E-02 0.20601389E+03</pdfrwt>
<totfact> 0.19998189E+04</totfact>
</mgrwt>
</event>
<event>
 4    1  0.1171488E-003  0.4662477E+03  0.7818608E-02  0.1022985E+00
          2   -1    0    0  501    0  0.00000000000E+00  0.00000000000E+00  0.18527345945E+04  0.18527345945E+04  0.25500000000E-02 0.  1.
         -2   -1    0    0    0  501 -0.00000000000E+00 -0.00000000000E+00 -0.29333257386E+02  0.29333257497E+02  0.25500000000E-02 0. -1.
    5000001    1    1    2    0    0 -0.97260653534E+02  0.17957522116E+03  0.12423800881E+04  0.12614056359E+04  0.77000000000E+02 0.  0.
   -5000001    1    1    2    0    0  0.97260653534E+02 -0.17957522116E+03  0.58102124900E+03  0.62066221616E+03  0.77000000000E+02 0.  0.
<mgrwt>
<rscale>  0 0.46624775E+03</rscale>
<asrwt>0</asrwt>
<pdfrwt beam="1">  1        2 0.28503625E+00 0.46624775E+03</pdfrwt>
<pdfrwt beam="2">  1       -2 0.45128063E-02 0.46624775E+03</pdfrwt>
<totfact> 0.20136212E+03</totfact>
</mgrwt>
</event>
<event>
 4    1  0.1171488E-003  0.2903997E+03  0.7818608E-02  0.1090141E+00
          2   -1    0    0  501    0  0.00000000000E+00  0.00000000000E+00  0.10194801455E+04  0.10194801455E+04  0.25500000000E-02 0.  1.
         -2   -1    0    0    0  501 -0.00000000000E+00 -0.00000000000E+00 -0.20680138003E+02  0.20680138160E+02  0.25500000000E-02 0. -1.
    5000001    1    1    2    0    0  0.75365328470E+02 -0.74847880722E+02  0.27652387611E+03  0.30606631968E+03  0.77000000000E+02 0.  0.
   -5000001    1    1    2    0    0 -0.75365328470E+02  0.74847880722E+02  0.72227613139E+03  0.73409396399E+03  0.77000000000E+02 0.  0.
<mgrwt>
<rscale>  0 0.29039966E+03</rscale>
<asrwt>0</asrwt>
<pdfrwt beam="1">  1        2 0.15684309E+00 0.29039966E+03</pdfrwt>
<pdfrwt beam="2">  1       -2 0.31815600E-02 0.29039966E+03</pdfrwt>
<totfact> 0.99054862E+03</totfact>
</mgrwt>
</event>
<event>
 4    1  0.1171488E-003  0.5106421E+03  0.7818608E-02  0.1011038E+00
          2   -1    0    0  501    0  0.00000000000E+00  0.00000000000E+00  0.32841053426E+04  0.32841053426E+04  0.25500000000E-02 0.  1.
         -2   -1    0    0    0  501 -0.00000000000E+00 -0.00000000000E+00 -0.19849802600E+02  0.19849802764E+02  0.25500000000E-02 0. -1.
    5000001    1    1    2    0    0  0.23927277146E+03 -0.63854262789E+01  0.19191311714E+04  0.19355324038E+04  0.77000000000E+02 0.  0.
   -5000001    1    1    2    0    0 -0.23927277146E+03  0.63854262789E+01  0.13451243686E+04  0.13684227416E+04  0.77000000000E+02 0.  0.
<mgrwt>
<rscale>  0 0.51064212E+03</rscale>
<asrwt>0</asrwt>
<pdfrwt beam="1">  1        2 0.50524692E+00 0.51064212E+03</pdfrwt>
<pdfrwt beam="2">  1       -2 0.30538162E-02 0.51064212E+03</pdfrwt>
<totfact> 0.55212321E+02</totfact>
</mgrwt>
</event>
<event>
 4    1  0.1171488E-003  0.2246002E+03  0.7818608E-02  0.1130499E+00
         -2   -1    0    0    0  501 -0.00000000000E+00  0.00000000000E+00  0.12852368750E+02  0.12852369003E+02  0.25500000000E-02 0. -1.
          2   -1    0    0  501    0  0.00000000000E+00 -0.00000000000E+00 -0.98124422174E+03  0.98124422174E+03  0.25500000000E-02 0.  1.
    5000001    1    1    2    0    0  0.54804632219E+02  0.56517599983E+02 -0.58162238826E+03  0.59195556366E+03  0.77000000000E+02 0.  0.
   -5000001    1    1    2    0    0 -0.54804632219E+02 -0.56517599983E+02 -0.38676946473E+03  0.40214102709E+03  0.77000000000E+02 0.  0.
<mgrwt>
<rscale>  0 0.22460020E+03</rscale>
<asrwt>0</asrwt>
<pdfrwt beam="1">  1        2 0.15096059E+00 0.22460020E+03</pdfrwt>
<pdfrwt beam="2">  1       -2 0.19772883E-02 0.22460020E+03</pdfrwt>
<totfact> 0.20905614E+04</totfact>
</mgrwt>
</event>
<event>
 4    1  0.1171488E-003  0.1783592E+03  0.7818608E-02  0.1169401E+00
          2   -1    0    0  501    0  0.00000000000E+00  0.00000000000E+00  0.31807119594E+04  0.31807119594E+04  0.25500000000E-02 0.  1.
         -2   -1    0    0    0  501 -0.00000000000E+00 -0.00000000000E+00 -0.25003824587E+01  0.25003837590E+01  0.25500000000E-02 0. -1.
    5000001    1    1    2    0    0 -0.40998844280E+02 -0.17877277175E+00  0.19196701347E+04  0.19216512075E+04  0.77000000000E+02 0.  0.
   -5000001    1    1    2    0    0  0.40998844280E+02  0.17877277175E+00  0.12585414422E+04  0.12615611356E+04  0.77000000000E+02 0.  0.
<mgrwt>
<rscale>  0 0.17835917E+03</rscale>
<asrwt>0</asrwt>
<pdfrwt beam="1">  1        2 0.48933958E+00 0.17835917E+03</pdfrwt>
<pdfrwt beam="2">  1       -2 0.38467489E-03 0.17835917E+03</pdfrwt>
<totfact> 0.13680256E+04</totfact>
</mgrwt>
</event>
<event>
 4    1  0.1171488E-003  0.3054096E+03  0.7818608E-02  0.1082567E+00
          2   -1    0    0  501    0  0.00000000000E+00  0.00000000000E+00  0.96916209150E+03  0.96916209150E+03  0.25500000000E-02 0.  1.
         -2   -1    0    0    0  501 -0.00000000000E+00 -0.00000000000E+00 -0.24060740900E+02  0.24060741035E+02  0.25500000000E-02 0. -1.
    5000001    1    1    2    0    0 -0.23324356987E+02  0.40242383277E+02  0.87384307984E+03  0.87846127019E+03  0.77000000000E+02 0.  0.
   -5000001    1    1    2    0    0  0.23324356987E+02 -0.40242383277E+02  0.71258270761E+02  0.11476156235E+03  0.77000000000E+02 0.  0.
<mgrwt>
<rscale>  0 0.30540961E+03</rscale>
<asrwt>0</asrwt>
<pdfrwt beam="1">  1        2 0.14910187E+00 0.30540961E+03</pdfrwt>
<pdfrwt beam="2">  1       -2 0.37016523E-02 0.30540961E+03</pdfrwt>
<totfact> 0.84896662E+03</totfact>
</mgrwt>
</event>
<event>
 4    1  0.1171488E-003  0.2316593E+03  0.7818608E-02  0.1125477E+00
          2   -1    0    0  501    0  0.00000000000E+00  0.00000000000E+00  0.81649163750E+03  0.81649163751E+03  0.25500000000E-02 0.  1.
         -2   -1    0    0    0  501 -0.00000000000E+00 -0.00000000000E+00 -0.16431904840E+02  0.16431905038E+02  0.25500000000E-02 0. -1.
    5000001    1    1    2    0    0 -0.73760979842E+02  0.25315628806E+02  0.53484548724E+03  0.54595811051E+03  0.77000000000E+02 0.  0.
   -5000001    1    1    2    0    0  0.73760979842E+02 -0.25315628806E+02  0.26521424543E+03  0.28696543204E+03  0.77000000000E+02 0.  0.
<mgrwt>
<rscale>  0 0.23165934E+03</rscale>
<asrwt>0</asrwt>
<pdfrwt beam="1">  1        2 0.12561410E+00 0.23165934E+03</pdfrwt>
<pdfrwt beam="2">  1       -2 0.25279853E-02 0.23165934E+03</pdfrwt>
<totfact> 0.18629161E+04</totfact>
</mgrwt>
</event>
<event>
 4    1  0.1171488E-003  0.1909926E+03  0.7818608E-02  0.1157569E+00
          2   -1    0    0  501    0  0.00000000000E+00  0.00000000000E+00  0.15398120171E+04  0.15398120171E+04  0.25500000000E-02 0.  1.
         -2   -1    0    0    0  501 -0.00000000000E+00 -0.00000000000E+00 -0.59225036268E+01  0.59225041757E+01  0.25500000000E-02 0. -1.
    5000001    1    1    2    0    0  0.45304542299E+02  0.33545421489E+02  0.73805110905E+03  0.74419502580E+03  0.77000000000E+02 0.  0.
   -5000001    1    1    2    0    0 -0.45304542299E+02 -0.33545421489E+02  0.79583840444E+03  0.80153949549E+03  0.77000000000E+02 0.  0.
<mgrwt>
<rscale>  0 0.19099259E+03</rscale>
<asrwt>0</asrwt>
<pdfrwt beam="1">  1        2 0.23689452E+00 0.19099259E+03</pdfrwt>
<pdfrwt beam="2">  1       -2 0.91115306E-03 0.19099259E+03</pdfrwt>
<totfact> 0.31074173E+04</totfact>
</mgrwt>
</event>
<event>
 4    1  0.1171488E-003  0.2679501E+03  0.7818608E-02  0.1102459E+00
         -2   -1    0    0    0  501 -0.00000000000E+00  0.00000000000E+00  0.36751981620E+02  0.36751981708E+02  0.25500000000E-02 0. -1.
          2   -1    0    0  501    0  0.00000000000E+00 -0.00000000000E+00 -0.48839021941E+03  0.48839021942E+03  0.25500000000E-02 0.  1.
    5000001    1    1    2    0    0 -0.92751828049E+02  0.27725220467E+02 -0.12495400042E+03  0.17582403612E+03  0.77000000000E+02 0.  0.
   -5000001    1    1    2    0    0  0.92751828049E+02 -0.27725220467E+02 -0.32668423737E+03  0.34931816501E+03  0.77000000000E+02 0.  0.
<mgrwt>
<rscale>  0 0.26795006E+03</rscale>
<asrwt>0</asrwt>
<pdfrwt beam="1">  1        2 0.75136953E-01 0.26795006E+03</pdfrwt>
<pdfrwt beam="2">  1       -2 0.56541513E-02 0.26795006E+03</pdfrwt>
<totfact> 0.10291211E+04</totfact>
</mgrwt>
</event>
<event>
 4    1  0.1171488E-003  0.2036973E+03  0.7818608E-02  0.1146657E+00
         -2   -1    0    0    0  501 -0.00000000000E+00  0.00000000000E+00  0.11781475716E+02  0.11781475992E+02  0.25500000000E-02 0.  1.
          2   -1    0    0  501    0  0.00000000000E+00 -0.00000000000E+00 -0.88046220508E+03  0.88046220509E+03  0.25500000000E-02 0. -1.
    5000001    1    1    2    0    0  0.53070563661E+02 -0.29917126054E+02 -0.31578009986E+03  0.33069259234E+03  0.77000000000E+02 0.  0.
   -5000001    1    1    2    0    0 -0.53070563661E+02  0.29917126054E+02 -0.55290062951E+03  0.56155108874E+03  0.77000000000E+02 0.  0.
<mgrwt>
<rscale>  0 0.20369727E+03</rscale>
<asrwt>0</asrwt>
<pdfrwt beam="1">  1        2 0.13545567E+00 0.20369727E+03</pdfrwt>
<pdfrwt beam="2">  1       -2 0.18125354E-02 0.20369727E+03</pdfrwt>
<totfact> 0.27318784E+04</totfact>
</mgrwt>
</event>
<event>
 4    1  0.1171488E-003  0.2109025E+03  0.7818608E-02  0.1140853E+00
         -2   -1    0    0    0  501 -0.00000000000E+00  0.00000000000E+00  0.13846805726E+03  0.13846805729E+03  0.25500000000E-02 0. -1.
          2   -1    0    0  501    0  0.00000000000E+00 -0.00000000000E+00 -0.80307093457E+02  0.80307093497E+02  0.25500000000E-02 0.  1.
    5000001    1    1    2    0    0  0.38324353190E+02 -0.58345376834E+02  0.10581448244E+02  0.10446964196E+03  0.77000000000E+02 0.  0.
   -5000001    1    1    2    0    0 -0.38324353190E+02  0.58345376834E+02  0.47579515564E+02  0.11430550882E+03  0.77000000000E+02 0.  0.
<mgrwt>
<rscale>  0 0.21090251E+03</rscale>
<asrwt>0</asrwt>
<pdfrwt beam="1">  1        2 0.12354938E-01 0.21090251E+03</pdfrwt>
<pdfrwt beam="2">  1       -2 0.21302778E-01 0.21090251E+03</pdfrwt>
<totfact> 0.90383004E+03</totfact>
</mgrwt>
</event>
<event>
 4    1  0.1171488E-003  0.2320062E+03  0.7818608E-02  0.1125236E+00
         -2   -1    0    0    0  501 -0.00000000000E+00  0.00000000000E+00  0.83442151793E+01  0.83442155689E+01  0.25500000000E-02 0. -1.
          2   -1    0    0  501    0  0.00000000000E+00 -0.00000000000E+00 -0.16126999789E+04  0.16126999789E+04  0.25500000000E-02 0.  1.
    5000001    1    1    2    0    0  0.54764269364E+02  0.72900535051E+01 -0.33475122981E+03  0.34790753935E+03  0.77000000000E+02 0.  0.
   -5000001    1    1    2    0    0 -0.54764269364E+02 -0.72900535051E+01 -0.12696045339E+04  0.12731366551E+04  0.77000000000E+02 0.  0.
<mgrwt>
<rscale>  0 0.23200617E+03</rscale>
<asrwt>0</asrwt>
<pdfrwt beam="1">  1        2 0.24810744E+00 0.23200617E+03</pdfrwt>
<pdfrwt beam="2">  1       -2 0.12837267E-02 0.23200617E+03</pdfrwt>
<totfact> 0.17490522E+04</totfact>
</mgrwt>
</event>
<event>
 4    1  0.1171488E-003  0.2265234E+03  0.7818608E-02  0.1129111E+00
          2   -1    0    0  501    0  0.00000000000E+00  0.00000000000E+00  0.31257815841E+04  0.31257815841E+04  0.25500000000E-02 0.  1.
         -2   -1    0    0    0  501 -0.00000000000E+00 -0.00000000000E+00 -0.41040007608E+01  0.41040015530E+01  0.25500000000E-02 0. -1.
    5000001    1    1    2    0    0 -0.20705233062E+02 -0.78433484996E+02  0.13141771179E+04  0.13189279796E+04  0.77000000000E+02 0.  0.
   -5000001    1    1    2    0    0  0.20705233062E+02  0.78433484996E+02  0.18075004654E+04  0.18109576060E+04  0.77000000000E+02 0.  0.
<mgrwt>
<rscale>  0 0.22652339E+03</rscale>
<asrwt>0</asrwt>
<pdfrwt beam="1">  1        2 0.48088932E+00 0.22652339E+03</pdfrwt>
<pdfrwt beam="2">  1       -2 0.63138499E-03 0.22652339E+03</pdfrwt>
<totfact> 0.72790722E+03</totfact>
</mgrwt>
</event>
<event>
 4    1  0.1171488E-003  0.3271286E+03  0.7818608E-02  0.1072414E+00
          2   -1    0    0  501    0  0.00000000000E+00  0.00000000000E+00  0.39783595940E+03  0.39783595941E+03  0.25500000000E-02 0.  1.
         -2   -1    0    0    0  501 -0.00000000000E+00 -0.00000000000E+00 -0.67247018486E+02  0.67247018534E+02  0.25500000000E-02 0. -1.
    5000001    1    1    2    0    0  0.40759717497E+02  0.12753041282E+03  0.24184181540E+03  0.28695265191E+03  0.77000000000E+02 0.  0.
   -5000001    1    1    2    0    0 -0.40759717497E+02 -0.12753041282E+03  0.88747125517E+02  0.17813032603E+03  0.77000000000E+02 0.  0.
<mgrwt>
<rscale>  0 0.32712861E+03</rscale>
<asrwt>0</asrwt>
<pdfrwt beam="1">  1        2 0.61205532E-01 0.32712861E+03</pdfrwt>
<pdfrwt beam="2">  1       -2 0.10345695E-01 0.32712861E+03</pdfrwt>
<totfact> 0.50534174E+03</totfact>
</mgrwt>
</event>
<event>
 4    1  0.1171488E-003  0.2377880E+03  0.7818608E-02  0.1121275E+00
          2   -1    0    0  501    0  0.00000000000E+00  0.00000000000E+00  0.25454102694E+03  0.25454102696E+03  0.25500000000E-02 0.  1.
         -2   -1    0    0    0  501 -0.00000000000E+00 -0.00000000000E+00 -0.55534390041E+02  0.55534390099E+02  0.25500000000E-02 0. -1.
    5000001    1    1    2    0    0 -0.12800283165E+02  0.70829562829E+02  0.17123640913E+03  0.20107606031E+03  0.77000000000E+02 0.  0.
   -5000001    1    1    2    0    0  0.12800283165E+02 -0.70829562829E+02  0.27770227773E+02  0.10899935674E+03  0.77000000000E+02 0.  0.
<mgrwt>
<rscale>  0 0.23778798E+03</rscale>
<asrwt>0</asrwt>
<pdfrwt beam="1">  1        2 0.39160158E-01 0.23778798E+03</pdfrwt>
<pdfrwt beam="2">  1       -2 0.85437523E-02 0.23778798E+03</pdfrwt>
<totfact> 0.10947090E+04</totfact>
</mgrwt>
</event>
<event>
 4    1  0.1171488E-003  0.2335524E+03  0.7818608E-02  0.1124164E+00
         -2   -1    0    0    0  501 -0.00000000000E+00  0.00000000000E+00  0.10398818440E+02  0.10398818753E+02  0.25500000000E-02 0. -1.
          2   -1    0    0  501    0  0.00000000000E+00 -0.00000000000E+00 -0.13113685149E+04  0.13113685149E+04  0.25500000000E-02 0.  1.
    5000001    1    1    2    0    0 -0.65829969390E+02  0.37971310113E+02 -0.89925911260E+03  0.90574353813E+03  0.77000000000E+02 0.  0.
   -5000001    1    1    2    0    0  0.65829969390E+02 -0.37971310113E+02 -0.40171058384E+03  0.41602379551E+03  0.77000000000E+02 0.  0.
<mgrwt>
<rscale>  0 0.23355242E+03</rscale>
<asrwt>0</asrwt>
<pdfrwt beam="1">  1        2 0.20174887E+00 0.23355242E+03</pdfrwt>
<pdfrwt beam="2">  1       -2 0.15998193E-02 0.23355242E+03</pdfrwt>
<totfact> 0.18415365E+04</totfact>
</mgrwt>
</event>
<event>
 4    1  0.1171488E-003  0.2169507E+03  0.7818608E-02  0.1136177E+00
         -2   -1    0    0    0  501 -0.00000000000E+00  0.00000000000E+00  0.15194335449E+02  0.15194335663E+02  0.25500000000E-02 0. -1.
          2   -1    0    0  501    0  0.00000000000E+00 -0.00000000000E+00 -0.77442671705E+03  0.77442671706E+03  0.25500000000E-02 0.  1.
    5000001    1    1    2    0    0  0.36275709993E+02  0.64866660614E+02 -0.44414030107E+03  0.45685141768E+03  0.77000000000E+02 0.  0.
   -5000001    1    1    2    0    0 -0.36275709993E+02 -0.64866660614E+02 -0.31509208053E+03  0.33276963504E+03  0.77000000000E+02 0.  0.
<mgrwt>
<rscale>  0 0.21695068E+03</rscale>
<asrwt>0</asrwt>
<pdfrwt beam="1">  1        2 0.11914254E+00 0.21695068E+03</pdfrwt>
<pdfrwt beam="2">  1       -2 0.23375907E-02 0.21695068E+03</pdfrwt>
<totfact> 0.22266488E+04</totfact>
</mgrwt>
</event>
<event>
 4    1  0.1171488E-003  0.2789935E+03  0.7818608E-02  0.1096240E+00
          2   -1    0    0  501    0  0.00000000000E+00  0.00000000000E+00  0.83957820951E+03  0.83957820952E+03  0.25500000000E-02 0.  1.
         -2   -1    0    0    0  501 -0.00000000000E+00 -0.00000000000E+00 -0.23177524957E+02  0.23177525097E+02  0.25500000000E-02 0. -1.
    5000001    1    1    2    0    0 -0.78425882259E+02  0.72524425965E+02  0.55058227350E+03  0.56610975196E+03  0.77000000000E+02 0.  0.
   -5000001    1    1    2    0    0  0.78425882259E+02 -0.72524425965E+02  0.26581841106E+03  0.29664598266E+03  0.77000000000E+02 0.  0.
<mgrwt>
<rscale>  0 0.27899351E+03</rscale>
<asrwt>0</asrwt>
<pdfrwt beam="1">  1        2 0.12916587E+00 0.27899351E+03</pdfrwt>
<pdfrwt beam="2">  1       -2 0.35657733E-02 0.27899351E+03</pdfrwt>
<totfact> 0.10863872E+04</totfact>
</mgrwt>
</event>
<event>
 4    1  0.1171488E-003  0.3949553E+03  0.7818608E-02  0.1045541E+00
          2   -1    0    0  501    0  0.00000000000E+00  0.00000000000E+00  0.94680540604E+03  0.94680540604E+03  0.25500000000E-02 0.  1.
         -2   -1    0    0    0  501 -0.00000000000E+00 -0.00000000000E+00 -0.41188416086E+02  0.41188416165E+02  0.25500000000E-02 0. -1.
    5000001    1    1    2    0    0  0.17430251492E+03  0.11660396409E+02  0.57915657897E+03  0.60981035947E+03  0.77000000000E+02 0.  0.
   -5000001    1    1    2    0    0 -0.17430251492E+03 -0.11660396409E+02  0.32646041098E+03  0.37818346274E+03  0.77000000000E+02 0.  0.
<mgrwt>
<rscale>  0 0.39495526E+03</rscale>
<asrwt>0</asrwt>
<pdfrwt beam="1">  1        2 0.14566237E+00 0.39495526E+03</pdfrwt>
<pdfrwt beam="2">  1       -2 0.63366795E-02 0.39495526E+03</pdfrwt>
<totfact> 0.38733641E+03</totfact>
</mgrwt>
</event>
<event>
 4    1  0.1171488E-003  0.2124785E+03  0.7818608E-02  0.1139618E+00
         -2   -1    0    0    0  501 -0.00000000000E+00  0.00000000000E+00  0.97951852348E+01  0.97951855668E+01  0.25500000000E-02 0. -1.
          2   -1    0    0  501    0  0.00000000000E+00 -0.00000000000E+00 -0.11522786692E+04  0.11522786692E+04  0.25500000000E-02 0.  1.
    5000001    1    1    2    0    0 -0.56432781449E+02 -0.30035983275E+02 -0.37626388951E+03  0.38934603332E+03  0.77000000000E+02 0.  0.
   -5000001    1    1    2    0    0  0.56432781449E+02  0.30035983275E+02 -0.76621959443E+03  0.77272782142E+03  0.77000000000E+02 0.  0.
<mgrwt>
<rscale>  0 0.21247855E+03</rscale>
<asrwt>0</asrwt>
<pdfrwt beam="1">  1        2 0.17727353E+00 0.21247855E+03</pdfrwt>
<pdfrwt beam="2">  1       -2 0.15069525E-02 0.21247855E+03</pdfrwt>
<totfact> 0.24548202E+04</totfact>
</mgrwt>
</event>
<event>
 4    1  0.1171488E-003  0.1682179E+03  0.7818608E-02  0.1179719E+00
          2   -1    0    0  501    0  0.00000000000E+00  0.00000000000E+00  0.23832568561E+04  0.23832568561E+04  0.25500000000E-02 0.  1.
         -2   -1    0    0    0  501 -0.00000000000E+00 -0.00000000000E+00 -0.29683406044E+01  0.29683416997E+01  0.25500000000E-02 0. -1.
    5000001    1    1    2    0    0  0.20224354978E+02  0.26827034010E+02  0.12479485473E+04  0.12507730773E+04  0.77000000000E+02 0.  0.
   -5000001    1    1    2    0    0 -0.20224354978E+02 -0.26827034010E+02  0.11323399682E+04  0.11354521204E+04  0.77000000000E+02 0.  0.
<mgrwt>
<rscale>  0 0.16821795E+03</rscale>
<asrwt>0</asrwt>
<pdfrwt beam="1">  1        2 0.36665545E+00 0.16821795E+03</pdfrwt>
<pdfrwt beam="2">  1       -2 0.45666718E-03 0.16821795E+03</pdfrwt>
<totfact> 0.30138512E+04</totfact>
</mgrwt>
</event>
<event>
 4    1  0.1171488E-003  0.2210427E+03  0.7818608E-02  0.1133108E+00
          2   -1    0    0  501    0  0.00000000000E+00  0.00000000000E+00  0.63457843442E+03  0.63457843443E+03  0.25500000000E-02 0.  1.
         -2   -1    0    0    0  501 -0.00000000000E+00 -0.00000000000E+00 -0.19248942872E+02  0.19248943041E+02  0.25500000000E-02 0. -1.
    5000001    1    1    2    0    0 -0.40743714098E+02  0.51242628181E+02  0.17537882834E+03  0.20241687334E+03  0.77000000000E+02 0.  0.
   -5000001    1    1    2    0    0  0.40743714098E+02 -0.51242628181E+02  0.43995066321E+03  0.45141050413E+03  0.77000000000E+02 0.  0.
<mgrwt>
<rscale>  0 0.22104266E+03</rscale>
<asrwt>0</asrwt>
<pdfrwt beam="1">  1        2 0.97627451E-01 0.22104266E+03</pdfrwt>
<pdfrwt beam="2">  1       -2 0.29613758E-02 0.22104266E+03</pdfrwt>
<totfact> 0.19996336E+04</totfact>
</mgrwt>
</event>
<event>
 4    1  0.1171488E-003  0.1997465E+03  0.7818608E-02  0.1149953E+00
          2   -1    0    0  501    0  0.00000000000E+00  0.00000000000E+00  0.17429065475E+03  0.17429065477E+03  0.25500000000E-02 0.  1.
         -2   -1    0    0    0  501 -0.00000000000E+00 -0.00000000000E+00 -0.57230085555E+02  0.57230085611E+02  0.25500000000E-02 0. -1.
    5000001    1    1    2    0    0  0.18442629088E+02 -0.60413619266E+02  0.49877271147E+02  0.11138526894E+03  0.77000000000E+02 0.  0.
   -5000001    1    1    2    0    0 -0.18442629088E+02  0.60413619266E+02  0.67183298046E+02  0.12013547143E+03  0.77000000000E+02 0.  0.
<mgrwt>
<rscale>  0 0.19974653E+03</rscale>
<asrwt>0</asrwt>
<pdfrwt beam="1">  1        2 0.26813947E-01 0.19974653E+03</pdfrwt>
<pdfrwt beam="2">  1       -2 0.88046287E-02 0.19974653E+03</pdfrwt>
<totfact> 0.15599074E+04</totfact>
</mgrwt>
</event>
<event>
 4    1  0.1171488E-003  0.7486945E+03  0.7818608E-02  0.9637401E-01
         -2   -1    0    0    0  501 -0.00000000000E+00  0.00000000000E+00  0.21169594680E+03  0.21169594681E+03  0.25500000000E-02 0. -1.
          2   -1    0    0  501    0  0.00000000000E+00 -0.00000000000E+00 -0.66196762256E+03  0.66196762256E+03  0.25500000000E-02 0.  1.
    5000001    1    1    2    0    0 -0.21940287727E+03 -0.11136768991E+03 -0.54185514438E+03  0.60006364862E+03  0.77000000000E+02 0.  0.
   -5000001    1    1    2    0    0  0.21940287727E+03  0.11136768991E+03  0.91583468621E+02  0.27359992075E+03  0.77000000000E+02 0.  0.
<mgrwt>
<rscale>  0 0.74869450E+03</rscale>
<asrwt>0</asrwt>
<pdfrwt beam="1">  1        2 0.10184117E+00 0.74869450E+03</pdfrwt>
<pdfrwt beam="2">  1       -2 0.32568607E-01 0.74869450E+03</pdfrwt>
<totfact> 0.38848489E+02</totfact>
</mgrwt>
</event>
<event>
 4    1  0.1171488E-003  0.3409479E+03  0.7818608E-02  0.1066393E+00
          2   -1    0    0  501    0  0.00000000000E+00  0.00000000000E+00  0.39927767441E+03  0.39927767442E+03  0.25500000000E-02 0.  1.
         -2   -1    0    0    0  501 -0.00000000000E+00 -0.00000000000E+00 -0.72784837570E+02  0.72784837614E+02  0.25500000000E-02 0. -1.
    5000001    1    1    2    0    0  0.11318236502E+03  0.35186347135E+02  0.29520903511E+03  0.32730062815E+03  0.77000000000E+02 0.  0.
   -5000001    1    1    2    0    0 -0.11318236502E+03 -0.35186347135E+02  0.31283801731E+02  0.14476188389E+03  0.77000000000E+02 0.  0.
<mgrwt>
<rscale>  0 0.34094786E+03</rscale>
<asrwt>0</asrwt>
<pdfrwt beam="1">  1        2 0.61427336E-01 0.34094786E+03</pdfrwt>
<pdfrwt beam="2">  1       -2 0.11197667E-01 0.34094786E+03</pdfrwt>
<totfact> 0.44368504E+03</totfact>
</mgrwt>
</event>
<event>
 4    1  0.1171488E-003  0.1248677E+04  0.7818608E-02  0.9071285E-01
         -2   -1    0    0    0  501 -0.00000000000E+00  0.00000000000E+00  0.16274671635E+03  0.16274671637E+03  0.25500000000E-02 0. -1.
          2   -1    0    0  501    0  0.00000000000E+00 -0.00000000000E+00 -0.23951229583E+04  0.23951229583E+04  0.25500000000E-02 0.  1.
    5000001    1    1    2    0    0 -0.43856577592E+03  0.43589927170E+03 -0.11960856298E+04  0.13486652471E+04  0.77000000000E+02 0.  0.
   -5000001    1    1    2    0    0  0.43856577592E+03 -0.43589927170E+03 -0.10362906122E+04  0.12092044276E+04  0.77000000000E+02 0.  0.
<mgrwt>
<rscale>  0 0.12486767E+04</rscale>
<asrwt>0</asrwt>
<pdfrwt beam="1">  1        2 0.36848043E+00 0.12486767E+04</pdfrwt>
<pdfrwt beam="2">  1       -2 0.25037958E-01 0.12486767E+04</pdfrwt>
<totfact> 0.56548882E+01</totfact>
</mgrwt>
</event>
<event>
 4    1  0.1171488E-003  0.4531099E+03  0.7818608E-02  0.1026799E+00
          2   -1    0    0  501    0  0.00000000000E+00  0.00000000000E+00  0.81450170335E+03  0.81450170335E+03  0.25500000000E-02 0.  1.
         -2   -1    0    0    0  501 -0.00000000000E+00 -0.00000000000E+00 -0.63016633099E+02  0.63016633151E+02  0.25500000000E-02 0. -1.
    5000001    1    1    2    0    0 -0.19390746213E+03 -0.49405824069E+02  0.51749092071E+03  0.56014899120E+03  0.77000000000E+02 0.  0.
   -5000001    1    1    2    0    0  0.19390746213E+03  0.49405824069E+02  0.23399414953E+03  0.31736934530E+03  0.77000000000E+02 0.  0.
<mgrwt>
<rscale>  0 0.45310994E+03</rscale>
<asrwt>0</asrwt>
<pdfrwt beam="1">  1        2 0.12530795E+00 0.45310994E+03</pdfrwt>
<pdfrwt beam="2">  1       -2 0.96948672E-02 0.45310994E+03</pdfrwt>
<totfact> 0.24264677E+03</totfact>
</mgrwt>
</event>
<event>
 4    1  0.1171488E-003  0.2685387E+03  0.7818608E-02  0.1102119E+00
          2   -1    0    0  501    0  0.00000000000E+00  0.00000000000E+00  0.76956033727E+03  0.76956033727E+03  0.25500000000E-02 0.  1.
         -2   -1    0    0    0  501 -0.00000000000E+00 -0.00000000000E+00 -0.23426707564E+02  0.23426707703E+02  0.25500000000E-02 0. -1.
    5000001    1    1    2    0    0 -0.22552850066E+02 -0.96253298458E+02  0.51548257706E+03  0.53049468966E+03  0.77000000000E+02 0.  0.
   -5000001    1    1    2    0    0  0.22552850066E+02  0.96253298458E+02  0.23065105264E+03  0.26249235531E+03  0.77000000000E+02 0.  0.
<mgrwt>
<rscale>  0 0.26853875E+03</rscale>
<asrwt>0</asrwt>
<pdfrwt beam="1">  1        2 0.11839390E+00 0.26853875E+03</pdfrwt>
<pdfrwt beam="2">  1       -2 0.36041089E-02 0.26853875E+03</pdfrwt>
<totfact> 0.11931021E+04</totfact>
</mgrwt>
</event>
<event>
 4    1  0.1171488E-003  0.1742907E+03  0.7818608E-02  0.1173446E+00
         -2   -1    0    0    0  501 -0.00000000000E+00  0.00000000000E+00  0.65900219487E+01  0.65900224421E+01  0.25500000000E-02 0. -1.
          2   -1    0    0  501    0  0.00000000000E+00 -0.00000000000E+00 -0.11523951899E+04  0.11523951899E+04  0.25500000000E-02 0.  1.
    5000001    1    1    2    0    0  0.14044557340E+02 -0.38301479344E+02 -0.57973911012E+03  0.58625138696E+03  0.77000000000E+02 0.  0.
   -5000001    1    1    2    0    0 -0.14044557340E+02  0.38301479344E+02 -0.56606605787E+03  0.57273382542E+03  0.77000000000E+02 0.  0.
<mgrwt>
<rscale>  0 0.17429068E+03</rscale>
<asrwt>0</asrwt>
<pdfrwt beam="1">  1        2 0.17729141E+00 0.17429068E+03</pdfrwt>
<pdfrwt beam="2">  1       -2 0.10138505E-02 0.17429068E+03</pdfrwt>
<totfact> 0.42967058E+04</totfact>
</mgrwt>
</event>
<event>
 4    1  0.1171488E-003  0.1931484E+03  0.7818608E-02  0.1155652E+00
          2   -1    0    0  501    0  0.00000000000E+00  0.00000000000E+00  0.20994838257E+04  0.20994838257E+04  0.25500000000E-02 0.  1.
         -2   -1    0    0    0  501 -0.00000000000E+00 -0.00000000000E+00 -0.44423182154E+01  0.44423189472E+01  0.25500000000E-02 0. -1.
    5000001    1    1    2    0    0  0.31022110035E+02  0.41993339989E+02  0.76519677053E+03  0.77083131069E+03  0.77000000000E+02 0.  0.
   -5000001    1    1    2    0    0 -0.31022110035E+02 -0.41993339989E+02  0.13298447369E+04  0.13330948339E+04  0.77000000000E+02 0.  0.
<mgrwt>
<rscale>  0 0.19314840E+03</rscale>
<asrwt>0</asrwt>
<pdfrwt beam="1">  1        2 0.32299805E+00 0.19314840E+03</pdfrwt>
<pdfrwt beam="2">  1       -2 0.68343248E-03 0.19314840E+03</pdfrwt>
<totfact> 0.24043435E+04</totfact>
</mgrwt>
</event>
<event>
 4    1  0.1171488E-003  0.5428870E+03  0.7818608E-02  0.1003154E+00
          2   -1    0    0  501    0  0.00000000000E+00  0.00000000000E+00  0.12043245738E+04  0.12043245738E+04  0.25500000000E-02 0.  1.
         -2   -1    0    0    0  501 -0.00000000000E+00 -0.00000000000E+00 -0.61180819767E+02  0.61180819820E+02  0.25500000000E-02 0. -1.
    5000001    1    1    2    0    0 -0.11422679863E+03  0.14292137267E+03  0.10031546726E+04  0.10226057782E+04  0.77000000000E+02 0.  0.
   -5000001    1    1    2    0    0  0.11422679863E+03 -0.14292137267E+03  0.13998908143E+03  0.24289961550E+03  0.77000000000E+02 0.  0.
<mgrwt>
<rscale>  0 0.54288697E+03</rscale>
<asrwt>0</asrwt>
<pdfrwt beam="1">  1        2 0.18528069E+00 0.54288697E+03</pdfrwt>
<pdfrwt beam="2">  1       -2 0.94124345E-02 0.54288697E+03</pdfrwt>
<totfact> 0.14429657E+03</totfact>
</mgrwt>
</event>
<event>
 4    1  0.1171488E-003  0.3133115E+03  0.7818608E-02  0.1078769E+00
          2   -1    0    0  501    0  0.00000000000E+00  0.00000000000E+00  0.13537837677E+04  0.13537837677E+04  0.25500000000E-02 0.  1.
         -2   -1    0    0    0  501 -0.00000000000E+00 -0.00000000000E+00 -0.18127728072E+02  0.18127728251E+02  0.25500000000E-02 0. -1.
    5000001    1    1    2    0    0  0.93783991815E+02 -0.58758607918E+02  0.31851458620E+03  0.34587360805E+03  0.77000000000E+02 0.  0.
   -5000001    1    1    2    0    0 -0.93783991815E+02  0.58758607918E+02  0.10171414535E+04  0.10260378879E+04  0.77000000000E+02 0.  0.
<mgrwt>
<rscale>  0 0.31331150E+03</rscale>
<asrwt>0</asrwt>
<pdfrwt beam="1">  1        2 0.20827447E+00 0.31331150E+03</pdfrwt>
<pdfrwt beam="2">  1       -2 0.27888807E-02 0.31331150E+03</pdfrwt>
<totfact> 0.77564682E+03</totfact>
</mgrwt>
</event>
<event>
 4    1  0.1171488E-003  0.2222310E+03  0.7818608E-02  0.1132231E+00
         -2   -1    0    0    0  501 -0.00000000000E+00  0.00000000000E+00  0.10908303747E+02  0.10908304045E+02  0.25500000000E-02 0. -1.
          2   -1    0    0  501    0  0.00000000000E+00 -0.00000000000E+00 -0.11318581557E+04  0.11318581557E+04  0.25500000000E-02 0.  1.
    5000001    1    1    2    0    0 -0.29581783176E+02 -0.36527297968E+02 -0.89406078312E+03  0.89860058386E+03  0.77000000000E+02 0.  0.
   -5000001    1    1    2    0    0  0.29581783176E+02  0.36527297968E+02 -0.22688906880E+03  0.24416587585E+03  0.77000000000E+02 0.  0.
<mgrwt>
<rscale>  0 0.22223099E+03</rscale>
<asrwt>0</asrwt>
<pdfrwt beam="1">  1        2 0.17413193E+00 0.22223099E+03</pdfrwt>
<pdfrwt beam="2">  1       -2 0.16782015E-02 0.22223099E+03</pdfrwt>
<totfact> 0.21611697E+04</totfact>
</mgrwt>
</event>
<event>
 4    1  0.1171488E-003  0.2897254E+03  0.7818608E-02  0.1090493E+00
         -2   -1    0    0    0  501 -0.00000000000E+00  0.00000000000E+00  0.35577553038E+02  0.35577553129E+02  0.25500000000E-02 0. -1.
          2   -1    0    0  501    0  0.00000000000E+00 -0.00000000000E+00 -0.58984383197E+03  0.58984383198E+03  0.25500000000E-02 0.  1.
    5000001    1    1    2    0    0 -0.78573912939E+02 -0.25614442772E+02 -0.47292150500E+03  0.48622392924E+03  0.77000000000E+02 0.  0.
   -5000001    1    1    2    0    0  0.78573912939E+02  0.25614442772E+02 -0.81344773929E+02  0.13919745586E+03  0.77000000000E+02 0.  0.
<mgrwt>
<rscale>  0 0.28972539E+03</rscale>
<asrwt>0</asrwt>
<pdfrwt beam="1">  1        2 0.90745198E-01 0.28972539E+03</pdfrwt>
<pdfrwt beam="2">  1       -2 0.54734701E-02 0.28972539E+03</pdfrwt>
<totfact> 0.87550849E+03</totfact>
</mgrwt>
</event>
<event>
 4    1  0.1171488E-003  0.1889490E+03  0.7818608E-02  0.1159413E+00
          2   -1    0    0  501    0  0.00000000000E+00  0.00000000000E+00  0.86423734036E+03  0.86423734037E+03  0.25500000000E-02 0.  1.
         -2   -1    0    0    0  501 -0.00000000000E+00 -0.00000000000E+00 -0.10327521288E+02  0.10327521602E+02  0.25500000000E-02 0. -1.
    5000001    1    1    2    0    0 -0.44570141276E+02  0.31190363422E+02  0.45514495771E+03  0.46480670046E+03  0.77000000000E+02 0.  0.
   -5000001    1    1    2    0    0  0.44570141276E+02 -0.31190363422E+02  0.39876486136E+03  0.40975816151E+03  0.77000000000E+02 0.  0.
<mgrwt>
<rscale>  0 0.18894898E+03</rscale>
<asrwt>0</asrwt>
<pdfrwt beam="1">  1        2 0.13295961E+00 0.18894898E+03</pdfrwt>
<pdfrwt beam="2">  1       -2 0.15888492E-02 0.18894898E+03</pdfrwt>
<totfact> 0.33729318E+04</totfact>
</mgrwt>
</event>
<event>
 4    1  0.1171488E-003  0.2171529E+03  0.7818608E-02  0.1136024E+00
          2   -1    0    0  501    0  0.00000000000E+00  0.00000000000E+00  0.14572896862E+04  0.14572896862E+04  0.25500000000E-02 0.  1.
         -2   -1    0    0    0  501 -0.00000000000E+00 -0.00000000000E+00 -0.80895718105E+01  0.80895722124E+01  0.25500000000E-02 0. -1.
    5000001    1    1    2    0    0  0.50466918828E+02 -0.43171021822E+02  0.98149107202E+03  0.98674432933E+03  0.77000000000E+02 0.  0.
   -5000001    1    1    2    0    0 -0.50466918828E+02  0.43171021822E+02  0.46770904241E+03  0.47863492912E+03  0.77000000000E+02 0.  0.
<mgrwt>
<rscale>  0 0.21715294E+03</rscale>
<asrwt>0</asrwt>
<pdfrwt beam="1">  1        2 0.22419836E+00 0.21715294E+03</pdfrwt>
<pdfrwt beam="2">  1       -2 0.12445499E-02 0.21715294E+03</pdfrwt>
<totfact> 0.22052165E+04</totfact>
</mgrwt>
</event>
<event>
 4    1  0.1171488E-003  0.2268098E+03  0.7818608E-02  0.1128905E+00
          2   -1    0    0  501    0  0.00000000000E+00  0.00000000000E+00  0.98815357342E+03  0.98815357342E+03  0.25500000000E-02 0.  1.
         -2   -1    0    0    0  501 -0.00000000000E+00 -0.00000000000E+00 -0.13014855211E+02  0.13014855461E+02  0.25500000000E-02 0. -1.
    5000001    1    1    2    0    0 -0.39507736167E+01 -0.79174604701E+02  0.37525168692E+03  0.39118672674E+03  0.77000000000E+02 0.  0.
   -5000001    1    1    2    0    0  0.39507736167E+01  0.79174604701E+02  0.59988703129E+03  0.60998170214E+03  0.77000000000E+02 0.  0.
<mgrwt>
<rscale>  0 0.22680984E+03</rscale>
<asrwt>0</asrwt>
<pdfrwt beam="1">  1        2 0.15202367E+00 0.22680984E+03</pdfrwt>
<pdfrwt beam="2">  1       -2 0.20022849E-02 0.22680984E+03</pdfrwt>
<totfact> 0.20335634E+04</totfact>
</mgrwt>
</event>
<event>
 4    1  0.1171488E-003  0.1923572E+03  0.7818608E-02  0.1156352E+00
         -2   -1    0    0    0  501 -0.00000000000E+00  0.00000000000E+00  0.23627280583E+02  0.23627280721E+02  0.25500000000E-02 0. -1.
          2   -1    0    0  501    0  0.00000000000E+00 -0.00000000000E+00 -0.39151028472E+03  0.39151028473E+03  0.25500000000E-02 0.  1.
    5000001    1    1    2    0    0  0.12409455751E+02 -0.48617703919E+02 -0.24512248089E+03  0.26178561145E+03  0.77000000000E+02 0.  0.
   -5000001    1    1    2    0    0 -0.12409455751E+02  0.48617703919E+02 -0.12276052325E+03  0.15335195399E+03  0.77000000000E+02 0.  0.
<mgrwt>
<rscale>  0 0.19235720E+03</rscale>
<asrwt>0</asrwt>
<pdfrwt beam="1">  1        2 0.60232347E-01 0.19235720E+03</pdfrwt>
<pdfrwt beam="2">  1       -2 0.36349665E-02 0.19235720E+03</pdfrwt>
<totfact> 0.25023094E+04</totfact>
</mgrwt>
</event>
<event>
 4    1  0.1171488E-003  0.1991055E+03  0.7818608E-02  0.1150496E+00
          2   -1    0    0  501    0  0.00000000000E+00  0.00000000000E+00  0.25226192089E+04  0.25226192089E+04  0.25500000000E-02 0.  1.
         -2   -1    0    0    0  501 -0.00000000000E+00 -0.00000000000E+00 -0.39287545561E+01  0.39287553837E+01  0.25500000000E-02 0. -1.
    5000001    1    1    2    0    0 -0.28158796657E+02 -0.47599860335E+02  0.16448820251E+04  0.16476117689E+04  0.77000000000E+02 0.  0.
   -5000001    1    1    2    0    0  0.28158796657E+02  0.47599860335E+02  0.87380842919E+03  0.87893619532E+03  0.77000000000E+02 0.  0.
<mgrwt>
<rscale>  0 0.19910553E+03</rscale>
<asrwt>0</asrwt>
<pdfrwt beam="1">  1        2 0.38809663E+00 0.19910553E+03</pdfrwt>
<pdfrwt beam="2">  1       -2 0.60442171E-03 0.19910553E+03</pdfrwt>
<totfact> 0.17105219E+04</totfact>
</mgrwt>
</event>
<event>
 4    1  0.1171488E-003  0.1895202E+03  0.7818608E-02  0.1158895E+00
          2   -1    0    0  501    0  0.00000000000E+00  0.00000000000E+00  0.86760784011E+03  0.86760784012E+03  0.25500000000E-02 0.  1.
         -2   -1    0    0    0  501 -0.00000000000E+00 -0.00000000000E+00 -0.10349699795E+02  0.10349700109E+02  0.25500000000E-02 0. -1.
    5000001    1    1    2    0    0 -0.33960562154E+02  0.27809708119E+02  0.27333360265E+03  0.28734466757E+03  0.77000000000E+02 0.  0.
   -5000001    1    1    2    0    0  0.33960562154E+02 -0.27809708119E+02  0.58392453767E+03  0.59061287265E+03  0.77000000000E+02 0.  0.
<mgrwt>
<rscale>  0 0.18952025E+03</rscale>
<asrwt>0</asrwt>
<pdfrwt beam="1">  1        2 0.13347815E+00 0.18952025E+03</pdfrwt>
<pdfrwt beam="2">  1       -2 0.15922612E-02 0.18952025E+03</pdfrwt>
<totfact> 0.33462248E+04</totfact>
</mgrwt>
</event>
<event>
 4    1  0.1171488E-003  0.3282612E+03  0.7818608E-02  0.1071909E+00
          2   -1    0    0  501    0  0.00000000000E+00  0.00000000000E+00  0.10198559535E+04  0.10198559535E+04  0.25500000000E-02 0.  1.
         -2   -1    0    0    0  501 -0.00000000000E+00 -0.00000000000E+00 -0.26414369778E+02  0.26414369901E+02  0.25500000000E-02 0. -1.
    5000001    1    1    2    0    0 -0.11949017413E+03 -0.44147934331E+02  0.71715068729E+03  0.73243501425E+03  0.77000000000E+02 0.  0.
   -5000001    1    1    2    0    0  0.11949017413E+03  0.44147934331E+02  0.27629089640E+03  0.31383530912E+03  0.77000000000E+02 0.  0.
<mgrwt>
<rscale>  0 0.32826119E+03</rscale>
<asrwt>0</asrwt>
<pdfrwt beam="1">  1        2 0.15690090E+00 0.32826119E+03</pdfrwt>
<pdfrwt beam="2">  1       -2 0.40637496E-02 0.32826119E+03</pdfrwt>
<totfact> 0.68721922E+03</totfact>
</mgrwt>
</event>
<event>
 4    1  0.1171488E-003  0.1826072E+03  0.7818608E-02  0.1165303E+00
          2   -1    0    0  501    0  0.00000000000E+00  0.00000000000E+00  0.35439953699E+03  0.35439953700E+03  0.25500000000E-02 0.  1.
         -2   -1    0    0    0  501 -0.00000000000E+00 -0.00000000000E+00 -0.23522457987E+02  0.23522458125E+02  0.25500000000E-02 0. -1.
    5000001    1    1    2    0    0 -0.71399644982E+01  0.42959523729E+02  0.21221531698E+03  0.22991485496E+03  0.77000000000E+02 0.  0.
   -5000001    1    1    2    0    0  0.71399644982E+01 -0.42959523729E+02  0.11866176202E+03  0.14800714016E+03  0.77000000000E+02 0.  0.
<mgrwt>
<rscale>  0 0.18260721E+03</rscale>
<asrwt>0</asrwt>
<pdfrwt beam="1">  1        2 0.54523003E-01 0.18260721E+03</pdfrwt>
<pdfrwt beam="2">  1       -2 0.36188399E-02 0.18260721E+03</pdfrwt>
<totfact> 0.27910943E+04</totfact>
</mgrwt>
</event>
<event>
 4    1  0.1171488E-003  0.2253831E+03  0.7818608E-02  0.1129932E+00
          2   -1    0    0  501    0  0.00000000000E+00  0.00000000000E+00  0.25055612103E+04  0.25055612103E+04  0.25500000000E-02 0.  1.
         -2   -1    0    0    0  501 -0.00000000000E+00 -0.00000000000E+00 -0.50684769779E+01  0.50684776194E+01  0.25500000000E-02 0. -1.
    5000001    1    1    2    0    0 -0.36253413079E+02  0.67549610967E+02  0.91734439831E+03  0.92375700539E+03  0.77000000000E+02 0.  0.
   -5000001    1    1    2    0    0  0.36253413079E+02 -0.67549610967E+02  0.15831483350E+04  0.15868726826E+04  0.77000000000E+02 0.  0.
<mgrwt>
<rscale>  0 0.22538305E+03</rscale>
<asrwt>0</asrwt>
<pdfrwt beam="1">  1        2 0.38547212E+00 0.22538305E+03</pdfrwt>
<pdfrwt beam="2">  1       -2 0.77976338E-03 0.22538305E+03</pdfrwt>
<totfact> 0.12149361E+04</totfact>
</mgrwt>
</event>
<event>
 4    1  0.1171488E-003  0.1996945E+03  0.7818608E-02  0.1149997E+00
         -2   -1    0    0    0  501 -0.00000000000E+00  0.00000000000E+00  0.77950603459E+01  0.77950607630E+01  0.25500000000E-02 0. -1.
          2   -1    0    0  501    0  0.00000000000E+00 -0.00000000000E+00 -0.12789474621E+04  0.12789474621E+04  0.25500000000E-02 0.  1.
    5000001    1    1    2    0    0  0.45075732394E+02 -0.16250593099E+01 -0.92417342796E+03  0.92847185601E+03  0.77000000000E+02 0.  0.
   -5000001    1    1    2    0    0 -0.45075732394E+02  0.16250593099E+01 -0.34697897379E+03  0.35827066684E+03  0.77000000000E+02 0.  0.
<mgrwt>
<rscale>  0 0.19969450E+03</rscale>
<asrwt>0</asrwt>
<pdfrwt beam="1">  1        2 0.19676098E+00 0.19969450E+03</pdfrwt>
<pdfrwt beam="2">  1       -2 0.11992411E-02 0.19969450E+03</pdfrwt>
<totfact> 0.28930595E+04</totfact>
</mgrwt>
</event>
<event>
 4    1  0.1171488E-003  0.2953975E+03  0.7818608E-02  0.1087564E+00
         -2   -1    0    0    0  501 -0.00000000000E+00  0.00000000000E+00  0.86783011975E+01  0.86783015721E+01  0.25500000000E-02 0. -1.
          2   -1    0    0  501    0  0.00000000000E+00 -0.00000000000E+00 -0.25137317157E+04  0.25137317157E+04  0.25500000000E-02 0.  1.
    5000001    1    1    2    0    0  0.86916247827E+02  0.47630122887E+02 -0.58764010285E+03  0.60089346246E+03  0.77000000000E+02 0.  0.
   -5000001    1    1    2    0    0 -0.86916247827E+02 -0.47630122887E+02 -0.19174133117E+04  0.19215165548E+04  0.77000000000E+02 0.  0.
<mgrwt>
<rscale>  0 0.29539750E+03</rscale>
<asrwt>0</asrwt>
<pdfrwt beam="1">  1        2 0.38672738E+00 0.29539750E+03</pdfrwt>
<pdfrwt beam="2">  1       -2 0.13351253E-02 0.29539750E+03</pdfrwt>
<totfact> 0.55120850E+03</totfact>
</mgrwt>
</event>
<event>
 4    1  0.1171488E-003  0.2026179E+03  0.7818608E-02  0.1147549E+00
          2   -1    0    0  501    0  0.00000000000E+00  0.00000000000E+00  0.44522887858E+03  0.44522887859E+03  0.25500000000E-02 0.  1.
         -2   -1    0    0    0  501 -0.00000000000E+00 -0.00000000000E+00 -0.23052197601E+02  0.23052197742E+02  0.25500000000E-02 0. -1.
    5000001    1    1    2    0    0 -0.19579710496E+02 -0.46555714122E+02  0.11347925571E+03  0.14614151039E+03  0.77000000000E+02 0.  0.
   -5000001    1    1    2    0    0  0.19579710496E+02  0.46555714122E+02  0.30869742526E+03  0.32213956594E+03  0.77000000000E+02 0.  0.
<mgrwt>
<rscale>  0 0.20261791E+03</rscale>
<asrwt>0</asrwt>
<pdfrwt beam="1">  1        2 0.68496752E-01 0.20261791E+03</pdfrwt>
<pdfrwt beam="2">  1       -2 0.35464919E-02 0.20261791E+03</pdfrwt>
<totfact> 0.22669720E+04</totfact>
</mgrwt>
</event>
<event>
 4    1  0.1171488E-003  0.2356496E+03  0.7818608E-02  0.1122725E+00
         -2   -1    0    0    0  501 -0.00000000000E+00  0.00000000000E+00  0.27114617070E+02  0.27114617190E+02  0.25500000000E-02 0. -1.
          2   -1    0    0  501    0  0.00000000000E+00 -0.00000000000E+00 -0.51199984603E+03  0.51199984604E+03  0.25500000000E-02 0.  1.
    5000001    1    1    2    0    0  0.64244277181E+02 -0.61979208833E+01 -0.10163835613E+03  0.14291639798E+03  0.77000000000E+02 0.  0.
   -5000001    1    1    2    0    0 -0.64244277181E+02  0.61979208833E+01 -0.38324687283E+03  0.39619806525E+03  0.77000000000E+02 0.  0.
<mgrwt>
<rscale>  0 0.23564957E+03</rscale>
<asrwt>0</asrwt>
<pdfrwt beam="1">  1        2 0.78769200E-01 0.23564957E+03</pdfrwt>
<pdfrwt beam="2">  1       -2 0.41714800E-02 0.23564957E+03</pdfrwt>
<totfact> 0.15385229E+04</totfact>
</mgrwt>
</event>
<event>
 4    1  0.1171488E-003  0.2516147E+03  0.7818608E-02  0.1112289E+00
         -2   -1    0    0    0  501 -0.00000000000E+00  0.00000000000E+00  0.35438502273E+02  0.35438502364E+02  0.25500000000E-02 0. -1.
          2   -1    0    0  501    0  0.00000000000E+00 -0.00000000000E+00 -0.44661829909E+03  0.44661829909E+03  0.25500000000E-02 0.  1.
    5000001    1    1    2    0    0  0.69949728908E+02  0.56631303256E+02 -0.28683687078E+03  0.31032959821E+03  0.77000000000E+02 0.  0.
   -5000001    1    1    2    0    0 -0.69949728908E+02 -0.56631303256E+02 -0.12434292603E+03  0.17172720325E+03  0.77000000000E+02 0.  0.
<mgrwt>
<rscale>  0 0.25161465E+03</rscale>
<asrwt>0</asrwt>
<pdfrwt beam="1">  1        2 0.68710504E-01 0.25161465E+03</pdfrwt>
<pdfrwt beam="2">  1       -2 0.54520776E-02 0.25161465E+03</pdfrwt>
<totfact> 0.11975995E+04</totfact>
</mgrwt>
</event>
<event>
 4    1  0.1171488E-003  0.4044188E+03  0.7818608E-02  0.1042260E+00
         -2   -1    0    0    0  501 -0.00000000000E+00  0.00000000000E+00  0.65030091828E+02  0.65030091878E+02  0.25500000000E-02 0. -1.
          2   -1    0    0  501    0  0.00000000000E+00 -0.00000000000E+00 -0.62876500847E+03  0.62876500848E+03  0.25500000000E-02 0.  1.
    5000001    1    1    2    0    0  0.18159895812E+03 -0.41010271834E+02 -0.25217221337E+03  0.32276903381E+03  0.77000000000E+02 0.  0.
   -5000001    1    1    2    0    0 -0.18159895812E+03  0.41010271834E+02 -0.31156270327E+03  0.37102606655E+03  0.77000000000E+02 0.  0.
<mgrwt>
<rscale>  0 0.40441882E+03</rscale>
<asrwt>0</asrwt>
<pdfrwt beam="1">  1        2 0.96733074E-01 0.40441882E+03</pdfrwt>
<pdfrwt beam="2">  1       -2 0.10004630E-01 0.40441882E+03</pdfrwt>
<totfact> 0.31837668E+03</totfact>
</mgrwt>
</event>
<event>
 4    1  0.1171488E-003  0.2221874E+03  0.7818608E-02  0.1132263E+00
          2   -1    0    0  501    0  0.00000000000E+00  0.00000000000E+00  0.64322388811E+03  0.64322388812E+03  0.25500000000E-02 0.  1.
         -2   -1    0    0    0  501 -0.00000000000E+00 -0.00000000000E+00 -0.19187420630E+02  0.19187420799E+02  0.25500000000E-02 0. -1.
    5000001    1    1    2    0    0  0.53316488051E+02 -0.39108587514E+02  0.17734056646E+03  0.20433013979E+03  0.77000000000E+02 0.  0.
   -5000001    1    1    2    0    0 -0.53316488051E+02  0.39108587514E+02  0.44669590102E+03  0.45808116912E+03  0.77000000000E+02 0.  0.
<mgrwt>
<rscale>  0 0.22218737E+03</rscale>
<asrwt>0</asrwt>
<pdfrwt beam="1">  1        2 0.98957523E-01 0.22218737E+03</pdfrwt>
<pdfrwt beam="2">  1       -2 0.29519108E-02 0.22218737E+03</pdfrwt>
<totfact> 0.19781017E+04</totfact>
</mgrwt>
</event>
<event>
 4    1  0.1171488E-003  0.2589454E+03  0.7818608E-02  0.1107779E+00
         -2   -1    0    0    0  501 -0.00000000000E+00  0.00000000000E+00  0.71019684861E+01  0.71019689439E+01  0.25500000000E-02 0. -1.
          2   -1    0    0  501    0  0.00000000000E+00 -0.00000000000E+00 -0.23603568254E+04  0.23603568254E+04  0.25500000000E-02 0.  1.
    5000001    1    1    2    0    0 -0.10224034864E+03 -0.38871446477E+01 -0.13515330712E+04  0.13575856663E+04  0.77000000000E+02 0.  0.
   -5000001    1    1    2    0    0  0.10224034864E+03  0.38871446477E+01 -0.10017217857E+04  0.10098731280E+04  0.77000000000E+02 0.  0.
<mgrwt>
<rscale>  0 0.25894540E+03</rscale>
<asrwt>0</asrwt>
<pdfrwt beam="1">  1        2 0.36313119E+00 0.25894540E+03</pdfrwt>
<pdfrwt beam="2">  1       -2 0.10926125E-02 0.25894540E+03</pdfrwt>
<totfact> 0.89498019E+03</totfact>
</mgrwt>
</event>
<event>
 4    1  0.1171488E-003  0.2177952E+03  0.7818608E-02  0.1135538E+00
          2   -1    0    0  501    0  0.00000000000E+00  0.00000000000E+00  0.82626180788E+03  0.82626180788E+03  0.25500000000E-02 0.  1.
         -2   -1    0    0    0  501 -0.00000000000E+00 -0.00000000000E+00 -0.14352217937E+02  0.14352218163E+02  0.25500000000E-02 0. -1.
    5000001    1    1    2    0    0  0.60160020293E+02 -0.47572867327E+02  0.43249503698E+03  0.44594098573E+03  0.77000000000E+02 0.  0.
   -5000001    1    1    2    0    0 -0.60160020293E+02  0.47572867327E+02  0.37941455296E+03  0.39467304031E+03  0.77000000000E+02 0.  0.
<mgrwt>
<rscale>  0 0.21779522E+03</rscale>
<asrwt>0</asrwt>
<pdfrwt beam="1">  1        2 0.12711722E+00 0.21779522E+03</pdfrwt>
<pdfrwt beam="2">  1       -2 0.22080332E-02 0.21779522E+03</pdfrwt>
<totfact> 0.22314075E+04</totfact>
</mgrwt>
</event>
<event>
 4    1  0.1171488E-003  0.2037143E+03  0.7818608E-02  0.1146643E+00
         -2   -1    0    0    0  501 -0.00000000000E+00  0.00000000000E+00  0.19049128935E+03  0.19049128937E+03  0.25500000000E-02 0. -1.
          2   -1    0    0  501    0  0.00000000000E+00 -0.00000000000E+00 -0.54463817505E+02  0.54463817564E+02  0.25500000000E-02 0.  1.
    5000001    1    1    2    0    0 -0.53546037600E+02  0.30288330107E+02  0.37091470477E+02  0.10530592702E+03  0.77000000000E+02 0.  0.
   -5000001    1    1    2    0    0  0.53546037600E+02 -0.30288330107E+02  0.98936001371E+02  0.13964917991E+03  0.77000000000E+02 0.  0.
<mgrwt>
<rscale>  0 0.20371434E+03</rscale>
<asrwt>0</asrwt>
<pdfrwt beam="1">  1        2 0.83790488E-02 0.20371434E+03</pdfrwt>
<pdfrwt beam="2">  1       -2 0.29306352E-01 0.20371434E+03</pdfrwt>
<totfact> 0.83124055E+03</totfact>
</mgrwt>
</event>
<event>
 4    1  0.1171488E-003  0.2169648E+03  0.7818608E-02  0.1136166E+00
          2   -1    0    0  501    0  0.00000000000E+00  0.00000000000E+00  0.31950054209E+03  0.31950054210E+03  0.25500000000E-02 0.  1.
         -2   -1    0    0    0  501 -0.00000000000E+00 -0.00000000000E+00 -0.36833826806E+02  0.36833826895E+02  0.25500000000E-02 0. -1.
    5000001    1    1    2    0    0 -0.56601847386E+02  0.29014060184E+02  0.71773178596E+02  0.12298769850E+03  0.77000000000E+02 0.  0.
   -5000001    1    1    2    0    0  0.56601847386E+02 -0.29014060184E+02  0.21089353669E+03  0.23334667050E+03  0.77000000000E+02 0.  0.
<mgrwt>
<rscale>  0 0.21696477E+03</rscale>
<asrwt>0</asrwt>
<pdfrwt beam="1">  1        2 0.49153928E-01 0.21696477E+03</pdfrwt>
<pdfrwt beam="2">  1       -2 0.56667427E-02 0.21696477E+03</pdfrwt>
<totfact> 0.16084928E+04</totfact>
</mgrwt>
</event>
<event>
 4    1  0.1171488E-003  0.2058832E+03  0.7818608E-02  0.1144868E+00
          2   -1    0    0  501    0  0.00000000000E+00  0.00000000000E+00  0.10846153824E+04  0.10846153824E+04  0.25500000000E-02 0.  1.
         -2   -1    0    0    0  501 -0.00000000000E+00 -0.00000000000E+00 -0.97702562363E+01  0.97702565691E+01  0.25500000000E-02 0. -1.
    5000001    1    1    2    0    0 -0.56638199365E+02 -0.35258080420E+02  0.61571717651E+03  0.62408946419E+03  0.77000000000E+02 0.  0.
   -5000001    1    1    2    0    0  0.56638199365E+02  0.35258080420E+02  0.45912794965E+03  0.47029617477E+03  0.77000000000E+02 0.  0.
<mgrwt>
<rscale>  0 0.20588317E+03</rscale>
<asrwt>0</asrwt>
<pdfrwt beam="1">  1        2 0.16686376E+00 0.20588317E+03</pdfrwt>
<pdfrwt beam="2">  1       -2 0.15031177E-02 0.20588317E+03</pdfrwt>
<totfact> 0.26912117E+04</totfact>
</mgrwt>
</event>
<event>
 4    1  0.1171488E-003  0.1815911E+03  0.7818608E-02  0.1166272E+00
         -2   -1    0    0    0  501 -0.00000000000E+00  0.00000000000E+00  0.25478466456E+02  0.25478466583E+02  0.25500000000E-02 0. -1.
          2   -1    0    0  501    0  0.00000000000E+00 -0.00000000000E+00 -0.32356084923E+03  0.32356084924E+03  0.25500000000E-02 0.  1.
    5000001    1    1    2    0    0  0.11254360872E+02  0.32853259557E+02 -0.21304614317E+03  0.22918040147E+03  0.77000000000E+02 0.  0.
   -5000001    1    1    2    0    0 -0.11254360872E+02 -0.32853259557E+02 -0.85036239608E+02  0.11985891435E+03  0.77000000000E+02 0.  0.
<mgrwt>
<rscale>  0 0.18159113E+03</rscale>
<asrwt>0</asrwt>
<pdfrwt beam="1">  1        2 0.49778589E-01 0.18159113E+03</pdfrwt>
<pdfrwt beam="2">  1       -2 0.39197643E-02 0.18159113E+03</pdfrwt>
<totfact> 0.27298021E+04</totfact>
</mgrwt>
</event>
<event>
 4    1  0.1171488E-003  0.2190199E+03  0.7818608E-02  0.1134616E+00
          2   -1    0    0  501    0  0.00000000000E+00  0.00000000000E+00  0.77511140278E+02  0.77511140320E+02  0.25500000000E-02 0.  1.
         -2   -1    0    0    0  501 -0.00000000000E+00 -0.00000000000E+00 -0.15471885092E+03  0.15471885094E+03  0.25500000000E-02 0. -1.
    5000001    1    1    2    0    0 -0.65713539092E+02 -0.38878834139E+02 -0.22397978321E+02  0.11072715293E+03  0.77000000000E+02 0.  0.
   -5000001    1    1    2    0    0  0.65713539092E+02  0.38878834139E+02 -0.54809732316E+02  0.12150283832E+03  0.77000000000E+02 0.  0.
<mgrwt>
<rscale>  0 0.21901995E+03</rscale>
<asrwt>0</asrwt>
<pdfrwt beam="1">  1        2 0.11924791E-01 0.21901995E+03</pdfrwt>
<pdfrwt beam="2">  1       -2 0.23802900E-01 0.21901995E+03</pdfrwt>
<totfact> 0.78019761E+03</totfact>
</mgrwt>
</event>
<event>
 4    1  0.1171488E-003  0.2330215E+03  0.7818608E-02  0.1124531E+00
          2   -1    0    0  501    0  0.00000000000E+00  0.00000000000E+00  0.17411252934E+04  0.17411252934E+04  0.25500000000E-02 0.  1.
         -2   -1    0    0    0  501 -0.00000000000E+00 -0.00000000000E+00 -0.77965436725E+01  0.77965440895E+01  0.25500000000E-02 0. -1.
    5000001    1    1    2    0    0  0.19506341715E+02  0.64460731075E+02  0.44810230768E+03  0.45963067932E+03  0.77000000000E+02 0.  0.
   -5000001    1    1    2    0    0 -0.19506341715E+02 -0.64460731075E+02  0.12852264420E+04  0.12892911581E+04  0.77000000000E+02 0.  0.
<mgrwt>
<rscale>  0 0.23302154E+03</rscale>
<asrwt>0</asrwt>
<pdfrwt beam="1">  1        2 0.26786565E+00 0.23302154E+03</pdfrwt>
<pdfrwt beam="2">  1       -2 0.11994673E-02 0.23302154E+03</pdfrwt>
<totfact> 0.16533127E+04</totfact>
</mgrwt>
</event>
<event>
 4    1  0.1171488E-003  0.2292377E+03  0.7818608E-02  0.1127177E+00
         -2   -1    0    0    0  501 -0.00000000000E+00  0.00000000000E+00  0.22426605177E+02  0.22426605322E+02  0.25500000000E-02 0. -1.
          2   -1    0    0  501    0  0.00000000000E+00 -0.00000000000E+00 -0.58579872605E+03  0.58579872606E+03  0.25500000000E-02 0.  1.
    5000001    1    1    2    0    0 -0.16926581658E+02 -0.44465057524E+02 -0.95110804272E+02  0.13129628935E+03  0.77000000000E+02 0.  0.
   -5000001    1    1    2    0    0  0.16926581658E+02  0.44465057524E+02 -0.46826131660E+03  0.47692904203E+03  0.77000000000E+02 0.  0.
<mgrwt>
<rscale>  0 0.22923767E+03</rscale>
<asrwt>0</asrwt>
<pdfrwt beam="1">  1        2 0.90122869E-01 0.22923767E+03</pdfrwt>
<pdfrwt beam="2">  1       -2 0.34502474E-02 0.22923767E+03</pdfrwt>
<totfact> 0.17520894E+04</totfact>
</mgrwt>
</event>
<event>
 4    1  0.1171488E-003  0.1911649E+03  0.7818608E-02  0.1157415E+00
         -2   -1    0    0    0  501 -0.00000000000E+00  0.00000000000E+00  0.54991130014E+02  0.54991130073E+02  0.25500000000E-02 0. -1.
          2   -1    0    0  501    0  0.00000000000E+00 -0.00000000000E+00 -0.16613603761E+03  0.16613603763E+03  0.25500000000E-02 0.  1.
    5000001    1    1    2    0    0 -0.16085487265E+02 -0.54288089255E+02 -0.54376523342E+02  0.10996247463E+03  0.77000000000E+02 0.  0.
   -5000001    1    1    2    0    0  0.16085487265E+02  0.54288089255E+02 -0.56768384255E+02  0.11116469307E+03  0.77000000000E+02 0.  0.
<mgrwt>
<rscale>  0 0.19116494E+03</rscale>
<asrwt>0</asrwt>
<pdfrwt beam="1">  1        2 0.25559390E-01 0.19116494E+03</pdfrwt>
<pdfrwt beam="2">  1       -2 0.84601739E-02 0.19116494E+03</pdfrwt>
<totfact> 0.17450554E+04</totfact>
</mgrwt>
</event>
<event>
 4    1  0.1171488E-003  0.2006847E+03  0.7818608E-02  0.1149163E+00
          2   -1    0    0  501    0  0.00000000000E+00  0.00000000000E+00  0.73200944312E+03  0.73200944312E+03  0.25500000000E-02 0.  1.
         -2   -1    0    0    0  501 -0.00000000000E+00 -0.00000000000E+00 -0.13754717145E+02  0.13754717382E+02  0.25500000000E-02 0. -1.
    5000001    1    1    2    0    0 -0.16964734083E+02 -0.61029756438E+02  0.40103032839E+03  0.41323934670E+03  0.77000000000E+02 0.  0.
   -5000001    1    1    2    0    0  0.16964734083E+02  0.61029756438E+02  0.31722439758E+03  0.33252481381E+03  0.77000000000E+02 0.  0.
<mgrwt>
<rscale>  0 0.20068466E+03</rscale>
<asrwt>0</asrwt>
<pdfrwt beam="1">  1        2 0.11261680E+00 0.20068466E+03</pdfrwt>
<pdfrwt beam="2">  1       -2 0.21161111E-02 0.20068466E+03</pdfrwt>
<totfact> 0.27483578E+04</totfact>
</mgrwt>
</event>
<event>
 4    1  0.1171488E-003  0.2348903E+03  0.7818608E-02  0.1123244E+00
          2   -1    0    0  501    0  0.00000000000E+00  0.00000000000E+00  0.31199224447E+04  0.31199224447E+04  0.25500000000E-02 0.  1.
         -2   -1    0    0    0  501 -0.00000000000E+00 -0.00000000000E+00 -0.44210584064E+01  0.44210591418E+01  0.25500000000E-02 0. -1.
    5000001    1    1    2    0    0 -0.28340131461E+02  0.42824219809E+02  0.59606806655E+03  0.60321075655E+03  0.77000000000E+02 0.  0.
   -5000001    1    1    2    0    0  0.28340131461E+02 -0.42824219809E+02  0.25194333198E+04  0.25211327473E+04  0.77000000000E+02 0.  0.
<mgrwt>
<rscale>  0 0.23489028E+03</rscale>
<asrwt>0</asrwt>
<pdfrwt beam="1">  1        2 0.47998994E+00 0.23489028E+03</pdfrwt>
<pdfrwt beam="2">  1       -2 0.68016024E-03 0.23489028E+03</pdfrwt>
<totfact> 0.65912609E+03</totfact>
</mgrwt>
</event>
<event>
 4    1  0.1171488E-003  0.2325395E+03  0.7818608E-02  0.1124865E+00
          2   -1    0    0  501    0  0.00000000000E+00  0.00000000000E+00  0.83528958623E+02  0.83528958661E+02  0.25500000000E-02 0. -1.
         -2   -1    0    0    0  501 -0.00000000000E+00 -0.00000000000E+00 -0.16184395140E+03  0.16184395142E+03  0.25500000000E-02 0.  1.
    5000001    1    1    2    0    0 -0.81357410144E+02  0.23838504109E+02 -0.60323270247E+02  0.12944187652E+03  0.77000000000E+02 0.  0.
   -5000001    1    1    2    0    0  0.81357410144E+02 -0.23838504109E+02 -0.17991722532E+02  0.11593103356E+03  0.77000000000E+02 0.  0.
<mgrwt>
<rscale>  0 0.23253952E+03</rscale>
<asrwt>0</asrwt>
<pdfrwt beam="1">  1        2 0.12850609E-01 0.23253952E+03</pdfrwt>
<pdfrwt beam="2">  1       -2 0.24899069E-01 0.23253952E+03</pdfrwt>
<totfact> 0.66079721E+03</totfact>
</mgrwt>
</event>
<event>
 4    1  0.1171488E-003  0.3570776E+03  0.7818608E-02  0.1059747E+00
          2   -1    0    0  501    0  0.00000000000E+00  0.00000000000E+00  0.16993055077E+04  0.16993055077E+04  0.25500000000E-02 0.  1.
         -2   -1    0    0    0  501 -0.00000000000E+00 -0.00000000000E+00 -0.18758308985E+02  0.18758309159E+02  0.25500000000E-02 0. -1.
    5000001    1    1    2    0    0 -0.14879319116E+03 -0.61582290576E+02  0.82144998591E+03  0.84061933811E+03  0.77000000000E+02 0.  0.
   -5000001    1    1    2    0    0  0.14879319116E+03  0.61582290576E+02  0.85909721284E+03  0.87744447879E+03  0.77000000000E+02 0.  0.
<mgrwt>
<rscale>  0 0.35707757E+03</rscale>
<asrwt>0</asrwt>
<pdfrwt beam="1">  1        2 0.26143156E+00 0.35707757E+03</pdfrwt>
<pdfrwt beam="2">  1       -2 0.28858943E-02 0.35707757E+03</pdfrwt>
<totfact> 0.48032608E+03</totfact>
</mgrwt>
</event>
<event>
 4    1  0.1171488E-003  0.3398337E+03  0.7818608E-02  0.1066867E+00
          2   -1    0    0  501    0  0.00000000000E+00  0.00000000000E+00  0.60623157548E+02  0.60623157602E+02  0.25500000000E-02 0. -1.
         -2   -1    0    0    0  501 -0.00000000000E+00 -0.00000000000E+00 -0.47624923083E+03  0.47624923084E+03  0.25500000000E-02 0.  1.
    5000001    1    1    2    0    0 -0.23812339665E+02 -0.14722047496E+03 -0.24966565157E+03  0.30083688827E+03  0.77000000000E+02 0.  0.
   -5000001    1    1    2    0    0  0.23812339665E+02  0.14722047496E+03 -0.16596042171E+03  0.23603550017E+03  0.77000000000E+02 0.  0.
<mgrwt>
<rscale>  0 0.33983368E+03</rscale>
<asrwt>0</asrwt>
<pdfrwt beam="1">  1        2 0.93266399E-02 0.33983368E+03</pdfrwt>
<pdfrwt beam="2">  1       -2 0.73269110E-01 0.33983368E+03</pdfrwt>
<totfact> 0.12146234E+03</totfact>
</mgrwt>
</event>
<event>
 4    1  0.1171488E-003  0.3368429E+03  0.7818608E-02  0.1068149E+00
          2   -1    0    0  501    0  0.00000000000E+00  0.00000000000E+00  0.12733067459E+04  0.12733067459E+04  0.25500000000E-02 0.  1.
         -2   -1    0    0    0  501 -0.00000000000E+00 -0.00000000000E+00 -0.22277254469E+02  0.22277254615E+02  0.25500000000E-02 0. -1.
    5000001    1    1    2    0    0  0.14292580312E+03 -0.29111091267E+02  0.49442917940E+03  0.52121440336E+03  0.77000000000E+02 0.  0.
   -5000001    1    1    2    0    0 -0.14292580312E+03  0.29111091267E+02  0.75660031206E+03  0.77436959719E+03  0.77000000000E+02 0.  0.
<mgrwt>
<rscale>  0 0.33684286E+03</rscale>
<asrwt>0</asrwt>
<pdfrwt beam="1">  1        2 0.19589336E+00 0.33684286E+03</pdfrwt>
<pdfrwt beam="2">  1       -2 0.34272696E-02 0.33684286E+03</pdfrwt>
<totfact> 0.63215589E+03</totfact>
</mgrwt>
</event>
<event>
 4    1  0.1171488E-003  0.7863586E+03  0.7818608E-02  0.9579975E-01
         -2   -1    0    0    0  501 -0.00000000000E+00  0.00000000000E+00  0.87092930745E+03  0.87092930745E+03  0.25500000000E-02 0. -1.
          2   -1    0    0  501    0  0.00000000000E+00 -0.00000000000E+00 -0.17749999958E+03  0.17749999960E+03  0.25500000000E-02 0.  1.
    5000001    1    1    2    0    0  0.34315244637E+03 -0.16510684352E+03  0.42723232412E+03  0.57746889960E+03  0.77000000000E+02 0.  0.
   -5000001    1    1    2    0    0 -0.34315244637E+03  0.16510684352E+03  0.26619698375E+03  0.47096040745E+03  0.77000000000E+02 0.  0.
<mgrwt>
<rscale>  0 0.78635857E+03</rscale>
<asrwt>0</asrwt>
<pdfrwt beam="1">  1        2 0.27307692E-01 0.78635857E+03</pdfrwt>
<pdfrwt beam="2">  1       -2 0.13398913E+00 0.78635857E+03</pdfrwt>
<totfact> 0.80304253E+01</totfact>
</mgrwt>
</event>
<event>
 4    1  0.1171488E-003  0.2311614E+03  0.7818608E-02  0.1125825E+00
          2   -1    0    0  501    0  0.00000000000E+00  0.00000000000E+00  0.16404244396E+04  0.16404244396E+04  0.25500000000E-02 0.  1.
         -2   -1    0    0    0  501 -0.00000000000E+00 -0.00000000000E+00 -0.81435614427E+01  0.81435618420E+01  0.25500000000E-02 0. -1.
    5000001    1    1    2    0    0 -0.31887506982E+02 -0.59318387809E+02  0.11998228005E+04  0.12041757500E+04  0.77000000000E+02 0.  0.
   -5000001    1    1    2    0    0  0.31887506982E+02  0.59318387809E+02  0.43245807771E+03  0.44439225152E+03  0.77000000000E+02 0.  0.
<mgrwt>
<rscale>  0 0.23116139E+03</rscale>
<asrwt>0</asrwt>
<pdfrwt beam="1">  1        2 0.25237322E+00 0.23116139E+03</pdfrwt>
<pdfrwt beam="2">  1       -2 0.12528545E-02 0.23116139E+03</pdfrwt>
<totfact> 0.17519682E+04</totfact>
</mgrwt>
</event>
<event>
 4    1  0.1171488E-003  0.2011449E+03  0.7818608E-02  0.1148777E+00
          2   -1    0    0  501    0  0.00000000000E+00  0.00000000000E+00  0.12416010687E+03  0.12416010690E+03  0.25500000000E-02 0.  1.
         -2   -1    0    0    0  501 -0.00000000000E+00 -0.00000000000E+00 -0.81465958708E+02  0.81465958748E+02  0.25500000000E-02 0. -1.
    5000001    1    1    2    0    0  0.13805944588E+01  0.56724344667E+02 -0.10430235908E+02  0.96215108689E+02  0.77000000000E+02 0.  0.
   -5000001    1    1    2    0    0 -0.13805944588E+01 -0.56724344667E+02  0.53124384068E+02  0.10941095695E+03  0.77000000000E+02 0.  0.
<mgrwt>
<rscale>  0 0.20114494E+03</rscale>
<asrwt>0</asrwt>
<pdfrwt beam="1">  1        2 0.19101555E-01 0.20114494E+03</pdfrwt>
<pdfrwt beam="2">  1       -2 0.12533224E-01 0.20114494E+03</pdfrwt>
<totfact> 0.13036850E+04</totfact>
</mgrwt>
</event>
<event>
 4    1  0.1171488E-003  0.2294548E+03  0.7818608E-02  0.1127024E+00
          2   -1    0    0  501    0  0.00000000000E+00  0.00000000000E+00  0.17063226474E+03  0.17063226476E+03  0.25500000000E-02 0. -1.
         -2   -1    0    0    0  501 -0.00000000000E+00 -0.00000000000E+00 -0.77138818958E+02  0.77138819000E+02  0.25500000000E-02 0.  1.
    5000001    1    1    2    0    0  0.27625305467E+02  0.80097366773E+02  0.54727627877E+02  0.12689704062E+03  0.77000000000E+02 0.  0.
   -5000001    1    1    2    0    0 -0.27625305467E+02 -0.80097366773E+02  0.38765817905E+02  0.12087404314E+03  0.77000000000E+02 0.  0.
<mgrwt>
<rscale>  0 0.22945476E+03</rscale>
<asrwt>0</asrwt>
<pdfrwt beam="1">  1        2 0.26251117E-01 0.22945476E+03</pdfrwt>
<pdfrwt beam="2">  1       -2 0.11867511E-01 0.22945476E+03</pdfrwt>
<totfact> 0.10031917E+04</totfact>
</mgrwt>
</event>
<event>
 4    1  0.1171488E-003  0.2550905E+03  0.7818608E-02  0.1110129E+00
          2   -1    0    0  501    0  0.00000000000E+00  0.00000000000E+00  0.23028768515E+03  0.23028768516E+03  0.25500000000E-02 0.  1.
         -2   -1    0    0    0  501 -0.00000000000E+00 -0.00000000000E+00 -0.70641186472E+02  0.70641186518E+02  0.25500000000E-02 0. -1.
    5000001    1    1    2    0    0  0.21036754879E+02  0.77214045534E+02  0.15381784738E+03  0.18971948782E+03  0.77000000000E+02 0.  0.
   -5000001    1    1    2    0    0 -0.21036754879E+02 -0.77214045534E+02  0.58286512928E+01  0.11120938386E+03  0.77000000000E+02 0.  0.
<mgrwt>
<rscale>  0 0.25509054E+03</rscale>
<asrwt>0</asrwt>
<pdfrwt beam="1">  1        2 0.35428874E-01 0.25509054E+03</pdfrwt>
<pdfrwt beam="2">  1       -2 0.10867875E-01 0.25509054E+03</pdfrwt>
<totfact> 0.83639425E+03</totfact>
</mgrwt>
</event>
<event>
 4    1  0.1171488E-003  0.2626001E+03  0.7818608E-02  0.1105591E+00
         -2   -1    0    0    0  501 -0.00000000000E+00  0.00000000000E+00  0.84304428847E+02  0.84304428886E+02  0.25500000000E-02 0.  1.
          2   -1    0    0  501    0  0.00000000000E+00 -0.00000000000E+00 -0.20449340270E+03  0.20449340271E+03  0.25500000000E-02 0. -1.
    5000001    1    1    2    0    0  0.93631525211E+02  0.29913472297E+02 -0.15435156840E+02  0.12581304545E+03  0.77000000000E+02 0.  0.
   -5000001    1    1    2    0    0 -0.93631525211E+02 -0.29913472297E+02 -0.10475381701E+03  0.16298478615E+03  0.77000000000E+02 0.  0.
<mgrwt>
<rscale>  0 0.26260007E+03</rscale>
<asrwt>0</asrwt>
<pdfrwt beam="1">  1        2 0.31460523E-01 0.26260007E+03</pdfrwt>
<pdfrwt beam="2">  1       -2 0.12969912E-01 0.26260007E+03</pdfrwt>
<totfact> 0.71663000E+03</totfact>
</mgrwt>
</event>
<event>
 4    1  0.1171488E-003  0.2148591E+03  0.7818608E-02  0.1137775E+00
          2   -1    0    0  501    0  0.00000000000E+00  0.00000000000E+00  0.26569957845E+03  0.26569957847E+03  0.25500000000E-02 0.  1.
         -2   -1    0    0    0  501 -0.00000000000E+00 -0.00000000000E+00 -0.43436689067E+02  0.43436689142E+02  0.25500000000E-02 0. -1.
    5000001    1    1    2    0    0  0.46174992402E+02 -0.27477499763E+02  0.18623781995E+03  0.20856813874E+03  0.77000000000E+02 0.  0.
   -5000001    1    1    2    0    0 -0.46174992402E+02  0.27477499763E+02  0.36025069435E+02  0.10056812887E+03  0.77000000000E+02 0.  0.
<mgrwt>
<rscale>  0 0.21485912E+03</rscale>
<asrwt>0</asrwt>
<pdfrwt beam="1">  1        2 0.40876857E-01 0.21485912E+03</pdfrwt>
<pdfrwt beam="2">  1       -2 0.66825678E-02 0.21485912E+03</pdfrwt>
<totfact> 0.15215056E+04</totfact>
</mgrwt>
</event>
<event>
 4    1  0.1171488E-003  0.2358498E+03  0.7818608E-02  0.1122589E+00
          2   -1    0    0  501    0  0.00000000000E+00  0.00000000000E+00  0.90579352962E+03  0.90579352962E+03  0.25500000000E-02 0.  1.
         -2   -1    0    0    0  501 -0.00000000000E+00 -0.00000000000E+00 -0.15352592104E+02  0.15352592316E+02  0.25500000000E-02 0. -1.
    5000001    1    1    2    0    0 -0.71202862428E+02  0.51003583925E+02  0.37689222530E+03  0.39452244889E+03  0.77000000000E+02 0.  0.
   -5000001    1    1    2    0    0  0.71202862428E+02 -0.51003583925E+02  0.51354871222E+03  0.52662367304E+03  0.77000000000E+02 0.  0.
<mgrwt>
<rscale>  0 0.23584977E+03</rscale>
<asrwt>0</asrwt>
<pdfrwt beam="1">  1        2 0.13935286E+00 0.23584977E+03</pdfrwt>
<pdfrwt beam="2">  1       -2 0.23619371E-02 0.23584977E+03</pdfrwt>
<totfact> 0.17998764E+04</totfact>
</mgrwt>
</event>
<event>
 4    1  0.1171488E-003  0.1858337E+03  0.7818608E-02  0.1162274E+00
          2   -1    0    0  501    0  0.00000000000E+00  0.00000000000E+00  0.45239209134E+02  0.45239209206E+02  0.25500000000E-02 0.  1.
         -2   -1    0    0    0  501 -0.00000000000E+00 -0.00000000000E+00 -0.19084208150E+03  0.19084208151E+03  0.25500000000E-02 0. -1.
    5000001    1    1    2    0    0 -0.37981387389E+02  0.27617576900E+02 -0.10118629170E+03  0.13554697330E+03  0.77000000000E+02 0.  0.
   -5000001    1    1    2    0    0  0.37981387389E+02 -0.27617576900E+02 -0.44416580661E+02  0.10053431742E+03  0.77000000000E+02 0.  0.
<mgrwt>
<rscale>  0 0.18583374E+03</rscale>
<asrwt>0</asrwt>
<pdfrwt beam="1">  1        2 0.69598785E-02 0.18583374E+03</pdfrwt>
<pdfrwt beam="2">  1       -2 0.29360320E-01 0.18583374E+03</pdfrwt>
<totfact> 0.10420341E+04</totfact>
</mgrwt>
</event>
<event>
 4    1  0.1171488E-003  0.2362817E+03  0.7818608E-02  0.1122295E+00
         -2   -1    0    0    0  501 -0.00000000000E+00  0.00000000000E+00  0.67573510652E+02  0.67573510700E+02  0.25500000000E-02 0. -1.
          2   -1    0    0  501    0  0.00000000000E+00 -0.00000000000E+00 -0.20654922491E+03  0.20654922492E+03  0.25500000000E-02 0.  1.
    5000001    1    1    2    0    0 -0.66694260090E+02  0.51966601290E+02 -0.35079914750E+02  0.11961710746E+03  0.77000000000E+02 0.  0.
   -5000001    1    1    2    0    0  0.66694260090E+02 -0.51966601290E+02 -0.10389579950E+03  0.15450562816E+03  0.77000000000E+02 0.  0.
<mgrwt>
<rscale>  0 0.23628166E+03</rscale>
<asrwt>0</asrwt>
<pdfrwt beam="1">  1        2 0.31776804E-01 0.23628166E+03</pdfrwt>
<pdfrwt beam="2">  1       -2 0.10395925E-01 0.23628166E+03</pdfrwt>
<totfact> 0.10067385E+04</totfact>
</mgrwt>
</event>
<event>
 4    1  0.1171488E-003  0.2023150E+03  0.7818608E-02  0.1147800E+00
         -2   -1    0    0    0  501 -0.00000000000E+00  0.00000000000E+00  0.13969035730E+03  0.13969035733E+03  0.25500000000E-02 0. -1.
          2   -1    0    0  501    0  0.00000000000E+00 -0.00000000000E+00 -0.73253717664E+02  0.73253717708E+02  0.25500000000E-02 0.  1.
    5000001    1    1    2    0    0 -0.61306095117E+02 -0.16500251343E+02  0.50613626229E+02  0.11189921695E+03  0.77000000000E+02 0.  0.
   -5000001    1    1    2    0    0  0.61306095117E+02  0.16500251343E+02  0.15823013409E+02  0.10104485809E+03  0.77000000000E+02 0.  0.
<mgrwt>
<rscale>  0 0.20231498E+03</rscale>
<asrwt>0</asrwt>
<pdfrwt beam="1">  1        2 0.11269803E-01 0.20231498E+03</pdfrwt>
<pdfrwt beam="2">  1       -2 0.21490824E-01 0.20231498E+03</pdfrwt>
<totfact> 0.99282502E+03</totfact>
</mgrwt>
</event>
<event>
 4    1  0.1171488E-003  0.1907761E+03  0.7818608E-02  0.1157763E+00
          2   -1    0    0  501    0  0.00000000000E+00  0.00000000000E+00  0.17768647387E+02  0.17768647570E+02  0.25500000000E-02 0.  1.
         -2   -1    0    0    0  501 -0.00000000000E+00 -0.00000000000E+00 -0.51207483465E+03  0.51207483465E+03  0.25500000000E-02 0. -1.
    5000001    1    1    2    0    0  0.15683710619E+02  0.41869329835E+02 -0.34218638034E+03  0.35358102105E+03  0.77000000000E+02 0.  0.
   -5000001    1    1    2    0    0 -0.15683710619E+02 -0.41869329835E+02 -0.15211980692E+03  0.17626246117E+03  0.77000000000E+02 0.  0.
<mgrwt>
<rscale>  0 0.19077607E+03</rscale>
<asrwt>0</asrwt>
<pdfrwt beam="1">  1        2 0.27336385E-02 0.19077607E+03</pdfrwt>
<pdfrwt beam="2">  1       -2 0.78780732E-01 0.19077607E+03</pdfrwt>
<totfact> 0.51022855E+03</totfact>
</mgrwt>
</event>
<event>
 4    1  0.1171488E-003  0.3426943E+03  0.7818608E-02  0.1065654E+00
          2   -1    0    0  501    0  0.00000000000E+00  0.00000000000E+00  0.10946789709E+04  0.10946789709E+04  0.25500000000E-02 0.  1.
         -2   -1    0    0    0  501 -0.00000000000E+00 -0.00000000000E+00 -0.26820514890E+02  0.26820515011E+02  0.25500000000E-02 0. -1.
    5000001    1    1    2    0    0 -0.14571876467E+03  0.17005201858E+02  0.39099070885E+03  0.42464793614E+03  0.77000000000E+02 0.  0.
   -5000001    1    1    2    0    0  0.14571876467E+03 -0.17005201858E+02  0.67686774714E+03  0.69685154974E+03  0.77000000000E+02 0.  0.
<mgrwt>
<rscale>  0 0.34269435E+03</rscale>
<asrwt>0</asrwt>
<pdfrwt beam="1">  1        2 0.16841215E+00 0.34269435E+03</pdfrwt>
<pdfrwt beam="2">  1       -2 0.41262330E-02 0.34269435E+03</pdfrwt>
<totfact> 0.60572994E+03</totfact>
</mgrwt>
</event>
<event>
 4    1  0.1171488E-003  0.2793584E+03  0.7818608E-02  0.1096040E+00
          2   -1    0    0  501    0  0.00000000000E+00  0.00000000000E+00  0.85967430760E+03  0.85967430760E+03  0.25500000000E-02 0.  1.
         -2   -1    0    0    0  501 -0.00000000000E+00 -0.00000000000E+00 -0.22694962922E+02  0.22694963065E+02  0.25500000000E-02 0. -1.
    5000001    1    1    2    0    0 -0.29968858115E+02 -0.11246902220E+03  0.43686997212E+03  0.45861943478E+03  0.77000000000E+02 0.  0.
   -5000001    1    1    2    0    0  0.29968858115E+02  0.11246902220E+03  0.40010937256E+03  0.42374983589E+03  0.77000000000E+02 0.  0.
<mgrwt>
<rscale>  0 0.27935838E+03</rscale>
<asrwt>0</asrwt>
<pdfrwt beam="1">  1        2 0.13225756E+00 0.27935838E+03</pdfrwt>
<pdfrwt beam="2">  1       -2 0.34915336E-02 0.27935838E+03</pdfrwt>
<totfact> 0.10871113E+04</totfact>
</mgrwt>
</event>
<event>
 4    1  0.1171488E-003  0.6196449E+03  0.7818608E-02  0.9865467E-01
         -2   -1    0    0    0  501 -0.00000000000E+00  0.00000000000E+00  0.10745008330E+04  0.10745008330E+04  0.25500000000E-02 0. -1.
          2   -1    0    0  501    0  0.00000000000E+00 -0.00000000000E+00 -0.89334454336E+02  0.89334454372E+02  0.25500000000E-02 0.  1.
    5000001    1    1    2    0    0  0.13087183927E+03 -0.26947564681E+03  0.52599155859E+03  0.61019724864E+03  0.77000000000E+02 0.  0.
   -5000001    1    1    2    0    0 -0.13087183927E+03  0.26947564681E+03  0.45917482005E+03  0.55363803872E+03  0.77000000000E+02 0.  0.
<mgrwt>
<rscale>  0 0.61964488E+03</rscale>
<asrwt>0</asrwt>
<pdfrwt beam="1">  1        2 0.13743761E-01 0.61964488E+03</pdfrwt>
<pdfrwt beam="2">  1       -2 0.16530783E+00 0.61964488E+03</pdfrwt>
<totfact> 0.10467374E+02</totfact>
</mgrwt>
</event>
<event>
 4    1  0.1171488E-003  0.2697407E+03  0.7818608E-02  0.1101428E+00
          2   -1    0    0  501    0  0.00000000000E+00  0.00000000000E+00  0.23510054251E+04  0.23510054251E+04  0.25500000000E-02 0.  1.
         -2   -1    0    0    0  501 -0.00000000000E+00 -0.00000000000E+00 -0.77371180266E+01  0.77371184468E+01  0.25500000000E-02 0. -1.
    5000001    1    1    2    0    0 -0.10679499512E+03  0.20492538353E+02  0.98906664787E+03  0.99800147747E+03  0.77000000000E+02 0.  0.
   -5000001    1    1    2    0    0  0.10679499512E+03 -0.20492538353E+02  0.13542016592E+04  0.13607410660E+04  0.77000000000E+02 0.  0.
<mgrwt>
<rscale>  0 0.26974067E+03</rscale>
<asrwt>0</asrwt>
<pdfrwt beam="1">  1        2 0.36169285E+00 0.26974067E+03</pdfrwt>
<pdfrwt beam="2">  1       -2 0.11903268E-02 0.26974067E+03</pdfrwt>
<totfact> 0.79946845E+03</totfact>
</mgrwt>
</event>
<event>
 4    1  0.1171488E-003  0.2712115E+03  0.7818608E-02  0.1100588E+00
         -2   -1    0    0    0  501 -0.00000000000E+00  0.00000000000E+00  0.12813724816E+02  0.12813725070E+02  0.25500000000E-02 0. -1.
          2   -1    0    0  501    0  0.00000000000E+00 -0.00000000000E+00 -0.14350950544E+04  0.14350950544E+04  0.25500000000E-02 0.  1.
    5000001    1    1    2    0    0  0.80297113342E+02  0.73901370088E+02 -0.83644308598E+03  0.84703900441E+03  0.77000000000E+02 0.  0.
   -5000001    1    1    2    0    0 -0.80297113342E+02 -0.73901370088E+02 -0.58583824364E+03  0.60086977510E+03  0.77000000000E+02 0.  0.
<mgrwt>
<rscale>  0 0.27121145E+03</rscale>
<asrwt>0</asrwt>
<pdfrwt beam="1">  1        2 0.22078373E+00 0.27121145E+03</pdfrwt>
<pdfrwt beam="2">  1       -2 0.19713434E-02 0.27121145E+03</pdfrwt>
<totfact> 0.11672262E+04</totfact>
</mgrwt>
</event>
<event>
 4    1  0.1171488E-003  0.2884264E+03  0.7818608E-02  0.1091174E+00
          2   -1    0    0  501    0  0.00000000000E+00  0.00000000000E+00  0.73460661978E+03  0.73460661978E+03  0.25500000000E-02 0.  1.
         -2   -1    0    0    0  501 -0.00000000000E+00 -0.00000000000E+00 -0.28311005782E+02  0.28311005897E+02  0.25500000000E-02 0. -1.
    5000001    1    1    2    0    0  0.11375146204E+03  0.11902969075E+02  0.46497582000E+03  0.48498720495E+03  0.77000000000E+02 0.  0.
   -5000001    1    1    2    0    0 -0.11375146204E+03 -0.11902969075E+02  0.24131979400E+03  0.27793042072E+03  0.77000000000E+02 0.  0.
<mgrwt>
<rscale>  0 0.28842644E+03</rscale>
<asrwt>0</asrwt>
<pdfrwt beam="1">  1        2 0.11301641E+00 0.28842644E+03</pdfrwt>
<pdfrwt beam="2">  1       -2 0.43555392E-02 0.28842644E+03</pdfrwt>
<totfact> 0.95311214E+03</totfact>
</mgrwt>
</event>
<event>
 4    1  0.1171488E-003  0.2494425E+03  0.7818608E-02  0.1113658E+00
         -2   -1    0    0    0  501 -0.00000000000E+00  0.00000000000E+00  0.44487512351E+02  0.44487512424E+02  0.25500000000E-02 0. -1.
          2   -1    0    0  501    0  0.00000000000E+00 -0.00000000000E+00 -0.34965731900E+03  0.34965731901E+03  0.25500000000E-02 0.  1.
    5000001    1    1    2    0    0 -0.64691473871E+02 -0.73636758080E+02 -0.15947701266E+03  0.20240868681E+03  0.77000000000E+02 0.  0.
   -5000001    1    1    2    0    0  0.64691473871E+02  0.73636758080E+02 -0.14569279400E+03  0.19173614462E+03  0.77000000000E+02 0.  0.
<mgrwt>
<rscale>  0 0.24944245E+03</rscale>
<asrwt>0</asrwt>
<pdfrwt beam="1">  1        2 0.53793432E-01 0.24944245E+03</pdfrwt>
<pdfrwt beam="2">  1       -2 0.68442329E-02 0.24944245E+03</pdfrwt>
<totfact> 0.11015364E+04</totfact>
</mgrwt>
</event>
<event>
 4    1  0.1171488E-003  0.3249409E+03  0.7818608E-02  0.1073398E+00
         -2   -1    0    0    0  501 -0.00000000000E+00  0.00000000000E+00  0.48538422267E+03  0.48538422267E+03  0.25500000000E-02 0. -1.
          2   -1    0    0  501    0  0.00000000000E+00 -0.00000000000E+00 -0.54382997360E+02  0.54382997420E+02  0.25500000000E-02 0.  1.
    5000001    1    1    2    0    0  0.99031265739E+02  0.64944511599E+01  0.44330006882E+02  0.13320480096E+03  0.77000000000E+02 0.  0.
   -5000001    1    1    2    0    0 -0.99031265739E+02 -0.64944511599E+01  0.38667121842E+03  0.40656241913E+03  0.77000000000E+02 0.  0.
<mgrwt>
<rscale>  0 0.32494091E+03</rscale>
<asrwt>0</asrwt>
<pdfrwt beam="1">  1        2 0.83666149E-02 0.32494091E+03</pdfrwt>
<pdfrwt beam="2">  1       -2 0.74674497E-01 0.32494091E+03</pdfrwt>
<totfact> 0.13362728E+03</totfact>
</mgrwt>
</event>
<event>
 4    1  0.1171488E-003  0.3286263E+03  0.7818608E-02  0.1071746E+00
         -2   -1    0    0    0  501 -0.00000000000E+00  0.00000000000E+00  0.13541830776E+03  0.13541830778E+03  0.25500000000E-02 0. -1.
          2   -1    0    0  501    0  0.00000000000E+00 -0.00000000000E+00 -0.19937340190E+03  0.19937340191E+03  0.25500000000E-02 0.  1.
    5000001    1    1    2    0    0  0.57661260590E+02  0.13278119764E+03 -0.42861678517E+02  0.16947504508E+03  0.77000000000E+02 0.  0.
   -5000001    1    1    2    0    0 -0.57661260590E+02 -0.13278119764E+03 -0.21093415620E+02  0.16531666462E+03  0.77000000000E+02 0.  0.
<mgrwt>
<rscale>  0 0.32862628E+03</rscale>
<asrwt>0</asrwt>
<pdfrwt beam="1">  1        2 0.30672831E-01 0.32862628E+03</pdfrwt>
<pdfrwt beam="2">  1       -2 0.20833586E-01 0.32862628E+03</pdfrwt>
<totfact> 0.33570529E+03</totfact>
</mgrwt>
</event>
<event>
 4    1  0.1171488E-003  0.2409452E+03  0.7818608E-02  0.1119165E+00
          2   -1    0    0  501    0  0.00000000000E+00  0.00000000000E+00  0.20887735759E+04  0.20887735759E+04  0.25500000000E-02 0.  1.
         -2   -1    0    0    0  501 -0.00000000000E+00 -0.00000000000E+00 -0.69484088573E+01  0.69484093252E+01  0.25500000000E-02 0. -1.
    5000001    1    1    2    0    0  0.36920547480E+02  0.45324591505E+02  0.16661475650E+04  0.16689500154E+04  0.77000000000E+02 0.  0.
   -5000001    1    1    2    0    0 -0.36920547480E+02 -0.45324591505E+02  0.41567760200E+03  0.42677196982E+03  0.77000000000E+02 0.  0.
<mgrwt>
<rscale>  0 0.24094525E+03</rscale>
<asrwt>0</asrwt>
<pdfrwt beam="1">  1        2 0.32134966E+00 0.24094525E+03</pdfrwt>
<pdfrwt beam="2">  1       -2 0.10689864E-02 0.24094525E+03</pdfrwt>
<totfact> 0.12868100E+04</totfact>
</mgrwt>
</event>
<event>
 4    1  0.1171488E-003  0.2228670E+03  0.7818608E-02  0.1131763E+00
          2   -1    0    0  501    0  0.00000000000E+00  0.00000000000E+00  0.14157928420E+04  0.14157928420E+04  0.25500000000E-02 0.  1.
         -2   -1    0    0    0  501 -0.00000000000E+00 -0.00000000000E+00 -0.87706504886E+01  0.87706508593E+01  0.25500000000E-02 0. -1.
    5000001    1    1    2    0    0 -0.10621824285E+02  0.79735761935E+02  0.73048617330E+03  0.73892466752E+03  0.77000000000E+02 0.  0.
   -5000001    1    1    2    0    0  0.10621824285E+02 -0.79735761935E+02  0.67653601820E+03  0.68563882533E+03  0.77000000000E+02 0.  0.
<mgrwt>
<rscale>  0 0.22286700E+03</rscale>
<asrwt>0</asrwt>
<pdfrwt beam="1">  1        2 0.21781439E+00 0.22286700E+03</pdfrwt>
<pdfrwt beam="2">  1       -2 0.13493302E-02 0.22286700E+03</pdfrwt>
<totfact> 0.20665444E+04</totfact>
</mgrwt>
</event>
<event>
 4    1  0.1171488E-003  0.2372097E+03  0.7818608E-02  0.1121666E+00
          2   -1    0    0  501    0  0.00000000000E+00  0.00000000000E+00  0.10100275847E+04  0.10100275847E+04  0.25500000000E-02 0.  1.
         -2   -1    0    0    0  501 -0.00000000000E+00 -0.00000000000E+00 -0.13927446858E+02  0.13927447091E+02  0.25500000000E-02 0. -1.
    5000001    1    1    2    0    0 -0.83421189155E+02 -0.33624345377E+02  0.46801455768E+03  0.48275906786E+03  0.77000000000E+02 0.  0.
   -5000001    1    1    2    0    0  0.83421189155E+02  0.33624345377E+02  0.52808558018E+03  0.54119596395E+03  0.77000000000E+02 0.  0.
<mgrwt>
<rscale>  0 0.23720966E+03</rscale>
<asrwt>0</asrwt>
<pdfrwt beam="1">  1        2 0.15538888E+00 0.23720966E+03</pdfrwt>
<pdfrwt beam="2">  1       -2 0.21426838E-02 0.23720966E+03</pdfrwt>
<totfact> 0.17893319E+04</totfact>
</mgrwt>
</event>
<event>
 4    1  0.1171488E-003  0.1890884E+03  0.7818608E-02  0.1159286E+00
         -2   -1    0    0    0  501 -0.00000000000E+00  0.00000000000E+00  0.91874678599E+01  0.91874682138E+01  0.25500000000E-02 0. -1.
          2   -1    0    0  501    0  0.00000000000E+00 -0.00000000000E+00 -0.97291247307E+03  0.97291247307E+03  0.25500000000E-02 0.  1.
    5000001    1    1    2    0    0 -0.19694156743E+02  0.37876314863E+02 -0.30290928405E+03  0.31544493878E+03  0.77000000000E+02 0.  0.
   -5000001    1    1    2    0    0  0.19694156743E+02 -0.37876314863E+02 -0.66081572115E+03  0.66665500250E+03  0.77000000000E+02 0.  0.
<mgrwt>
<rscale>  0 0.18908836E+03</rscale>
<asrwt>0</asrwt>
<pdfrwt beam="1">  1        2 0.14967876E+00 0.18908836E+03</pdfrwt>
<pdfrwt beam="2">  1       -2 0.14134574E-02 0.18908836E+03</pdfrwt>
<totfact> 0.34126130E+04</totfact>
</mgrwt>
</event>
<event>
 4    1  0.1171488E-003  0.1810795E+03  0.7818608E-02  0.1166762E+00
         -2   -1    0    0    0  501 -0.00000000000E+00  0.00000000000E+00  0.16563299676E+02  0.16563299872E+02  0.25500000000E-02 0. -1.
          2   -1    0    0  501    0  0.00000000000E+00 -0.00000000000E+00 -0.49491613510E+03  0.49491613510E+03  0.25500000000E-02 0.  1.
    5000001    1    1    2    0    0 -0.43968738267E+02  0.15262895804E+02 -0.21061591018E+03  0.22902896663E+03  0.77000000000E+02 0.  0.
   -5000001    1    1    2    0    0  0.43968738267E+02 -0.15262895804E+02 -0.26773692524E+03  0.28245046835E+03  0.77000000000E+02 0.  0.
<mgrwt>
<rscale>  0 0.18107948E+03</rscale>
<asrwt>0</asrwt>
<pdfrwt beam="1">  1        2 0.76140933E-01 0.18107948E+03</pdfrwt>
<pdfrwt beam="2">  1       -2 0.25482003E-02 0.18107948E+03</pdfrwt>
<totfact> 0.32621940E+04</totfact>
</mgrwt>
</event>
<event>
 4    1  0.1171488E-003  0.8976270E+03  0.7818608E-02  0.9428553E-01
         -2   -1    0    0    0  501 -0.00000000000E+00  0.00000000000E+00  0.83688727381E+03  0.83688727381E+03  0.25500000000E-02 0. -1.
          2   -1    0    0  501    0  0.00000000000E+00 -0.00000000000E+00 -0.24069378079E+03  0.24069378080E+03  0.25500000000E-02 0.  1.
    5000001    1    1    2    0    0 -0.42180823323E+03 -0.12759767623E+03  0.25479278411E+03  0.51483173507E+03  0.77000000000E+02 0.  0.
   -5000001    1    1    2    0    0  0.42180823323E+03  0.12759767623E+03  0.34140070891E+03  0.56274931955E+03  0.77000000000E+02 0.  0.
<mgrwt>
<rscale>  0 0.89762701E+03</rscale>
<asrwt>0</asrwt>
<pdfrwt beam="1">  1        2 0.37029812E-01 0.89762701E+03</pdfrwt>
<pdfrwt beam="2">  1       -2 0.12875189E+00 0.89762701E+03</pdfrwt>
<totfact> 0.62670781E+01</totfact>
</mgrwt>
</event>
<event>
 4    1  0.1171488E-003  0.2027718E+03  0.7818608E-02  0.1147421E+00
         -2   -1    0    0    0  501 -0.00000000000E+00  0.00000000000E+00  0.14185761595E+02  0.14185761825E+02  0.25500000000E-02 0. -1.
          2   -1    0    0  501    0  0.00000000000E+00 -0.00000000000E+00 -0.72460708277E+03  0.72460708278E+03  0.25500000000E-02 0.  1.
    5000001    1    1    2    0    0  0.28941491759E+02  0.50039242889E+02 -0.47091977822E+03  0.48066201566E+03  0.77000000000E+02 0.  0.
   -5000001    1    1    2    0    0 -0.28941491759E+02 -0.50039242889E+02 -0.23950154296E+03  0.25813082895E+03  0.77000000000E+02 0.  0.
<mgrwt>
<rscale>  0 0.20277183E+03</rscale>
<asrwt>0</asrwt>
<pdfrwt beam="1">  1        2 0.11147798E+00 0.20277183E+03</pdfrwt>
<pdfrwt beam="2">  1       -2 0.21824255E-02 0.20277183E+03</pdfrwt>
<totfact> 0.26614848E+04</totfact>
</mgrwt>
</event>
<event>
 4    1  0.1171488E-003  0.3714523E+03  0.7818608E-02  0.1054139E+00
          2   -1    0    0  501    0  0.00000000000E+00  0.00000000000E+00  0.39364217929E+03  0.39364217930E+03  0.25500000000E-02 0.  1.
         -2   -1    0    0    0  501 -0.00000000000E+00 -0.00000000000E+00 -0.87628306756E+02  0.87628306793E+02  0.25500000000E-02 0. -1.
    5000001    1    1    2    0    0 -0.41640159258E+02  0.16299280785E+03  0.13192971076E+03  0.22723337531E+03  0.77000000000E+02 0.  0.
   -5000001    1    1    2    0    0  0.41640159258E+02 -0.16299280785E+03  0.17408416178E+03  0.25403711078E+03  0.77000000000E+02 0.  0.
<mgrwt>
<rscale>  0 0.37145227E+03</rscale>
<asrwt>0</asrwt>
<pdfrwt beam="1">  1        2 0.60560335E-01 0.37145227E+03</pdfrwt>
<pdfrwt beam="2">  1       -2 0.13481278E-01 0.37145227E+03</pdfrwt>
<totfact> 0.33360773E+03</totfact>
</mgrwt>
</event>
<event>
 4    1  0.1171488E-003  0.2725865E+03  0.7818608E-02  0.1099808E+00
         -2   -1    0    0    0  501 -0.00000000000E+00  0.00000000000E+00  0.58021249419E+02  0.58021249475E+02  0.25500000000E-02 0. -1.
          2   -1    0    0  501    0  0.00000000000E+00 -0.00000000000E+00 -0.32015602778E+03  0.32015602779E+03  0.25500000000E-02 0.  1.
    5000001    1    1    2    0    0  0.10295380418E+03 -0.35055797873E+02 -0.17075813435E+03  0.21660040445E+03  0.77000000000E+02 0.  0.
   -5000001    1    1    2    0    0 -0.10295380418E+03  0.35055797873E+02 -0.91376644015E+02  0.16157687282E+03  0.77000000000E+02 0.  0.
<mgrwt>
<rscale>  0 0.27258652E+03</rscale>
<asrwt>0</asrwt>
<pdfrwt beam="1">  1        2 0.49254773E-01 0.27258652E+03</pdfrwt>
<pdfrwt beam="2">  1       -2 0.89263462E-02 0.27258652E+03</pdfrwt>
<totfact> 0.80366924E+03</totfact>
</mgrwt>
</event>
<event>
 4    1  0.1171488E-003  0.2280251E+03  0.7818608E-02  0.1128038E+00
          2   -1    0    0  501    0  0.00000000000E+00  0.00000000000E+00  0.41779763695E+03  0.41779763696E+03  0.25500000000E-02 0.  1.
         -2   -1    0    0    0  501 -0.00000000000E+00 -0.00000000000E+00 -0.31112809731E+02  0.31112809836E+02  0.25500000000E-02 0. -1.
    5000001    1    1    2    0    0  0.71004731981E+02 -0.40338557781E+02  0.23276475060E+03  0.25841304210E+03  0.77000000000E+02 0.  0.
   -5000001    1    1    2    0    0 -0.71004731981E+02  0.40338557781E+02  0.15392007662E+03  0.19049740469E+03  0.77000000000E+02 0.  0.
<mgrwt>
<rscale>  0 0.22802507E+03</rscale>
<asrwt>0</asrwt>
<pdfrwt beam="1">  1        2 0.64276560E-01 0.22802507E+03</pdfrwt>
<pdfrwt beam="2">  1       -2 0.47865861E-02 0.22802507E+03</pdfrwt>
<totfact> 0.15614277E+04</totfact>
</mgrwt>
</event>
<event>
 4    1  0.1171488E-003  0.3708842E+03  0.7818608E-02  0.1054355E+00
          2   -1    0    0  501    0  0.00000000000E+00  0.00000000000E+00  0.53339000303E+03  0.53339000303E+03  0.25500000000E-02 0.  1.
         -2   -1    0    0    0  501 -0.00000000000E+00 -0.00000000000E+00 -0.64472098366E+02  0.64472098416E+02  0.25500000000E-02 0. -1.
    5000001    1    1    2    0    0  0.94965207714E+02  0.23846944465E+02  0.13006869439E+02  0.12524075251E+03  0.77000000000E+02 0.  0.
   -5000001    1    1    2    0    0 -0.94965207714E+02 -0.23846944465E+02  0.45591103522E+03  0.47262134894E+03  0.77000000000E+02 0.  0.
<mgrwt>
<rscale>  0 0.37088420E+03</rscale>
<asrwt>0</asrwt>
<pdfrwt beam="1">  1        2 0.82060003E-01 0.37088420E+03</pdfrwt>
<pdfrwt beam="2">  1       -2 0.99187841E-02 0.37088420E+03</pdfrwt>
<totfact> 0.39073032E+03</totfact>
</mgrwt>
</event>
<event>
 4    1  0.1171488E-003  0.2004306E+03  0.7818608E-02  0.1149376E+00
          2   -1    0    0  501    0  0.00000000000E+00  0.00000000000E+00  0.79000694986E+03  0.79000694986E+03  0.25500000000E-02 0.  1.
         -2   -1    0    0    0  501 -0.00000000000E+00 -0.00000000000E+00 -0.12712686591E+02  0.12712686847E+02  0.25500000000E-02 0. -1.
    5000001    1    1    2    0    0 -0.41882082994E+02 -0.17756022406E+02  0.56974664618E+03  0.57672317973E+03  0.77000000000E+02 0.  0.
   -5000001    1    1    2    0    0  0.41882082994E+02  0.17756022406E+02  0.20754761708E+03  0.22599645697E+03  0.77000000000E+02 0.  0.
<mgrwt>
<rscale>  0 0.20043064E+03</rscale>
<asrwt>0</asrwt>
<pdfrwt beam="1">  1        2 0.12153953E+00 0.20043064E+03</pdfrwt>
<pdfrwt beam="2">  1       -2 0.19557980E-02 0.20043064E+03</pdfrwt>
<totfact> 0.28062944E+04</totfact>
</mgrwt>
</event>
<event>
 4    1  0.1171488E-003  0.2380496E+03  0.7818608E-02  0.1121099E+00
          2   -1    0    0  501    0  0.00000000000E+00  0.00000000000E+00  0.21005996813E+04  0.21005996813E+04  0.25500000000E-02 0.  1.
         -2   -1    0    0    0  501 -0.00000000000E+00 -0.00000000000E+00 -0.67442153976E+01  0.67442158797E+01  0.25500000000E-02 0. -1.
    5000001    1    1    2    0    0 -0.19467760474E+02  0.74533874790E+02  0.14718133756E+04  0.14758380348E+04  0.77000000000E+02 0.  0.
   -5000001    1    1    2    0    0  0.19467760474E+02 -0.74533874790E+02  0.62204209022E+03  0.63150586236E+03  0.77000000000E+02 0.  0.
<mgrwt>
<rscale>  0 0.23804955E+03</rscale>
<asrwt>0</asrwt>
<pdfrwt beam="1">  1        2 0.32316886E+00 0.23804955E+03</pdfrwt>
<pdfrwt beam="2">  1       -2 0.10375727E-02 0.23804955E+03</pdfrwt>
<totfact> 0.13242264E+04</totfact>
</mgrwt>
</event>
<event>
 4    1  0.1171488E-003  0.1970037E+03  0.7818608E-02  0.1152292E+00
          2   -1    0    0  501    0  0.00000000000E+00  0.00000000000E+00  0.35375780743E+04  0.35375780743E+04  0.25500000000E-02 0.  1.
         -2   -1    0    0    0  501 -0.00000000000E+00 -0.00000000000E+00 -0.27427284623E+01  0.27427296477E+01  0.25500000000E-02 0. -1.
    5000001    1    1    2    0    0 -0.83888192057E+01 -0.60751051903E+02  0.17037401018E+04  0.17065814944E+04  0.77000000000E+02 0.  0.
   -5000001    1    1    2    0    0  0.83888192057E+01  0.60751051903E+02  0.18310952441E+04  0.18337393096E+04  0.77000000000E+02 0.  0.
<mgrwt>
<rscale>  0 0.19700374E+03</rscale>
<asrwt>0</asrwt>
<pdfrwt beam="1">  1        2 0.54424145E+00 0.19700374E+03</pdfrwt>
<pdfrwt beam="2">  1       -2 0.42195935E-03 0.19700374E+03</pdfrwt>
<totfact> 0.71303555E+03</totfact>
</mgrwt>
</event>
<event>
 4    1  0.1171488E-003  0.3311955E+03  0.7818608E-02  0.1070609E+00
          2   -1    0    0  501    0  0.00000000000E+00  0.00000000000E+00  0.38582930744E+03  0.38582930745E+03  0.25500000000E-02 0.  1.
         -2   -1    0    0    0  501 -0.00000000000E+00 -0.00000000000E+00 -0.71074469917E+02  0.71074469963E+02  0.25500000000E-02 0. -1.
    5000001    1    1    2    0    0 -0.46560004146E+02 -0.13852410210E+03  0.17351605995E+03  0.23956958051E+03  0.77000000000E+02 0.  0.
   -5000001    1    1    2    0    0  0.46560004146E+02  0.13852410210E+03  0.14123877758E+03  0.21733419690E+03  0.77000000000E+02 0.  0.
<mgrwt>
<rscale>  0 0.33119549E+03</rscale>
<asrwt>0</asrwt>
<pdfrwt beam="1">  1        2 0.59358355E-01 0.33119549E+03</pdfrwt>
<pdfrwt beam="2">  1       -2 0.10934534E-01 0.33119549E+03</pdfrwt>
<totfact> 0.47827557E+03</totfact>
</mgrwt>
</event>
<event>
 4    1  0.1171488E-003  0.4970833E+03  0.7818608E-02  0.1014543E+00
          2   -1    0    0  501    0  0.00000000000E+00  0.00000000000E+00  0.32318807854E+04  0.32318807854E+04  0.25500000000E-02 0.  1.
         -2   -1    0    0    0  501 -0.00000000000E+00 -0.00000000000E+00 -0.19113623811E+02  0.19113623981E+02  0.25500000000E-02 0. -1.
    5000001    1    1    2    0    0 -0.23153235413E+03 -0.43835086962E+02  0.14902693030E+04  0.15107482720E+04  0.77000000000E+02 0.  0.
   -5000001    1    1    2    0    0  0.23153235413E+03  0.43835086962E+02  0.17224978585E+04  0.17402461373E+04  0.77000000000E+02 0.  0.
<mgrwt>
<rscale>  0 0.49708331E+03</rscale>
<asrwt>0</asrwt>
<pdfrwt beam="1">  1        2 0.49721230E+00 0.49708331E+03</pdfrwt>
<pdfrwt beam="2">  1       -2 0.29405583E-02 0.49708331E+03</pdfrwt>
<totfact> 0.63229935E+02</totfact>
</mgrwt>
</event>
<event>
 4    1  0.1171488E-003  0.3006585E+03  0.7818608E-02  0.1084912E+00
         -2   -1    0    0    0  501 -0.00000000000E+00  0.00000000000E+00  0.14582997217E+02  0.14582997440E+02  0.25500000000E-02 0. -1.
          2   -1    0    0  501    0  0.00000000000E+00 -0.00000000000E+00 -0.15496733341E+04  0.15496733341E+04  0.25500000000E-02 0.  1.
    5000001    1    1    2    0    0  0.32036358552E+01 -0.11744760436E+03 -0.10460599320E+04  0.10554499441E+04  0.77000000000E+02 0.  0.
   -5000001    1    1    2    0    0 -0.32036358552E+01  0.11744760436E+03 -0.48903040481E+03  0.50880638743E+03  0.77000000000E+02 0.  0.
<mgrwt>
<rscale>  0 0.30065849E+03</rscale>
<asrwt>0</asrwt>
<pdfrwt beam="1">  1        2 0.23841115E+00 0.30065849E+03</pdfrwt>
<pdfrwt beam="2">  1       -2 0.22435393E-02 0.30065849E+03</pdfrwt>
<totfact> 0.83873291E+03</totfact>
</mgrwt>
</event>
<event>
 4    1  0.1171488E-003  0.1889509E+03  0.7818608E-02  0.1159411E+00
         -2   -1    0    0    0  501 -0.00000000000E+00  0.00000000000E+00  0.40169586704E+01  0.40169594798E+01  0.25500000000E-02 0. -1.
          2   -1    0    0  501    0  0.00000000000E+00 -0.00000000000E+00 -0.22219813563E+04  0.22219813563E+04  0.25500000000E-02 0.  1.
    5000001    1    1    2    0    0  0.50234274499E+02 -0.20845586946E+02 -0.10358011903E+04  0.10400822692E+04  0.77000000000E+02 0.  0.
   -5000001    1    1    2    0    0 -0.50234274499E+02  0.20845586946E+02 -0.11821632073E+04  0.11859160466E+04  0.77000000000E+02 0.  0.
<mgrwt>
<rscale>  0 0.18895087E+03</rscale>
<asrwt>0</asrwt>
<pdfrwt beam="1">  1        2 0.34184230E+00 0.18895087E+03</pdfrwt>
<pdfrwt beam="2">  1       -2 0.61799548E-03 0.18895087E+03</pdfrwt>
<totfact> 0.23937931E+04</totfact>
</mgrwt>
</event>
<event>
 4    1  0.1171488E-003  0.1801959E+03  0.7818608E-02  0.1167614E+00
         -2   -1    0    0    0  501 -0.00000000000E+00  0.00000000000E+00  0.23404721629E+02  0.23404721768E+02  0.25500000000E-02 0. -1.
          2   -1    0    0  501    0  0.00000000000E+00 -0.00000000000E+00 -0.34683760709E+03  0.34683760710E+03  0.25500000000E-02 0.  1.
    5000001    1    1    2    0    0  0.35841527810E+02 -0.16938677608E+02 -0.11067530609E+03  0.14053311814E+03  0.77000000000E+02 0.  0.
   -5000001    1    1    2    0    0 -0.35841527810E+02  0.16938677608E+02 -0.21275757937E+03  0.22970921073E+03  0.77000000000E+02 0.  0.
<mgrwt>
<rscale>  0 0.18019587E+03</rscale>
<asrwt>0</asrwt>
<pdfrwt beam="1">  1        2 0.53359628E-01 0.18019587E+03</pdfrwt>
<pdfrwt beam="2">  1       -2 0.36007267E-02 0.18019587E+03</pdfrwt>
<totfact> 0.28743862E+04</totfact>
</mgrwt>
</event>
<event>
 4    1  0.1171488E-003  0.2840939E+03  0.7818608E-02  0.1093474E+00
         -2   -1    0    0    0  501 -0.00000000000E+00  0.00000000000E+00  0.20343767586E+02  0.20343767746E+02  0.25500000000E-02 0. -1.
          2   -1    0    0  501    0  0.00000000000E+00 -0.00000000000E+00 -0.99181886708E+03  0.99181886709E+03  0.25500000000E-02 0.  1.
    5000001    1    1    2    0    0  0.84886901073E+02  0.75290084955E+02 -0.61779832764E+03  0.63283343504E+03  0.77000000000E+02 0.  0.
   -5000001    1    1    2    0    0 -0.84886901073E+02 -0.75290084955E+02 -0.35367677186E+03  0.37932919979E+03  0.77000000000E+02 0.  0.
<mgrwt>
<rscale>  0 0.28409388E+03</rscale>
<asrwt>0</asrwt>
<pdfrwt beam="1">  1        2 0.15258748E+00 0.28409388E+03</pdfrwt>
<pdfrwt beam="2">  1       -2 0.31298112E-02 0.28409388E+03</pdfrwt>
<totfact> 0.10548252E+04</totfact>
</mgrwt>
</event>
<event>
 4    1  0.1171488E-003  0.2430533E+03  0.7818608E-02  0.1117775E+00
          2   -1    0    0  501    0  0.00000000000E+00  0.00000000000E+00  0.98812231583E+02  0.98812231616E+02  0.25500000000E-02 0.  1.
         -2   -1    0    0    0  501 -0.00000000000E+00 -0.00000000000E+00 -0.14946253392E+03  0.14946253394E+03  0.25500000000E-02 0. -1.
    5000001    1    1    2    0    0  0.41506583605E+02 -0.84140079307E+02 -0.19080131337E+02  0.12286334213E+03  0.77000000000E+02 0.  0.
   -5000001    1    1    2    0    0 -0.41506583605E+02  0.84140079307E+02 -0.31570171001E+02  0.12541142342E+03  0.77000000000E+02 0.  0.
<mgrwt>
<rscale>  0 0.24305330E+03</rscale>
<asrwt>0</asrwt>
<pdfrwt beam="1">  1        2 0.15201882E-01 0.24305330E+03</pdfrwt>
<pdfrwt beam="2">  1       -2 0.22994236E-01 0.24305330E+03</pdfrwt>
<totfact> 0.62285777E+03</totfact>
</mgrwt>
</event>
<event>
 4    1  0.1171488E-003  0.2222612E+03  0.7818608E-02  0.1132208E+00
          2   -1    0    0  501    0  0.00000000000E+00  0.00000000000E+00  0.70393722611E+03  0.70393722611E+03  0.25500000000E-02 0.  1.
         -2   -1    0    0    0  501 -0.00000000000E+00 -0.00000000000E+00 -0.17544192276E+02  0.17544192461E+02  0.25500000000E-02 0. -1.
    5000001    1    1    2    0    0  0.73480599411E+02 -0.12392882194E+02  0.24755897857E+03  0.26975438808E+03  0.77000000000E+02 0.  0.
   -5000001    1    1    2    0    0 -0.73480599411E+02  0.12392882194E+02  0.43883405526E+03  0.45172703049E+03  0.77000000000E+02 0.  0.
<mgrwt>
<rscale>  0 0.22226120E+03</rscale>
<asrwt>0</asrwt>
<pdfrwt beam="1">  1        2 0.10829802E+00 0.22226120E+03</pdfrwt>
<pdfrwt beam="2">  1       -2 0.26991068E-02 0.22226120E+03</pdfrwt>
<totfact> 0.20281789E+04</totfact>
</mgrwt>
</event>
<event>
 4    1  0.1171488E-003  0.3712643E+03  0.7818608E-02  0.1054211E+00
          2   -1    0    0  501    0  0.00000000000E+00  0.00000000000E+00  0.30704396378E+02  0.30704396484E+02  0.25500000000E-02 0.  1.
         -2   -1    0    0    0  501 -0.00000000000E+00 -0.00000000000E+00 -0.11222916175E+04  0.11222916175E+04  0.25500000000E-02 0. -1.
    5000001    1    1    2    0    0 -0.15765483389E+03  0.57170116655E+02 -0.48315463182E+03  0.51719519249E+03  0.77000000000E+02 0.  0.
   -5000001    1    1    2    0    0  0.15765483389E+03 -0.57170116655E+02 -0.60843258927E+03  0.63580082146E+03  0.77000000000E+02 0.  0.
<mgrwt>
<rscale>  0 0.37126425E+03</rscale>
<asrwt>0</asrwt>
<pdfrwt beam="1">  1        2 0.47237542E-02 0.37126425E+03</pdfrwt>
<pdfrwt beam="2">  1       -2 0.17266022E+00 0.37126425E+03</pdfrwt>
<totfact> 0.37100408E+02</totfact>
</mgrwt>
</event>
<event>
 4    1  0.1171488E-003  0.2417631E+03  0.7818608E-02  0.1118624E+00
          2   -1    0    0  501    0  0.00000000000E+00  0.00000000000E+00  0.22352837453E+02  0.22352837598E+02  0.25500000000E-02 0.  1.
         -2   -1    0    0    0  501 -0.00000000000E+00 -0.00000000000E+00 -0.65371364441E+03  0.65371364441E+03  0.25500000000E-02 0. -1.
    5000001    1    1    2    0    0  0.63975982723E+02 -0.60297073998E+02 -0.22927700874E+03  0.25734337030E+03  0.77000000000E+02 0.  0.
   -5000001    1    1    2    0    0 -0.63975982723E+02  0.60297073998E+02 -0.40208379821E+03  0.41872311171E+03  0.77000000000E+02 0.  0.
<mgrwt>
<rscale>  0 0.24176315E+03</rscale>
<asrwt>0</asrwt>
<pdfrwt beam="1">  1        2 0.34388986E-02 0.24176315E+03</pdfrwt>
<pdfrwt beam="2">  1       -2 0.10057132E+00 0.24176315E+03</pdfrwt>
<totfact> 0.21851757E+03</totfact>
</mgrwt>
</event>
<event>
 4    1  0.1171488E-003  0.1752741E+03  0.7818608E-02  0.1172457E+00
         -2   -1    0    0    0  501 -0.00000000000E+00  0.00000000000E+00  0.49287862505E+02  0.49287862571E+02  0.25500000000E-02 0. -1.
          2   -1    0    0  501    0  0.00000000000E+00 -0.00000000000E+00 -0.15582444074E+03  0.15582444076E+03  0.25500000000E-02 0.  1.
    5000001    1    1    2    0    0 -0.36221194948E+01  0.33681898812E+02 -0.82020511312E+02  0.11749023080E+03  0.77000000000E+02 0.  0.
   -5000001    1    1    2    0    0  0.36221194948E+01 -0.33681898812E+02 -0.24516066918E+02  0.87622072529E+02  0.77000000000E+02 0.  0.
<mgrwt>
<rscale>  0 0.17527411E+03</rscale>
<asrwt>0</asrwt>
<pdfrwt beam="1">  1        2 0.23972991E-01 0.17527411E+03</pdfrwt>
<pdfrwt beam="2">  1       -2 0.75827482E-02 0.17527411E+03</pdfrwt>
<totfact> 0.22053010E+04</totfact>
</mgrwt>
</event>
<event>
 4    1  0.1171488E-003  0.2566507E+03  0.7818608E-02  0.1109172E+00
         -2   -1    0    0    0  501 -0.00000000000E+00  0.00000000000E+00  0.49696626407E+03  0.49696626408E+03  0.25500000000E-02 0. -1.
          2   -1    0    0  501    0  0.00000000000E+00 -0.00000000000E+00 -0.33135832527E+02  0.33135832625E+02  0.25500000000E-02 0.  1.
    5000001    1    1    2    0    0 -0.91093722903E+02 -0.43665817291E+02  0.26964147991E+03  0.29806089586E+03  0.77000000000E+02 0.  0.
   -5000001    1    1    2    0    0  0.91093722903E+02  0.43665817291E+02  0.19418895163E+03  0.23204120084E+03  0.77000000000E+02 0.  0.
<mgrwt>
<rscale>  0 0.25665066E+03</rscale>
<asrwt>0</asrwt>
<pdfrwt beam="1">  1        2 0.50978203E-02 0.25665066E+03</pdfrwt>
<pdfrwt beam="2">  1       -2 0.76456350E-01 0.25665066E+03</pdfrwt>
<totfact> 0.23988154E+03</totfact>
</mgrwt>
</event>
<event>
 4    1  0.1171488E-003  0.1989228E+03  0.7818608E-02  0.1150651E+00
          2   -1    0    0  501    0  0.00000000000E+00  0.00000000000E+00  0.56742938284E+03  0.56742938284E+03  0.25500000000E-02 0.  1.
         -2   -1    0    0    0  501 -0.00000000000E+00 -0.00000000000E+00 -0.17434014911E+02  0.17434015098E+02  0.25500000000E-02 0. -1.
    5000001    1    1    2    0    0  0.40778873673E+02  0.42458565453E+02  0.20939037007E+03  0.23073572198E+03  0.77000000000E+02 0.  0.
   -5000001    1    1    2    0    0 -0.40778873673E+02 -0.42458565453E+02  0.34060499786E+03  0.35412767597E+03  0.77000000000E+02 0.  0.
<mgrwt>
<rscale>  0 0.19892282E+03</rscale>
<asrwt>0</asrwt>
<pdfrwt beam="1">  1        2 0.87296842E-01 0.19892282E+03</pdfrwt>
<pdfrwt beam="2">  1       -2 0.26821557E-02 0.19892282E+03</pdfrwt>
<totfact> 0.26150900E+04</totfact>
</mgrwt>
</event>
<event>
 4    1  0.1171488E-003  0.2913225E+03  0.7818608E-02  0.1089661E+00
         -2   -1    0    0    0  501 -0.00000000000E+00  0.00000000000E+00  0.16479559771E+02  0.16479559968E+02  0.25500000000E-02 0. -1.
          2   -1    0    0  501    0  0.00000000000E+00 -0.00000000000E+00 -0.12874858252E+04  0.12874858252E+04  0.25500000000E-02 0.  1.
    5000001    1    1    2    0    0  0.99763956824E+02  0.52830388430E+02 -0.40972783394E+03  0.43191410596E+03  0.77000000000E+02 0.  0.
   -5000001    1    1    2    0    0 -0.99763956824E+02 -0.52830388430E+02 -0.86127843144E+03  0.87205127916E+03  0.77000000000E+02 0.  0.
<mgrwt>
<rscale>  0 0.29132250E+03</rscale>
<asrwt>0</asrwt>
<pdfrwt beam="1">  1        2 0.19807466E+00 0.29132250E+03</pdfrwt>
<pdfrwt beam="2">  1       -2 0.25353179E-02 0.29132250E+03</pdfrwt>
<totfact> 0.97128680E+03</totfact>
</mgrwt>
</event>
<event>
 4    1  0.1171488E-003  0.2394223E+03  0.7818608E-02  0.1120178E+00
         -2   -1    0    0    0  501 -0.00000000000E+00  0.00000000000E+00  0.14235205531E+03  0.14235205533E+03  0.25500000000E-02 0. -1.
          2   -1    0    0  501    0  0.00000000000E+00 -0.00000000000E+00 -0.10067124930E+03  0.10067124933E+03  0.25500000000E-02 0.  1.
    5000001    1    1    2    0    0 -0.14517197239E+02  0.56176437598E+02 -0.51186123213E+02  0.10915841867E+03  0.77000000000E+02 0.  0.
   -5000001    1    1    2    0    0  0.14517197239E+02 -0.56176437598E+02  0.92866929222E+02  0.13386488599E+03  0.77000000000E+02 0.  0.
<mgrwt>
<rscale>  0 0.23942230E+03</rscale>
<asrwt>0</asrwt>
<pdfrwt beam="1">  1        2 0.15487885E-01 0.23942230E+03</pdfrwt>
<pdfrwt beam="2">  1       -2 0.21900316E-01 0.23942230E+03</pdfrwt>
<totfact> 0.66260251E+03</totfact>
</mgrwt>
</event>
<event>
 4    1  0.1171488E-003  0.2196278E+03  0.7818608E-02  0.1134161E+00
          2   -1    0    0  501    0  0.00000000000E+00  0.00000000000E+00  0.71800901780E+03  0.71800901780E+03  0.25500000000E-02 0.  1.
         -2   -1    0    0    0  501 -0.00000000000E+00 -0.00000000000E+00 -0.16795186882E+02  0.16795187076E+02  0.25500000000E-02 0. -1.
    5000001    1    1    2    0    0 -0.20298553877E+02 -0.71295770158E+02  0.43491388161E+03  0.44785511335E+03  0.77000000000E+02 0.  0.
   -5000001    1    1    2    0    0  0.20298553877E+02  0.71295770158E+02  0.26629994930E+03  0.28694909153E+03  0.77000000000E+02 0.  0.
<mgrwt>
<rscale>  0 0.21962783E+03</rscale>
<asrwt>0</asrwt>
<pdfrwt beam="1">  1        2 0.11046295E+00 0.21962783E+03</pdfrwt>
<pdfrwt beam="2">  1       -2 0.25838743E-02 0.21962783E+03</pdfrwt>
<totfact> 0.21103386E+04</totfact>
</mgrwt>
</event>
<event>
 4    1  0.1171488E-003  0.2073839E+03  0.7818608E-02  0.1143655E+00
          2   -1    0    0  501    0  0.00000000000E+00  0.00000000000E+00  0.50039214635E+03  0.50039214636E+03  0.25500000000E-02 0.  1.
         -2   -1    0    0    0  501 -0.00000000000E+00 -0.00000000000E+00 -0.21487180910E+02  0.21487181061E+02  0.25500000000E-02 0. -1.
    5000001    1    1    2    0    0 -0.60029942032E+02 -0.22683695471E+02  0.17264109997E+03  0.19962989099E+03  0.77000000000E+02 0.  0.
   -5000001    1    1    2    0    0  0.60029942032E+02  0.22683695471E+02  0.30626386547E+03  0.32224943642E+03  0.77000000000E+02 0.  0.
<mgrwt>
<rscale>  0 0.20738386E+03</rscale>
<asrwt>0</asrwt>
<pdfrwt beam="1">  1        2 0.76983401E-01 0.20738386E+03</pdfrwt>
<pdfrwt beam="2">  1       -2 0.33057204E-02 0.20738386E+03</pdfrwt>
<totfact> 0.22167969E+04</totfact>
</mgrwt>
</event>
<event>
 4    1  0.1171488E-003  0.3961249E+03  0.7818608E-02  0.1045130E+00
          2   -1    0    0  501    0  0.00000000000E+00  0.00000000000E+00  0.20605529640E+03  0.20605529641E+03  0.25500000000E-02 0.  1.
         -2   -1    0    0    0  501 -0.00000000000E+00 -0.00000000000E+00 -0.19037959790E+03  0.19037959792E+03  0.25500000000E-02 0. -1.
    5000001    1    1    2    0    0 -0.48315916025E+02 -0.14814757031E+03  0.10287318811E+03  0.20197530335E+03  0.77000000000E+02 0.  0.
   -5000001    1    1    2    0    0  0.48315916025E+02  0.14814757031E+03 -0.87197489618E+02  0.19445959099E+03  0.77000000000E+02 0.  0.
<mgrwt>
<rscale>  0 0.39612485E+03</rscale>
<asrwt>0</asrwt>
<pdfrwt beam="1">  1        2 0.31700815E-01 0.39612485E+03</pdfrwt>
<pdfrwt beam="2">  1       -2 0.29289169E-01 0.39612485E+03</pdfrwt>
<totfact> 0.17746704E+03</totfact>
</mgrwt>
</event>
<event>
 4    1  0.1171488E-003  0.1879353E+03  0.7818608E-02  0.1160337E+00
          2   -1    0    0  501    0  0.00000000000E+00  0.00000000000E+00  0.13803597180E+04  0.13803597180E+04  0.25500000000E-02 0.  1.
         -2   -1    0    0    0  501 -0.00000000000E+00 -0.00000000000E+00 -0.63968227137E+01  0.63968232219E+01  0.25500000000E-02 0. -1.
    5000001    1    1    2    0    0 -0.10313401717E+02 -0.46743315149E+02  0.50479375842E+03  0.51287137014E+03  0.77000000000E+02 0.  0.
   -5000001    1    1    2    0    0  0.10313401717E+02  0.46743315149E+02  0.86916913689E+03  0.87388517111E+03  0.77000000000E+02 0.  0.
<mgrwt>
<rscale>  0 0.18793527E+03</rscale>
<asrwt>0</asrwt>
<pdfrwt beam="1">  1        2 0.21236304E+00 0.18793527E+03</pdfrwt>
<pdfrwt beam="2">  1       -2 0.98412659E-03 0.18793527E+03</pdfrwt>
<totfact> 0.33767768E+04</totfact>
</mgrwt>
</event>
<event>
 4    1  0.1171488E-003  0.3162255E+03  0.7818608E-02  0.1077400E+00
          2   -1    0    0  501    0  0.00000000000E+00  0.00000000000E+00  0.17075899685E+04  0.17075899685E+04  0.25500000000E-02 0.  1.
         -2   -1    0    0    0  501 -0.00000000000E+00 -0.00000000000E+00 -0.14640305771E+02  0.14640305993E+02  0.25500000000E-02 0. -1.
    5000001    1    1    2    0    0  0.69915011328E+02 -0.69027029711E+01  0.19897379898E+03  0.22462263643E+03  0.77000000000E+02 0.  0.
   -5000001    1    1    2    0    0 -0.69915011328E+02  0.69027029711E+01  0.14939758637E+04  0.14976076380E+04  0.77000000000E+02 0.  0.
<mgrwt>
<rscale>  0 0.31622549E+03</rscale>
<asrwt>0</asrwt>
<pdfrwt beam="1">  1        2 0.26270611E+00 0.31622549E+03</pdfrwt>
<pdfrwt beam="2">  1       -2 0.22523551E-02 0.31622549E+03</pdfrwt>
<totfact> 0.68767170E+03</totfact>
</mgrwt>
</event>
<event>
 4    1  0.1171488E-003  0.4760326E+03  0.7818608E-02  0.1020231E+00
         -2   -1    0    0    0  501 -0.00000000000E+00  0.00000000000E+00  0.27778155353E+02  0.27778155470E+02  0.25500000000E-02 0.  1.
          2   -1    0    0  501    0  0.00000000000E+00 -0.00000000000E+00 -0.20394355690E+04  0.20394355690E+04  0.25500000000E-02 0. -1.
    5000001    1    1    2    0    0  0.10436756228E+03 -0.19323612284E+03 -0.12225221793E+04  0.12444767038E+04  0.77000000000E+02 0.  0.
   -5000001    1    1    2    0    0 -0.10436756228E+03  0.19323612284E+03 -0.78913523432E+03  0.82273702072E+03  0.77000000000E+02 0.  0.
<mgrwt>
<rscale>  0 0.47603260E+03</rscale>
<asrwt>0</asrwt>
<pdfrwt beam="1">  1        2 0.31375920E+00 0.47603260E+03</pdfrwt>
<pdfrwt beam="2">  1       -2 0.42735640E-02 0.47603260E+03</pdfrwt>
<totfact> 0.17372359E+03</totfact>
</mgrwt>
</event>
<event>
 4    1  0.1171488E-003  0.1915468E+03  0.7818608E-02  0.1157074E+00
          2   -1    0    0  501    0  0.00000000000E+00  0.00000000000E+00  0.41720430362E+02  0.41720430440E+02  0.25500000000E-02 0.  1.
         -2   -1    0    0    0  501 -0.00000000000E+00 -0.00000000000E+00 -0.21985743906E+03  0.21985743907E+03  0.25500000000E-02 0. -1.
    5000001    1    1    2    0    0 -0.37219049154E+02  0.56765852990E+01 -0.30712676412E+02  0.91048062763E+02  0.77000000000E+02 0.  0.
   -5000001    1    1    2    0    0  0.37219049154E+02 -0.56765852990E+01 -0.14742433229E+03  0.17052980675E+03  0.77000000000E+02 0.  0.
<mgrwt>
<rscale>  0 0.19154683E+03</rscale>
<asrwt>0</asrwt>
<pdfrwt beam="1">  1        2 0.64185279E-02 0.19154683E+03</pdfrwt>
<pdfrwt beam="2">  1       -2 0.33824221E-01 0.19154683E+03</pdfrwt>
<totfact> 0.89540419E+03</totfact>
</mgrwt>
</event>
<event>
 4    1  0.1171488E-003  0.1825100E+03  0.7818608E-02  0.1165396E+00
         -2   -1    0    0    0  501 -0.00000000000E+00  0.00000000000E+00  0.19241812596E+03  0.19241812598E+03  0.25500000000E-02 0. -1.
          2   -1    0    0  501    0  0.00000000000E+00 -0.00000000000E+00 -0.43278036978E+02  0.43278037053E+02  0.25500000000E-02 0.  1.
    5000001    1    1    2    0    0  0.40365954212E+02  0.26626064162E+02  0.84583400926E+02  0.12418417477E+03  0.77000000000E+02 0.  0.
   -5000001    1    1    2    0    0 -0.40365954212E+02 -0.26626064162E+02  0.64556688058E+02  0.11151198826E+03  0.77000000000E+02 0.  0.
<mgrwt>
<rscale>  0 0.18251004E+03</rscale>
<asrwt>0</asrwt>
<pdfrwt beam="1">  1        2 0.66581595E-02 0.18251004E+03</pdfrwt>
<pdfrwt beam="2">  1       -2 0.29602789E-01 0.18251004E+03</pdfrwt>
<totfact> 0.10852361E+04</totfact>
</mgrwt>
</event>
<event>
 4    1  0.1171488E-003  0.2770674E+03  0.7818608E-02  0.1097302E+00
         -2   -1    0    0    0  501 -0.00000000000E+00  0.00000000000E+00  0.13175668932E+02  0.13175669179E+02  0.25500000000E-02 0. -1.
          2   -1    0    0  501    0  0.00000000000E+00 -0.00000000000E+00 -0.14565929211E+04  0.14565929211E+04  0.25500000000E-02 0.  1.
    5000001    1    1    2    0    0 -0.98345594978E+02  0.23274590318E+02 -0.42879206403E+03  0.44721940564E+03  0.77000000000E+02 0.  0.
   -5000001    1    1    2    0    0  0.98345594978E+02 -0.23274590318E+02 -0.10146251881E+04  0.10225491846E+04  0.77000000000E+02 0.  0.
<mgrwt>
<rscale>  0 0.27706740E+03</rscale>
<asrwt>0</asrwt>
<pdfrwt beam="1">  1        2 0.22409109E+00 0.27706740E+03</pdfrwt>
<pdfrwt beam="2">  1       -2 0.20270272E-02 0.27706740E+03</pdfrwt>
<totfact> 0.10913820E+04</totfact>
</mgrwt>
</event>
<event>
 4    1  0.1171488E-003  0.2112011E+03  0.7818608E-02  0.1140618E+00
          2   -1    0    0  501    0  0.00000000000E+00  0.00000000000E+00  0.18967257489E+02  0.18967257661E+02  0.25500000000E-02 0.  1.
         -2   -1    0    0    0  501 -0.00000000000E+00 -0.00000000000E+00 -0.58793316291E+03  0.58793316291E+03  0.25500000000E-02 0. -1.
    5000001    1    1    2    0    0 -0.30126605574E+02  0.50208271776E+02 -0.16277133699E+03  0.18934622009E+03  0.77000000000E+02 0.  0.
   -5000001    1    1    2    0    0  0.30126605574E+02 -0.50208271776E+02 -0.40619456843E+03  0.41755420049E+03  0.77000000000E+02 0.  0.
<mgrwt>
<rscale>  0 0.21120113E+03</rscale>
<asrwt>0</asrwt>
<pdfrwt beam="1">  1        2 0.29180401E-02 0.21120113E+03</pdfrwt>
<pdfrwt beam="2">  1       -2 0.90451242E-01 0.21120113E+03</pdfrwt>
<totfact> 0.34564919E+03</totfact>
</mgrwt>
</event>
<event>
 4    1  0.1171488E-003  0.3074310E+03  0.7818608E-02  0.1081584E+00
         -2   -1    0    0    0  501 -0.00000000000E+00  0.00000000000E+00  0.21675355012E+03  0.21675355014E+03  0.25500000000E-02 0. -1.
          2   -1    0    0  501    0  0.00000000000E+00 -0.00000000000E+00 -0.10901067573E+03  0.10901067576E+03  0.25500000000E-02 0.  1.
    5000001    1    1    2    0    0  0.34439031184E+02 -0.80377413074E+02  0.16011458324E+03  0.19802084529E+03  0.77000000000E+02 0.  0.
   -5000001    1    1    2    0    0 -0.34439031184E+02  0.80377413074E+02 -0.52371708850E+02  0.12774338061E+03  0.77000000000E+02 0.  0.
<mgrwt>
<rscale>  0 0.30743097E+03</rscale>
<asrwt>0</asrwt>
<pdfrwt beam="1">  1        2 0.16770873E-01 0.30743097E+03</pdfrwt>
<pdfrwt beam="2">  1       -2 0.33346700E-01 0.30743097E+03</pdfrwt>
<totfact> 0.28704549E+03</totfact>
</mgrwt>
</event>
<event>
 4    1  0.1171488E-003  0.3773569E+03  0.7818608E-02  0.1051915E+00
         -2   -1    0    0    0  501 -0.00000000000E+00  0.00000000000E+00  0.25677577900E+02  0.25677578027E+02  0.25500000000E-02 0. -1.
          2   -1    0    0  501    0  0.00000000000E+00 -0.00000000000E+00 -0.13864065539E+04  0.13864065539E+04  0.25500000000E-02 0.  1.
    5000001    1    1    2    0    0 -0.12078897549E+03  0.23447707446E+02 -0.11314437617E+04  0.11407163352E+04  0.77000000000E+02 0.  0.
   -5000001    1    1    2    0    0  0.12078897549E+03 -0.23447707446E+02 -0.22928521429E+03  0.27136779669E+03  0.77000000000E+02 0.  0.
<mgrwt>
<rscale>  0 0.37735693E+03</rscale>
<asrwt>0</asrwt>
<pdfrwt beam="1">  1        2 0.21329326E+00 0.37735693E+03</pdfrwt>
<pdfrwt beam="2">  1       -2 0.39503977E-02 0.37735693E+03</pdfrwt>
<totfact> 0.44158521E+03</totfact>
</mgrwt>
</event>
<event>
 4    1  0.1171488E-003  0.2911340E+03  0.7818608E-02  0.1089759E+00
          2   -1    0    0  501    0  0.00000000000E+00  0.00000000000E+00  0.15721083524E+02  0.15721083731E+02  0.25500000000E-02 0.  1.
         -2   -1    0    0    0  501 -0.00000000000E+00 -0.00000000000E+00 -0.13478560802E+04  0.13478560802E+04  0.25500000000E-02 0. -1.
    5000001    1    1    2    0    0 -0.31614453330E+02  0.11942047983E+03 -0.66692469306E+03  0.68262601099E+03  0.77000000000E+02 0.  0.
   -5000001    1    1    2    0    0  0.31614453330E+02 -0.11942047983E+03 -0.66521030360E+03  0.68095115294E+03  0.77000000000E+02 0.  0.
<mgrwt>
<rscale>  0 0.29113405E+03</rscale>
<asrwt>0</asrwt>
<pdfrwt beam="1">  1        2 0.24186293E-02 0.29113405E+03</pdfrwt>
<pdfrwt beam="2">  1       -2 0.20736238E+00 0.29113405E+03</pdfrwt>
<totfact> 0.54646990E+02</totfact>
</mgrwt>
</event>
<event>
 4    1  0.1171488E-003  0.1863911E+03  0.7818608E-02  0.1161757E+00
          2   -1    0    0  501    0  0.00000000000E+00  0.00000000000E+00  0.62788529443E+03  0.62788529443E+03  0.25500000000E-02 0.  1.
         -2   -1    0    0    0  501 -0.00000000000E+00 -0.00000000000E+00 -0.13832797817E+02  0.13832798053E+02  0.25500000000E-02 0. -1.
    5000001    1    1    2    0    0  0.67373766135E+01  0.32640975181E+02  0.44668857184E+03  0.45450028132E+03  0.77000000000E+02 0.  0.
   -5000001    1    1    2    0    0 -0.67373766135E+01 -0.32640975181E+02  0.16736392477E+03  0.18721781117E+03  0.77000000000E+02 0.  0.
<mgrwt>
<rscale>  0 0.18639110E+03</rscale>
<asrwt>0</asrwt>
<pdfrwt beam="1">  1        2 0.96597728E-01 0.18639110E+03</pdfrwt>
<pdfrwt beam="2">  1       -2 0.21281230E-02 0.18639110E+03</pdfrwt>
<totfact> 0.32535634E+04</totfact>
</mgrwt>
</event>
<event>
 4    1  0.1171488E-003  0.2234129E+03  0.7818608E-02  0.1131364E+00
          2   -1    0    0  501    0  0.00000000000E+00  0.00000000000E+00  0.13834917625E+03  0.13834917628E+03  0.25500000000E-02 0.  1.
         -2   -1    0    0    0  501 -0.00000000000E+00 -0.00000000000E+00 -0.90194438464E+02  0.90194438500E+02  0.25500000000E-02 0. -1.
    5000001    1    1    2    0    0 -0.74747722552E+00 -0.69537825315E+02  0.66419465901E+02  0.12319339805E+03  0.77000000000E+02 0.  0.
   -5000001    1    1    2    0    0  0.74747722552E+00  0.69537825315E+02 -0.18264728114E+02  0.10535021673E+03  0.77000000000E+02 0.  0.
<mgrwt>
<rscale>  0 0.22341286E+03</rscale>
<asrwt>0</asrwt>
<pdfrwt beam="1">  1        2 0.21284488E-01 0.22341286E+03</pdfrwt>
<pdfrwt beam="2">  1       -2 0.13876068E-01 0.22341286E+03</pdfrwt>
<totfact> 0.98336746E+03</totfact>
</mgrwt>
</event>
<event>
 4    1  0.1171488E-003  0.4107252E+03  0.7818608E-02  0.1040128E+00
         -2   -1    0    0    0  501 -0.00000000000E+00  0.00000000000E+00  0.12656506900E+02  0.12656507157E+02  0.25500000000E-02 0. -1.
          2   -1    0    0  501    0  0.00000000000E+00 -0.00000000000E+00 -0.33321824675E+04  0.33321824675E+04  0.25500000000E-02 0.  1.
    5000001    1    1    2    0    0 -0.11599722104E+03 -0.14040593920E+03 -0.12081261255E+04  0.12242005221E+04  0.77000000000E+02 0.  0.
   -5000001    1    1    2    0    0  0.11599722104E+03  0.14040593920E+03 -0.21113998351E+04  0.21206384526E+04  0.77000000000E+02 0.  0.
<mgrwt>
<rscale>  0 0.41072517E+03</rscale>
<asrwt>0</asrwt>
<pdfrwt beam="1">  1        2 0.51264276E+00 0.41072517E+03</pdfrwt>
<pdfrwt beam="2">  1       -2 0.19471576E-02 0.41072517E+03</pdfrwt>
<totfact> 0.10241980E+03</totfact>
</mgrwt>
</event>
<event>
 4    1  0.1171488E-003  0.2298739E+03  0.7818608E-02  0.1126729E+00
          2   -1    0    0  501    0  0.00000000000E+00  0.00000000000E+00  0.19034283512E+03  0.19034283514E+03  0.25500000000E-02 0.  1.
         -2   -1    0    0    0  501 -0.00000000000E+00 -0.00000000000E+00 -0.69403752402E+02  0.69403752449E+02  0.25500000000E-02 0. -1.
    5000001    1    1    2    0    0 -0.43935341186E+02 -0.63841482768E+02  0.10082415309E+03  0.14866256749E+03  0.77000000000E+02 0.  0.
   -5000001    1    1    2    0    0  0.43935341186E+02  0.63841482768E+02  0.20114929635E+02  0.11108402010E+03  0.77000000000E+02 0.  0.
<mgrwt>
<rscale>  0 0.22987394E+03</rscale>
<asrwt>0</asrwt>
<pdfrwt beam="1">  1        2 0.29283513E-01 0.22987394E+03</pdfrwt>
<pdfrwt beam="2">  1       -2 0.10677500E-01 0.22987394E+03</pdfrwt>
<totfact> 0.10533720E+04</totfact>
</mgrwt>
</event>
<event>
 4    1  0.1171488E-003  0.1976009E+03  0.7818608E-02  0.1151779E+00
          2   -1    0    0  501    0  0.00000000000E+00  0.00000000000E+00  0.37979038942E+04  0.37979038942E+04  0.25500000000E-02 0.  1.
         -2   -1    0    0    0  501 -0.00000000000E+00 -0.00000000000E+00 -0.25702398640E+01  0.25702411290E+01  0.25500000000E-02 0. -1.
    5000001    1    1    2    0    0 -0.32417015800E+01 -0.55269743820E+02  0.24304174042E+04  0.24322670519E+04  0.77000000000E+02 0.  0.
   -5000001    1    1    2    0    0  0.32417015800E+01  0.55269743820E+02  0.13649162502E+04  0.13682070834E+04  0.77000000000E+02 0.  0.
<mgrwt>
<rscale>  0 0.19760087E+03</rscale>
<asrwt>0</asrwt>
<pdfrwt beam="1">  1        2 0.58429264E+00 0.19760087E+03</pdfrwt>
<pdfrwt beam="2">  1       -2 0.39542180E-03 0.19760087E+03</pdfrwt>
<totfact> 0.51839036E+03</totfact>
</mgrwt>
</event>
<event>
 4    1  0.1171488E-003  0.1632602E+03  0.7818608E-02  0.1185064E+00
         -2   -1    0    0    0  501 -0.00000000000E+00  0.00000000000E+00  0.17019963048E+02  0.17019963239E+02  0.25500000000E-02 0. -1.
          2   -1    0    0  501    0  0.00000000000E+00 -0.00000000000E+00 -0.39150948598E+03  0.39150948598E+03  0.25500000000E-02 0.  1.
    5000001    1    1    2    0    0  0.19219480427E+02 -0.19106532944E+02 -0.18681866193E+03  0.20387412900E+03  0.77000000000E+02 0.  0.
   -5000001    1    1    2    0    0 -0.19219480427E+02  0.19106532944E+02 -0.18767086099E+03  0.20465532022E+03  0.77000000000E+02 0.  0.
<mgrwt>
<rscale>  0 0.16326025E+03</rscale>
<asrwt>0</asrwt>
<pdfrwt beam="1">  1        2 0.60232222E-01 0.16326025E+03</pdfrwt>
<pdfrwt beam="2">  1       -2 0.26184562E-02 0.16326025E+03</pdfrwt>
<totfact> 0.40058131E+04</totfact>
</mgrwt>
</event>
<event>
 4    1  0.1171488E-003  0.3071031E+03  0.7818608E-02  0.1081743E+00
          2   -1    0    0  501    0  0.00000000000E+00  0.00000000000E+00  0.17177863480E+04  0.17177863480E+04  0.25500000000E-02 0.  1.
         -2   -1    0    0    0  501 -0.00000000000E+00 -0.00000000000E+00 -0.13725848229E+02  0.13725848466E+02  0.25500000000E-02 0. -1.
    5000001    1    1    2    0    0  0.12435709884E+03 -0.46176663986E+02  0.89272805675E+03  0.90580867496E+03  0.77000000000E+02 0.  0.
   -5000001    1    1    2    0    0 -0.12435709884E+03  0.46176663986E+02  0.81133244304E+03  0.82570352153E+03  0.77000000000E+02 0.  0.
<mgrwt>
<rscale>  0 0.30710308E+03</rscale>
<asrwt>0</asrwt>
<pdfrwt beam="1">  1        2 0.26427469E+00 0.30710308E+03</pdfrwt>
<pdfrwt beam="2">  1       -2 0.21116700E-02 0.30710308E+03</pdfrwt>
<totfact> 0.74706499E+03</totfact>
</mgrwt>
</event>
<event>
 4    1  0.1171488E-003  0.2200965E+03  0.7818608E-02  0.1133811E+00
          2   -1    0    0  501    0  0.00000000000E+00  0.00000000000E+00  0.10579625108E+04  0.10579625108E+04  0.25500000000E-02 0.  1.
         -2   -1    0    0    0  501 -0.00000000000E+00 -0.00000000000E+00 -0.11447114133E+02  0.11447114417E+02  0.25500000000E-02 0. -1.
    5000001    1    1    2    0    0  0.49243271386E+02  0.25165350407E+02  0.25170985672E+03  0.26897034522E+03  0.77000000000E+02 0.  0.
   -5000001    1    1    2    0    0 -0.49243271386E+02 -0.25165350407E+02  0.79480553995E+03  0.80043928000E+03  0.77000000000E+02 0.  0.
<mgrwt>
<rscale>  0 0.22009650E+03</rscale>
<asrwt>0</asrwt>
<pdfrwt beam="1">  1        2 0.16276349E+00 0.22009650E+03</pdfrwt>
<pdfrwt beam="2">  1       -2 0.17610943E-02 0.22009650E+03</pdfrwt>
<totfact> 0.22237179E+04</totfact>
</mgrwt>
</event>
<event>
 4    1  0.1171488E-003  0.1834427E+03  0.7818608E-02  0.1164512E+00
         -2   -1    0    0    0  501 -0.00000000000E+00  0.00000000000E+00  0.63453500686E+01  0.63453505810E+01  0.25500000000E-02 0. -1.
          2   -1    0    0  501    0  0.00000000000E+00 -0.00000000000E+00 -0.13258220694E+04  0.13258220694E+04  0.25500000000E-02 0.  1.
    5000001    1    1    2    0    0  0.59797608172E+01  0.47503200579E+02 -0.76023137024E+03  0.76561938840E+03  0.77000000000E+02 0.  0.
   -5000001    1    1    2    0    0 -0.59797608172E+01 -0.47503200579E+02 -0.55924534906E+03  0.56654803155E+03  0.77000000000E+02 0.  0.
<mgrwt>
<rscale>  0 0.18344269E+03</rscale>
<asrwt>0</asrwt>
<pdfrwt beam="1">  1        2 0.20397241E+00 0.18344269E+03</pdfrwt>
<pdfrwt beam="2">  1       -2 0.97620880E-03 0.18344269E+03</pdfrwt>
<totfact> 0.36501516E+04</totfact>
</mgrwt>
</event>
<event>
 4    1  0.1171488E-003  0.3238738E+03  0.7818608E-02  0.1073880E+00
          2   -1    0    0  501    0  0.00000000000E+00  0.00000000000E+00  0.79276857036E+03  0.79276857036E+03  0.25500000000E-02 0.  1.
         -2   -1    0    0    0  501 -0.00000000000E+00 -0.00000000000E+00 -0.33078455468E+02  0.33078455566E+02  0.25500000000E-02 0. -1.
    5000001    1    1    2    0    0 -0.10557757134E+03 -0.78262520559E+02  0.23964870971E+03  0.28395800704E+03  0.77000000000E+02 0.  0.
   -5000001    1    1    2    0    0  0.10557757134E+03  0.78262520559E+02  0.52004140518E+03  0.54188901889E+03  0.77000000000E+02 0.  0.
<mgrwt>
<rscale>  0 0.32387380E+03</rscale>
<asrwt>0</asrwt>
<pdfrwt beam="1">  1        2 0.12196440E+00 0.32387380E+03</pdfrwt>
<pdfrwt beam="2">  1       -2 0.50889931E-02 0.32387380E+03</pdfrwt>
<totfact> 0.68585309E+03</totfact>
</mgrwt>
</event>
<event>
 4    1  0.1171488E-003  0.2629303E+03  0.7818608E-02  0.1105395E+00
         -2   -1    0    0    0  501 -0.00000000000E+00  0.00000000000E+00  0.21823530868E+03  0.21823530870E+03  0.25500000000E-02 0. -1.
          2   -1    0    0  501    0  0.00000000000E+00 -0.00000000000E+00 -0.79194756292E+02  0.79194756333E+02  0.25500000000E-02 0.  1.
    5000001    1    1    2    0    0 -0.23182338852E+02  0.92386945591E+02  0.15489949992E+02  0.12345730882E+03  0.77000000000E+02 0.  0.
   -5000001    1    1    2    0    0  0.23182338852E+02 -0.92386945591E+02  0.12355060240E+03  0.17397275621E+03  0.77000000000E+02 0.  0.
<mgrwt>
<rscale>  0 0.26293035E+03</rscale>
<asrwt>0</asrwt>
<pdfrwt beam="1">  1        2 0.12183809E-01 0.26293035E+03</pdfrwt>
<pdfrwt beam="2">  1       -2 0.33574662E-01 0.26293035E+03</pdfrwt>
<totfact> 0.41320524E+03</totfact>
</mgrwt>
</event>
<event>
 4    1  0.1171488E-003  0.1764369E+03  0.7818608E-02  0.1171297E+00
          2   -1    0    0  501    0  0.00000000000E+00  0.00000000000E+00  0.54763427023E+02  0.54763427082E+02  0.25500000000E-02 0.  1.
         -2   -1    0    0    0  501 -0.00000000000E+00 -0.00000000000E+00 -0.14211120335E+03  0.14211120338E+03  0.25500000000E-02 0. -1.
    5000001    1    1    2    0    0 -0.55628839806E+00 -0.39065712260E+02 -0.23494307195E+02  0.89484198615E+02  0.77000000000E+02 0.  0.
   -5000001    1    1    2    0    0  0.55628839806E+00  0.39065712260E+02 -0.63853469136E+02  0.10739043185E+03  0.77000000000E+02 0.  0.
<mgrwt>
<rscale>  0 0.17643692E+03</rscale>
<asrwt>0</asrwt>
<pdfrwt beam="1">  1        2 0.84251427E-02 0.17643692E+03</pdfrwt>
<pdfrwt beam="2">  1       -2 0.21863262E-01 0.17643692E+03</pdfrwt>
<totfact> 0.13680783E+04</totfact>
</mgrwt>
</event>
<event>
 4    1  0.1171488E-003  0.3158843E+03  0.7818608E-02  0.1077559E+00
         -2   -1    0    0    0  501 -0.00000000000E+00  0.00000000000E+00  0.52195153213E+02  0.52195153275E+02  0.25500000000E-02 0. -1.
          2   -1    0    0  501    0  0.00000000000E+00 -0.00000000000E+00 -0.47793172015E+03  0.47793172016E+03  0.25500000000E-02 0.  1.
    5000001    1    1    2    0    0  0.51905719434E+02  0.71096179430E+02 -0.34723825414E+02  0.12199842003E+03  0.77000000000E+02 0.  0.
   -5000001    1    1    2    0    0 -0.51905719434E+02 -0.71096179430E+02 -0.39101274152E+03  0.40812845340E+03  0.77000000000E+02 0.  0.
<mgrwt>
<rscale>  0 0.31588428E+03</rscale>
<asrwt>0</asrwt>
<pdfrwt beam="1">  1        2 0.73527954E-01 0.31588428E+03</pdfrwt>
<pdfrwt beam="2">  1       -2 0.80300239E-02 0.31588428E+03</pdfrwt>
<totfact> 0.61598017E+03</totfact>
</mgrwt>
</event>
<event>
 4    1  0.1171488E-003  0.1606536E+03  0.7818608E-02  0.1187961E+00
         -2   -1    0    0    0  501 -0.00000000000E+00  0.00000000000E+00  0.55030283284E+01  0.55030289192E+01  0.25500000000E-02 0. -1.
          2   -1    0    0  501    0  0.00000000000E+00 -0.00000000000E+00 -0.11725164635E+04  0.11725164635E+04  0.25500000000E-02 0.  1.
    5000001    1    1    2    0    0  0.22414213621E+02  0.45517993475E+01 -0.57965574534E+03  0.58519475301E+03  0.77000000000E+02 0.  0.
   -5000001    1    1    2    0    0 -0.22414213621E+02 -0.45517993475E+01 -0.58735768981E+03  0.59282473939E+03  0.77000000000E+02 0.  0.
<mgrwt>
<rscale>  0 0.16065356E+03</rscale>
<asrwt>0</asrwt>
<pdfrwt beam="1">  1        2 0.18038695E+00 0.16065356E+03</pdfrwt>
<pdfrwt beam="2">  1       -2 0.84662073E-03 0.16065356E+03</pdfrwt>
<totfact> 0.53852778E+04</totfact>
</mgrwt>
</event>
<event>
 4    1  0.1171488E-003  0.1759451E+03  0.7818608E-02  0.1171786E+00
         -2   -1    0    0    0  501 -0.00000000000E+00  0.00000000000E+00  0.23537508618E+02  0.23537508756E+02  0.25500000000E-02 0. -1.
          2   -1    0    0  501    0  0.00000000000E+00 -0.00000000000E+00 -0.32880160895E+03  0.32880160896E+03  0.25500000000E-02 0.  1.
    5000001    1    1    2    0    0 -0.35643888426E+02  0.23016042829E+02 -0.14631663678E+03  0.17069792972E+03  0.77000000000E+02 0.  0.
   -5000001    1    1    2    0    0  0.35643888426E+02 -0.23016042829E+02 -0.15894746355E+03  0.18164118800E+03  0.77000000000E+02 0.  0.
<mgrwt>
<rscale>  0 0.17594511E+03</rscale>
<asrwt>0</asrwt>
<pdfrwt beam="1">  1        2 0.50584860E-01 0.17594511E+03</pdfrwt>
<pdfrwt beam="2">  1       -2 0.36211554E-02 0.17594511E+03</pdfrwt>
<totfact> 0.30113193E+04</totfact>
</mgrwt>
</event>
<event>
 4    1  0.1171488E-003  0.2545580E+03  0.7818608E-02  0.1110458E+00
         -2   -1    0    0    0  501 -0.00000000000E+00  0.00000000000E+00  0.16617485185E+03  0.16617485187E+03  0.25500000000E-02 0. -1.
          2   -1    0    0  501    0  0.00000000000E+00 -0.00000000000E+00 -0.97487334721E+02  0.97487334754E+02  0.25500000000E-02 0.  1.
    5000001    1    1    2    0    0 -0.10009248633E+03  0.24393520293E+00  0.17889173776E+02  0.12754445445E+03  0.77000000000E+02 0.  0.
   -5000001    1    1    2    0    0  0.10009248633E+03 -0.24393520293E+00  0.50798343351E+02  0.13611773217E+03  0.77000000000E+02 0.  0.
<mgrwt>
<rscale>  0 0.25455800E+03</rscale>
<asrwt>0</asrwt>
<pdfrwt beam="1">  1        2 0.14998052E-01 0.25455800E+03</pdfrwt>
<pdfrwt beam="2">  1       -2 0.25565362E-01 0.25455800E+03</pdfrwt>
<totfact> 0.52652456E+03</totfact>
</mgrwt>
</event>
<event>
 4    1  0.1171488E-003  0.2341912E+03  0.7818608E-02  0.1123724E+00
         -2   -1    0    0    0  501 -0.00000000000E+00  0.00000000000E+00  0.15826662172E+02  0.15826662378E+02  0.25500000000E-02 0. -1.
          2   -1    0    0  501    0  0.00000000000E+00 -0.00000000000E+00 -0.86634700168E+03  0.86634700168E+03  0.25500000000E-02 0.  1.
    5000001    1    1    2    0    0 -0.74936997713E+02 -0.46310569950E+02 -0.40752817671E+03  0.42399108166E+03  0.77000000000E+02 0.  0.
   -5000001    1    1    2    0    0  0.74936997713E+02  0.46310569950E+02 -0.44299216280E+03  0.45818258240E+03  0.77000000000E+02 0.  0.
<mgrwt>
<rscale>  0 0.23419122E+03</rscale>
<asrwt>0</asrwt>
<pdfrwt beam="1">  1        2 0.13328412E+00 0.23419122E+03</pdfrwt>
<pdfrwt beam="2">  1       -2 0.24348718E-02 0.23419122E+03</pdfrwt>
<totfact> 0.18247474E+04</totfact>
</mgrwt>
</event>
<event>
 4    1  0.1171488E-003  0.2442440E+03  0.7818608E-02  0.1116997E+00
          2   -1    0    0  501    0  0.00000000000E+00  0.00000000000E+00  0.16540018338E+03  0.16540018340E+03  0.25500000000E-02 0.  1.
         -2   -1    0    0    0  501 -0.00000000000E+00 -0.00000000000E+00 -0.90167903902E+02  0.90167903938E+02  0.25500000000E-02 0. -1.
    5000001    1    1    2    0    0  0.92584931666E+02  0.36753175634E+01  0.58525363596E+02  0.13393914930E+03  0.77000000000E+02 0.  0.
   -5000001    1    1    2    0    0 -0.92584931666E+02 -0.36753175634E+01  0.16706915884E+02  0.12162893804E+03  0.77000000000E+02 0.  0.
<mgrwt>
<rscale>  0 0.24424404E+03</rscale>
<asrwt>0</asrwt>
<pdfrwt beam="1">  1        2 0.25446182E-01 0.24424404E+03</pdfrwt>
<pdfrwt beam="2">  1       -2 0.13871985E-01 0.24424404E+03</pdfrwt>
<totfact> 0.80880736E+03</totfact>
</mgrwt>
</event>
<event>
 4    1  0.1171488E-003  0.2021564E+03  0.7818608E-02  0.1147932E+00
         -2   -1    0    0    0  501 -0.00000000000E+00  0.00000000000E+00  0.69361929007E+01  0.69361933694E+01  0.25500000000E-02 0. -1.
          2   -1    0    0  501    0  0.00000000000E+00 -0.00000000000E+00 -0.14729701888E+04  0.14729701888E+04  0.25500000000E-02 0.  1.
    5000001    1    1    2    0    0 -0.35547275775E+02  0.49772364355E+02 -0.56181687400E+03  0.57035786747E+03  0.77000000000E+02 0.  0.
   -5000001    1    1    2    0    0  0.35547275775E+02 -0.49772364355E+02 -0.90421712192E+03  0.90954851472E+03  0.77000000000E+02 0.  0.
<mgrwt>
<rscale>  0 0.20215643E+03</rscale>
<asrwt>0</asrwt>
<pdfrwt beam="1">  1        2 0.22661055E+00 0.20215643E+03</pdfrwt>
<pdfrwt beam="2">  1       -2 0.10671078E-02 0.20215643E+03</pdfrwt>
<totfact> 0.26928011E+04</totfact>
</mgrwt>
</event>
<event>
 4    1  0.1171488E-003  0.2009270E+03  0.7818608E-02  0.1148959E+00
         -2   -1    0    0    0  501 -0.00000000000E+00  0.00000000000E+00  0.59831175568E+01  0.59831181002E+01  0.25500000000E-02 0. -1.
          2   -1    0    0  501    0  0.00000000000E+00 -0.00000000000E+00 -0.16868985889E+04  0.16868985890E+04  0.25500000000E-02 0.  1.
    5000001    1    1    2    0    0 -0.11511316523E+02  0.59732600112E+02 -0.65908361649E+03  0.66634878813E+03  0.77000000000E+02 0.  0.
   -5000001    1    1    2    0    0  0.11511316523E+02 -0.59732600112E+02 -0.10218318549E+04  0.10265329189E+04  0.77000000000E+02 0.  0.
<mgrwt>
<rscale>  0 0.20092698E+03</rscale>
<asrwt>0</asrwt>
<pdfrwt beam="1">  1        2 0.25952248E+00 0.20092698E+03</pdfrwt>
<pdfrwt beam="2">  1       -2 0.92048101E-03 0.20092698E+03</pdfrwt>
<totfact> 0.25720596E+04</totfact>
</mgrwt>
</event>
<event>
 4    1  0.1171488E-003  0.2644323E+03  0.7818608E-02  0.1104509E+00
         -2   -1    0    0    0  501 -0.00000000000E+00  0.00000000000E+00  0.27533650181E+03  0.27533650182E+03  0.25500000000E-02 0. -1.
          2   -1    0    0  501    0  0.00000000000E+00 -0.00000000000E+00 -0.63489962696E+02  0.63489962747E+02  0.25500000000E-02 0.  1.
    5000001    1    1    2    0    0 -0.10556509875E+03 -0.64649536804E+01  0.13044732822E+03  0.18474655921E+03  0.77000000000E+02 0.  0.
   -5000001    1    1    2    0    0  0.10556509875E+03  0.64649536804E+01  0.81399210889E+02  0.15407990535E+03  0.77000000000E+02 0.  0.
<mgrwt>
<rscale>  0 0.26443225E+03</rscale>
<asrwt>0</asrwt>
<pdfrwt beam="1">  1        2 0.97676864E-02 0.26443225E+03</pdfrwt>
<pdfrwt beam="2">  1       -2 0.42359462E-01 0.26443225E+03</pdfrwt>
<totfact> 0.34965186E+03</totfact>
</mgrwt>
</event>
<event>
 4    1  0.1171488E-003  0.5449205E+03  0.7818608E-02  0.1002677E+00
         -2   -1    0    0    0  501 -0.00000000000E+00  0.00000000000E+00  0.13990173367E+03  0.13990173369E+03  0.25500000000E-02 0. -1.
          2   -1    0    0  501    0  0.00000000000E+00 -0.00000000000E+00 -0.53061941598E+03  0.53061941598E+03  0.25500000000E-02 0.  1.
    5000001    1    1    2    0    0 -0.22870498393E+03  0.38611449272E+02 -0.47143023301E+02  0.24889411069E+03  0.77000000000E+02 0.  0.
   -5000001    1    1    2    0    0  0.22870498393E+03 -0.38611449272E+02 -0.34357465901E+03  0.42162703898E+03  0.77000000000E+02 0.  0.
<mgrwt>
<rscale>  0 0.54492046E+03</rscale>
<asrwt>0</asrwt>
<pdfrwt beam="1">  1        2 0.81633755E-01 0.54492046E+03</pdfrwt>
<pdfrwt beam="2">  1       -2 0.21523344E-01 0.54492046E+03</pdfrwt>
<totfact> 0.10793513E+03</totfact>
</mgrwt>
</event>
<event>
 4    1  0.1171488E-003  0.3634149E+03  0.7818608E-02  0.1057240E+00
         -2   -1    0    0    0  501 -0.00000000000E+00  0.00000000000E+00  0.14385327108E+02  0.14385327334E+02  0.25500000000E-02 0. -1.
          2   -1    0    0  501    0  0.00000000000E+00 -0.00000000000E+00 -0.22952271322E+04  0.22952271322E+04  0.25500000000E-02 0.  1.
    5000001    1    1    2    0    0  0.72731827335E+02 -0.14723988441E+03 -0.12097756225E+04  0.12232970036E+04  0.77000000000E+02 0.  0.
   -5000001    1    1    2    0    0 -0.72731827335E+02  0.14723988441E+03 -0.10710661826E+04  0.10863154559E+04  0.77000000000E+02 0.  0.
<mgrwt>
<rscale>  0 0.36341488E+03</rscale>
<asrwt>0</asrwt>
<pdfrwt beam="1">  1        2 0.35311158E+00 0.36341488E+03</pdfrwt>
<pdfrwt beam="2">  1       -2 0.22131291E-02 0.36341488E+03</pdfrwt>
<totfact> 0.34328461E+03</totfact>
</mgrwt>
</event>
<event>
 4    1  0.1171488E-003  0.3755506E+03  0.7818608E-02  0.1052591E+00
         -2   -1    0    0    0  501 -0.00000000000E+00  0.00000000000E+00  0.74282821947E+02  0.74282821990E+02  0.25500000000E-02 0. -1.
          2   -1    0    0  501    0  0.00000000000E+00 -0.00000000000E+00 -0.47466642499E+03  0.47466642500E+03  0.25500000000E-02 0.  1.
    5000001    1    1    2    0    0 -0.53687753544E+02  0.12200657499E+03 -0.43014016911E+02  0.15983486751E+03  0.77000000000E+02 0.  0.
   -5000001    1    1    2    0    0  0.53687753544E+02 -0.12200657499E+03 -0.35736958613E+03  0.38911437947E+03  0.77000000000E+02 0.  0.
<mgrwt>
<rscale>  0 0.37555059E+03</rscale>
<asrwt>0</asrwt>
<pdfrwt beam="1">  1        2 0.73025602E-01 0.37555059E+03</pdfrwt>
<pdfrwt beam="2">  1       -2 0.11428127E-01 0.37555059E+03</pdfrwt>
<totfact> 0.35508250E+03</totfact>
</mgrwt>
</event>
<event>
 4    1  0.1171488E-003  0.2058635E+03  0.7818608E-02  0.1144884E+00
          2   -1    0    0  501    0  0.00000000000E+00  0.00000000000E+00  0.49717336887E+03  0.49717336888E+03  0.25500000000E-02 0.  1.
         -2   -1    0    0    0  501 -0.00000000000E+00 -0.00000000000E+00 -0.21310355617E+02  0.21310355770E+02  0.25500000000E-02 0. -1.
    5000001    1    1    2    0    0  0.88225654335E+01 -0.52499518090E+02  0.13013436565E+03  0.16030592685E+03  0.77000000000E+02 0.  0.
   -5000001    1    1    2    0    0 -0.88225654335E+01  0.52499518090E+02  0.34572864760E+03  0.35817779779E+03  0.77000000000E+02 0.  0.
<mgrwt>
<rscale>  0 0.20586346E+03</rscale>
<asrwt>0</asrwt>
<pdfrwt beam="1">  1        2 0.76488209E-01 0.20586346E+03</pdfrwt>
<pdfrwt beam="2">  1       -2 0.32785163E-02 0.20586346E+03</pdfrwt>
<totfact> 0.22591726E+04</totfact>
</mgrwt>
</event>
<event>
 4    1  0.1171488E-003  0.3364718E+03  0.7818608E-02  0.1068309E+00
         -2   -1    0    0    0  501 -0.00000000000E+00  0.00000000000E+00  0.31402945506E+02  0.31402945610E+02  0.25500000000E-02 0. -1.
          2   -1    0    0  501    0  0.00000000000E+00 -0.00000000000E+00 -0.90129507493E+03  0.90129507494E+03  0.25500000000E-02 0.  1.
    5000001    1    1    2    0    0 -0.10630127046E+03 -0.61973401058E+02 -0.19918540278E+03  0.24646396739E+03  0.77000000000E+02 0.  0.
   -5000001    1    1    2    0    0  0.10630127046E+03  0.61973401058E+02 -0.67070672665E+03  0.68623405316E+03  0.77000000000E+02 0.  0.
<mgrwt>
<rscale>  0 0.33647181E+03</rscale>
<asrwt>0</asrwt>
<pdfrwt beam="1">  1        2 0.13866076E+00 0.33647181E+03</pdfrwt>
<pdfrwt beam="2">  1       -2 0.48312231E-02 0.33647181E+03</pdfrwt>
<totfact> 0.62790835E+03</totfact>
</mgrwt>
</event>
<event>
 4    1  0.1171488E-003  0.3135751E+03  0.7818608E-02  0.1078645E+00
         -2   -1    0    0    0  501 -0.00000000000E+00  0.00000000000E+00  0.95039082960E+01  0.95039086381E+01  0.25500000000E-02 0. -1.
          2   -1    0    0  501    0  0.00000000000E+00 -0.00000000000E+00 -0.25865499605E+04  0.25865499605E+04  0.25500000000E-02 0.  1.
    5000001    1    1    2    0    0 -0.12419827702E+03  0.56793479441E+02 -0.13019306169E+04  0.13113363576E+04  0.77000000000E+02 0.  0.
   -5000001    1    1    2    0    0  0.12419827702E+03 -0.56793479441E+02 -0.12751154352E+04  0.12847175116E+04  0.77000000000E+02 0.  0.
<mgrwt>
<rscale>  0 0.31357509E+03</rscale>
<asrwt>0</asrwt>
<pdfrwt beam="1">  1        2 0.39793020E+00 0.31357509E+03</pdfrwt>
<pdfrwt beam="2">  1       -2 0.14621418E-02 0.31357509E+03</pdfrwt>
<totfact> 0.43939010E+03</totfact>
</mgrwt>
</event>
<event>
 4    1  0.1171488E-003  0.3936998E+03  0.7818608E-02  0.1045983E+00
         -2   -1    0    0    0  501 -0.00000000000E+00  0.00000000000E+00  0.19615012985E+03  0.19615012987E+03  0.25500000000E-02 0. -1.
          2   -1    0    0  501    0  0.00000000000E+00 -0.00000000000E+00 -0.19755217873E+03  0.19755217875E+03  0.25500000000E-02 0.  1.
    5000001    1    1    2    0    0  0.13559636610E+03  0.36750589624E+02 -0.11508664904E+03  0.19725850330E+03  0.77000000000E+02 0.  0.
   -5000001    1    1    2    0    0 -0.13559636610E+03 -0.36750589624E+02  0.11368460015E+03  0.19644380532E+03  0.77000000000E+02 0.  0.
<mgrwt>
<rscale>  0 0.39369981E+03</rscale>
<asrwt>0</asrwt>
<pdfrwt beam="1">  1        2 0.30392643E-01 0.39369981E+03</pdfrwt>
<pdfrwt beam="2">  1       -2 0.30176943E-01 0.39369981E+03</pdfrwt>
<totfact> 0.17605373E+03</totfact>
</mgrwt>
</event>
<event>
 4    1  0.1171488E-003  0.3003629E+03  0.7818608E-02  0.1085059E+00
         -2   -1    0    0    0  501 -0.00000000000E+00  0.00000000000E+00  0.28072460876E+03  0.28072460877E+03  0.25500000000E-02 0. -1.
          2   -1    0    0  501    0  0.00000000000E+00 -0.00000000000E+00 -0.80343775859E+02  0.80343775900E+02  0.25500000000E-02 0.  1.
    5000001    1    1    2    0    0 -0.64438093466E+01  0.12802514555E+03  0.11691286395E+03  0.18981458935E+03  0.77000000000E+02 0.  0.
   -5000001    1    1    2    0    0  0.64438093466E+01 -0.12802514555E+03  0.83467968954E+02  0.17125379533E+03  0.77000000000E+02 0.  0.
<mgrwt>
<rscale>  0 0.30036295E+03</rscale>
<asrwt>0</asrwt>
<pdfrwt beam="1">  1        2 0.12360581E-01 0.30036295E+03</pdfrwt>
<pdfrwt beam="2">  1       -2 0.43188401E-01 0.30036295E+03</pdfrwt>
<totfact> 0.25297567E+03</totfact>
</mgrwt>
</event>
<event>
 4    1  0.1171488E-003  0.2646503E+03  0.7818608E-02  0.1104381E+00
         -2   -1    0    0    0  501 -0.00000000000E+00  0.00000000000E+00  0.21853899212E+02  0.21853899361E+02  0.25500000000E-02 0. -1.
          2   -1    0    0  501    0  0.00000000000E+00 -0.00000000000E+00 -0.80122729837E+03  0.80122729838E+03  0.25500000000E-02 0.  1.
    5000001    1    1    2    0    0  0.40932373713E+02  0.97671350844E+02 -0.44916868917E+03  0.46786393676E+03  0.77000000000E+02 0.  0.
   -5000001    1    1    2    0    0 -0.40932373713E+02 -0.97671350844E+02 -0.33020470999E+03  0.35521726098E+03  0.77000000000E+02 0.  0.
<mgrwt>
<rscale>  0 0.26465026E+03</rscale>
<asrwt>0</asrwt>
<pdfrwt beam="1">  1        2 0.12326572E+00 0.26465026E+03</pdfrwt>
<pdfrwt beam="2">  1       -2 0.33621390E-02 0.26465026E+03</pdfrwt>
<totfact> 0.12573412E+04</totfact>
</mgrwt>
</event>
<event>
 4    1  0.1171488E-003  0.2242234E+03  0.7818608E-02  0.1130773E+00
          2   -1    0    0  501    0  0.00000000000E+00  0.00000000000E+00  0.92855301970E+03  0.92855301971E+03  0.25500000000E-02 0.  1.
         -2   -1    0    0    0  501 -0.00000000000E+00 -0.00000000000E+00 -0.13536144620E+02  0.13536144860E+02  0.25500000000E-02 0. -1.
    5000001    1    1    2    0    0 -0.47499001409E+02  0.30543007285E+02  0.70433022697E+03  0.71077359197E+03  0.77000000000E+02 0.  0.
   -5000001    1    1    2    0    0  0.47499001409E+02 -0.30543007285E+02  0.21068664811E+03  0.23131557259E+03  0.77000000000E+02 0.  0.
<mgrwt>
<rscale>  0 0.22422335E+03</rscale>
<asrwt>0</asrwt>
<pdfrwt beam="1">  1        2 0.14285427E+00 0.22422335E+03</pdfrwt>
<pdfrwt beam="2">  1       -2 0.20824844E-02 0.22422335E+03</pdfrwt>
<totfact> 0.20893921E+04</totfact>
</mgrwt>
</event>
<event>
 4    1  0.1171488E-003  0.4427440E+03  0.7818608E-02  0.1029908E+00
          2   -1    0    0  501    0  0.00000000000E+00  0.00000000000E+00  0.28799199292E+03  0.28799199293E+03  0.25500000000E-02 0.  1.
         -2   -1    0    0    0  501 -0.00000000000E+00 -0.00000000000E+00 -0.17016290738E+03  0.17016290740E+03  0.25500000000E-02 0. -1.
    5000001    1    1    2    0    0 -0.12403901546E+03  0.15099131368E+03 -0.13466549367E+02  0.21046235320E+03  0.77000000000E+02 0.  0.
   -5000001    1    1    2    0    0  0.12403901546E+03 -0.15099131368E+03  0.13129563491E+03  0.24769254714E+03  0.77000000000E+02 0.  0.
<mgrwt>
<rscale>  0 0.44274397E+03</rscale>
<asrwt>0</asrwt>
<pdfrwt beam="1">  1        2 0.44306461E-01 0.44274397E+03</pdfrwt>
<pdfrwt beam="2">  1       -2 0.26178909E-01 0.44274397E+03</pdfrwt>
<totfact> 0.15070869E+03</totfact>
</mgrwt>
</event>
<event>
 4    1  0.1171488E-003  0.2025326E+03  0.7818608E-02  0.1147620E+00
         -2   -1    0    0    0  501 -0.00000000000E+00  0.00000000000E+00  0.55255798402E+01  0.55255804286E+01  0.25500000000E-02 0. -1.
          2   -1    0    0  501    0  0.00000000000E+00 -0.00000000000E+00 -0.18558885044E+04  0.18558885044E+04  0.25500000000E-02 0.  1.
    5000001    1    1    2    0    0  0.46513296152E+02 -0.35424779686E+02 -0.64832057560E+03  0.65548987062E+03  0.77000000000E+02 0.  0.
   -5000001    1    1    2    0    0 -0.46513296152E+02  0.35424779686E+02 -0.12020423490E+04  0.12059242143E+04  0.77000000000E+02 0.  0.
<mgrwt>
<rscale>  0 0.20253257E+03</rscale>
<asrwt>0</asrwt>
<pdfrwt beam="1">  1        2 0.28552081E+00 0.20253257E+03</pdfrwt>
<pdfrwt beam="2">  1       -2 0.85009073E-03 0.20253257E+03</pdfrwt>
<totfact> 0.23571150E+04</totfact>
</mgrwt>
</event>
<event>
 4    1  0.1171488E-003  0.1932699E+03  0.7818608E-02  0.1155545E+00
          2   -1    0    0  501    0  0.00000000000E+00  0.00000000000E+00  0.43022583549E+03  0.43022583549E+03  0.25500000000E-02 0.  1.
         -2   -1    0    0    0  501 -0.00000000000E+00 -0.00000000000E+00 -0.21705613701E+02  0.21705613851E+02  0.25500000000E-02 0. -1.
    5000001    1    1    2    0    0 -0.54435372212E+02  0.23389473578E+01  0.25334501911E+03  0.27033567861E+03  0.77000000000E+02 0.  0.
   -5000001    1    1    2    0    0  0.54435372212E+02 -0.23389473578E+01  0.15517520267E+03  0.18159577073E+03  0.77000000000E+02 0.  0.
<mgrwt>
<rscale>  0 0.19326992E+03</rscale>
<asrwt>0</asrwt>
<pdfrwt beam="1">  1        2 0.66188591E-01 0.19326992E+03</pdfrwt>
<pdfrwt beam="2">  1       -2 0.33393251E-02 0.19326992E+03</pdfrwt>
<totfact> 0.25645982E+04</totfact>
</mgrwt>
</event>
<event>
 4    1  0.1171488E-003  0.4656767E+03  0.7818608E-02  0.1023148E+00
          2   -1    0    0  501    0  0.00000000000E+00  0.00000000000E+00  0.96437001965E+02  0.96437001999E+02  0.25500000000E-02 0.  1.
         -2   -1    0    0    0  501 -0.00000000000E+00 -0.00000000000E+00 -0.56216695845E+03  0.56216695845E+03  0.25500000000E-02 0. -1.
    5000001    1    1    2    0    0 -0.15365815666E+03  0.15672616261E+03 -0.24775051518E+03  0.33982824622E+03  0.77000000000E+02 0.  0.
   -5000001    1    1    2    0    0  0.15365815666E+03 -0.15672616261E+03 -0.21797944130E+03  0.31877571423E+03  0.77000000000E+02 0.  0.
<mgrwt>
<rscale>  0 0.46567670E+03</rscale>
<asrwt>0</asrwt>
<pdfrwt beam="1">  1        2 0.14836462E-01 0.46567670E+03</pdfrwt>
<pdfrwt beam="2">  1       -2 0.86487223E-01 0.46567670E+03</pdfrwt>
<totfact> 0.47483603E+02</totfact>
</mgrwt>
</event>
<event>
 4    1  0.1171488E-003  0.3382966E+03  0.7818608E-02  0.1067524E+00
          2   -1    0    0  501    0  0.00000000000E+00  0.00000000000E+00  0.26926365481E+03  0.26926365483E+03  0.25500000000E-02 0.  1.
         -2   -1    0    0    0  501 -0.00000000000E+00 -0.00000000000E+00 -0.10625700024E+03  0.10625700027E+03  0.25500000000E-02 0. -1.
    5000001    1    1    2    0    0 -0.97234362843E+02 -0.11240326632E+03  0.10853743901E+03  0.19949534146E+03  0.77000000000E+02 0.  0.
   -5000001    1    1    2    0    0  0.97234362843E+02  0.11240326632E+03  0.54469215567E+02  0.17602531364E+03  0.77000000000E+02 0.  0.
<mgrwt>
<rscale>  0 0.33829661E+03</rscale>
<asrwt>0</asrwt>
<pdfrwt beam="1">  1        2 0.41425178E-01 0.33829661E+03</pdfrwt>
<pdfrwt beam="2">  1       -2 0.16347231E-01 0.33829661E+03</pdfrwt>
<totfact> 0.36546724E+03</totfact>
</mgrwt>
</event>
<event>
 4    1  0.1171488E-003  0.2466614E+03  0.7818608E-02  0.1115433E+00
          2   -1    0    0  501    0  0.00000000000E+00  0.00000000000E+00  0.23916396192E+04  0.23916396192E+04  0.25500000000E-02 0.  1.
         -2   -1    0    0    0  501 -0.00000000000E+00 -0.00000000000E+00 -0.63598485400E+01  0.63598490512E+01  0.25500000000E-02 0. -1.
    5000001    1    1    2    0    0 -0.49773209085E+02  0.66330571896E+02  0.71593829847E+03  0.72482671331E+03  0.77000000000E+02 0.  0.
   -5000001    1    1    2    0    0  0.49773209085E+02 -0.66330571896E+02  0.16693414721E+04  0.16731727549E+04  0.77000000000E+02 0.  0.
<mgrwt>
<rscale>  0 0.24666144E+03</rscale>
<asrwt>0</asrwt>
<pdfrwt beam="1">  1        2 0.36794452E+00 0.24666144E+03</pdfrwt>
<pdfrwt beam="2">  1       -2 0.97843837E-03 0.24666144E+03</pdfrwt>
<totfact> 0.10100374E+04</totfact>
</mgrwt>
</event>
<event>
 4    1  0.1171488E-003  0.2720617E+03  0.7818608E-02  0.1100105E+00
         -2   -1    0    0    0  501 -0.00000000000E+00  0.00000000000E+00  0.34595151465E+02  0.34595151559E+02  0.25500000000E-02 0. -1.
          2   -1    0    0  501    0  0.00000000000E+00 -0.00000000000E+00 -0.53488383590E+03  0.53488383591E+03  0.25500000000E-02 0.  1.
    5000001    1    1    2    0    0 -0.82090854899E+02  0.75367446214E+02 -0.27630738899E+03  0.30772379436E+03  0.77000000000E+02 0.  0.
   -5000001    1    1    2    0    0  0.82090854899E+02 -0.75367446214E+02 -0.22398129545E+03  0.26175519311E+03  0.77000000000E+02 0.  0.
<mgrwt>
<rscale>  0 0.27206166E+03</rscale>
<asrwt>0</asrwt>
<pdfrwt beam="1">  1        2 0.82289815E-01 0.27206166E+03</pdfrwt>
<pdfrwt beam="2">  1       -2 0.53223314E-02 0.27206166E+03</pdfrwt>
<totfact> 0.10197180E+04</totfact>
</mgrwt>
</event>
<event>
 4    1  0.1171488E-003  0.2644219E+03  0.7818608E-02  0.1104515E+00
         -2   -1    0    0    0  501 -0.00000000000E+00  0.00000000000E+00  0.25477397475E+02  0.25477397602E+02  0.25500000000E-02 0. -1.
          2   -1    0    0  501    0  0.00000000000E+00 -0.00000000000E+00 -0.68608769496E+03  0.68608769497E+03  0.25500000000E-02 0.  1.
    5000001    1    1    2    0    0  0.69269230038E+02  0.79796674251E+02 -0.27750392452E+03  0.30676238944E+03  0.77000000000E+02 0.  0.
   -5000001    1    1    2    0    0 -0.69269230038E+02 -0.79796674251E+02 -0.38310637297E+03  0.40480270313E+03  0.77000000000E+02 0.  0.
<mgrwt>
<rscale>  0 0.26442185E+03</rscale>
<asrwt>0</asrwt>
<pdfrwt beam="1">  1        2 0.10555194E+00 0.26442185E+03</pdfrwt>
<pdfrwt beam="2">  1       -2 0.39196001E-02 0.26442185E+03</pdfrwt>
<totfact> 0.12105648E+04</totfact>
</mgrwt>
</event>
<event>
 4    1  0.1171488E-003  0.2139488E+03  0.7818608E-02  0.1138477E+00
         -2   -1    0    0    0  501 -0.00000000000E+00  0.00000000000E+00  0.38373810876E+03  0.38373810877E+03  0.25500000000E-02 0. -1.
          2   -1    0    0  501    0  0.00000000000E+00 -0.00000000000E+00 -0.29821183243E+02  0.29821183352E+02  0.25500000000E-02 0.  1.
    5000001    1    1    2    0    0  0.69203931558E+02 -0.14895455535E+02  0.22033080233E+03  0.24389694790E+03  0.77000000000E+02 0.  0.
   -5000001    1    1    2    0    0 -0.69203931558E+02  0.14895455535E+02  0.13358612319E+03  0.16966234422E+03  0.77000000000E+02 0.  0.
<mgrwt>
<rscale>  0 0.21394882E+03</rscale>
<asrwt>0</asrwt>
<pdfrwt beam="1">  1        2 0.45878746E-02 0.21394882E+03</pdfrwt>
<pdfrwt beam="2">  1       -2 0.59036629E-01 0.21394882E+03</pdfrwt>
<totfact> 0.47301144E+03</totfact>
</mgrwt>
</event>
<event>
 4    1  0.1171488E-003  0.1936855E+03  0.7818608E-02  0.1155179E+00
          2   -1    0    0  501    0  0.00000000000E+00  0.00000000000E+00  0.14187016000E+04  0.14187016000E+04  0.25500000000E-02 0.  1.
         -2   -1    0    0    0  501 -0.00000000000E+00 -0.00000000000E+00 -0.66106362972E+01  0.66106367891E+01  0.25500000000E-02 0. -1.
    5000001    1    1    2    0    0 -0.31473109421E+02  0.49548550845E+02  0.72058771054E+03  0.72706345258E+03  0.77000000000E+02 0.  0.
   -5000001    1    1    2    0    0  0.31473109421E+02 -0.49548550845E+02  0.69150325319E+03  0.69824878423E+03  0.77000000000E+02 0.  0.
<mgrwt>
<rscale>  0 0.19368552E+03</rscale>
<asrwt>0</asrwt>
<pdfrwt beam="1">  1        2 0.21826191E+00 0.19368552E+03</pdfrwt>
<pdfrwt beam="2">  1       -2 0.10170204E-02 0.19368552E+03</pdfrwt>
<totfact> 0.30774376E+04</totfact>
</mgrwt>
</event>
<event>
 4    1  0.1171488E-003  0.1933781E+03  0.7818608E-02  0.1155449E+00
         -2   -1    0    0    0  501 -0.00000000000E+00  0.00000000000E+00  0.28295526446E+02  0.28295526561E+02  0.25500000000E-02 0. -1.
          2   -1    0    0  501    0  0.00000000000E+00 -0.00000000000E+00 -0.33039745599E+03  0.33039745600E+03  0.25500000000E-02 0.  1.
    5000001    1    1    2    0    0  0.38338928805E+02 -0.21711504925E+02 -0.22237359489E+03  0.23941653789E+03  0.77000000000E+02 0.  0.
   -5000001    1    1    2    0    0 -0.38338928805E+02  0.21711504925E+02 -0.79728334654E+02  0.11927644468E+03  0.77000000000E+02 0.  0.
<mgrwt>
<rscale>  0 0.19337808E+03</rscale>
<asrwt>0</asrwt>
<pdfrwt beam="1">  1        2 0.50830375E-01 0.19337808E+03</pdfrwt>
<pdfrwt beam="2">  1       -2 0.43531582E-02 0.19337808E+03</pdfrwt>
<totfact> 0.22935387E+04</totfact>
</mgrwt>
</event>
<event>
 4    1  0.1171488E-003  0.3061333E+03  0.7818608E-02  0.1082214E+00
         -2   -1    0    0    0  501 -0.00000000000E+00  0.00000000000E+00  0.13495327493E+02  0.13495327734E+02  0.25500000000E-02 0. -1.
          2   -1    0    0  501    0  0.00000000000E+00 -0.00000000000E+00 -0.17361114136E+04  0.17361114136E+04  0.25500000000E-02 0.  1.
    5000001    1    1    2    0    0  0.11953908376E+03 -0.52024912509E+02 -0.73297606090E+03  0.74845112727E+03  0.77000000000E+02 0.  0.
   -5000001    1    1    2    0    0 -0.11953908376E+03  0.52024912509E+02 -0.98964002519E+03  0.10011556140E+04  0.77000000000E+02 0.  0.
<mgrwt>
<rscale>  0 0.30613325E+03</rscale>
<asrwt>0</asrwt>
<pdfrwt beam="1">  1        2 0.26709389E+00 0.30613325E+03</pdfrwt>
<pdfrwt beam="2">  1       -2 0.20762056E-02 0.30613325E+03</pdfrwt>
<totfact> 0.74909543E+03</totfact>
</mgrwt>
</event>
<event>
 4    1  0.1171488E-003  0.2328874E+03  0.7818608E-02  0.1124624E+00
          2   -1    0    0  501    0  0.00000000000E+00  0.00000000000E+00  0.10649624950E+03  0.10649624953E+03  0.25500000000E-02 0.  1.
         -2   -1    0    0    0  501 -0.00000000000E+00 -0.00000000000E+00 -0.12732027261E+03  0.12732027263E+03  0.25500000000E-02 0. -1.
    5000001    1    1    2    0    0 -0.16583840336E+02 -0.82852888892E+02  0.11823733018E+02  0.11492791489E+03  0.77000000000E+02 0.  0.
   -5000001    1    1    2    0    0  0.16583840336E+02  0.82852888892E+02 -0.32647756128E+02  0.11888860727E+03  0.77000000000E+02 0.  0.
<mgrwt>
<rscale>  0 0.23288737E+03</rscale>
<asrwt>0</asrwt>
<pdfrwt beam="1">  1        2 0.16384038E-01 0.23288737E+03</pdfrwt>
<pdfrwt beam="2">  1       -2 0.19587734E-01 0.23288737E+03</pdfrwt>
<totfact> 0.75008935E+03</totfact>
</mgrwt>
</event>
<event>
 4    1  0.1171488E-003  0.3893622E+03  0.7818608E-02  0.1047527E+00
         -2   -1    0    0    0  501 -0.00000000000E+00  0.00000000000E+00  0.36207453513E+02  0.36207453603E+02  0.25500000000E-02 0. -1.
          2   -1    0    0  501    0  0.00000000000E+00 -0.00000000000E+00 -0.10467659056E+04  0.10467659056E+04  0.25500000000E-02 0.  1.
    5000001    1    1    2    0    0  0.15376337930E+03 -0.80234512900E+02 -0.62622948024E+03  0.65434938358E+03  0.77000000000E+02 0.  0.
   -5000001    1    1    2    0    0 -0.15376337930E+03  0.80234512900E+02 -0.38432897181E+03  0.42862397558E+03  0.77000000000E+02 0.  0.
<mgrwt>
<rscale>  0 0.38936219E+03</rscale>
<asrwt>0</asrwt>
<pdfrwt beam="1">  1        2 0.16104089E+00 0.38936219E+03</pdfrwt>
<pdfrwt beam="2">  1       -2 0.55703783E-02 0.38936219E+03</pdfrwt>
<totfact> 0.40964917E+03</totfact>
</mgrwt>
</event>
<event>
 4    1  0.1171488E-003  0.2258658E+03  0.7818608E-02  0.1129584E+00
          2   -1    0    0  501    0  0.00000000000E+00  0.00000000000E+00  0.15129308522E+04  0.15129308522E+04  0.25500000000E-02 0.  1.
         -2   -1    0    0    0  501 -0.00000000000E+00 -0.00000000000E+00 -0.84298886332E+01  0.84298890188E+01  0.25500000000E-02 0. -1.
    5000001    1    1    2    0    0  0.47730642186E+02 -0.66387757818E+02  0.67275504889E+03  0.68206590913E+03  0.77000000000E+02 0.  0.
   -5000001    1    1    2    0    0 -0.47730642186E+02  0.66387757818E+02  0.83174591469E+03  0.83929483211E+03  0.77000000000E+02 0.  0.
<mgrwt>
<rscale>  0 0.22586579E+03</rscale>
<asrwt>0</asrwt>
<pdfrwt beam="1">  1        2 0.23275872E+00 0.22586579E+03</pdfrwt>
<pdfrwt beam="2">  1       -2 0.12969053E-02 0.22586579E+03</pdfrwt>
<totfact> 0.19436606E+04</totfact>
</mgrwt>
</event>
<event>
 4    1  0.1171488E-003  0.2233066E+03  0.7818608E-02  0.1131442E+00
          2   -1    0    0  501    0  0.00000000000E+00  0.00000000000E+00  0.77406903426E+03  0.77406903426E+03  0.25500000000E-02 0.  1.
         -2   -1    0    0    0  501 -0.00000000000E+00 -0.00000000000E+00 -0.16105106480E+02  0.16105106681E+02  0.25500000000E-02 0. -1.
    5000001    1    1    2    0    0  0.23366803639E+02  0.75471447365E+02  0.31815267878E+03  0.33673739605E+03  0.77000000000E+02 0.  0.
   -5000001    1    1    2    0    0 -0.23366803639E+02 -0.75471447365E+02  0.43981124900E+03  0.45343674490E+03  0.77000000000E+02 0.  0.
<mgrwt>
<rscale>  0 0.22330664E+03</rscale>
<asrwt>0</asrwt>
<pdfrwt beam="1">  1        2 0.11908753E+00 0.22330664E+03</pdfrwt>
<pdfrwt beam="2">  1       -2 0.24777090E-02 0.22330664E+03</pdfrwt>
<totfact> 0.20484605E+04</totfact>
</mgrwt>
</event>
<event>
 4    1  0.1171488E-003  0.3394591E+03  0.7818608E-02  0.1067027E+00
         -2   -1    0    0    0  501 -0.00000000000E+00  0.00000000000E+00  0.42366148559E+02  0.42366148636E+02  0.25500000000E-02 0. -1.
          2   -1    0    0  501    0  0.00000000000E+00 -0.00000000000E+00 -0.67997977101E+03  0.67997977101E+03  0.25500000000E-02 0.  1.
    5000001    1    1    2    0    0  0.10446053682E+03  0.85172550258E+02 -0.46488832504E+03  0.49011888540E+03  0.77000000000E+02 0.  0.
   -5000001    1    1    2    0    0 -0.10446053682E+03 -0.85172550258E+02 -0.17272529741E+03  0.23222703425E+03  0.77000000000E+02 0.  0.
<mgrwt>
<rscale>  0 0.33945912E+03</rscale>
<asrwt>0</asrwt>
<pdfrwt beam="1">  1        2 0.10461226E+00 0.33945912E+03</pdfrwt>
<pdfrwt beam="2">  1       -2 0.65178695E-02 0.33945912E+03</pdfrwt>
<totfact> 0.56780620E+03</totfact>
</mgrwt>
</event>
<event>
 4    1  0.1171488E-003  0.2174421E+03  0.7818608E-02  0.1135805E+00
          2   -1    0    0  501    0  0.00000000000E+00  0.00000000000E+00  0.93673074440E+03  0.93673074441E+03  0.25500000000E-02 0.  1.
         -2   -1    0    0    0  501 -0.00000000000E+00 -0.00000000000E+00 -0.12618641260E+02  0.12618641518E+02  0.25500000000E-02 0. -1.
    5000001    1    1    2    0    0  0.43210633042E+02 -0.48166550345E+02  0.28182518910E+03  0.29923504573E+03  0.77000000000E+02 0.  0.
   -5000001    1    1    2    0    0 -0.43210633042E+02  0.48166550345E+02  0.64228691404E+03  0.65011434020E+03  0.77000000000E+02 0.  0.
<mgrwt>
<rscale>  0 0.21744212E+03</rscale>
<asrwt>0</asrwt>
<pdfrwt beam="1">  1        2 0.14411244E+00 0.21744212E+03</pdfrwt>
<pdfrwt beam="2">  1       -2 0.19413292E-02 0.21744212E+03</pdfrwt>
<totfact> 0.22844511E+04</totfact>
</mgrwt>
</event>
<event>
 4    1  0.1171488E-003  0.6179048E+03  0.7818608E-02  0.9868940E-01
          2   -1    0    0  501    0  0.00000000000E+00  0.00000000000E+00  0.56719190993E+03  0.56719190994E+03  0.25500000000E-02 0.  1.
         -2   -1    0    0    0  501 -0.00000000000E+00 -0.00000000000E+00 -0.16828797495E+03  0.16828797497E+03  0.25500000000E-02 0. -1.
    5000001    1    1    2    0    0  0.16563705318E+03 -0.20050356504E+03  0.37553809886E+03  0.46324418688E+03  0.77000000000E+02 0.  0.
   -5000001    1    1    2    0    0 -0.16563705318E+03  0.20050356504E+03  0.23365836117E+02  0.27223569802E+03  0.77000000000E+02 0.  0.
<mgrwt>
<rscale>  0 0.61790478E+03</rscale>
<asrwt>0</asrwt>
<pdfrwt beam="1">  1        2 0.87260295E-01 0.61790478E+03</pdfrwt>
<pdfrwt beam="2">  1       -2 0.25890457E-01 0.61790478E+03</pdfrwt>
<totfact> 0.71761150E+02</totfact>
</mgrwt>
</event>
<event>
 4    1  0.1171488E-003  0.3317116E+03  0.7818608E-02  0.1070382E+00
          2   -1    0    0  501    0  0.00000000000E+00  0.00000000000E+00  0.28081041570E+04  0.28081041570E+04  0.25500000000E-02 0. -1.
         -2   -1    0    0    0  501 -0.00000000000E+00 -0.00000000000E+00 -0.97959849097E+01  0.97959852416E+01  0.25500000000E-02 0.  1.
    5000001    1    1    2    0    0  0.76222739760E+02  0.77888398888E+02  0.56237686988E+03  0.57799070279E+03  0.77000000000E+02 0.  0.
   -5000001    1    1    2    0    0 -0.76222739760E+02 -0.77888398888E+02  0.22359313022E+04  0.22399094394E+04  0.77000000000E+02 0.  0.
<mgrwt>
<rscale>  0 0.33171160E+03</rscale>
<asrwt>0</asrwt>
<pdfrwt beam="1">  1        2 0.43201577E+00 0.33171160E+03</pdfrwt>
<pdfrwt beam="2">  1       -2 0.15070755E-02 0.33171160E+03</pdfrwt>
<totfact> 0.31441820E+03</totfact>
</mgrwt>
</event>
<event>
 4    1  0.1171488E-003  0.2707843E+03  0.7818608E-02  0.1100832E+00
          2   -1    0    0  501    0  0.00000000000E+00  0.00000000000E+00  0.28395437877E+04  0.28395437877E+04  0.25500000000E-02 0.  1.
         -2   -1    0    0    0  501 -0.00000000000E+00 -0.00000000000E+00 -0.64556282349E+01  0.64556287386E+01  0.25500000000E-02 0. -1.
    5000001    1    1    2    0    0  0.28270162236E+02 -0.90892458872E+02  0.20240848192E+04  0.20277842578E+04  0.77000000000E+02 0.  0.
   -5000001    1    1    2    0    0 -0.28270162236E+02  0.90892458872E+02  0.80900334030E+03  0.81821515861E+03  0.77000000000E+02 0.  0.
<mgrwt>
<rscale>  0 0.27078434E+03</rscale>
<asrwt>0</asrwt>
<pdfrwt beam="1">  1        2 0.43685258E+00 0.27078434E+03</pdfrwt>
<pdfrwt beam="2">  1       -2 0.99317433E-03 0.27078434E+03</pdfrwt>
<totfact> 0.55692511E+03</totfact>
</mgrwt>
</event>
<event>
 4    1  0.1171488E-003  0.2692726E+03  0.7818608E-02  0.1101697E+00
          2   -1    0    0  501    0  0.00000000000E+00  0.00000000000E+00  0.51882453066E+03  0.51882453066E+03  0.25500000000E-02 0.  1.
         -2   -1    0    0    0  501 -0.00000000000E+00 -0.00000000000E+00 -0.34938463412E+02  0.34938463505E+02  0.25500000000E-02 0. -1.
    5000001    1    1    2    0    0  0.46218831960E+02 -0.98563879923E+02  0.20363921212E+03  0.24341106706E+03  0.77000000000E+02 0.  0.
   -5000001    1    1    2    0    0 -0.46218831960E+02  0.98563879923E+02  0.28024685512E+03  0.31035192711E+03  0.77000000000E+02 0.  0.
<mgrwt>
<rscale>  0 0.26927259E+03</rscale>
<asrwt>0</asrwt>
<pdfrwt beam="1">  1        2 0.79819154E-01 0.26927259E+03</pdfrwt>
<pdfrwt beam="2">  1       -2 0.53751485E-02 0.26927259E+03</pdfrwt>
<totfact> 0.10392275E+04</totfact>
</mgrwt>
</event>
<event>
 4    1  0.1171488E-003  0.2151990E+03  0.7818608E-02  0.1137514E+00
         -2   -1    0    0    0  501 -0.00000000000E+00  0.00000000000E+00  0.59108094550E+03  0.59108094550E+03  0.25500000000E-02 0. -1.
          2   -1    0    0  501    0  0.00000000000E+00 -0.00000000000E+00 -0.19587251349E+02  0.19587251515E+02  0.25500000000E-02 0.  1.
    5000001    1    1    2    0    0  0.47015171213E+02 -0.57859672391E+02  0.31273969948E+03  0.33059535333E+03  0.77000000000E+02 0.  0.
   -5000001    1    1    2    0    0 -0.47015171213E+02  0.57859672391E+02  0.25875399467E+03  0.28007284368E+03  0.77000000000E+02 0.  0.
<mgrwt>
<rscale>  0 0.21519899E+03</rscale>
<asrwt>0</asrwt>
<pdfrwt beam="1">  1        2 0.30134228E-02 0.21519899E+03</pdfrwt>
<pdfrwt beam="2">  1       -2 0.90935546E-01 0.21519899E+03</pdfrwt>
<totfact> 0.32726523E+03</totfact>
</mgrwt>
</event>
<event>
 4    1  0.1171488E-003  0.2727276E+03  0.7818608E-02  0.1099729E+00
         -2   -1    0    0    0  501 -0.00000000000E+00  0.00000000000E+00  0.22581509025E+02  0.22581509168E+02  0.25500000000E-02 0. -1.
          2   -1    0    0  501    0  0.00000000000E+00 -0.00000000000E+00 -0.82346488212E+03  0.82346488212E+03  0.25500000000E-02 0.  1.
    5000001    1    1    2    0    0 -0.22986663847E+02  0.21335126587E+01 -0.74214704094E+03  0.74648788936E+03  0.77000000000E+02 0.  0.
   -5000001    1    1    2    0    0  0.22986663847E+02 -0.21335126587E+01 -0.58736332154E+02  0.99558501927E+02  0.77000000000E+02 0.  0.
<mgrwt>
<rscale>  0 0.27272755E+03</rscale>
<asrwt>0</asrwt>
<pdfrwt beam="1">  1        2 0.12668688E+00 0.27272755E+03</pdfrwt>
<pdfrwt beam="2">  1       -2 0.34740790E-02 0.27272755E+03</pdfrwt>
<totfact> 0.11573489E+04</totfact>
</mgrwt>
</event>
<event>
 4    1  0.1171488E-003  0.1970254E+03  0.7818608E-02  0.1152273E+00
         -2   -1    0    0    0  501 -0.00000000000E+00  0.00000000000E+00  0.15758125636E+02  0.15758125842E+02  0.25500000000E-02 0. -1.
          2   -1    0    0  501    0  0.00000000000E+00 -0.00000000000E+00 -0.61585672841E+03  0.61585672841E+03  0.25500000000E-02 0.  1.
    5000001    1    1    2    0    0  0.73721129981E+01  0.60357704208E+02 -0.27167389315E+03  0.28884789202E+03  0.77000000000E+02 0.  0.
   -5000001    1    1    2    0    0 -0.73721129981E+01 -0.60357704208E+02 -0.32842470962E+03  0.34276696223E+03  0.77000000000E+02 0.  0.
<mgrwt>
<rscale>  0 0.19702536E+03</rscale>
<asrwt>0</asrwt>
<pdfrwt beam="1">  1        2 0.94747170E-01 0.19702536E+03</pdfrwt>
<pdfrwt beam="2">  1       -2 0.24243275E-02 0.19702536E+03</pdfrwt>
<totfact> 0.27605151E+04</totfact>
</mgrwt>
</event>
<event>
 4    1  0.1171488E-003  0.2155892E+03  0.7818608E-02  0.1137215E+00
         -2   -1    0    0    0  501 -0.00000000000E+00  0.00000000000E+00  0.70399135681E+01  0.70399140299E+01  0.25500000000E-02 0. -1.
          2   -1    0    0  501    0  0.00000000000E+00 -0.00000000000E+00 -0.16505418566E+04  0.16505418566E+04  0.25500000000E-02 0.  1.
    5000001    1    1    2    0    0  0.72487595380E+02 -0.17981265630E+02 -0.90344407116E+03  0.90979006760E+03  0.77000000000E+02 0.  0.
   -5000001    1    1    2    0    0 -0.72487595380E+02  0.17981265630E+02 -0.74005787192E+03  0.74779170307E+03  0.77000000000E+02 0.  0.
<mgrwt>
<rscale>  0 0.21558917E+03</rscale>
<asrwt>0</asrwt>
<pdfrwt beam="1">  1        2 0.25392921E+00 0.21558917E+03</pdfrwt>
<pdfrwt beam="2">  1       -2 0.10830650E-02 0.21558917E+03</pdfrwt>
<totfact> 0.21315748E+04</totfact>
</mgrwt>
</event>
<event>
 4    1  0.1171488E-003  0.2029611E+03  0.7818608E-02  0.1147265E+00
         -2   -1    0    0    0  501 -0.00000000000E+00  0.00000000000E+00  0.55223915466E+01  0.55223921353E+01  0.25500000000E-02 0. -1.
          2   -1    0    0  501    0  0.00000000000E+00 -0.00000000000E+00 -0.18648258169E+04  0.18648258169E+04  0.25500000000E-02 0.  1.
    5000001    1    1    2    0    0 -0.59643034867E+02 -0.28443350438E+02 -0.94556803354E+03  0.95099643629E+03  0.77000000000E+02 0.  0.
   -5000001    1    1    2    0    0  0.59643034867E+02  0.28443350438E+02 -0.91373539180E+03  0.91935177273E+03  0.77000000000E+02 0.  0.
<mgrwt>
<rscale>  0 0.20296107E+03</rscale>
<asrwt>0</asrwt>
<pdfrwt beam="1">  1        2 0.28689578E+00 0.20296107E+03</pdfrwt>
<pdfrwt beam="2">  1       -2 0.84960023E-03 0.20296107E+03</pdfrwt>
<totfact> 0.23342291E+04</totfact>
</mgrwt>
</event>
<event>
 4    1  0.1171488E-003  0.2951648E+03  0.7818608E-02  0.1087683E+00
          2   -1    0    0  501    0  0.00000000000E+00  0.00000000000E+00  0.55649472790E+03  0.55649472790E+03  0.25500000000E-02 0.  1.
         -2   -1    0    0    0  501 -0.00000000000E+00 -0.00000000000E+00 -0.39138846400E+02  0.39138846483E+02  0.25500000000E-02 0. -1.
    5000001    1    1    2    0    0  0.32089559851E+02 -0.82195472136E+02  0.43991056303E+03  0.45523196170E+03  0.77000000000E+02 0.  0.
   -5000001    1    1    2    0    0 -0.32089559851E+02  0.82195472136E+02  0.77445318466E+02  0.14040161268E+03  0.77000000000E+02 0.  0.
<mgrwt>
<rscale>  0 0.29516478E+03</rscale>
<asrwt>0</asrwt>
<pdfrwt beam="1">  1        2 0.85614570E-01 0.29516478E+03</pdfrwt>
<pdfrwt beam="2">  1       -2 0.60213612E-02 0.29516478E+03</pdfrwt>
<totfact> 0.80930900E+03</totfact>
</mgrwt>
</event>
<event>
 4    1  0.1171488E-003  0.1899210E+03  0.7818608E-02  0.1158533E+00
          2   -1    0    0  501    0  0.00000000000E+00  0.00000000000E+00  0.35911230444E+03  0.35911230445E+03  0.25500000000E-02 0.  1.
         -2   -1    0    0    0  501 -0.00000000000E+00 -0.00000000000E+00 -0.25110529048E+02  0.25110529177E+02  0.25500000000E-02 0. -1.
    5000001    1    1    2    0    0  0.53024485664E+02 -0.13691165419E+02  0.14786650014E+03  0.17547804978E+03  0.77000000000E+02 0.  0.
   -5000001    1    1    2    0    0 -0.53024485664E+02  0.13691165419E+02  0.18613527525E+03  0.20874478384E+03  0.77000000000E+02 0.  0.
<mgrwt>
<rscale>  0 0.18992104E+03</rscale>
<asrwt>0</asrwt>
<pdfrwt beam="1">  1        2 0.55248049E-01 0.18992104E+03</pdfrwt>
<pdfrwt beam="2">  1       -2 0.38631582E-02 0.18992104E+03</pdfrwt>
<totfact> 0.25047079E+04</totfact>
</mgrwt>
</event>
<event>
 4    1  0.1171488E-003  0.2081134E+03  0.7818608E-02  0.1143069E+00
          2   -1    0    0  501    0  0.00000000000E+00  0.00000000000E+00  0.91526890798E+03  0.91526890798E+03  0.25500000000E-02 0.  1.
         -2   -1    0    0    0  501 -0.00000000000E+00 -0.00000000000E+00 -0.11830183007E+02  0.11830183282E+02  0.25500000000E-02 0. -1.
    5000001    1    1    2    0    0  0.28600112035E+02 -0.48956114959E+02  0.63453529122E+03  0.64169985460E+03  0.77000000000E+02 0.  0.
   -5000001    1    1    2    0    0 -0.28600112035E+02  0.48956114959E+02  0.26890343376E+03  0.28539923666E+03  0.77000000000E+02 0.  0.
<mgrwt>
<rscale>  0 0.20811342E+03</rscale>
<asrwt>0</asrwt>
<pdfrwt beam="1">  1        2 0.14081064E+00 0.20811342E+03</pdfrwt>
<pdfrwt beam="2">  1       -2 0.18200276E-02 0.20811342E+03</pdfrwt>
<totfact> 0.25830664E+04</totfact>
</mgrwt>
</event>
<event>
 4    1  0.1171488E-003  0.2500381E+03  0.7818608E-02  0.1113281E+00
          2   -1    0    0  501    0  0.00000000000E+00  0.00000000000E+00  0.21091382390E+04  0.21091382390E+04  0.25500000000E-02 0.  1.
         -2   -1    0    0    0  501 -0.00000000000E+00 -0.00000000000E+00 -0.74104954471E+01  0.74104958859E+01  0.25500000000E-02 0. -1.
    5000001    1    1    2    0    0  0.52960022139E+02  0.68664410482E+02  0.65552517198E+03  0.66570400052E+03  0.77000000000E+02 0.  0.
   -5000001    1    1    2    0    0 -0.52960022139E+02 -0.68664410482E+02  0.14462025716E+04  0.14508447344E+04  0.77000000000E+02 0.  0.
<mgrwt>
<rscale>  0 0.25003808E+03</rscale>
<asrwt>0</asrwt>
<pdfrwt beam="1">  1        2 0.32448240E+00 0.25003808E+03</pdfrwt>
<pdfrwt beam="2">  1       -2 0.11400777E-02 0.25003808E+03</pdfrwt>
<totfact> 0.11442251E+04</totfact>
</mgrwt>
</event>
<event>
 4    1  0.1171488E-003  0.1836069E+03  0.7818608E-02  0.1164357E+00
          2   -1    0    0  501    0  0.00000000000E+00  0.00000000000E+00  0.11431783244E+04  0.11431783244E+04  0.25500000000E-02 0.  1.
         -2   -1    0    0    0  501 -0.00000000000E+00 -0.00000000000E+00 -0.73723185541E+01  0.73723189951E+01  0.25500000000E-02 0. -1.
    5000001    1    1    2    0    0 -0.69061108169E+01  0.36250913773E+02  0.77920657880E+03  0.78387098145E+03  0.77000000000E+02 0.  0.
   -5000001    1    1    2    0    0  0.69061108169E+01 -0.36250913773E+02  0.35659942705E+03  0.36667966195E+03  0.77000000000E+02 0.  0.
<mgrwt>
<rscale>  0 0.18360692E+03</rscale>
<asrwt>0</asrwt>
<pdfrwt beam="1">  1        2 0.17587350E+00 0.18360692E+03</pdfrwt>
<pdfrwt beam="2">  1       -2 0.11342035E-02 0.18360692E+03</pdfrwt>
<totfact> 0.37145380E+04</totfact>
</mgrwt>
</event>
<event>
 4    1  0.1171488E-003  0.4226241E+03  0.7818608E-02  0.1036216E+00
         -2   -1    0    0    0  501 -0.00000000000E+00  0.00000000000E+00  0.31721732114E+02  0.31721732216E+02  0.25500000000E-02 0.  1.
          2   -1    0    0  501    0  0.00000000000E+00 -0.00000000000E+00 -0.14076397865E+04  0.14076397865E+04  0.25500000000E-02 0. -1.
    5000001    1    1    2    0    0 -0.18695901160E+03  0.60670480992E+02 -0.65579420936E+03  0.68893368644E+03  0.77000000000E+02 0.  0.
   -5000001    1    1    2    0    0  0.18695901160E+03 -0.60670480992E+02 -0.72012384498E+03  0.75042783223E+03  0.77000000000E+02 0.  0.
<mgrwt>
<rscale>  0 0.42262405E+03</rscale>
<asrwt>0</asrwt>
<pdfrwt beam="1">  1        2 0.21655992E+00 0.42262405E+03</pdfrwt>
<pdfrwt beam="2">  1       -2 0.48802676E-02 0.42262405E+03</pdfrwt>
<totfact> 0.31122105E+03</totfact>
</mgrwt>
</event>
<event>
 4    1  0.1171488E-003  0.4343691E+03  0.7818608E-02  0.1032489E+00
         -2   -1    0    0    0  501 -0.00000000000E+00  0.00000000000E+00  0.79227181662E+02  0.79227181703E+02  0.25500000000E-02 0. -1.
          2   -1    0    0  501    0  0.00000000000E+00 -0.00000000000E+00 -0.59536540140E+03  0.59536540140E+03  0.25500000000E-02 0.  1.
    5000001    1    1    2    0    0 -0.37625059381E+01  0.13100549499E+03 -0.49898325739E+03  0.52162236084E+03  0.77000000000E+02 0.  0.
   -5000001    1    1    2    0    0  0.37625059381E+01 -0.13100549499E+03 -0.17154962346E+02  0.15297022227E+03  0.77000000000E+02 0.  0.
<mgrwt>
<rscale>  0 0.43436907E+03</rscale>
<asrwt>0</asrwt>
<pdfrwt beam="1">  1        2 0.91594674E-01 0.43436907E+03</pdfrwt>
<pdfrwt beam="2">  1       -2 0.12188798E-01 0.43436907E+03</pdfrwt>
<totfact> 0.24682414E+03</totfact>
</mgrwt>
</event>
<event>
 4    1  0.1171488E-003  0.3586192E+03  0.7818608E-02  0.1059132E+00
          2   -1    0    0  501    0  0.00000000000E+00  0.00000000000E+00  0.13289723286E+04  0.13289723286E+04  0.25500000000E-02 0.  1.
         -2   -1    0    0    0  501 -0.00000000000E+00 -0.00000000000E+00 -0.24193077249E+02  0.24193077383E+02  0.25500000000E-02 0. -1.
    5000001    1    1    2    0    0  0.15331795388E+03  0.35247750738E+02  0.79726196113E+03  0.81627472923E+03  0.77000000000E+02 0.  0.
   -5000001    1    1    2    0    0 -0.15331795388E+03 -0.35247750738E+02  0.50751729021E+03  0.53689067674E+03  0.77000000000E+02 0.  0.
<mgrwt>
<rscale>  0 0.35861919E+03</rscale>
<asrwt>0</asrwt>
<pdfrwt beam="1">  1        2 0.20445732E+00 0.35861919E+03</pdfrwt>
<pdfrwt beam="2">  1       -2 0.37220113E-02 0.35861919E+03</pdfrwt>
<totfact> 0.51988756E+03</totfact>
</mgrwt>
</event>
<event>
 4    1  0.1171488E-003  0.4780589E+03  0.7818608E-02  0.1019670E+00
          2   -1    0    0  501    0  0.00000000000E+00  0.00000000000E+00  0.46182272423E+03  0.46182272424E+03  0.25500000000E-02 0.  1.
         -2   -1    0    0    0  501 -0.00000000000E+00 -0.00000000000E+00 -0.12371647141E+03  0.12371647144E+03  0.25500000000E-02 0. -1.
    5000001    1    1    2    0    0  0.19698418348E+03 -0.24738983116E+02  0.30205423542E+03  0.36956805458E+03  0.77000000000E+02 0.  0.
   -5000001    1    1    2    0    0 -0.19698418348E+03  0.24738983116E+02  0.36052017396E+02  0.21597114110E+03  0.77000000000E+02 0.  0.
<mgrwt>
<rscale>  0 0.47805890E+03</rscale>
<asrwt>0</asrwt>
<pdfrwt beam="1">  1        2 0.71049650E-01 0.47805890E+03</pdfrwt>
<pdfrwt beam="2">  1       -2 0.19033303E-01 0.47805890E+03</pdfrwt>
<totfact> 0.15671782E+03</totfact>
</mgrwt>
</event>
<event>
 4    1  0.1171488E-003  0.2881102E+03  0.7818608E-02  0.1091340E+00
         -2   -1    0    0    0  501 -0.00000000000E+00  0.00000000000E+00  0.66057475837E+01  0.66057480759E+01  0.25500000000E-02 0. -1.
          2   -1    0    0  501    0  0.00000000000E+00 -0.00000000000E+00 -0.31414860625E+04  0.31414860625E+04  0.25500000000E-02 0.  1.
    5000001    1    1    2    0    0 -0.90253585479E+02 -0.73814641922E+02 -0.11844515107E+04  0.11926645347E+04  0.77000000000E+02 0.  0.
   -5000001    1    1    2    0    0  0.90253585479E+02  0.73814641922E+02 -0.19504288042E+04  0.19554272759E+04  0.77000000000E+02 0.  0.
<mgrwt>
<rscale>  0 0.28811015E+03</rscale>
<asrwt>0</asrwt>
<pdfrwt beam="1">  1        2 0.48330436E+00 0.28811015E+03</pdfrwt>
<pdfrwt beam="2">  1       -2 0.10162714E-02 0.28811015E+03</pdfrwt>
<totfact> 0.35631469E+03</totfact>
</mgrwt>
</event>
<event>
 4    1  0.1171488E-003  0.2531805E+03  0.7818608E-02  0.1111311E+00
         -2   -1    0    0    0  501 -0.00000000000E+00  0.00000000000E+00  0.26947044012E+03  0.26947044013E+03  0.25500000000E-02 0. -1.
          2   -1    0    0  501    0  0.00000000000E+00 -0.00000000000E+00 -0.59468846513E+02  0.59468846567E+02  0.25500000000E-02 0.  1.
    5000001    1    1    2    0    0  0.86218672239E+02  0.42413620804E+02  0.14317957495E+03  0.18884375911E+03  0.77000000000E+02 0.  0.
   -5000001    1    1    2    0    0 -0.86218672239E+02 -0.42413620804E+02  0.66822018655E+02  0.14009552759E+03  0.77000000000E+02 0.  0.
<mgrwt>
<rscale>  0 0.25318054E+03</rscale>
<asrwt>0</asrwt>
<pdfrwt beam="1">  1        2 0.91490535E-02 0.25318054E+03</pdfrwt>
<pdfrwt beam="2">  1       -2 0.41456990E-01 0.25318054E+03</pdfrwt>
<totfact> 0.39486329E+03</totfact>
</mgrwt>
</event>
<event>
 4    1  0.1171488E-003  0.2653317E+03  0.7818608E-02  0.1103982E+00
         -2   -1    0    0    0  501 -0.00000000000E+00  0.00000000000E+00  0.17630586156E+03  0.17630586157E+03  0.25500000000E-02 0. -1.
          2   -1    0    0  501    0  0.00000000000E+00 -0.00000000000E+00 -0.99827814414E+02  0.99827814447E+02  0.25500000000E-02 0.  1.
    5000001    1    1    2    0    0 -0.24365225347E+02 -0.10431925505E+03  0.23704134558E+02  0.13404125177E+03  0.77000000000E+02 0.  0.
   -5000001    1    1    2    0    0  0.24365225347E+02  0.10431925505E+03  0.52773912583E+02  0.14209242425E+03  0.77000000000E+02 0.  0.
<mgrwt>
<rscale>  0 0.26533171E+03</rscale>
<asrwt>0</asrwt>
<pdfrwt beam="1">  1        2 0.15358126E-01 0.26533171E+03</pdfrwt>
<pdfrwt beam="2">  1       -2 0.27123978E-01 0.26533171E+03</pdfrwt>
<totfact> 0.46157990E+03</totfact>
</mgrwt>
</event>
<event>
 4    1  0.1171488E-003  0.2900125E+03  0.7818608E-02  0.1090343E+00
         -2   -1    0    0    0  501 -0.00000000000E+00  0.00000000000E+00  0.13598865756E+03  0.13598865759E+03  0.25500000000E-02 0.  1.
          2   -1    0    0  501    0  0.00000000000E+00 -0.00000000000E+00 -0.15462182879E+03  0.15462182881E+03  0.25500000000E-02 0. -1.
    5000001    1    1    2    0    0  0.82229263306E+02  0.53840155629E+02 -0.83207359334E+02  0.15004292302E+03  0.77000000000E+02 0.  0.
   -5000001    1    1    2    0    0 -0.82229263306E+02 -0.53840155629E+02  0.64574188111E+02  0.14056756337E+03  0.77000000000E+02 0.  0.
<mgrwt>
<rscale>  0 0.29001252E+03</rscale>
<asrwt>0</asrwt>
<pdfrwt beam="1">  1        2 0.23787974E-01 0.29001252E+03</pdfrwt>
<pdfrwt beam="2">  1       -2 0.20921332E-01 0.29001252E+03</pdfrwt>
<totfact> 0.44079324E+03</totfact>
</mgrwt>
</event>
<event>
 4    1  0.1171488E-003  0.4061608E+03  0.7818608E-02  0.1041667E+00
          2   -1    0    0  501    0  0.00000000000E+00  0.00000000000E+00  0.48274460030E+03  0.48274460031E+03  0.25500000000E-02 0.  1.
         -2   -1    0    0    0  501 -0.00000000000E+00 -0.00000000000E+00 -0.85431610635E+02  0.85431610673E+02  0.25500000000E-02 0. -1.
    5000001    1    1    2    0    0 -0.72201341152E+02 -0.36455543404E+02  0.43593563736E+03  0.45001213343E+03  0.77000000000E+02 0.  0.
   -5000001    1    1    2    0    0  0.72201341152E+02  0.36455543404E+02 -0.38622647697E+02  0.11816407755E+03  0.77000000000E+02 0.  0.
<mgrwt>
<rscale>  0 0.40616080E+03</rscale>
<asrwt>0</asrwt>
<pdfrwt beam="1">  1        2 0.74268400E-01 0.40616080E+03</pdfrwt>
<pdfrwt beam="2">  1       -2 0.13143325E-01 0.40616080E+03</pdfrwt>
<totfact> 0.27759955E+03</totfact>
</mgrwt>
</event>
<event>
 4    1  0.1171488E-003  0.2016756E+03  0.7818608E-02  0.1148333E+00
          2   -1    0    0  501    0  0.00000000000E+00  0.00000000000E+00  0.21871133046E+03  0.21871133047E+03  0.25500000000E-02 0.  1.
         -2   -1    0    0    0  501 -0.00000000000E+00 -0.00000000000E+00 -0.46491694982E+02  0.46491695052E+02  0.25500000000E-02 0. -1.
    5000001    1    1    2    0    0 -0.54243264094E+02  0.32845374958E+02  0.66689199290E+02  0.11998999816E+03  0.77000000000E+02 0.  0.
   -5000001    1    1    2    0    0  0.54243264094E+02 -0.32845374958E+02  0.10553043619E+03  0.14521302737E+03  0.77000000000E+02 0.  0.
<mgrwt>
<rscale>  0 0.20167559E+03</rscale>
<asrwt>0</asrwt>
<pdfrwt beam="1">  1        2 0.33647896E-01 0.20167559E+03</pdfrwt>
<pdfrwt beam="2">  1       -2 0.71525686E-02 0.20167559E+03</pdfrwt>
<totfact> 0.16826094E+04</totfact>
</mgrwt>
</event>
<event>
 4    1  0.1171488E-003  0.2207702E+03  0.7818608E-02  0.1133310E+00
          2   -1    0    0  501    0  0.00000000000E+00  0.00000000000E+00  0.95899042813E+02  0.95899042847E+02  0.25500000000E-02 0.  1.
         -2   -1    0    0    0  501 -0.00000000000E+00 -0.00000000000E+00 -0.12705939073E+03  0.12705939076E+03  0.25500000000E-02 0. -1.
    5000001    1    1    2    0    0 -0.17718312227E+02  0.71419800463E+02  0.13709832018E+02  0.10738568797E+03  0.77000000000E+02 0.  0.
   -5000001    1    1    2    0    0  0.17718312227E+02 -0.71419800463E+02 -0.44870179936E+02  0.11557274564E+03  0.77000000000E+02 0.  0.
<mgrwt>
<rscale>  0 0.22077023E+03</rscale>
<asrwt>0</asrwt>
<pdfrwt beam="1">  1        2 0.14753699E-01 0.22077023E+03</pdfrwt>
<pdfrwt beam="2">  1       -2 0.19547599E-01 0.22077023E+03</pdfrwt>
<totfact> 0.84904219E+03</totfact>
</mgrwt>
</event>
<event>
 4    1  0.1171488E-003  0.3681266E+03  0.7818608E-02  0.1055412E+00
         -2   -1    0    0    0  501 -0.00000000000E+00  0.00000000000E+00  0.92498243173E+02  0.92498243209E+02  0.25500000000E-02 0. -1.
          2   -1    0    0  501    0  0.00000000000E+00 -0.00000000000E+00 -0.36626956835E+03  0.36626956836E+03  0.25500000000E-02 0.  1.
    5000001    1    1    2    0    0  0.10543126968E+03  0.97848428353E+02 -0.30698798722E+02  0.16601651665E+03  0.77000000000E+02 0.  0.
   -5000001    1    1    2    0    0 -0.10543126968E+03 -0.97848428353E+02 -0.24307252646E+03  0.29275129492E+03  0.77000000000E+02 0.  0.
<mgrwt>
<rscale>  0 0.36812656E+03</rscale>
<asrwt>0</asrwt>
<pdfrwt beam="1">  1        2 0.56349163E-01 0.36812656E+03</pdfrwt>
<pdfrwt beam="2">  1       -2 0.14230499E-01 0.36812656E+03</pdfrwt>
<totfact> 0.33012021E+03</totfact>
</mgrwt>
</event>
<event>
 4    1  0.1171488E-003  0.2951303E+03  0.7818608E-02  0.1087701E+00
         -2   -1    0    0    0  501 -0.00000000000E+00  0.00000000000E+00  0.16480928156E+02  0.16480928353E+02  0.25500000000E-02 0. -1.
          2   -1    0    0  501    0  0.00000000000E+00 -0.00000000000E+00 -0.13212532240E+04  0.13212532240E+04  0.25500000000E-02 0.  1.
    5000001    1    1    2    0    0  0.10982571222E+03  0.22328612629E+02 -0.91222533040E+03  0.92230380430E+03  0.77000000000E+02 0.  0.
   -5000001    1    1    2    0    0 -0.10982571222E+03 -0.22328612629E+02 -0.39254696547E+03  0.41543034808E+03  0.77000000000E+02 0.  0.
<mgrwt>
<rscale>  0 0.29513034E+03</rscale>
<asrwt>0</asrwt>
<pdfrwt beam="1">  1        2 0.20326964E+00 0.29513034E+03</pdfrwt>
<pdfrwt beam="2">  1       -2 0.25355285E-02 0.29513034E+03</pdfrwt>
<totfact> 0.93040722E+03</totfact>
</mgrwt>
</event>
<event>
 4    1  0.1171488E-003  0.2977290E+03  0.7818608E-02  0.1086381E+00
          2   -1    0    0  501    0  0.00000000000E+00  0.00000000000E+00  0.13025528938E+03  0.13025528940E+03  0.25500000000E-02 0.  1.
         -2   -1    0    0    0  501 -0.00000000000E+00 -0.00000000000E+00 -0.17013233406E+03  0.17013233408E+03  0.25500000000E-02 0. -1.
    5000001    1    1    2    0    0  0.25577810039E+02 -0.37329048809E+02  0.10022138497E+03  0.13424234897E+03  0.77000000000E+02 0.  0.
   -5000001    1    1    2    0    0 -0.25577810039E+02  0.37329048809E+02 -0.14009842965E+03  0.16614527451E+03  0.77000000000E+02 0.  0.
<mgrwt>
<rscale>  0 0.29772898E+03</rscale>
<asrwt>0</asrwt>
<pdfrwt beam="1">  1        2 0.20039275E-01 0.29772898E+03</pdfrwt>
<pdfrwt beam="2">  1       -2 0.26174205E-01 0.29772898E+03</pdfrwt>
<totfact> 0.36212151E+03</totfact>
</mgrwt>
</event>
<event>
 4    1  0.1171488E-003  0.1769329E+03  0.7818608E-02  0.1170805E+00
         -2   -1    0    0    0  501 -0.00000000000E+00  0.00000000000E+00  0.52449587541E+02  0.52449587603E+02  0.25500000000E-02 0. -1.
          2   -1    0    0  501    0  0.00000000000E+00 -0.00000000000E+00 -0.14921582883E+03  0.14921582885E+03  0.25500000000E-02 0.  1.
    5000001    1    1    2    0    0  0.29509370049E+02 -0.30156456193E+02 -0.36049513602E+02  0.94914604787E+02  0.77000000000E+02 0.  0.
   -5000001    1    1    2    0    0 -0.29509370049E+02  0.30156456193E+02 -0.60716727686E+02  0.10675081167E+03  0.77000000000E+02 0.  0.
<mgrwt>
<rscale>  0 0.17693285E+03</rscale>
<asrwt>0</asrwt>
<pdfrwt beam="1">  1        2 0.22956281E-01 0.17693285E+03</pdfrwt>
<pdfrwt beam="2">  1       -2 0.80691674E-02 0.17693285E+03</pdfrwt>
<totfact> 0.21037821E+04</totfact>
</mgrwt>
</event>
<event>
 4    1  0.1171488E-003  0.3843963E+03  0.7818608E-02  0.1049321E+00
         -2   -1    0    0    0  501 -0.00000000000E+00  0.00000000000E+00  0.69007143637E+02  0.69007143684E+02  0.25500000000E-02 0. -1.
          2   -1    0    0  501    0  0.00000000000E+00 -0.00000000000E+00 -0.53530886036E+03  0.53530886036E+03  0.25500000000E-02 0.  1.
    5000001    1    1    2    0    0  0.69148999457E+02  0.93240609868E+01  0.21039665994E+02  0.10601976129E+03  0.77000000000E+02 0.  0.
   -5000001    1    1    2    0    0 -0.69148999457E+02 -0.93240609868E+01 -0.48734138271E+03  0.49829624275E+03  0.77000000000E+02 0.  0.
<mgrwt>
<rscale>  0 0.38439633E+03</rscale>
<asrwt>0</asrwt>
<pdfrwt beam="1">  1        2 0.82355206E-01 0.38439633E+03</pdfrwt>
<pdfrwt beam="2">  1       -2 0.10616484E-01 0.38439633E+03</pdfrwt>
<totfact> 0.34908103E+03</totfact>
</mgrwt>
</event>
<event>
 4    1  0.1171488E-003  0.3014876E+03  0.7818608E-02  0.1084499E+00
          2   -1    0    0  501    0  0.00000000000E+00  0.00000000000E+00  0.57948564866E+03  0.57948564867E+03  0.25500000000E-02 0.  1.
         -2   -1    0    0    0  501 -0.00000000000E+00 -0.00000000000E+00 -0.39213551020E+02  0.39213551103E+02  0.25500000000E-02 0. -1.
    5000001    1    1    2    0    0  0.12341921835E+03  0.31556528019E+02  0.31898303170E+03  0.35200467672E+03  0.77000000000E+02 0.  0.
   -5000001    1    1    2    0    0 -0.12341921835E+03 -0.31556528019E+02  0.22128906594E+03  0.26669452305E+03  0.77000000000E+02 0.  0.
<mgrwt>
<rscale>  0 0.30148758E+03</rscale>
<asrwt>0</asrwt>
<pdfrwt beam="1">  1        2 0.89151631E-01 0.30148758E+03</pdfrwt>
<pdfrwt beam="2">  1       -2 0.60328545E-02 0.30148758E+03</pdfrwt>
<totfact> 0.77072713E+03</totfact>
</mgrwt>
</event>
<event>
 4    1  0.1171488E-003  0.3267435E+03  0.7818608E-02  0.1072587E+00
          2   -1    0    0  501    0  0.00000000000E+00  0.00000000000E+00  0.11411703858E+04  0.11411703858E+04  0.25500000000E-02 0.  1.
         -2   -1    0    0    0  501 -0.00000000000E+00 -0.00000000000E+00 -0.23388560434E+02  0.23388560573E+02  0.25500000000E-02 0. -1.
    5000001    1    1    2    0    0 -0.89498118510E+02 -0.10646414952E+03  0.42473512440E+03  0.45351235292E+03  0.77000000000E+02 0.  0.
   -5000001    1    1    2    0    0  0.89498118510E+02  0.10646414952E+03  0.69304670099E+03  0.71104659348E+03  0.77000000000E+02 0.  0.
<mgrwt>
<rscale>  0 0.32674352E+03</rscale>
<asrwt>0</asrwt>
<pdfrwt beam="1">  1        2 0.17556469E+00 0.32674352E+03</pdfrwt>
<pdfrwt beam="2">  1       -2 0.35982398E-02 0.32674352E+03</pdfrwt>
<totfact> 0.69888916E+03</totfact>
</mgrwt>
</event>
<event>
 4    1  0.1171488E-003  0.1844100E+03  0.7818608E-02  0.1163602E+00
          2   -1    0    0  501    0  0.00000000000E+00  0.00000000000E+00  0.13562572445E+04  0.13562572445E+04  0.25500000000E-02 0.  1.
         -2   -1    0    0    0  501 -0.00000000000E+00 -0.00000000000E+00 -0.62685438319E+01  0.62685443506E+01  0.25500000000E-02 0. -1.
    5000001    1    1    2    0    0  0.67752623613E+00 -0.49063162871E+02  0.76993253555E+03  0.77532751937E+03  0.77000000000E+02 0.  0.
   -5000001    1    1    2    0    0 -0.67752623613E+00  0.49063162871E+02  0.58005616507E+03  0.58719826944E+03  0.77000000000E+02 0.  0.
<mgrwt>
<rscale>  0 0.18440996E+03</rscale>
<asrwt>0</asrwt>
<pdfrwt beam="1">  1        2 0.20865509E+00 0.18440996E+03</pdfrwt>
<pdfrwt beam="2">  1       -2 0.96439081E-03 0.18440996E+03</pdfrwt>
<totfact> 0.35777212E+04</totfact>
</mgrwt>
</event>
<event>
 4    1  0.1171488E-003  0.3744088E+03  0.7818608E-02  0.1053020E+00
         -2   -1    0    0    0  501 -0.00000000000E+00  0.00000000000E+00  0.32566106215E+02  0.32566106314E+02  0.25500000000E-02 0. -1.
          2   -1    0    0  501    0  0.00000000000E+00 -0.00000000000E+00 -0.10761338022E+04  0.10761338022E+04  0.25500000000E-02 0.  1.
    5000001    1    1    2    0    0  0.90306179587E+02 -0.11825995785E+03 -0.27445944697E+03  0.32155499021E+03  0.77000000000E+02 0.  0.
   -5000001    1    1    2    0    0 -0.90306179587E+02  0.11825995785E+03 -0.76910824905E+03  0.78714491833E+03  0.77000000000E+02 0.  0.
<mgrwt>
<rscale>  0 0.37440880E+03</rscale>
<asrwt>0</asrwt>
<pdfrwt beam="1">  1        2 0.16555902E+00 0.37440880E+03</pdfrwt>
<pdfrwt beam="2">  1       -2 0.50101710E-02 0.37440880E+03</pdfrwt>
<totfact> 0.46270079E+03</totfact>
</mgrwt>
</event>
<event>
 4    1  0.1171488E-003  0.2473857E+03  0.7818608E-02  0.1114968E+00
         -2   -1    0    0    0  501 -0.00000000000E+00  0.00000000000E+00  0.93934438243E+02  0.93934438277E+02  0.25500000000E-02 0. -1.
          2   -1    0    0  501    0  0.00000000000E+00 -0.00000000000E+00 -0.16287871376E+03  0.16287871378E+03  0.25500000000E-02 0.  1.
    5000001    1    1    2    0    0 -0.45344306682E+02  0.79840454703E+02 -0.66305288197E+02  0.13695253046E+03  0.77000000000E+02 0.  0.
   -5000001    1    1    2    0    0  0.45344306682E+02 -0.79840454703E+02 -0.26389873165E+01  0.11986062160E+03  0.77000000000E+02 0.  0.
<mgrwt>
<rscale>  0 0.24738569E+03</rscale>
<asrwt>0</asrwt>
<pdfrwt beam="1">  1        2 0.25058264E-01 0.24738569E+03</pdfrwt>
<pdfrwt beam="2">  1       -2 0.14451452E-01 0.24738569E+03</pdfrwt>
<totfact> 0.76983571E+03</totfact>
</mgrwt>
</event>
<event>
 4    1  0.1171488E-003  0.3742547E+03  0.7818608E-02  0.1053078E+00
         -2   -1    0    0    0  501 -0.00000000000E+00  0.00000000000E+00  0.65887946238E+03  0.65887946238E+03  0.25500000000E-02 0. -1.
          2   -1    0    0  501    0  0.00000000000E+00 -0.00000000000E+00 -0.53145751576E+02  0.53145751637E+02  0.25500000000E-02 0.  1.
    5000001    1    1    2    0    0  0.15535366499E+03 -0.41888998647E+02  0.19527470866E+03  0.26448187325E+03  0.77000000000E+02 0.  0.
   -5000001    1    1    2    0    0 -0.15535366499E+03  0.41888998647E+02  0.41045900214E+03  0.44754334077E+03  0.77000000000E+02 0.  0.
<mgrwt>
<rscale>  0 0.37425470E+03</rscale>
<asrwt>0</asrwt>
<pdfrwt beam="1">  1        2 0.81762697E-02 0.37425470E+03</pdfrwt>
<pdfrwt beam="2">  1       -2 0.10136607E+00 0.37425470E+03</pdfrwt>
<totfact> 0.69109383E+02</totfact>
</mgrwt>
</event>
<event>
 4    1  0.1171488E-003  0.2540374E+03  0.7818608E-02  0.1110780E+00
         -2   -1    0    0    0  501 -0.00000000000E+00  0.00000000000E+00  0.49585468442E+02  0.49585468508E+02  0.25500000000E-02 0. -1.
          2   -1    0    0  501    0  0.00000000000E+00 -0.00000000000E+00 -0.32537266554E+03  0.32537266555E+03  0.25500000000E-02 0.  1.
    5000001    1    1    2    0    0  0.15342390415E+02  0.86535729562E+02 -0.64375765060E+02  0.13340562417E+03  0.77000000000E+02 0.  0.
   -5000001    1    1    2    0    0 -0.15342390415E+02 -0.86535729562E+02 -0.21141143204E+03  0.24155250989E+03  0.77000000000E+02 0.  0.
<mgrwt>
<rscale>  0 0.25403745E+03</rscale>
<asrwt>0</asrwt>
<pdfrwt beam="1">  1        2 0.50057332E-01 0.25403745E+03</pdfrwt>
<pdfrwt beam="2">  1       -2 0.76285338E-02 0.25403745E+03</pdfrwt>
<totfact> 0.10069133E+04</totfact>
</mgrwt>
</event>
<event>
 4    1  0.1171488E-003  0.2126304E+03  0.7818608E-02  0.1139500E+00
         -2   -1    0    0    0  501 -0.00000000000E+00  0.00000000000E+00  0.11300805581E+02  0.11300805869E+02  0.25500000000E-02 0. -1.
          2   -1    0    0  501    0  0.00000000000E+00 -0.00000000000E+00 -0.10001872709E+04  0.10001872709E+04  0.25500000000E-02 0.  1.
    5000001    1    1    2    0    0  0.55266279262E+02  0.13149220399E+02 -0.71484591629E+03  0.72122184358E+03  0.77000000000E+02 0.  0.
   -5000001    1    1    2    0    0 -0.55266279262E+02 -0.13149220399E+02 -0.27404054906E+03  0.29026623322E+03  0.77000000000E+02 0.  0.
<mgrwt>
<rscale>  0 0.21263040E+03</rscale>
<asrwt>0</asrwt>
<pdfrwt beam="1">  1        2 0.15387489E+00 0.21263040E+03</pdfrwt>
<pdfrwt beam="2">  1       -2 0.17385863E-02 0.21263040E+03</pdfrwt>
<totfact> 0.24492853E+04</totfact>
</mgrwt>
</event>
<event>
 4    1  0.1171488E-003  0.2209457E+03  0.7818608E-02  0.1133180E+00
          2   -1    0    0  501    0  0.00000000000E+00  0.00000000000E+00  0.16190656522E+04  0.16190656522E+04  0.25500000000E-02 0.  1.
         -2   -1    0    0    0  501 -0.00000000000E+00 -0.00000000000E+00 -0.75378352004E+01  0.75378356317E+01  0.25500000000E-02 0. -1.
    5000001    1    1    2    0    0 -0.60471736767E+02 -0.47079980394E+02  0.65817544740E+03  0.66708116077E+03  0.77000000000E+02 0.  0.
   -5000001    1    1    2    0    0  0.60471736767E+02  0.47079980394E+02  0.95335236956E+03  0.95952232702E+03  0.77000000000E+02 0.  0.
<mgrwt>
<rscale>  0 0.22094570E+03</rscale>
<asrwt>0</asrwt>
<pdfrwt beam="1">  1        2 0.24908697E+00 0.22094570E+03</pdfrwt>
<pdfrwt beam="2">  1       -2 0.11596672E-02 0.22094570E+03</pdfrwt>
<totfact> 0.20076125E+04</totfact>
</mgrwt>
</event>
<event>
 4    1  0.1171488E-003  0.2036301E+03  0.7818608E-02  0.1146712E+00
         -2   -1    0    0    0  501 -0.00000000000E+00  0.00000000000E+00  0.22888118235E+02  0.22888118377E+02  0.25500000000E-02 0. -1.
          2   -1    0    0  501    0  0.00000000000E+00 -0.00000000000E+00 -0.45291191651E+03  0.45291191652E+03  0.25500000000E-02 0.  1.
    5000001    1    1    2    0    0 -0.44801722867E+02  0.48257199533E+02 -0.23853497532E+03  0.25915996243E+03  0.77000000000E+02 0.  0.
   -5000001    1    1    2    0    0  0.44801722867E+02 -0.48257199533E+02 -0.19148882296E+03  0.21664007246E+03  0.77000000000E+02 0.  0.
<mgrwt>
<rscale>  0 0.20363007E+03</rscale>
<asrwt>0</asrwt>
<pdfrwt beam="1">  1        2 0.69678750E-01 0.20363007E+03</pdfrwt>
<pdfrwt beam="2">  1       -2 0.35212493E-02 0.20363007E+03</pdfrwt>
<totfact> 0.22495614E+04</totfact>
</mgrwt>
</event>
<event>
 4    1  0.1171488E-003  0.2995723E+03  0.7818608E-02  0.1085455E+00
          2   -1    0    0  501    0  0.00000000000E+00  0.00000000000E+00  0.87370694804E+03  0.87370694804E+03  0.25500000000E-02 0.  1.
         -2   -1    0    0    0  501 -0.00000000000E+00 -0.00000000000E+00 -0.25678957721E+02  0.25678957847E+02  0.25500000000E-02 0. -1.
    5000001    1    1    2    0    0  0.11672152386E+03 -0.25860657714E+02  0.28274315430E+03  0.31648914524E+03  0.77000000000E+02 0.  0.
   -5000001    1    1    2    0    0 -0.11672152386E+03  0.25860657714E+02  0.56528483602E+03  0.58289676065E+03  0.77000000000E+02 0.  0.
<mgrwt>
<rscale>  0 0.29957225E+03</rscale>
<asrwt>0</asrwt>
<pdfrwt beam="1">  1        2 0.13441643E+00 0.29957225E+03</pdfrwt>
<pdfrwt beam="2">  1       -2 0.39506095E-02 0.29957225E+03</pdfrwt>
<totfact> 0.88574722E+03</totfact>
</mgrwt>
</event>
<event>
 4    1  0.1171488E-003  0.3878360E+03  0.7818608E-02  0.1048075E+00
          2   -1    0    0  501    0  0.00000000000E+00  0.00000000000E+00  0.10276419982E+04  0.10276419982E+04  0.25500000000E-02 0.  1.
         -2   -1    0    0    0  501 -0.00000000000E+00 -0.00000000000E+00 -0.36592689374E+02  0.36592689463E+02  0.25500000000E-02 0. -1.
    5000001    1    1    2    0    0  0.10758569356E+03  0.42226304998E+01  0.10665855908E+03  0.16999282424E+03  0.77000000000E+02 0.  0.
   -5000001    1    1    2    0    0 -0.10758569356E+03 -0.42226304998E+01  0.88439074970E+03  0.89424186338E+03  0.77000000000E+02 0.  0.
<mgrwt>
<rscale>  0 0.38783597E+03</rscale>
<asrwt>0</asrwt>
<pdfrwt beam="1">  1        2 0.15809875E+00 0.38783597E+03</pdfrwt>
<pdfrwt beam="2">  1       -2 0.56296453E-02 0.38783597E+03</pdfrwt>
<totfact> 0.41399951E+03</totfact>
</mgrwt>
</event>
<event>
 4    1  0.1171488E-003  0.2520594E+03  0.7818608E-02  0.1112010E+00
         -2   -1    0    0    0  501 -0.00000000000E+00  0.00000000000E+00  0.73636469156E+01  0.73636473571E+01  0.25500000000E-02 0.  1.
          2   -1    0    0  501    0  0.00000000000E+00 -0.00000000000E+00 -0.21570126714E+04  0.21570126714E+04  0.25500000000E-02 0. -1.
    5000001    1    1    2    0    0 -0.89021417809E+02 -0.30018141769E+02 -0.13632913111E+04  0.13686921131E+04  0.77000000000E+02 0.  0.
   -5000001    1    1    2    0    0  0.89021417809E+02  0.30018141769E+02 -0.78635771337E+03  0.79568420560E+03  0.77000000000E+02 0.  0.
<mgrwt>
<rscale>  0 0.25205936E+03</rscale>
<asrwt>0</asrwt>
<pdfrwt beam="1">  1        2 0.33184760E+00 0.25205936E+03</pdfrwt>
<pdfrwt beam="2">  1       -2 0.11328705E-02 0.25205936E+03</pdfrwt>
<totfact> 0.10896738E+04</totfact>
</mgrwt>
</event>
<event>
 4    1  0.1171488E-003  0.1897273E+03  0.7818608E-02  0.1158708E+00
          2   -1    0    0  501    0  0.00000000000E+00  0.00000000000E+00  0.23416904243E+04  0.23416904243E+04  0.25500000000E-02 0.  1.
         -2   -1    0    0    0  501 -0.00000000000E+00 -0.00000000000E+00 -0.38429970109E+01  0.38429978569E+01  0.25500000000E-02 0. -1.
    5000001    1    1    2    0    0  0.10772858017E+02  0.40583529285E+02  0.16158697756E+04  0.16182481914E+04  0.77000000000E+02 0.  0.
   -5000001    1    1    2    0    0 -0.10772858017E+02 -0.40583529285E+02  0.72197765166E+03  0.72728523072E+03  0.77000000000E+02 0.  0.
<mgrwt>
<rscale>  0 0.18972728E+03</rscale>
<asrwt>0</asrwt>
<pdfrwt beam="1">  1        2 0.36026085E+00 0.18972728E+03</pdfrwt>
<pdfrwt beam="2">  1       -2 0.59122909E-03 0.18972728E+03</pdfrwt>
<totfact> 0.22049372E+04</totfact>
</mgrwt>
</event>
<event>
 4    1  0.1171488E-003  0.1830680E+03  0.7818608E-02  0.1164866E+00
         -2   -1    0    0    0  501 -0.00000000000E+00  0.00000000000E+00  0.69144388207E+03  0.69144388208E+03  0.25500000000E-02 0. -1.
          2   -1    0    0  501    0  0.00000000000E+00 -0.00000000000E+00 -0.12117351716E+02  0.12117351985E+02  0.25500000000E-02 0.  1.
    5000001    1    1    2    0    0 -0.47326463088E+02  0.13679371226E+02  0.35791306275E+03  0.36940178639E+03  0.77000000000E+02 0.  0.
   -5000001    1    1    2    0    0  0.47326463088E+02 -0.13679371226E+02  0.32141346761E+03  0.33415944767E+03  0.77000000000E+02 0.  0.
<mgrwt>
<rscale>  0 0.18306795E+03</rscale>
<asrwt>0</asrwt>
<pdfrwt beam="1">  1        2 0.18642078E-02 0.18306795E+03</pdfrwt>
<pdfrwt beam="2">  1       -2 0.10637599E+00 0.18306795E+03</pdfrwt>
<totfact> 0.43487101E+03</totfact>
</mgrwt>
</event>
<event>
 4    1  0.1171488E-003  0.5865188E+03  0.7818608E-02  0.9933777E-01
          2   -1    0    0  501    0  0.00000000000E+00  0.00000000000E+00  0.94648760026E+03  0.94648760027E+03  0.25500000000E-02 0.  1.
         -2   -1    0    0    0  501 -0.00000000000E+00 -0.00000000000E+00 -0.90863403225E+02  0.90863403261E+02  0.25500000000E-02 0. -1.
    5000001    1    1    2    0    0 -0.15941795721E+01  0.27987939789E+03  0.50152642412E+03  0.57947629189E+03  0.77000000000E+02 0.  0.
   -5000001    1    1    2    0    0  0.15941795721E+01 -0.27987939789E+03  0.35409777292E+03  0.45787471164E+03  0.77000000000E+02 0.  0.
<mgrwt>
<rscale>  0 0.58651883E+03</rscale>
<asrwt>0</asrwt>
<pdfrwt beam="1">  1        2 0.14561349E+00 0.58651883E+03</pdfrwt>
<pdfrwt beam="2">  1       -2 0.13978984E-01 0.58651883E+03</pdfrwt>
<totfact> 0.10847166E+03</totfact>
</mgrwt>
</event>
<event>
 4    1  0.1171488E-003  0.1990586E+03  0.7818608E-02  0.1150536E+00
          2   -1    0    0  501    0  0.00000000000E+00  0.00000000000E+00  0.31637277302E+02  0.31637277404E+02  0.25500000000E-02 0.  1.
         -2   -1    0    0    0  501 -0.00000000000E+00 -0.00000000000E+00 -0.31311427799E+03  0.31311427800E+03  0.25500000000E-02 0. -1.
    5000001    1    1    2    0    0  0.29269682056E+02  0.50792010901E+02 -0.18100458585E+03  0.20525155970E+03  0.77000000000E+02 0.  0.
   -5000001    1    1    2    0    0 -0.29269682056E+02 -0.50792010901E+02 -0.10047241484E+03  0.13949999571E+03  0.77000000000E+02 0.  0.
<mgrwt>
<rscale>  0 0.19905862E+03</rscale>
<asrwt>0</asrwt>
<pdfrwt beam="1">  1        2 0.48672736E-02 0.19905862E+03</pdfrwt>
<pdfrwt beam="2">  1       -2 0.48171425E-01 0.19905862E+03</pdfrwt>
<totfact> 0.65623809E+03</totfact>
</mgrwt>
</event>
<event>
 4    1  0.1171488E-003  0.2183808E+03  0.7818608E-02  0.1135096E+00
         -2   -1    0    0    0  501 -0.00000000000E+00  0.00000000000E+00  0.56824991482E+02  0.56824991539E+02  0.25500000000E-02 0. -1.
          2   -1    0    0  501    0  0.00000000000E+00 -0.00000000000E+00 -0.20981164620E+03  0.20981164622E+03  0.25500000000E-02 0.  1.
    5000001    1    1    2    0    0 -0.57272167798E+02  0.39930612033E+02 -0.35650250381E+02  0.10988400854E+03  0.77000000000E+02 0.  0.
   -5000001    1    1    2    0    0  0.57272167798E+02 -0.39930612033E+02 -0.11733640434E+03  0.15675262921E+03  0.77000000000E+02 0.  0.
<mgrwt>
<rscale>  0 0.21838081E+03</rscale>
<asrwt>0</asrwt>
<pdfrwt beam="1">  1        2 0.32278714E-01 0.21838081E+03</pdfrwt>
<pdfrwt beam="2">  1       -2 0.87423065E-02 0.21838081E+03</pdfrwt>
<totfact> 0.12951541E+04</totfact>
</mgrwt>
</event>
<event>
 4    1  0.1171488E-003  0.6401250E+03  0.7818608E-02  0.9825487E-01
          2   -1    0    0  501    0  0.00000000000E+00  0.00000000000E+00  0.11786983397E+04  0.11786983397E+04  0.25500000000E-02 0.  1.
         -2   -1    0    0    0  501 -0.00000000000E+00 -0.00000000000E+00 -0.86909438774E+02  0.86909438811E+02  0.25500000000E-02 0. -1.
    5000001    1    1    2    0    0  0.20992190454E+03  0.89862299317E+02  0.96235326490E+03  0.99206614967E+03  0.77000000000E+02 0.  0.
   -5000001    1    1    2    0    0 -0.20992190454E+03 -0.89862299317E+02  0.12943563603E+03  0.27354162886E+03  0.77000000000E+02 0.  0.
<mgrwt>
<rscale>  0 0.64012502E+03</rscale>
<asrwt>0</asrwt>
<pdfrwt beam="1">  1        2 0.18133821E+00 0.64012502E+03</pdfrwt>
<pdfrwt beam="2">  1       -2 0.13370683E-01 0.64012502E+03</pdfrwt>
<totfact> 0.83818129E+02</totfact>
</mgrwt>
</event>
<event>
 4    1  0.1171488E-003  0.4253139E+03  0.7818608E-02  0.1035351E+00
         -2   -1    0    0    0  501 -0.00000000000E+00  0.00000000000E+00  0.30691959126E+02  0.30691959232E+02  0.25500000000E-02 0. -1.
          2   -1    0    0  501    0  0.00000000000E+00 -0.00000000000E+00 -0.14734471700E+04  0.14734471700E+04  0.25500000000E-02 0.  1.
    5000001    1    1    2    0    0 -0.71843440794E+02  0.16248007437E+03 -0.41038881896E+03  0.45377223062E+03  0.77000000000E+02 0.  0.
   -5000001    1    1    2    0    0  0.71843440794E+02 -0.16248007437E+03 -0.10323663919E+04  0.10503668986E+04  0.77000000000E+02 0.  0.
<mgrwt>
<rscale>  0 0.42531391E+03</rscale>
<asrwt>0</asrwt>
<pdfrwt beam="1">  1        2 0.22668412E+00 0.42531391E+03</pdfrwt>
<pdfrwt beam="2">  1       -2 0.47218410E-02 0.42531391E+03</pdfrwt>
<totfact> 0.30122376E+03</totfact>
</mgrwt>
</event>
<event>
 4    1  0.1171488E-003  0.2483808E+03  0.7818608E-02  0.1114332E+00
         -2   -1    0    0    0  501 -0.00000000000E+00  0.00000000000E+00  0.50613989601E+03  0.50613989602E+03  0.25500000000E-02 0. -1.
          2   -1    0    0  501    0  0.00000000000E+00 -0.00000000000E+00 -0.30472312413E+02  0.30472312520E+02  0.25500000000E-02 0.  1.
    5000001    1    1    2    0    0  0.66146398486E+02  0.29333399368E+02  0.37881745210E+03  0.39327783610E+03  0.77000000000E+02 0.  0.
   -5000001    1    1    2    0    0 -0.66146398486E+02 -0.29333399368E+02  0.96850131498E+02  0.14333437244E+03  0.77000000000E+02 0.  0.
<mgrwt>
<rscale>  0 0.24838078E+03</rscale>
<asrwt>0</asrwt>
<pdfrwt beam="1">  1        2 0.46880482E-02 0.24838078E+03</pdfrwt>
<pdfrwt beam="2">  1       -2 0.77867675E-01 0.24838078E+03</pdfrwt>
<totfact> 0.25718148E+03</totfact>
</mgrwt>
</event>
<event>
 4    1  0.1171488E-003  0.2556983E+03  0.7818608E-02  0.1109756E+00
          2   -1    0    0  501    0  0.00000000000E+00  0.00000000000E+00  0.57807840273E+03  0.57807840274E+03  0.25500000000E-02 0.  1.
         -2   -1    0    0    0  501 -0.00000000000E+00 -0.00000000000E+00 -0.28275413971E+02  0.28275414086E+02  0.25500000000E-02 0. -1.
    5000001    1    1    2    0    0 -0.97102015634E+02  0.22705186516E+02  0.32642503693E+03  0.34989517240E+03  0.77000000000E+02 0.  0.
   -5000001    1    1    2    0    0  0.97102015634E+02 -0.22705186516E+02  0.22337795183E+03  0.25645864442E+03  0.77000000000E+02 0.  0.
<mgrwt>
<rscale>  0 0.25569831E+03</rscale>
<asrwt>0</asrwt>
<pdfrwt beam="1">  1        2 0.88935139E-01 0.25569831E+03</pdfrwt>
<pdfrwt beam="2">  1       -2 0.43500637E-02 0.25569831E+03</pdfrwt>
<totfact> 0.12638387E+04</totfact>
</mgrwt>
</event>
<event>
 4    1  0.1171488E-003  0.1996915E+03  0.7818608E-02  0.1150000E+00
          2   -1    0    0  501    0  0.00000000000E+00  0.00000000000E+00  0.23656733947E+03  0.23656733948E+03  0.25500000000E-02 0.  1.
         -2   -1    0    0    0  501 -0.00000000000E+00 -0.00000000000E+00 -0.42140949296E+02  0.42140949373E+02  0.25500000000E-02 0. -1.
    5000001    1    1    2    0    0 -0.60725673476E+02 -0.11179267450E+02  0.11826870730E+03  0.15404243106E+03  0.77000000000E+02 0.  0.
   -5000001    1    1    2    0    0  0.60725673476E+02  0.11179267450E+02  0.76157682876E+02  0.12466585780E+03  0.77000000000E+02 0.  0.
<mgrwt>
<rscale>  0 0.19969148E+03</rscale>
<asrwt>0</asrwt>
<pdfrwt beam="1">  1        2 0.36394975E-01 0.19969148E+03</pdfrwt>
<pdfrwt beam="2">  1       -2 0.64832231E-02 0.19969148E+03</pdfrwt>
<totfact> 0.17968811E+04</totfact>
</mgrwt>
</event>
<event>
 4    1  0.1171488E-003  0.2021834E+03  0.7818608E-02  0.1147910E+00
          2   -1    0    0  501    0  0.00000000000E+00  0.00000000000E+00  0.17993583088E+04  0.17993583088E+04  0.25500000000E-02 0.  1.
         -2   -1    0    0    0  501 -0.00000000000E+00 -0.00000000000E+00 -0.56795440832E+01  0.56795446556E+01  0.25500000000E-02 0. -1.
    5000001    1    1    2    0    0  0.61629959177E+02 -0.10853619037E+02  0.10696046637E+04  0.10741969976E+04  0.77000000000E+02 0.  0.
   -5000001    1    1    2    0    0 -0.61629959177E+02  0.10853619037E+02  0.72407410092E+03  0.73084085583E+03  0.77000000000E+02 0.  0.
<mgrwt>
<rscale>  0 0.20218344E+03</rscale>
<asrwt>0</asrwt>
<pdfrwt beam="1">  1        2 0.27682482E+00 0.20218344E+03</pdfrwt>
<pdfrwt beam="2">  1       -2 0.87377458E-03 0.20218344E+03</pdfrwt>
<totfact> 0.24238577E+04</totfact>
</mgrwt>
</event>
<event>
 4    1  0.1171488E-003  0.2157622E+03  0.7818608E-02  0.1137082E+00
          2   -1    0    0  501    0  0.00000000000E+00  0.00000000000E+00  0.33543645014E+03  0.33543645015E+03  0.25500000000E-02 0.  1.
         -2   -1    0    0    0  501 -0.00000000000E+00 -0.00000000000E+00 -0.34696088448E+02  0.34696088542E+02  0.25500000000E-02 0. -1.
    5000001    1    1    2    0    0 -0.74551415357E+02  0.39661732268E+01  0.17035286050E+03  0.20130261086E+03  0.77000000000E+02 0.  0.
   -5000001    1    1    2    0    0  0.74551415357E+02 -0.39661732268E+01  0.13038750119E+03  0.16882992782E+03  0.77000000000E+02 0.  0.
<mgrwt>
<rscale>  0 0.21576221E+03</rscale>
<asrwt>0</asrwt>
<pdfrwt beam="1">  1        2 0.51605606E-01 0.21576221E+03</pdfrwt>
<pdfrwt beam="2">  1       -2 0.53378599E-02 0.21576221E+03</pdfrwt>
<totfact> 0.16715016E+04</totfact>
</mgrwt>
</event>
<event>
 4    1  0.1171488E-003  0.2206985E+03  0.7818608E-02  0.1133363E+00
          2   -1    0    0  501    0  0.00000000000E+00  0.00000000000E+00  0.12764579731E+04  0.12764579731E+04  0.25500000000E-02 0.  1.
         -2   -1    0    0    0  501 -0.00000000000E+00 -0.00000000000E+00 -0.95396449256E+01  0.95396452665E+01  0.25500000000E-02 0. -1.
    5000001    1    1    2    0    0 -0.45428363847E+02 -0.63594036876E+02  0.56450933938E+03  0.57507193638E+03  0.77000000000E+02 0.  0.
   -5000001    1    1    2    0    0  0.45428363847E+02  0.63594036876E+02  0.70240898878E+03  0.71092568197E+03  0.77000000000E+02 0.  0.
<mgrwt>
<rscale>  0 0.22069849E+03</rscale>
<asrwt>0</asrwt>
<pdfrwt beam="1">  1        2 0.19637816E+00 0.22069849E+03</pdfrwt>
<pdfrwt beam="2">  1       -2 0.14676376E-02 0.22069849E+03</pdfrwt>
<totfact> 0.21769891E+04</totfact>
</mgrwt>
</event>
<event>
 4    1  0.1171488E-003  0.2386081E+03  0.7818608E-02  0.1120724E+00
          2   -1    0    0  501    0  0.00000000000E+00  0.00000000000E+00  0.13784987919E+04  0.13784987919E+04  0.25500000000E-02 0.  1.
         -2   -1    0    0    0  501 -0.00000000000E+00 -0.00000000000E+00 -0.10325331849E+02  0.10325332163E+02  0.25500000000E-02 0. -1.
    5000001    1    1    2    0    0  0.23476088744E+02  0.75766952557E+02  0.94521359597E+03  0.95165618784E+03  0.77000000000E+02 0.  0.
   -5000001    1    1    2    0    0 -0.23476088744E+02 -0.75766952557E+02  0.42295986408E+03  0.43716793623E+03  0.77000000000E+02 0.  0.
<mgrwt>
<rscale>  0 0.23860811E+03</rscale>
<asrwt>0</asrwt>
<pdfrwt beam="1">  1        2 0.21207679E+00 0.23860811E+03</pdfrwt>
<pdfrwt beam="2">  1       -2 0.15885122E-02 0.23860811E+03</pdfrwt>
<totfact> 0.17116340E+04</totfact>
</mgrwt>
</event>
<event>
 4    1  0.1171488E-003  0.4964626E+03  0.7818608E-02  0.1014706E+00
         -2   -1    0    0    0  501 -0.00000000000E+00  0.00000000000E+00  0.65201652551E+02  0.65201652600E+02  0.25500000000E-02 0. -1.
          2   -1    0    0  501    0  0.00000000000E+00 -0.00000000000E+00 -0.94504936435E+03  0.94504936436E+03  0.25500000000E-02 0.  1.
    5000001    1    1    2    0    0 -0.21468681823E+03  0.66243113524E+02 -0.29302729260E+03  0.37719036867E+03  0.77000000000E+02 0.  0.
   -5000001    1    1    2    0    0  0.21468681823E+03 -0.66243113524E+02 -0.58682041920E+03  0.63306064829E+03  0.77000000000E+02 0.  0.
<mgrwt>
<rscale>  0 0.49646261E+03</rscale>
<asrwt>0</asrwt>
<pdfrwt beam="1">  1        2 0.14539220E+00 0.49646261E+03</pdfrwt>
<pdfrwt beam="2">  1       -2 0.10031024E-01 0.49646261E+03</pdfrwt>
<totfact> 0.18774731E+03</totfact>
</mgrwt>
</event>
<event>
 4    1  0.1171488E-003  0.4166334E+03  0.7818608E-02  0.1038168E+00
         -2   -1    0    0    0  501 -0.00000000000E+00  0.00000000000E+00  0.41329423166E+02  0.41329423244E+02  0.25500000000E-02 0. -1.
          2   -1    0    0  501    0  0.00000000000E+00 -0.00000000000E+00 -0.10499986865E+04  0.10499986865E+04  0.25500000000E-02 0.  1.
    5000001    1    1    2    0    0 -0.16960715960E+03  0.88404604868E+02 -0.42641572835E+03  0.47364684749E+03  0.77000000000E+02 0.  0.
   -5000001    1    1    2    0    0  0.16960715960E+03 -0.88404604868E+02 -0.58225353500E+03  0.61768126228E+03  0.77000000000E+02 0.  0.
<mgrwt>
<rscale>  0 0.41663336E+03</rscale>
<asrwt>0</asrwt>
<pdfrwt beam="1">  1        2 0.16153824E+00 0.41663336E+03</pdfrwt>
<pdfrwt beam="2">  1       -2 0.63583736E-02 0.41663336E+03</pdfrwt>
<totfact> 0.33230634E+03</totfact>
</mgrwt>
</event>
<event>
 4    1  0.1171488E-003  0.2456543E+03  0.7818608E-02  0.1116082E+00
          2   -1    0    0  501    0  0.00000000000E+00  0.00000000000E+00  0.62445758955E+03  0.62445758956E+03  0.25500000000E-02 0.  1.
         -2   -1    0    0    0  501 -0.00000000000E+00 -0.00000000000E+00 -0.24159375338E+02  0.24159375472E+02  0.25500000000E-02 0. -1.
    5000001    1    1    2    0    0  0.52982671199E+02 -0.78653435093E+02  0.33396011719E+03  0.35560073984E+03  0.77000000000E+02 0.  0.
   -5000001    1    1    2    0    0 -0.52982671199E+02  0.78653435093E+02  0.26633809703E+03  0.29301622519E+03  0.77000000000E+02 0.  0.
<mgrwt>
<rscale>  0 0.24565427E+03</rscale>
<asrwt>0</asrwt>
<pdfrwt beam="1">  1        2 0.96070386E-01 0.24565427E+03</pdfrwt>
<pdfrwt beam="2">  1       -2 0.37168275E-02 0.24565427E+03</pdfrwt>
<totfact> 0.14610634E+04</totfact>
</mgrwt>
</event>
<event>
 4    1  0.1171488E-003  0.1848185E+03  0.7818608E-02  0.1163220E+00
         -2   -1    0    0    0  501 -0.00000000000E+00  0.00000000000E+00  0.86275333207E+01  0.86275336975E+01  0.25500000000E-02 0. -1.
          2   -1    0    0  501    0  0.00000000000E+00 -0.00000000000E+00 -0.98979228859E+03  0.98979228859E+03  0.25500000000E-02 0.  1.
    5000001    1    1    2    0    0 -0.22958279275E+02  0.36945547853E+02 -0.63537753499E+03  0.64150266412E+03  0.77000000000E+02 0.  0.
   -5000001    1    1    2    0    0  0.22958279275E+02 -0.36945547853E+02 -0.34578722027E+03  0.35691715817E+03  0.77000000000E+02 0.  0.
<mgrwt>
<rscale>  0 0.18481846E+03</rscale>
<asrwt>0</asrwt>
<pdfrwt beam="1">  1        2 0.15227565E+00 0.18481846E+03</pdfrwt>
<pdfrwt beam="2">  1       -2 0.13273136E-02 0.18481846E+03</pdfrwt>
<totfact> 0.36441473E+04</totfact>
</mgrwt>
</event>
<event>
 4    1  0.1171488E-003  0.3007929E+03  0.7818608E-02  0.1084845E+00
          2   -1    0    0  501    0  0.00000000000E+00  0.00000000000E+00  0.36735230523E+03  0.36735230524E+03  0.25500000000E-02 0.  1.
         -2   -1    0    0    0  501 -0.00000000000E+00 -0.00000000000E+00 -0.61573311022E+02  0.61573311075E+02  0.25500000000E-02 0. -1.
    5000001    1    1    2    0    0  0.88550578147E+02  0.84043312954E+02  0.21314659220E+03  0.25741979937E+03  0.77000000000E+02 0.  0.
   -5000001    1    1    2    0    0 -0.88550578147E+02 -0.84043312954E+02  0.92632402003E+02  0.17150581694E+03  0.77000000000E+02 0.  0.
<mgrwt>
<rscale>  0 0.30079294E+03</rscale>
<asrwt>0</asrwt>
<pdfrwt beam="1">  1        2 0.56515739E-01 0.30079294E+03</pdfrwt>
<pdfrwt beam="2">  1       -2 0.94728171E-02 0.30079294E+03</pdfrwt>
<totfact> 0.63276466E+03</totfact>
</mgrwt>
</event>
<event>
 4    1  0.1171488E-003  0.3328139E+03  0.7818608E-02  0.1069899E+00
          2   -1    0    0  501    0  0.00000000000E+00  0.00000000000E+00  0.14593382036E+04  0.14593382036E+04  0.25500000000E-02 0.  1.
         -2   -1    0    0    0  501 -0.00000000000E+00 -0.00000000000E+00 -0.18975225277E+02  0.18975225448E+02  0.25500000000E-02 0. -1.
    5000001    1    1    2    0    0 -0.14261129073E+03  0.20565546830E+02  0.86074023925E+03  0.87610711755E+03  0.77000000000E+02 0.  0.
   -5000001    1    1    2    0    0  0.14261129073E+03 -0.20565546830E+02  0.57962273909E+03  0.60220631152E+03  0.77000000000E+02 0.  0.
<mgrwt>
<rscale>  0 0.33281389E+03</rscale>
<asrwt>0</asrwt>
<pdfrwt beam="1">  1        2 0.22451361E+00 0.33281389E+03</pdfrwt>
<pdfrwt beam="2">  1       -2 0.29192650E-02 0.33281389E+03</pdfrwt>
<totfact> 0.63486310E+03</totfact>
</mgrwt>
</event>
<event>
 4    1  0.1171488E-003  0.1814028E+03  0.7818608E-02  0.1166452E+00
         -2   -1    0    0    0  501 -0.00000000000E+00  0.00000000000E+00  0.48900707015E+01  0.48900713664E+01  0.25500000000E-02 0. -1.
          2   -1    0    0  501    0  0.00000000000E+00 -0.00000000000E+00 -0.16823358237E+04  0.16823358237E+04  0.25500000000E-02 0.  1.
    5000001    1    1    2    0    0  0.32764602203E+02 -0.34433789254E+02 -0.78098424596E+03  0.78620900366E+03  0.77000000000E+02 0.  0.
   -5000001    1    1    2    0    0 -0.32764602203E+02  0.34433789254E+02 -0.89646150707E+03  0.90101689143E+03  0.77000000000E+02 0.  0.
<mgrwt>
<rscale>  0 0.18140277E+03</rscale>
<asrwt>0</asrwt>
<pdfrwt beam="1">  1        2 0.25882044E+00 0.18140277E+03</pdfrwt>
<pdfrwt beam="2">  1       -2 0.75231996E-03 0.18140277E+03</pdfrwt>
<totfact> 0.34365537E+04</totfact>
</mgrwt>
</event>
<event>
 4    1  0.1171488E-003  0.1829598E+03  0.7818608E-02  0.1164969E+00
         -2   -1    0    0    0  501 -0.00000000000E+00  0.00000000000E+00  0.86781572918E+01  0.86781576665E+01  0.25500000000E-02 0. -1.
          2   -1    0    0  501    0  0.00000000000E+00 -0.00000000000E+00 -0.96432566965E+03  0.96432566965E+03  0.25500000000E-02 0.  1.
    5000001    1    1    2    0    0  0.26036760203E+02  0.37732003653E+02 -0.57558958964E+03  0.58252381298E+03  0.77000000000E+02 0.  0.
   -5000001    1    1    2    0    0 -0.26036760203E+02 -0.37732003653E+02 -0.38005792271E+03  0.39048001434E+03  0.77000000000E+02 0.  0.
<mgrwt>
<rscale>  0 0.18295978E+03</rscale>
<asrwt>0</asrwt>
<pdfrwt beam="1">  1        2 0.14835771E+00 0.18295978E+03</pdfrwt>
<pdfrwt beam="2">  1       -2 0.13351019E-02 0.18295978E+03</pdfrwt>
<totfact> 0.37423983E+04</totfact>
</mgrwt>
</event>
<event>
 4    1  0.1171488E-003  0.3058255E+03  0.7818608E-02  0.1082364E+00
         -2   -1    0    0    0  501 -0.00000000000E+00  0.00000000000E+00  0.39901545860E+02  0.39901545942E+02  0.25500000000E-02 0.  1.
          2   -1    0    0  501    0  0.00000000000E+00 -0.00000000000E+00 -0.58600024283E+03  0.58600024283E+03  0.25500000000E-02 0. -1.
    5000001    1    1    2    0    0  0.99058858014E+02 -0.86398673983E+02 -0.24590376709E+03  0.28926640124E+03  0.77000000000E+02 0.  0.
   -5000001    1    1    2    0    0 -0.99058858014E+02  0.86398673983E+02 -0.30019492988E+03  0.33663538754E+03  0.77000000000E+02 0.  0.
<mgrwt>
<rscale>  0 0.30582554E+03</rscale>
<asrwt>0</asrwt>
<pdfrwt beam="1">  1        2 0.90153877E-01 0.30582554E+03</pdfrwt>
<pdfrwt beam="2">  1       -2 0.61386998E-02 0.30582554E+03</pdfrwt>
<totfact> 0.74102729E+03</totfact>
</mgrwt>
</event>
<event>
 4    1  0.1171488E-003  0.3102419E+03  0.7818608E-02  0.1080230E+00
          2   -1    0    0  501    0  0.00000000000E+00  0.00000000000E+00  0.66979971941E+03  0.66979971941E+03  0.25500000000E-02 0.  1.
         -2   -1    0    0    0  501 -0.00000000000E+00 -0.00000000000E+00 -0.35924934379E+02  0.35924934469E+02  0.25500000000E-02 0. -1.
    5000001    1    1    2    0    0 -0.84233495776E+02  0.88977399726E+02  0.18985095521E+03  0.23871456736E+03  0.77000000000E+02 0.  0.
   -5000001    1    1    2    0    0  0.84233495776E+02 -0.88977399726E+02  0.44402382982E+03  0.46701008653E+03  0.77000000000E+02 0.  0.
<mgrwt>
<rscale>  0 0.31024191E+03</rscale>
<asrwt>0</asrwt>
<pdfrwt beam="1">  1        2 0.10304611E+00 0.31024191E+03</pdfrwt>
<pdfrwt beam="2">  1       -2 0.55269130E-02 0.31024191E+03</pdfrwt>
<totfact> 0.74393337E+03</totfact>
</mgrwt>
</event>
<event>
 4    1  0.1171488E-003  0.1974398E+03  0.7818608E-02  0.1151917E+00
         -2   -1    0    0    0  501 -0.00000000000E+00  0.00000000000E+00  0.74428018013E+01  0.74428022381E+01  0.25500000000E-02 0. -1.
          2   -1    0    0  501    0  0.00000000000E+00 -0.00000000000E+00 -0.13094018630E+04  0.13094018630E+04  0.25500000000E-02 0.  1.
    5000001    1    1    2    0    0  0.33026171849E+02 -0.38430301110E+02 -0.41526761250E+03  0.42537490060E+03  0.77000000000E+02 0.  0.
   -5000001    1    1    2    0    0 -0.33026171849E+02  0.38430301110E+02 -0.88669144874E+03  0.89146976468E+03  0.77000000000E+02 0.  0.
<mgrwt>
<rscale>  0 0.19743980E+03</rscale>
<asrwt>0</asrwt>
<pdfrwt beam="1">  1        2 0.20144626E+00 0.19743980E+03</pdfrwt>
<pdfrwt beam="2">  1       -2 0.11450475E-02 0.19743980E+03</pdfrwt>
<totfact> 0.29744117E+04</totfact>
</mgrwt>
</event>
<event>
 4    1  0.1171488E-003  0.2532525E+03  0.7818608E-02  0.1111266E+00
          2   -1    0    0  501    0  0.00000000000E+00  0.00000000000E+00  0.31843223416E+03  0.31843223417E+03  0.25500000000E-02 0.  1.
         -2   -1    0    0    0  501 -0.00000000000E+00 -0.00000000000E+00 -0.50353610133E+02  0.50353610198E+02  0.25500000000E-02 0. -1.
    5000001    1    1    2    0    0 -0.72443033447E+02 -0.49396781559E+02  0.20563299370E+03  0.23643596008E+03  0.77000000000E+02 0.  0.
   -5000001    1    1    2    0    0  0.72443033447E+02  0.49396781559E+02  0.62445630332E+02  0.13234988429E+03  0.77000000000E+02 0.  0.
<mgrwt>
<rscale>  0 0.25325254E+03</rscale>
<asrwt>0</asrwt>
<pdfrwt beam="1">  1        2 0.48989574E-01 0.25325254E+03</pdfrwt>
<pdfrwt beam="2">  1       -2 0.77467093E-02 0.25325254E+03</pdfrwt>
<totfact> 0.10060141E+04</totfact>
</mgrwt>
</event>
<event>
 4    1  0.1171488E-003  0.2418074E+03  0.7818608E-02  0.1118595E+00
          2   -1    0    0  501    0  0.00000000000E+00  0.00000000000E+00  0.10200666159E+02  0.10200666478E+02  0.25500000000E-02 0.  1.
         -2   -1    0    0    0  501 -0.00000000000E+00 -0.00000000000E+00 -0.14330152140E+04  0.14330152140E+04  0.25500000000E-02 0. -1.
    5000001    1    1    2    0    0  0.20950103995E+02 -0.84461495218E+02 -0.91079811662E+03  0.91818018944E+03  0.77000000000E+02 0.  0.
   -5000001    1    1    2    0    0 -0.20950103995E+02  0.84461495218E+02 -0.51201643123E+03  0.52503569105E+03  0.77000000000E+02 0.  0.
<mgrwt>
<rscale>  0 0.24180744E+03</rscale>
<asrwt>0</asrwt>
<pdfrwt beam="1">  1        2 0.15693344E-02 0.24180744E+03</pdfrwt>
<pdfrwt beam="2">  1       -2 0.22046372E+00 0.24180744E+03</pdfrwt>
<totfact> 0.82331269E+02</totfact>
</mgrwt>
</event>
<event>
 4    1  0.1171488E-003  0.3109763E+03  0.7818608E-02  0.1079879E+00
         -2   -1    0    0    0  501 -0.00000000000E+00  0.00000000000E+00  0.17875319867E+02  0.17875320049E+02  0.25500000000E-02 0.  1.
          2   -1    0    0  501    0  0.00000000000E+00 -0.00000000000E+00 -0.13525108527E+04  0.13525108527E+04  0.25500000000E-02 0. -1.
    5000001    1    1    2    0    0 -0.10350980249E+03  0.80753890309E+02 -0.52712482251E+03  0.54865749654E+03  0.77000000000E+02 0.  0.
   -5000001    1    1    2    0    0  0.10350980249E+03 -0.80753890309E+02 -0.80751071032E+03  0.82172867620E+03  0.77000000000E+02 0.  0.
<mgrwt>
<rscale>  0 0.31097630E+03</rscale>
<asrwt>0</asrwt>
<pdfrwt beam="1">  1        2 0.20807851E+00 0.31097630E+03</pdfrwt>
<pdfrwt beam="2">  1       -2 0.27500503E-02 0.31097630E+03</pdfrwt>
<totfact> 0.79321138E+03</totfact>
</mgrwt>
</event>
<event>
 4    1  0.1171488E-003  0.2654068E+03  0.7818608E-02  0.1103938E+00
         -2   -1    0    0    0  501 -0.00000000000E+00  0.00000000000E+00  0.19478290187E+02  0.19478290354E+02  0.25500000000E-02 0. -1.
          2   -1    0    0  501    0  0.00000000000E+00 -0.00000000000E+00 -0.90409307717E+03  0.90409307718E+03  0.25500000000E-02 0.  1.
    5000001    1    1    2    0    0  0.95016716062E+02 -0.12399260813E+02 -0.61627364727E+03  0.62841397687E+03  0.77000000000E+02 0.  0.
   -5000001    1    1    2    0    0 -0.95016716062E+02  0.12399260813E+02 -0.26834113971E+03  0.29515739066E+03  0.77000000000E+02 0.  0.
<mgrwt>
<rscale>  0 0.26540676E+03</rscale>
<asrwt>0</asrwt>
<pdfrwt beam="1">  1        2 0.13909121E+00 0.26540676E+03</pdfrwt>
<pdfrwt beam="2">  1       -2 0.29966608E-02 0.26540676E+03</pdfrwt>
<totfact> 0.12750479E+04</totfact>
</mgrwt>
</event>
<event>
 4    1  0.1171488E-003  0.1853264E+03  0.7818608E-02  0.1162745E+00
         -2   -1    0    0    0  501 -0.00000000000E+00  0.00000000000E+00  0.44638577635E+01  0.44638584919E+01  0.25500000000E-02 0. -1.
          2   -1    0    0  501    0  0.00000000000E+00 -0.00000000000E+00 -0.19235528077E+04  0.19235528077E+04  0.25500000000E-02 0.  1.
    5000001    1    1    2    0    0  0.45295375018E+02 -0.16290206939E+02 -0.76759617884E+03  0.77294885705E+03  0.77000000000E+02 0.  0.
   -5000001    1    1    2    0    0 -0.45295375018E+02  0.16290206939E+02 -0.11514927711E+04  0.11550678092E+04  0.77000000000E+02 0.  0.
<mgrwt>
<rscale>  0 0.18532638E+03</rscale>
<asrwt>0</asrwt>
<pdfrwt beam="1">  1        2 0.29593054E+00 0.18532638E+03</pdfrwt>
<pdfrwt beam="2">  1       -2 0.68674894E-03 0.18532638E+03</pdfrwt>
<totfact> 0.29412922E+04</totfact>
</mgrwt>
</event>
<event>
 4    1  0.1171488E-003  0.1848401E+03  0.7818608E-02  0.1163199E+00
         -2   -1    0    0    0  501 -0.00000000000E+00  0.00000000000E+00  0.15107483402E+02  0.15107483618E+02  0.25500000000E-02 0. -1.
          2   -1    0    0  501    0  0.00000000000E+00 -0.00000000000E+00 -0.56537980734E+03  0.56537980735E+03  0.25500000000E-02 0.  1.
    5000001    1    1    2    0    0  0.18239982820E+02 -0.47486480654E+02 -0.29077668437E+03  0.30507006243E+03  0.77000000000E+02 0.  0.
   -5000001    1    1    2    0    0 -0.18239982820E+02  0.47486480654E+02 -0.25949563957E+03  0.27541722854E+03  0.77000000000E+02 0.  0.
<mgrwt>
<rscale>  0 0.18484011E+03</rscale>
<asrwt>0</asrwt>
<pdfrwt beam="1">  1        2 0.86981493E-01 0.18484011E+03</pdfrwt>
<pdfrwt beam="2">  1       -2 0.23242287E-02 0.18484011E+03</pdfrwt>
<totfact> 0.32228920E+04</totfact>
</mgrwt>
</event>
<event>
 4    1  0.1171488E-003  0.3315951E+03  0.7818608E-02  0.1070433E+00
         -2   -1    0    0    0  501 -0.00000000000E+00  0.00000000000E+00  0.57293299609E+02  0.57293299666E+02  0.25500000000E-02 0. -1.
          2   -1    0    0  501    0  0.00000000000E+00 -0.00000000000E+00 -0.47979122570E+03  0.47979122571E+03  0.25500000000E-02 0.  1.
    5000001    1    1    2    0    0 -0.11886993058E+03 -0.62312108476E+02 -0.30771244121E+03  0.34442532679E+03  0.77000000000E+02 0.  0.
   -5000001    1    1    2    0    0  0.11886993058E+03  0.62312108476E+02 -0.11478548488E+03  0.19265919858E+03  0.77000000000E+02 0.  0.
<mgrwt>
<rscale>  0 0.33159507E+03</rscale>
<asrwt>0</asrwt>
<pdfrwt beam="1">  1        2 0.73814032E-01 0.33159507E+03</pdfrwt>
<pdfrwt beam="2">  1       -2 0.88143541E-02 0.33159507E+03</pdfrwt>
<totfact> 0.53028957E+03</totfact>
</mgrwt>
</event>
<event>
 4    1  0.1171488E-003  0.2427719E+03  0.7818608E-02  0.1117960E+00
          2   -1    0    0  501    0  0.00000000000E+00  0.00000000000E+00  0.10349524622E+03  0.10349524625E+03  0.25500000000E-02 0.  1.
         -2   -1    0    0    0  501 -0.00000000000E+00 -0.00000000000E+00 -0.14236927785E+03  0.14236927787E+03  0.25500000000E-02 0. -1.
    5000001    1    1    2    0    0  0.79090964999E+02  0.35907931069E+02  0.16522823278E+02  0.11724659461E+03  0.77000000000E+02 0.  0.
   -5000001    1    1    2    0    0 -0.79090964999E+02 -0.35907931069E+02 -0.55396854913E+02  0.12861792951E+03  0.77000000000E+02 0.  0.
<mgrwt>
<rscale>  0 0.24277186E+03</rscale>
<asrwt>0</asrwt>
<pdfrwt beam="1">  1        2 0.15922346E-01 0.24277186E+03</pdfrwt>
<pdfrwt beam="2">  1       -2 0.21902966E-01 0.24277186E+03</pdfrwt>
<totfact> 0.64165073E+03</totfact>
</mgrwt>
</event>
<event>
 4    1  0.1171488E-003  0.2323479E+03  0.7818608E-02  0.1124998E+00
          2   -1    0    0  501    0  0.00000000000E+00  0.00000000000E+00  0.98657494219E+02  0.98657494252E+02  0.25500000000E-02 0.  1.
         -2   -1    0    0    0  501 -0.00000000000E+00 -0.00000000000E+00 -0.13680045614E+03  0.13680045617E+03  0.25500000000E-02 0. -1.
    5000001    1    1    2    0    0  0.30141569486E+02  0.57953900215E+02 -0.77287981001E+02  0.12715974508E+03  0.77000000000E+02 0.  0.
   -5000001    1    1    2    0    0 -0.30141569486E+02 -0.57953900215E+02  0.39145019078E+02  0.10829820534E+03  0.77000000000E+02 0.  0.
<mgrwt>
<rscale>  0 0.23234793E+03</rscale>
<asrwt>0</asrwt>
<pdfrwt beam="1">  1        2 0.15178076E-01 0.23234793E+03</pdfrwt>
<pdfrwt beam="2">  1       -2 0.21046224E-01 0.23234793E+03</pdfrwt>
<totfact> 0.72569304E+03</totfact>
</mgrwt>
</event>
<event>
 4    1  0.1171488E-003  0.1653168E+03  0.7818608E-02  0.1182822E+00
          2   -1    0    0  501    0  0.00000000000E+00  0.00000000000E+00  0.49728982354E+03  0.49728982355E+03  0.25500000000E-02 0.  1.
         -2   -1    0    0    0  501 -0.00000000000E+00 -0.00000000000E+00 -0.13739300886E+02  0.13739301123E+02  0.25500000000E-02 0. -1.
    5000001    1    1    2    0    0  0.32487297258E+01  0.22262597688E+02  0.30338557770E+03  0.31381202377E+03  0.77000000000E+02 0.  0.
   -5000001    1    1    2    0    0 -0.32487297258E+01 -0.22262597688E+02  0.18016494495E+03  0.19721710091E+03  0.77000000000E+02 0.  0.
<mgrwt>
<rscale>  0 0.16531684E+03</rscale>
<asrwt>0</asrwt>
<pdfrwt beam="1">  1        2 0.76506132E-01 0.16531684E+03</pdfrwt>
<pdfrwt beam="2">  1       -2 0.21137385E-02 0.16531684E+03</pdfrwt>
<totfact> 0.42319296E+04</totfact>
</mgrwt>
</event>
<event>
 4    1  0.1171488E-003  0.1894286E+03  0.7818608E-02  0.1158978E+00
         -2   -1    0    0    0  501 -0.00000000000E+00  0.00000000000E+00  0.17616539019E+03  0.17616539021E+03  0.25500000000E-02 0. -1.
          2   -1    0    0  501    0  0.00000000000E+00 -0.00000000000E+00 -0.50922617198E+02  0.50922617262E+02  0.25500000000E-02 0.  1.
    5000001    1    1    2    0    0  0.14967838330E+02  0.51254879205E+02  0.79176354682E+02  0.12267434111E+03  0.77000000000E+02 0.  0.
   -5000001    1    1    2    0    0 -0.14967838330E+02 -0.51254879205E+02  0.46066418312E+02  0.10441366636E+03  0.77000000000E+02 0.  0.
<mgrwt>
<rscale>  0 0.18942864E+03</rscale>
<asrwt>0</asrwt>
<pdfrwt beam="1">  1        2 0.78342489E-02 0.18942864E+03</pdfrwt>
<pdfrwt beam="2">  1       -2 0.27102367E-01 0.18942864E+03</pdfrwt>
<totfact> 0.10357449E+04</totfact>
</mgrwt>
</event>
<event>
 4    1  0.1171488E-003  0.5761241E+03  0.7818608E-02  0.9956218E-01
         -2   -1    0    0    0  501 -0.00000000000E+00  0.00000000000E+00  0.29670909437E+02  0.29670909546E+02  0.25500000000E-02 0. -1.
          2   -1    0    0  501    0  0.00000000000E+00 -0.00000000000E+00 -0.27966696247E+04  0.27966696247E+04  0.25500000000E-02 0.  1.
    5000001    1    1    2    0    0 -0.20667070589E+03 -0.18276389740E+03 -0.15335320521E+04  0.15600528766E+04  0.77000000000E+02 0.  0.
   -5000001    1    1    2    0    0  0.20667070589E+03  0.18276389740E+03 -0.12334666631E+04  0.12662876577E+04  0.77000000000E+02 0.  0.
<mgrwt>
<rscale>  0 0.57612405E+03</rscale>
<asrwt>0</asrwt>
<pdfrwt beam="1">  1        2 0.43025666E+00 0.57612405E+03</pdfrwt>
<pdfrwt beam="2">  1       -2 0.45647575E-02 0.57612405E+03</pdfrwt>
<totfact> 0.58877797E+02</totfact>
</mgrwt>
</event>
<event>
 4    1  0.1171488E-003  0.2181089E+03  0.7818608E-02  0.1135301E+00
         -2   -1    0    0    0  501 -0.00000000000E+00  0.00000000000E+00  0.18709472030E+03  0.18709472031E+03  0.25500000000E-02 0. -1.
          2   -1    0    0  501    0  0.00000000000E+00 -0.00000000000E+00 -0.63566065894E+02  0.63566065945E+02  0.25500000000E-02 0.  1.
    5000001    1    1    2    0    0 -0.70088839900E+02 -0.18658664532E+02  0.31286895676E+02  0.11031074781E+03  0.77000000000E+02 0.  0.
   -5000001    1    1    2    0    0  0.70088839900E+02  0.18658664532E+02  0.92241758726E+02  0.14035003845E+03  0.77000000000E+02 0.  0.
<mgrwt>
<rscale>  0 0.21810892E+03</rscale>
<asrwt>0</asrwt>
<pdfrwt beam="1">  1        2 0.97793946E-02 0.21810892E+03</pdfrwt>
<pdfrwt beam="2">  1       -2 0.28783803E-01 0.21810892E+03</pdfrwt>
<totfact> 0.71063199E+03</totfact>
</mgrwt>
</event>
<event>
 4    1  0.1171488E-003  0.2142854E+03  0.7818608E-02  0.1138217E+00
         -2   -1    0    0    0  501 -0.00000000000E+00  0.00000000000E+00  0.97987681744E+01  0.97987685062E+01  0.25500000000E-02 0. -1.
          2   -1    0    0  501    0  0.00000000000E+00 -0.00000000000E+00 -0.11715302653E+04  0.11715302653E+04  0.25500000000E-02 0.  1.
    5000001    1    1    2    0    0 -0.54506536465E+02 -0.69390926114E+01 -0.30349400732E+03  0.31789420567E+03  0.77000000000E+02 0.  0.
   -5000001    1    1    2    0    0  0.54506536465E+02  0.69390926114E+01 -0.85823748981E+03  0.86343482814E+03  0.77000000000E+02 0.  0.
<mgrwt>
<rscale>  0 0.21428536E+03</rscale>
<asrwt>0</asrwt>
<pdfrwt beam="1">  1        2 0.18023531E+00 0.21428536E+03</pdfrwt>
<pdfrwt beam="2">  1       -2 0.15075037E-02 0.21428536E+03</pdfrwt>
<totfact> 0.23934264E+04</totfact>
</mgrwt>
</event>
<event>
 4    1  0.1171488E-003  0.2240531E+03  0.7818608E-02  0.1130897E+00
          2   -1    0    0  501    0  0.00000000000E+00  0.00000000000E+00  0.30884683049E+03  0.30884683050E+03  0.25500000000E-02 0.  1.
         -2   -1    0    0    0  501 -0.00000000000E+00 -0.00000000000E+00 -0.40634873948E+02  0.40634874028E+02  0.25500000000E-02 0. -1.
    5000001    1    1    2    0    0 -0.58260564544E+02 -0.49516343369E+02  0.17752355017E+03  0.20806194392E+03  0.77000000000E+02 0.  0.
   -5000001    1    1    2    0    0  0.58260564544E+02  0.49516343369E+02  0.90688406375E+02  0.14141976061E+03  0.77000000000E+02 0.  0.
<mgrwt>
<rscale>  0 0.22405314E+03</rscale>
<asrwt>0</asrwt>
<pdfrwt beam="1">  1        2 0.47514896E-01 0.22405314E+03</pdfrwt>
<pdfrwt beam="2">  1       -2 0.62515192E-02 0.22405314E+03</pdfrwt>
<totfact> 0.14384358E+04</totfact>
</mgrwt>
</event>
<event>
 4    1  0.1171488E-003  0.2017724E+03  0.7818608E-02  0.1148252E+00
          2   -1    0    0  501    0  0.00000000000E+00  0.00000000000E+00  0.66281210039E+03  0.66281210040E+03  0.25500000000E-02 0.  1.
         -2   -1    0    0    0  501 -0.00000000000E+00 -0.00000000000E+00 -0.15355824969E+02  0.15355825180E+02  0.25500000000E-02 0. -1.
    5000001    1    1    2    0    0 -0.54763262773E+02  0.26822662002E+02  0.40114602026E+03  0.41299588341E+03  0.77000000000E+02 0.  0.
   -5000001    1    1    2    0    0  0.54763262773E+02 -0.26822662002E+02  0.24631025516E+03  0.26517204216E+03  0.77000000000E+02 0.  0.
<mgrwt>
<rscale>  0 0.20177241E+03</rscale>
<asrwt>0</asrwt>
<pdfrwt beam="1">  1        2 0.10197104E+00 0.20177241E+03</pdfrwt>
<pdfrwt beam="2">  1       -2 0.23624358E-02 0.20177241E+03</pdfrwt>
<totfact> 0.26356156E+04</totfact>
</mgrwt>
</event>
<event>
 4    1  0.1171488E-003  0.1762112E+03  0.7818608E-02  0.1171521E+00
         -2   -1    0    0    0  501 -0.00000000000E+00  0.00000000000E+00  0.50266801204E+03  0.50266801205E+03  0.25500000000E-02 0. -1.
          2   -1    0    0  501    0  0.00000000000E+00 -0.00000000000E+00 -0.15442787163E+02  0.15442787374E+02  0.25500000000E-02 0.  1.
    5000001    1    1    2    0    0 -0.31558547153E+02 -0.83544585555E+01  0.32508851065E+03  0.33567436397E+03  0.77000000000E+02 0.  0.
   -5000001    1    1    2    0    0  0.31558547153E+02  0.83544585555E+01  0.16213671423E+03  0.18243643544E+03  0.77000000000E+02 0.  0.
<mgrwt>
<rscale>  0 0.17621118E+03</rscale>
<asrwt>0</asrwt>
<pdfrwt beam="1">  1        2 0.23758134E-02 0.17621118E+03</pdfrwt>
<pdfrwt beam="2">  1       -2 0.77333540E-01 0.17621118E+03</pdfrwt>
<totfact> 0.63927700E+03</totfact>
</mgrwt>
</event>
<event>
 4    1  0.1171488E-003  0.4763626E+03  0.7818608E-02  0.1020140E+00
         -2   -1    0    0    0  501 -0.00000000000E+00  0.00000000000E+00  0.36968582204E+02  0.36968582292E+02  0.25500000000E-02 0. -1.
          2   -1    0    0  501    0  0.00000000000E+00 -0.00000000000E+00 -0.15345555614E+04  0.15345555614E+04  0.25500000000E-02 0.  1.
    5000001    1    1    2    0    0  0.21399839514E+02  0.21822875302E+03 -0.92083609403E+03  0.94971040525E+03  0.77000000000E+02 0.  0.
   -5000001    1    1    2    0    0 -0.21399839514E+02 -0.21822875302E+03 -0.57675088517E+03  0.62181373844E+03  0.77000000000E+02 0.  0.
<mgrwt>
<rscale>  0 0.47636265E+03</rscale>
<asrwt>0</asrwt>
<pdfrwt beam="1">  1        2 0.23608542E+00 0.47636265E+03</pdfrwt>
<pdfrwt beam="2">  1       -2 0.56874754E-02 0.47636265E+03</pdfrwt>
<totfact> 0.20904540E+03</totfact>
</mgrwt>
</event>
<event>
 4    1  0.1171488E-003  0.2955448E+03  0.7818608E-02  0.1087489E+00
         -2   -1    0    0    0  501 -0.00000000000E+00  0.00000000000E+00  0.94570665448E+01  0.94570668886E+01  0.25500000000E-02 0. -1.
          2   -1    0    0  501    0  0.00000000000E+00 -0.00000000000E+00 -0.23090339989E+04  0.23090339989E+04  0.25500000000E-02 0.  1.
    5000001    1    1    2    0    0  0.11221109588E+03  0.19677691394E+02 -0.15743617130E+04  0.15803551325E+04  0.77000000000E+02 0.  0.
   -5000001    1    1    2    0    0 -0.11221109588E+03 -0.19677691394E+02 -0.72521521942E+03  0.73813593332E+03  0.77000000000E+02 0.  0.
<mgrwt>
<rscale>  0 0.29554484E+03</rscale>
<asrwt>0</asrwt>
<pdfrwt beam="1">  1        2 0.35523555E+00 0.29554484E+03</pdfrwt>
<pdfrwt beam="2">  1       -2 0.14549352E-02 0.29554484E+03</pdfrwt>
<totfact> 0.62811622E+03</totfact>
</mgrwt>
</event>
<event>
 4    1  0.1171488E-003  0.3328907E+03  0.7818608E-02  0.1069865E+00
         -2   -1    0    0    0  501 -0.00000000000E+00  0.00000000000E+00  0.30018291858E+03  0.30018291859E+03  0.25500000000E-02 0. -1.
          2   -1    0    0  501    0  0.00000000000E+00 -0.00000000000E+00 -0.92290584216E+02  0.92290584251E+02  0.25500000000E-02 0.  1.
    5000001    1    1    2    0    0  0.93860335064E+01  0.12495712657E+03  0.12070880034E+02  0.14757061784E+03  0.77000000000E+02 0.  0.
   -5000001    1    1    2    0    0 -0.93860335064E+01 -0.12495712657E+03  0.19582145433E+03  0.24490288500E+03  0.77000000000E+02 0.  0.
<mgrwt>
<rscale>  0 0.33289071E+03</rscale>
<asrwt>0</asrwt>
<pdfrwt beam="1">  1        2 0.14198551E-01 0.33289071E+03</pdfrwt>
<pdfrwt beam="2">  1       -2 0.46181988E-01 0.33289071E+03</pdfrwt>
<totfact> 0.18806994E+03</totfact>
</mgrwt>
</event>
<event>
 4    1  0.1171488E-003  0.2979115E+03  0.7818608E-02  0.1086289E+00
         -2   -1    0    0    0  501 -0.00000000000E+00  0.00000000000E+00  0.21764520081E+02  0.21764520230E+02  0.25500000000E-02 0. -1.
          2   -1    0    0  501    0  0.00000000000E+00 -0.00000000000E+00 -0.10194489642E+04  0.10194489642E+04  0.25500000000E-02 0.  1.
    5000001    1    1    2    0    0  0.56419466518E+02 -0.11161003400E+03 -0.58578815611E+03  0.60391780875E+03  0.77000000000E+02 0.  0.
   -5000001    1    1    2    0    0 -0.56419466518E+02  0.11161003400E+03 -0.41189628799E+03  0.43729567566E+03  0.77000000000E+02 0.  0.
<mgrwt>
<rscale>  0 0.29791151E+03</rscale>
<asrwt>0</asrwt>
<pdfrwt beam="1">  1        2 0.15683827E+00 0.29791151E+03</pdfrwt>
<pdfrwt beam="2">  1       -2 0.33483885E-02 0.29791151E+03</pdfrwt>
<totfact> 0.91829552E+03</totfact>
</mgrwt>
</event>
<event>
 4    1  0.1171488E-003  0.3433911E+03  0.7818608E-02  0.1065361E+00
         -2   -1    0    0    0  501 -0.00000000000E+00  0.00000000000E+00  0.61999255079E+02  0.61999255131E+02  0.25500000000E-02 0. -1.
          2   -1    0    0  501    0  0.00000000000E+00 -0.00000000000E+00 -0.47547942489E+03  0.47547942490E+03  0.25500000000E-02 0.  1.
    5000001    1    1    2    0    0  0.15088784102E+03 -0.26835556979E+02 -0.21917167037E+03  0.27830290832E+03  0.77000000000E+02 0.  0.
   -5000001    1    1    2    0    0 -0.15088784102E+03  0.26835556979E+02 -0.19430849944E+03  0.25917577171E+03  0.77000000000E+02 0.  0.
<mgrwt>
<rscale>  0 0.34339115E+03</rscale>
<asrwt>0</asrwt>
<pdfrwt beam="1">  1        2 0.73150678E-01 0.34339115E+03</pdfrwt>
<pdfrwt beam="2">  1       -2 0.95383473E-02 0.34339115E+03</pdfrwt>
<totfact> 0.47299526E+03</totfact>
</mgrwt>
</event>
<event>
 4    1  0.1171488E-003  0.2356177E+03  0.7818608E-02  0.1122747E+00
          2   -1    0    0  501    0  0.00000000000E+00  0.00000000000E+00  0.50708201392E+03  0.50708201393E+03  0.25500000000E-02 0.  1.
         -2   -1    0    0    0  501 -0.00000000000E+00 -0.00000000000E+00 -0.27370177294E+02  0.27370177413E+02  0.25500000000E-02 0. -1.
    5000001    1    1    2    0    0  0.45926002249E+02  0.65493161881E+02  0.15051322660E+03  0.18703417687E+03  0.77000000000E+02 0.  0.
   -5000001    1    1    2    0    0 -0.45926002249E+02 -0.65493161881E+02  0.32919861003E+03  0.34741801447E+03  0.77000000000E+02 0.  0.
<mgrwt>
<rscale>  0 0.23561770E+03</rscale>
<asrwt>0</asrwt>
<pdfrwt beam="1">  1        2 0.78012609E-01 0.23561770E+03</pdfrwt>
<pdfrwt beam="2">  1       -2 0.42107970E-02 0.23561770E+03</pdfrwt>
<totfact> 0.15334291E+04</totfact>
</mgrwt>
</event>
<event>
 4    1  0.1171488E-003  0.4915454E+03  0.7818608E-02  0.1016010E+00
         -2   -1    0    0    0  501 -0.00000000000E+00  0.00000000000E+00  0.10428222334E+03  0.10428222337E+03  0.25500000000E-02 0. -1.
          2   -1    0    0  501    0  0.00000000000E+00 -0.00000000000E+00 -0.57923787105E+03  0.57923787106E+03  0.25500000000E-02 0.  1.
    5000001    1    1    2    0    0  0.22505572112E+03  0.56968837335E+02 -0.20399790003E+03  0.31849594857E+03  0.77000000000E+02 0.  0.
   -5000001    1    1    2    0    0 -0.22505572112E+03 -0.56968837335E+02 -0.27095774768E+03  0.36502414587E+03  0.77000000000E+02 0.  0.
<mgrwt>
<rscale>  0 0.49154537E+03</rscale>
<asrwt>0</asrwt>
<pdfrwt beam="1">  1        2 0.89113516E-01 0.49154537E+03</pdfrwt>
<pdfrwt beam="2">  1       -2 0.16043419E-01 0.49154537E+03</pdfrwt>
<totfact> 0.16156842E+03</totfact>
</mgrwt>
</event>
<event>
 4    1  0.1171488E-003  0.2702937E+03  0.7818608E-02  0.1101112E+00
         -2   -1    0    0    0  501 -0.00000000000E+00  0.00000000000E+00  0.91252088202E+01  0.91252091765E+01  0.25500000000E-02 0. -1.
          2   -1    0    0  501    0  0.00000000000E+00 -0.00000000000E+00 -0.20015619565E+04  0.20015619565E+04  0.25500000000E-02 0.  1.
    5000001    1    1    2    0    0 -0.86906769780E+02  0.24888116321E+02 -0.14762126997E+04  0.14809811409E+04  0.77000000000E+02 0.  0.
   -5000001    1    1    2    0    0  0.86906769780E+02 -0.24888116321E+02 -0.51622404805E+03  0.52970602485E+03  0.77000000000E+02 0.  0.
<mgrwt>
<rscale>  0 0.27029370E+03</rscale>
<asrwt>0</asrwt>
<pdfrwt beam="1">  1        2 0.30793226E+00 0.27029370E+03</pdfrwt>
<pdfrwt beam="2">  1       -2 0.14038799E-02 0.27029370E+03</pdfrwt>
<totfact> 0.96368142E+03</totfact>
</mgrwt>
</event>
<event>
 4    1  0.1171488E-003  0.2270403E+03  0.7818608E-02  0.1128740E+00
         -2   -1    0    0    0  501 -0.00000000000E+00  0.00000000000E+00  0.11476867401E+02  0.11476867685E+02  0.25500000000E-02 0. -1.
          2   -1    0    0  501    0  0.00000000000E+00 -0.00000000000E+00 -0.11228524317E+04  0.11228524317E+04  0.25500000000E-02 0.  1.
    5000001    1    1    2    0    0  0.67508090358E+01  0.77010104074E+02 -0.71222777853E+03  0.72053697897E+03  0.77000000000E+02 0.  0.
   -5000001    1    1    2    0    0 -0.67508090358E+01 -0.77010104074E+02 -0.39914778572E+03  0.41379232037E+03  0.77000000000E+02 0.  0.
<mgrwt>
<rscale>  0 0.22704034E+03</rscale>
<asrwt>0</asrwt>
<pdfrwt beam="1">  1        2 0.17274644E+00 0.22704034E+03</pdfrwt>
<pdfrwt beam="2">  1       -2 0.17656728E-02 0.22704034E+03</pdfrwt>
<totfact> 0.20330102E+04</totfact>
</mgrwt>
</event>
<event>
 4    1  0.1171488E-003  0.2295129E+03  0.7818608E-02  0.1126983E+00
         -2   -1    0    0    0  501 -0.00000000000E+00  0.00000000000E+00  0.96282653540E+01  0.96282656917E+01  0.25500000000E-02 0. -1.
          2   -1    0    0  501    0  0.00000000000E+00 -0.00000000000E+00 -0.13677478285E+04  0.13677478285E+04  0.25500000000E-02 0.  1.
    5000001    1    1    2    0    0 -0.83811203931E+02 -0.12928070688E+02 -0.63722835960E+03  0.64744145310E+03  0.77000000000E+02 0.  0.
   -5000001    1    1    2    0    0  0.83811203931E+02  0.12928070688E+02 -0.72089120353E+03  0.72993464107E+03  0.77000000000E+02 0.  0.
<mgrwt>
<rscale>  0 0.22951287E+03</rscale>
<asrwt>0</asrwt>
<pdfrwt beam="1">  1        2 0.21042259E+00 0.22951287E+03</pdfrwt>
<pdfrwt beam="2">  1       -2 0.14812727E-02 0.22951287E+03</pdfrwt>
<totfact> 0.19178699E+04</totfact>
</mgrwt>
</event>
<event>
 4    1  0.1171488E-003  0.2986762E+03  0.7818608E-02  0.1085904E+00
          2   -1    0    0  501    0  0.00000000000E+00  0.00000000000E+00  0.14757220484E+04  0.14757220484E+04  0.25500000000E-02 0.  1.
         -2   -1    0    0    0  501 -0.00000000000E+00 -0.00000000000E+00 -0.15112516543E+02  0.15112516758E+02  0.25500000000E-02 0. -1.
    5000001    1    1    2    0    0 -0.12188811762E+03 -0.21723184635E+02  0.56900492280E+03  0.58738761661E+03  0.77000000000E+02 0.  0.
   -5000001    1    1    2    0    0  0.12188811762E+03  0.21723184635E+02  0.89160460903E+03  0.90344694853E+03  0.77000000000E+02 0.  0.
<mgrwt>
<rscale>  0 0.29867624E+03</rscale>
<asrwt>0</asrwt>
<pdfrwt beam="1">  1        2 0.22703426E+00 0.29867624E+03</pdfrwt>
<pdfrwt beam="2">  1       -2 0.23250016E-02 0.29867624E+03</pdfrwt>
<totfact> 0.87162040E+03</totfact>
</mgrwt>
</event>
<event>
 4    1  0.1171488E-003  0.2664806E+03  0.7818608E-02  0.1103311E+00
         -2   -1    0    0    0  501 -0.00000000000E+00  0.00000000000E+00  0.11006245713E+02  0.11006246008E+02  0.25500000000E-02 0. -1.
          2   -1    0    0  501    0  0.00000000000E+00 -0.00000000000E+00 -0.16129911567E+04  0.16129911567E+04  0.25500000000E-02 0.  1.
    5000001    1    1    2    0    0 -0.81228811237E+02  0.68888609667E+02 -0.93454078778E+03  0.94373685121E+03  0.77000000000E+02 0.  0.
   -5000001    1    1    2    0    0  0.81228811237E+02 -0.68888609667E+02 -0.66744412321E+03  0.68026055149E+03  0.77000000000E+02 0.  0.
<mgrwt>
<rscale>  0 0.26648060E+03</rscale>
<asrwt>0</asrwt>
<pdfrwt beam="1">  1        2 0.24815230E+00 0.26648060E+03</pdfrwt>
<pdfrwt beam="2">  1       -2 0.16932699E-02 0.26648060E+03</pdfrwt>
<totfact> 0.11720685E+04</totfact>
</mgrwt>
</event>
<event>
 4    1  0.1171488E-003  0.1867736E+03  0.7818608E-02  0.1161404E+00
          2   -1    0    0  501    0  0.00000000000E+00  0.00000000000E+00  0.34214835208E+03  0.34214835209E+03  0.25500000000E-02 0.  1.
         -2   -1    0    0    0  501 -0.00000000000E+00 -0.00000000000E+00 -0.25489229618E+02  0.25489229745E+02  0.25500000000E-02 0. -1.
    5000001    1    1    2    0    0  0.33209578344E+02  0.40086186122E+02  0.14047061844E+03  0.16843625814E+03  0.77000000000E+02 0.  0.
   -5000001    1    1    2    0    0 -0.33209578344E+02 -0.40086186122E+02  0.17618850403E+03  0.19920132370E+03  0.77000000000E+02 0.  0.
<mgrwt>
<rscale>  0 0.18677364E+03</rscale>
<asrwt>0</asrwt>
<pdfrwt beam="1">  1        2 0.52638211E-01 0.18677364E+03</pdfrwt>
<pdfrwt beam="2">  1       -2 0.39214197E-02 0.18677364E+03</pdfrwt>
<totfact> 0.25761132E+04</totfact>
</mgrwt>
</event>
<event>
 4    1  0.1171488E-003  0.2174926E+03  0.7818608E-02  0.1135766E+00
          2   -1    0    0  501    0  0.00000000000E+00  0.00000000000E+00  0.78221091716E+03  0.78221091716E+03  0.25500000000E-02 0.  1.
         -2   -1    0    0    0  501 -0.00000000000E+00 -0.00000000000E+00 -0.15118369796E+02  0.15118370011E+02  0.25500000000E-02 0. -1.
    5000001    1    1    2    0    0 -0.12287881014E+02  0.75739503281E+02  0.37237269862E+03  0.38791479870E+03  0.77000000000E+02 0.  0.
   -5000001    1    1    2    0    0  0.12287881014E+02 -0.75739503281E+02  0.39471984875E+03  0.40941448847E+03  0.77000000000E+02 0.  0.
<mgrwt>
<rscale>  0 0.21749257E+03</rscale>
<asrwt>0</asrwt>
<pdfrwt beam="1">  1        2 0.12034019E+00 0.21749257E+03</pdfrwt>
<pdfrwt beam="2">  1       -2 0.23259021E-02 0.21749257E+03</pdfrwt>
<totfact> 0.22155763E+04</totfact>
</mgrwt>
</event>
<event>
 4    1  0.1171488E-003  0.2034563E+03  0.7818608E-02  0.1146855E+00
          2   -1    0    0  501    0  0.00000000000E+00  0.00000000000E+00  0.25864176278E+02  0.25864176404E+02  0.25500000000E-02 0.  1.
         -2   -1    0    0    0  501 -0.00000000000E+00 -0.00000000000E+00 -0.40011408957E+03  0.40011408958E+03  0.25500000000E-02 0. -1.
    5000001    1    1    2    0    0 -0.54322036289E+02  0.68274020034E+01 -0.10816898548E+03  0.14362112123E+03  0.77000000000E+02 0.  0.
   -5000001    1    1    2    0    0  0.54322036289E+02 -0.68274020034E+01 -0.26608092781E+03  0.28235714475E+03  0.77000000000E+02 0.  0.
<mgrwt>
<rscale>  0 0.20345635E+03</rscale>
<asrwt>0</asrwt>
<pdfrwt beam="1">  1        2 0.39791044E-02 0.20345635E+03</pdfrwt>
<pdfrwt beam="2">  1       -2 0.61556009E-01 0.20345635E+03</pdfrwt>
<totfact> 0.52276064E+03</totfact>
</mgrwt>
</event>
<event>
 4    1  0.1171488E-003  0.2726206E+03  0.7818608E-02  0.1099789E+00
         -2   -1    0    0    0  501 -0.00000000000E+00  0.00000000000E+00  0.13842151494E+03  0.13842151497E+03  0.25500000000E-02 0. -1.
          2   -1    0    0  501    0  0.00000000000E+00 -0.00000000000E+00 -0.13423128667E+03  0.13423128670E+03  0.25500000000E-02 0.  1.
    5000001    1    1    2    0    0 -0.68327472471E+02  0.89162062479E+02 -0.36484886194E+01  0.13623813104E+03  0.77000000000E+02 0.  0.
   -5000001    1    1    2    0    0  0.68327472471E+02 -0.89162062479E+02  0.78387168891E+01  0.13641467063E+03  0.77000000000E+02 0.  0.
<mgrwt>
<rscale>  0 0.27262060E+03</rscale>
<asrwt>0</asrwt>
<pdfrwt beam="1">  1        2 0.20650967E-01 0.27262060E+03</pdfrwt>
<pdfrwt beam="2">  1       -2 0.21295618E-01 0.27262060E+03</pdfrwt>
<totfact> 0.50080146E+03</totfact>
</mgrwt>
</event>
<event>
 4    1  0.1171488E-003  0.3107255E+03  0.7818608E-02  0.1079999E+00
          2   -1    0    0  501    0  0.00000000000E+00  0.00000000000E+00  0.32194593127E+03  0.32194593128E+03  0.25500000000E-02 0.  1.
         -2   -1    0    0    0  501 -0.00000000000E+00 -0.00000000000E+00 -0.74974038151E+02  0.74974038194E+02  0.25500000000E-02 0. -1.
    5000001    1    1    2    0    0  0.55852788821E+02  0.12223231154E+03  0.10792923147E+03  0.18878027177E+03  0.77000000000E+02 0.  0.
   -5000001    1    1    2    0    0 -0.55852788821E+02 -0.12223231154E+03  0.13904266165E+03  0.20813969771E+03  0.77000000000E+02 0.  0.
<mgrwt>
<rscale>  0 0.31072552E+03</rscale>
<asrwt>0</asrwt>
<pdfrwt beam="1">  1        2 0.49530143E-01 0.31072552E+03</pdfrwt>
<pdfrwt beam="2">  1       -2 0.11534467E-01 0.31072552E+03</pdfrwt>
<totfact> 0.53322101E+03</totfact>
</mgrwt>
</event>
<event>
 4    1  0.1171488E-003  0.3388787E+03  0.7818608E-02  0.1067274E+00
         -2   -1    0    0    0  501 -0.00000000000E+00  0.00000000000E+00  0.37179564423E+02  0.37179564511E+02  0.25500000000E-02 0. -1.
          2   -1    0    0  501    0  0.00000000000E+00 -0.00000000000E+00 -0.77219029747E+03  0.77219029747E+03  0.25500000000E-02 0.  1.
    5000001    1    1    2    0    0  0.38054012337E+02 -0.13754411999E+03 -0.25015353020E+03  0.29811454421E+03  0.77000000000E+02 0.  0.
   -5000001    1    1    2    0    0 -0.38054012337E+02  0.13754411999E+03 -0.48485720284E+03  0.51125531777E+03  0.77000000000E+02 0.  0.
<mgrwt>
<rscale>  0 0.33887873E+03</rscale>
<asrwt>0</asrwt>
<pdfrwt beam="1">  1        2 0.11879850E+00 0.33887873E+03</pdfrwt>
<pdfrwt beam="2">  1       -2 0.57199336E-02 0.33887873E+03</pdfrwt>
<totfact> 0.59343286E+03</totfact>
</mgrwt>
</event>
<event>
 4    1  0.1171488E-003  0.2188951E+03  0.7818608E-02  0.1134709E+00
         -2   -1    0    0    0  501 -0.00000000000E+00  0.00000000000E+00  0.32855100687E+02  0.32855100786E+02  0.25500000000E-02 0. -1.
          2   -1    0    0  501    0  0.00000000000E+00 -0.00000000000E+00 -0.36459392229E+03  0.36459392230E+03  0.25500000000E-02 0.  1.
    5000001    1    1    2    0    0  0.10001050773E+01 -0.48065461465E+02 -0.27688729027E+03  0.29138781771E+03  0.77000000000E+02 0.  0.
   -5000001    1    1    2    0    0 -0.10001050773E+01  0.48065461465E+02 -0.54851531329E+02  0.10606120537E+03  0.77000000000E+02 0.  0.
<mgrwt>
<rscale>  0 0.21889514E+03</rscale>
<asrwt>0</asrwt>
<pdfrwt beam="1">  1        2 0.56091370E-01 0.21889514E+03</pdfrwt>
<pdfrwt beam="2">  1       -2 0.50546311E-02 0.21889514E+03</pdfrwt>
<totfact> 0.16616310E+04</totfact>
</mgrwt>
</event>
<event>
 4    1  0.1171488E-003  0.3808561E+03  0.7818608E-02  0.1050618E+00
          2   -1    0    0  501    0  0.00000000000E+00  0.00000000000E+00  0.25193347909E+04  0.25193347909E+04  0.25500000000E-02 0.  1.
         -2   -1    0    0    0  501 -0.00000000000E+00 -0.00000000000E+00 -0.14393813803E+02  0.14393814029E+02  0.25500000000E-02 0. -1.
    5000001    1    1    2    0    0  0.28229528716E+02  0.10175830145E+03  0.33107056294E+03  0.35593310586E+03  0.77000000000E+02 0.  0.
   -5000001    1    1    2    0    0 -0.28229528716E+02 -0.10175830145E+03  0.21738704142E+04  0.21777954991E+04  0.77000000000E+02 0.  0.
<mgrwt>
<rscale>  0 0.38085607E+03</rscale>
<asrwt>0</asrwt>
<pdfrwt beam="1">  1        2 0.38759016E+00 0.38085607E+03</pdfrwt>
<pdfrwt beam="2">  1       -2 0.22144318E-02 0.38085607E+03</pdfrwt>
<totfact> 0.25818127E+03</totfact>
</mgrwt>
</event>
<event>
 4    1  0.1171488E-003  0.2890734E+03  0.7818608E-02  0.1090834E+00
         -2   -1    0    0    0  501 -0.00000000000E+00  0.00000000000E+00  0.31182497827E+03  0.31182497828E+03  0.25500000000E-02 0. -1.
          2   -1    0    0  501    0  0.00000000000E+00 -0.00000000000E+00 -0.66995470923E+02  0.66995470971E+02  0.25500000000E-02 0.  1.
    5000001    1    1    2    0    0 -0.61251677700E+02  0.28748544646E+02 -0.11121603081E+02  0.10310643479E+03  0.77000000000E+02 0.  0.
   -5000001    1    1    2    0    0  0.61251677700E+02 -0.28748544646E+02  0.25595111043E+03  0.27571401446E+03  0.77000000000E+02 0.  0.
<mgrwt>
<rscale>  0 0.28907343E+03</rscale>
<asrwt>0</asrwt>
<pdfrwt beam="1">  1        2 0.10306995E-01 0.28907343E+03</pdfrwt>
<pdfrwt beam="2">  1       -2 0.47973075E-01 0.28907343E+03</pdfrwt>
<totfact> 0.25711506E+03</totfact>
</mgrwt>
</event>
<event>
 4    1  0.1171488E-003  0.1661607E+03  0.7818608E-02  0.1181912E+00
         -2   -1    0    0    0  501 -0.00000000000E+00  0.00000000000E+00  0.16408999388E+01  0.16409019202E+01  0.25500000000E-02 0. -1.
          2   -1    0    0  501    0  0.00000000000E+00 -0.00000000000E+00 -0.42064342906E+04  0.42064342906E+04  0.25500000000E-02 0.  1.
    5000001    1    1    2    0    0 -0.29083921827E+02 -0.11137684498E+02 -0.20555659330E+04  0.20572433564E+04  0.77000000000E+02 0.  0.
   -5000001    1    1    2    0    0  0.29083921827E+02  0.11137684498E+02 -0.21492274577E+04  0.21508318361E+04  0.77000000000E+02 0.  0.
<mgrwt>
<rscale>  0 0.16616067E+03</rscale>
<asrwt>0</asrwt>
<pdfrwt beam="1">  1        2 0.64713511E+00 0.16616067E+03</pdfrwt>
<pdfrwt beam="2">  1       -2 0.25244966E-03 0.16616067E+03</pdfrwt>
<totfact> 0.48159396E+03</totfact>
</mgrwt>
</event>
<event>
 4    1  0.1171488E-003  0.2498821E+03  0.7818608E-02  0.1113379E+00
         -2   -1    0    0    0  501 -0.00000000000E+00  0.00000000000E+00  0.71235173507E+02  0.71235173553E+02  0.25500000000E-02 0. -1.
          2   -1    0    0  501    0  0.00000000000E+00 -0.00000000000E+00 -0.21913702604E+03  0.21913702605E+03  0.25500000000E-02 0.  1.
    5000001    1    1    2    0    0  0.91242348415E+02  0.36676300590E+02 -0.70106197438E+02  0.14322777694E+03  0.77000000000E+02 0.  0.
   -5000001    1    1    2    0    0 -0.91242348415E+02 -0.36676300590E+02 -0.77795655094E+02  0.14714442266E+03  0.77000000000E+02 0.  0.
<mgrwt>
<rscale>  0 0.24988208E+03</rscale>
<asrwt>0</asrwt>
<pdfrwt beam="1">  1        2 0.33713388E-01 0.24988208E+03</pdfrwt>
<pdfrwt beam="2">  1       -2 0.10959258E-01 0.24988208E+03</pdfrwt>
<totfact> 0.87012348E+03</totfact>
</mgrwt>
</event>
<event>
 4    1  0.1171488E-003  0.5105988E+03  0.7818608E-02  0.1011049E+00
         -2   -1    0    0    0  501 -0.00000000000E+00  0.00000000000E+00  0.17206773124E+03  0.17206773126E+03  0.25500000000E-02 0. -1.
          2   -1    0    0  501    0  0.00000000000E+00 -0.00000000000E+00 -0.37879143264E+03  0.37879143264E+03  0.25500000000E-02 0.  1.
    5000001    1    1    2    0    0  0.18160472630E+03  0.16157807366E+03 -0.89671430003E+02  0.27029190861E+03  0.77000000000E+02 0.  0.
   -5000001    1    1    2    0    0 -0.18160472630E+03 -0.16157807366E+03 -0.11705227139E+03  0.28056725529E+03  0.77000000000E+02 0.  0.
<mgrwt>
<rscale>  0 0.51059880E+03</rscale>
<asrwt>0</asrwt>
<pdfrwt beam="1">  1        2 0.58275605E-01 0.51059880E+03</pdfrwt>
<pdfrwt beam="2">  1       -2 0.26471959E-01 0.51059880E+03</pdfrwt>
<totfact> 0.10933386E+03</totfact>
</mgrwt>
</event>
<event>
 4    1  0.1171488E-003  0.2731489E+03  0.7818608E-02  0.1099491E+00
          2   -1    0    0  501    0  0.00000000000E+00  0.00000000000E+00  0.12657413894E+04  0.12657413894E+04  0.25500000000E-02 0.  1.
         -2   -1    0    0    0  501 -0.00000000000E+00 -0.00000000000E+00 -0.14736484068E+02  0.14736484289E+02  0.25500000000E-02 0. -1.
    5000001    1    1    2    0    0 -0.11179746987E+03  0.91451266331E+01  0.56978411298E+03  0.58580307529E+03  0.77000000000E+02 0.  0.
   -5000001    1    1    2    0    0  0.11179746987E+03 -0.91451266331E+01  0.68122079239E+03  0.69467479845E+03  0.77000000000E+02 0.  0.
<mgrwt>
<rscale>  0 0.27314888E+03</rscale>
<asrwt>0</asrwt>
<pdfrwt beam="1">  1        2 0.19472946E+00 0.27314888E+03</pdfrwt>
<pdfrwt beam="2">  1       -2 0.22671512E-02 0.27314888E+03</pdfrwt>
<totfact> 0.11765964E+04</totfact>
</mgrwt>
</event>
<event>
 4    1  0.1171488E-003  0.1751019E+03  0.7818608E-02  0.1172629E+00
          2   -1    0    0  501    0  0.00000000000E+00  0.00000000000E+00  0.29000794741E+03  0.29000794742E+03  0.25500000000E-02 0.  1.
         -2   -1    0    0    0  501 -0.00000000000E+00 -0.00000000000E+00 -0.26430879308E+02  0.26430879431E+02  0.25500000000E-02 0. -1.
    5000001    1    1    2    0    0 -0.35658832706E+02 -0.17429542049E+02  0.10887066876E+03  0.13913002481E+03  0.77000000000E+02 0.  0.
   -5000001    1    1    2    0    0  0.35658832706E+02  0.17429542049E+02  0.15470639933E+03  0.17730880204E+03  0.77000000000E+02 0.  0.
<mgrwt>
<rscale>  0 0.17510186E+03</rscale>
<asrwt>0</asrwt>
<pdfrwt beam="1">  1        2 0.44616605E-01 0.17510186E+03</pdfrwt>
<pdfrwt beam="2">  1       -2 0.40662893E-02 0.17510186E+03</pdfrwt>
<totfact> 0.28950212E+04</totfact>
</mgrwt>
</event>
<event>
 4    1  0.1171488E-003  0.2486636E+03  0.7818608E-02  0.1114152E+00
         -2   -1    0    0    0  501 -0.00000000000E+00  0.00000000000E+00  0.89431531282E+02  0.89431531319E+02  0.25500000000E-02 0. -1.
          2   -1    0    0  501    0  0.00000000000E+00 -0.00000000000E+00 -0.17285172164E+03  0.17285172166E+03  0.25500000000E-02 0.  1.
    5000001    1    1    2    0    0  0.86012677701E+02 -0.16512600055E+02 -0.87182215637E+02  0.14560420808E+03  0.77000000000E+02 0.  0.
   -5000001    1    1    2    0    0 -0.86012677701E+02  0.16512600055E+02  0.37620252758E+01  0.11667904491E+03  0.77000000000E+02 0.  0.
<mgrwt>
<rscale>  0 0.24866358E+03</rscale>
<asrwt>0</asrwt>
<pdfrwt beam="1">  1        2 0.26592573E-01 0.24866358E+03</pdfrwt>
<pdfrwt beam="2">  1       -2 0.13758697E-01 0.24866358E+03</pdfrwt>
<totfact> 0.78120270E+03</totfact>
</mgrwt>
</event>
<event>
 4    1  0.1171488E-003  0.4022758E+03  0.7818608E-02  0.1042994E+00
          2   -1    0    0  501    0  0.00000000000E+00  0.00000000000E+00  0.39722886578E+03  0.39722886579E+03  0.25500000000E-02 0.  1.
         -2   -1    0    0    0  501 -0.00000000000E+00 -0.00000000000E+00 -0.10184672022E+03  0.10184672025E+03  0.25500000000E-02 0. -1.
    5000001    1    1    2    0    0  0.53181871570E+02 -0.12018016891E+03 -0.15280129609E+02  0.15308189581E+03  0.77000000000E+02 0.  0.
   -5000001    1    1    2    0    0 -0.53181871570E+02  0.12018016891E+03  0.31066227517E+03  0.34599369023E+03  0.77000000000E+02 0.  0.
<mgrwt>
<rscale>  0 0.40227581E+03</rscale>
<asrwt>0</asrwt>
<pdfrwt beam="1">  1        2 0.61112133E-01 0.40227581E+03</pdfrwt>
<pdfrwt beam="2">  1       -2 0.15668726E-01 0.40227581E+03</pdfrwt>
<totfact> 0.25761850E+03</totfact>
</mgrwt>
</event>
<event>
 4    1  0.1171488E-003  0.2805943E+03  0.7818608E-02  0.1095365E+00
          2   -1    0    0  501    0  0.00000000000E+00  0.00000000000E+00  0.80321892367E+03  0.80321892368E+03  0.25500000000E-02 0.  1.
         -2   -1    0    0    0  501 -0.00000000000E+00 -0.00000000000E+00 -0.24505518191E+02  0.24505518324E+02  0.25500000000E-02 0. -1.
    5000001    1    1    2    0    0 -0.25365945607E+02  0.10474283147E+03  0.25290031328E+03  0.28548565708E+03  0.77000000000E+02 0.  0.
   -5000001    1    1    2    0    0  0.25365945607E+02 -0.10474283147E+03  0.52581309220E+03  0.54223878492E+03  0.77000000000E+02 0.  0.
<mgrwt>
<rscale>  0 0.28059434E+03</rscale>
<asrwt>0</asrwt>
<pdfrwt beam="1">  1        2 0.12357213E+00 0.28059434E+03</pdfrwt>
<pdfrwt beam="2">  1       -2 0.37700800E-02 0.28059434E+03</pdfrwt>
<totfact> 0.10581152E+04</totfact>
</mgrwt>
</event>
<event>
 4    1  0.1171488E-003  0.2979371E+03  0.7818608E-02  0.1086276E+00
          2   -1    0    0  501    0  0.00000000000E+00  0.00000000000E+00  0.90551229545E+03  0.90551229545E+03  0.25500000000E-02 0.  1.
         -2   -1    0    0    0  501 -0.00000000000E+00 -0.00000000000E+00 -0.24507256516E+02  0.24507256649E+02  0.25500000000E-02 0. -1.
    5000001    1    1    2    0    0  0.11719078981E+03 -0.11361767209E+02  0.28758412997E+03  0.32015059391E+03  0.77000000000E+02 0.  0.
   -5000001    1    1    2    0    0 -0.11719078981E+03  0.11361767209E+02  0.59342090896E+03  0.60986895819E+03  0.77000000000E+02 0.  0.
<mgrwt>
<rscale>  0 0.29793705E+03</rscale>
<asrwt>0</asrwt>
<pdfrwt beam="1">  1        2 0.13930956E+00 0.29793705E+03</pdfrwt>
<pdfrwt beam="2">  1       -2 0.37703478E-02 0.29793705E+03</pdfrwt>
<totfact> 0.90579731E+03</totfact>
</mgrwt>
</event>
<event>
 4    1  0.1171488E-003  0.2271339E+03  0.7818608E-02  0.1128673E+00
         -2   -1    0    0    0  501 -0.00000000000E+00  0.00000000000E+00  0.49399465523E+01  0.49399472105E+01  0.25500000000E-02 0. -1.
          2   -1    0    0  501    0  0.00000000000E+00 -0.00000000000E+00 -0.26108473634E+04  0.26108473634E+04  0.25500000000E-02 0.  1.
    5000001    1    1    2    0    0  0.48093137121E+02 -0.67873470650E+02 -0.12225940779E+04  0.12278375451E+04  0.77000000000E+02 0.  0.
   -5000001    1    1    2    0    0 -0.48093137121E+02  0.67873470650E+02 -0.13833133389E+04  0.13879497655E+04  0.77000000000E+02 0.  0.
<mgrwt>
<rscale>  0 0.22713386E+03</rscale>
<asrwt>0</asrwt>
<pdfrwt beam="1">  1        2 0.40166772E+00 0.22713386E+03</pdfrwt>
<pdfrwt beam="2">  1       -2 0.75999391E-03 0.22713386E+03</pdfrwt>
<totfact> 0.11038752E+04</totfact>
</mgrwt>
</event>
<event>
 4    1  0.1171488E-003  0.2399426E+03  0.7818608E-02  0.1119831E+00
          2   -1    0    0  501    0  0.00000000000E+00  0.00000000000E+00  0.43605348337E+02  0.43605348412E+02  0.25500000000E-02 0.  1.
         -2   -1    0    0    0  501 -0.00000000000E+00 -0.00000000000E+00 -0.33007665539E+03  0.33007665540E+03  0.25500000000E-02 0. -1.
    5000001    1    1    2    0    0 -0.52438296183E+00  0.89711175767E+02 -0.11148120966E+03  0.16249747734E+03  0.77000000000E+02 0.  0.
   -5000001    1    1    2    0    0  0.52438296183E+00 -0.89711175767E+02 -0.17499009739E+03  0.21118452647E+03  0.77000000000E+02 0.  0.
<mgrwt>
<rscale>  0 0.23994256E+03</rscale>
<asrwt>0</asrwt>
<pdfrwt beam="1">  1        2 0.67085153E-02 0.23994256E+03</pdfrwt>
<pdfrwt beam="2">  1       -2 0.50781022E-01 0.23994256E+03</pdfrwt>
<totfact> 0.39286988E+03</totfact>
</mgrwt>
</event>
<event>
 4    1  0.1171488E-003  0.3671485E+03  0.7818608E-02  0.1055789E+00
          2   -1    0    0  501    0  0.00000000000E+00  0.00000000000E+00  0.40367556657E+03  0.40367556658E+03  0.25500000000E-02 0.  1.
         -2   -1    0    0    0  501 -0.00000000000E+00 -0.00000000000E+00 -0.83481658464E+02  0.83481658503E+02  0.25500000000E-02 0. -1.
    5000001    1    1    2    0    0 -0.23051383437E+02 -0.11662799535E+03  0.31504553605E+03  0.34542169208E+03  0.77000000000E+02 0.  0.
   -5000001    1    1    2    0    0  0.23051383437E+02  0.11662799535E+03  0.51483720581E+01  0.14173553300E+03  0.77000000000E+02 0.  0.
<mgrwt>
<rscale>  0 0.36714850E+03</rscale>
<asrwt>0</asrwt>
<pdfrwt beam="1">  1        2 0.62103933E-01 0.36714850E+03</pdfrwt>
<pdfrwt beam="2">  1       -2 0.12843332E-01 0.36714850E+03</pdfrwt>
<totfact> 0.35132234E+03</totfact>
</mgrwt>
</event>
<event>
 4    1  0.1171488E-003  0.2138908E+03  0.7818608E-02  0.1138521E+00
          2   -1    0    0  501    0  0.00000000000E+00  0.00000000000E+00  0.56759527948E+02  0.56759528005E+02  0.25500000000E-02 0.  1.
         -2   -1    0    0    0  501 -0.00000000000E+00 -0.00000000000E+00 -0.20150490704E+03  0.20150490706E+03  0.25500000000E-02 0. -1.
    5000001    1    1    2    0    0 -0.66041911038E+02 -0.16289863674E+02 -0.36524579995E+02  0.10904099512E+03  0.77000000000E+02 0.  0.
   -5000001    1    1    2    0    0  0.66041911038E+02  0.16289863674E+02 -0.10822079910E+03  0.14922343995E+03  0.77000000000E+02 0.  0.
<mgrwt>
<rscale>  0 0.21389085E+03</rscale>
<asrwt>0</asrwt>
<pdfrwt beam="1">  1        2 0.87322352E-02 0.21389085E+03</pdfrwt>
<pdfrwt beam="2">  1       -2 0.31000755E-01 0.21389085E+03</pdfrwt>
<totfact> 0.71490536E+03</totfact>
</mgrwt>
</event>
<event>
 4    1  0.1171488E-003  0.1765785E+03  0.7818608E-02  0.1171156E+00
         -2   -1    0    0    0  501 -0.00000000000E+00  0.00000000000E+00  0.83465016590E+01  0.83465020486E+01  0.25500000000E-02 0. -1.
          2   -1    0    0  501    0  0.00000000000E+00 -0.00000000000E+00 -0.93392356398E+03  0.93392356398E+03  0.25500000000E-02 0.  1.
    5000001    1    1    2    0    0  0.33907683530E+02 -0.68209967048E+01 -0.60088732288E+03  0.60678730359E+03  0.77000000000E+02 0.  0.
   -5000001    1    1    2    0    0 -0.33907683530E+02  0.68209967048E+01 -0.32468973944E+03  0.33548276244E+03  0.77000000000E+02 0.  0.
<mgrwt>
<rscale>  0 0.17657854E+03</rscale>
<asrwt>0</asrwt>
<pdfrwt beam="1">  1        2 0.14368047E+00 0.17657854E+03</pdfrwt>
<pdfrwt beam="2">  1       -2 0.12840780E-02 0.17657854E+03</pdfrwt>
<totfact> 0.41231762E+04</totfact>
</mgrwt>
</event>
<event>
 4    1  0.1171488E-003  0.6363955E+03  0.7818608E-02  0.9832647E-01
         -2   -1    0    0    0  501 -0.00000000000E+00  0.00000000000E+00  0.37969873104E+03  0.37969873105E+03  0.25500000000E-02 0. -1.
          2   -1    0    0  501    0  0.00000000000E+00 -0.00000000000E+00 -0.26665826497E+03  0.26665826499E+03  0.25500000000E-02 0.  1.
    5000001    1    1    2    0    0  0.19437887146E+03  0.15722370184E+03 -0.12747384400E+03  0.29100003264E+03  0.77000000000E+02 0.  0.
   -5000001    1    1    2    0    0 -0.19437887146E+03 -0.15722370184E+03  0.24051431006E+03  0.35535696340E+03  0.77000000000E+02 0.  0.
<mgrwt>
<rscale>  0 0.63639549E+03</rscale>
<asrwt>0</asrwt>
<pdfrwt beam="1">  1        2 0.41024349E-01 0.63639549E+03</pdfrwt>
<pdfrwt beam="2">  1       -2 0.58415189E-01 0.63639549E+03</pdfrwt>
<totfact> 0.34653937E+02</totfact>
</mgrwt>
</event>
<event>
 4    1  0.1171488E-003  0.5068962E+03  0.7818608E-02  0.1011994E+00
         -2   -1    0    0    0  501 -0.00000000000E+00  0.00000000000E+00  0.80406893964E+02  0.80406894005E+02  0.25500000000E-02 0. -1.
          2   -1    0    0  501    0  0.00000000000E+00 -0.00000000000E+00 -0.79888603558E+03  0.79888603558E+03  0.25500000000E-02 0.  1.
    5000001    1    1    2    0    0  0.18549105396E+03 -0.15311950885E+03 -0.39621795007E+03  0.46986187231E+03  0.77000000000E+02 0.  0.
   -5000001    1    1    2    0    0 -0.18549105396E+03  0.15311950885E+03 -0.32226119154E+03  0.40943105728E+03  0.77000000000E+02 0.  0.
<mgrwt>
<rscale>  0 0.50689622E+03</rscale>
<asrwt>0</asrwt>
<pdfrwt beam="1">  1        2 0.12290554E+00 0.50689622E+03</pdfrwt>
<pdfrwt beam="2">  1       -2 0.12370292E-01 0.50689622E+03</pdfrwt>
<totfact> 0.16746571E+03</totfact>
</mgrwt>
</event>
<event>
 4    1  0.1171488E-003  0.2078726E+03  0.7818608E-02  0.1143262E+00
         -2   -1    0    0    0  501 -0.00000000000E+00  0.00000000000E+00  0.17756962046E+02  0.17756962229E+02  0.25500000000E-02 0. -1.
          2   -1    0    0  501    0  0.00000000000E+00 -0.00000000000E+00 -0.60836719368E+03  0.60836719369E+03  0.25500000000E-02 0.  1.
    5000001    1    1    2    0    0 -0.63232353267E+02  0.28675084701E+02 -0.27334346963E+03  0.29234610203E+03  0.77000000000E+02 0.  0.
   -5000001    1    1    2    0    0  0.63232353267E+02 -0.28675084701E+02 -0.31726676201E+03  0.33377805389E+03  0.77000000000E+02 0.  0.
<mgrwt>
<rscale>  0 0.20787259E+03</rscale>
<asrwt>0</asrwt>
<pdfrwt beam="1">  1        2 0.93594937E-01 0.20787259E+03</pdfrwt>
<pdfrwt beam="2">  1       -2 0.27318408E-02 0.20787259E+03</pdfrwt>
<totfact> 0.23571288E+04</totfact>
</mgrwt>
</event>
<event>
 4    1  0.1171488E-003  0.2721293E+03  0.7818608E-02  0.1100067E+00
          2   -1    0    0  501    0  0.00000000000E+00  0.00000000000E+00  0.39483015644E+03  0.39483015645E+03  0.25500000000E-02 0.  1.
         -2   -1    0    0    0  501 -0.00000000000E+00 -0.00000000000E+00 -0.46889993816E+02  0.46889993885E+02  0.25500000000E-02 0. -1.
    5000001    1    1    2    0    0  0.29996054261E+02 -0.10803817495E+03  0.16821444896E+03  0.21632640005E+03  0.77000000000E+02 0.  0.
   -5000001    1    1    2    0    0 -0.29996054261E+02  0.10803817495E+03  0.17972571367E+03  0.22539375029E+03  0.77000000000E+02 0.  0.
<mgrwt>
<rscale>  0 0.27212926E+03</rscale>
<asrwt>0</asrwt>
<pdfrwt beam="1">  1        2 0.60743100E-01 0.27212926E+03</pdfrwt>
<pdfrwt beam="2">  1       -2 0.72138453E-02 0.27212926E+03</pdfrwt>
<totfact> 0.89384365E+03</totfact>
</mgrwt>
</event>
<event>
 4    1  0.1171488E-003  0.2097351E+03  0.7818608E-02  0.1141776E+00
         -2   -1    0    0    0  501 -0.00000000000E+00  0.00000000000E+00  0.96062484072E+01  0.96062487457E+01  0.25500000000E-02 0.  1.
          2   -1    0    0  501    0  0.00000000000E+00 -0.00000000000E+00 -0.11447967269E+04  0.11447967269E+04  0.25500000000E-02 0. -1.
    5000001    1    1    2    0    0  0.40893483169E+02  0.57013371958E+01 -0.88680552367E+03  0.89109921952E+03  0.77000000000E+02 0.  0.
   -5000001    1    1    2    0    0 -0.40893483169E+02 -0.57013371958E+01 -0.24838495484E+03  0.26330375615E+03  0.77000000000E+02 0.  0.
<mgrwt>
<rscale>  0 0.20973509E+03</rscale>
<asrwt>0</asrwt>
<pdfrwt beam="1">  1        2 0.17612247E+00 0.20973509E+03</pdfrwt>
<pdfrwt beam="2">  1       -2 0.14778853E-02 0.20973509E+03</pdfrwt>
<totfact> 0.25484810E+04</totfact>
</mgrwt>
</event>
<event>
 4    1  0.1171488E-003  0.3712039E+03  0.7818608E-02  0.1054234E+00
          2   -1    0    0  501    0  0.00000000000E+00  0.00000000000E+00  0.10566183018E+04  0.10566183018E+04  0.25500000000E-02 0.  1.
         -2   -1    0    0    0  501 -0.00000000000E+00 -0.00000000000E+00 -0.32602208145E+02  0.32602208245E+02  0.25500000000E-02 0. -1.
    5000001    1    1    2    0    0  0.13764362103E+03  0.67647137198E+02  0.71943543484E+03  0.73962033942E+03  0.77000000000E+02 0.  0.
   -5000001    1    1    2    0    0 -0.13764362103E+03 -0.67647137198E+02  0.30458065884E+03  0.34960017065E+03  0.77000000000E+02 0.  0.
<mgrwt>
<rscale>  0 0.37120393E+03</rscale>
<asrwt>0</asrwt>
<pdfrwt beam="1">  1        2 0.16255664E+00 0.37120393E+03</pdfrwt>
<pdfrwt beam="2">  1       -2 0.50157251E-02 0.37120393E+03</pdfrwt>
<totfact> 0.47456444E+03</totfact>
</mgrwt>
</event>
<event>
 4    1  0.1171488E-003  0.2829621E+03  0.7818608E-02  0.1094082E+00
          2   -1    0    0  501    0  0.00000000000E+00  0.00000000000E+00  0.39164165507E+03  0.39164165508E+03  0.25500000000E-02 0.  1.
         -2   -1    0    0    0  501 -0.00000000000E+00 -0.00000000000E+00 -0.51110215659E+02  0.51110215723E+02  0.25500000000E-02 0. -1.
    5000001    1    1    2    0    0 -0.10337743189E+03  0.58316870833E+02  0.16968315363E+03  0.22092786939E+03  0.77000000000E+02 0.  0.
   -5000001    1    1    2    0    0  0.10337743189E+03 -0.58316870833E+02  0.17084828578E+03  0.22182400141E+03  0.77000000000E+02 0.  0.
<mgrwt>
<rscale>  0 0.28296211E+03</rscale>
<asrwt>0</asrwt>
<pdfrwt beam="1">  1        2 0.60252566E-01 0.28296211E+03</pdfrwt>
<pdfrwt beam="2">  1       -2 0.78631096E-02 0.28296211E+03</pdfrwt>
<totfact> 0.78972463E+03</totfact>
</mgrwt>
</event>
<event>
 4    1  0.1171488E-003  0.2489249E+03  0.7818608E-02  0.1113986E+00
         -2   -1    0    0    0  501 -0.00000000000E+00  0.00000000000E+00  0.54105875129E+03  0.54105875130E+03  0.25500000000E-02 0. -1.
          2   -1    0    0  501    0  0.00000000000E+00 -0.00000000000E+00 -0.28630711245E+02  0.28630711358E+02  0.25500000000E-02 0.  1.
    5000001    1    1    2    0    0  0.86547988311E+02 -0.27705522995E+02  0.33884949113E+03  0.35917423060E+03  0.77000000000E+02 0.  0.
   -5000001    1    1    2    0    0 -0.86547988311E+02  0.27705522995E+02  0.17357854892E+03  0.21051523206E+03  0.77000000000E+02 0.  0.
<mgrwt>
<rscale>  0 0.24892486E+03</rscale>
<asrwt>0</asrwt>
<pdfrwt beam="1">  1        2 0.44047251E-02 0.24892486E+03</pdfrwt>
<pdfrwt beam="2">  1       -2 0.83239803E-01 0.24892486E+03</pdfrwt>
<totfact> 0.24116098E+03</totfact>
</mgrwt>
</event>
<event>
 4    1  0.1171488E-003  0.1830260E+03  0.7818608E-02  0.1164906E+00
          2   -1    0    0  501    0  0.00000000000E+00  0.00000000000E+00  0.62725828639E+02  0.62725828691E+02  0.25500000000E-02 0.  1.
         -2   -1    0    0    0  501 -0.00000000000E+00 -0.00000000000E+00 -0.13351172174E+03  0.13351172176E+03  0.25500000000E-02 0. -1.
    5000001    1    1    2    0    0 -0.67422725209E+01  0.43976741718E+02 -0.58543708454E+02  0.10646960999E+03  0.77000000000E+02 0.  0.
   -5000001    1    1    2    0    0  0.67422725209E+01 -0.43976741718E+02 -0.12242184644E+02  0.89767940467E+02  0.77000000000E+02 0.  0.
<mgrwt>
<rscale>  0 0.18302605E+03</rscale>
<asrwt>0</asrwt>
<pdfrwt beam="1">  1        2 0.96501275E-02 0.18302605E+03</pdfrwt>
<pdfrwt beam="2">  1       -2 0.20540265E-01 0.18302605E+03</pdfrwt>
<totfact> 0.12890992E+04</totfact>
</mgrwt>
</event>
<event>
 4    1  0.1171488E-003  0.2161009E+03  0.7818608E-02  0.1136824E+00
         -2   -1    0    0    0  501 -0.00000000000E+00  0.00000000000E+00  0.25744749582E+02  0.25744749708E+02  0.25500000000E-02 0. -1.
          2   -1    0    0  501    0  0.00000000000E+00 -0.00000000000E+00 -0.45348668393E+03  0.45348668394E+03  0.25500000000E-02 0.  1.
    5000001    1    1    2    0    0  0.33169916132E+02  0.64200367603E+02 -0.26463336864E+03  0.28492411329E+03  0.77000000000E+02 0.  0.
   -5000001    1    1    2    0    0 -0.33169916132E+02 -0.64200367603E+02 -0.16310856571E+03  0.19430732036E+03  0.77000000000E+02 0.  0.
<mgrwt>
<rscale>  0 0.21610091E+03</rscale>
<asrwt>0</asrwt>
<pdfrwt beam="1">  1        2 0.69767176E-01 0.21610091E+03</pdfrwt>
<pdfrwt beam="2">  1       -2 0.39607310E-02 0.21610091E+03</pdfrwt>
<totfact> 0.18922185E+04</totfact>
</mgrwt>
</event>
<event>
 4    1  0.1171488E-003  0.1751856E+03  0.7818608E-02  0.1172545E+00
         -2   -1    0    0    0  501 -0.00000000000E+00  0.00000000000E+00  0.36622789366E+02  0.36622789455E+02  0.25500000000E-02 0. -1.
          2   -1    0    0  501    0  0.00000000000E+00 -0.00000000000E+00 -0.20950064405E+03  0.20950064406E+03  0.25500000000E-02 0.  1.
    5000001    1    1    2    0    0 -0.11054357228E+02  0.31435795996E+02 -0.12178875222E+03  0.14789154219E+03  0.77000000000E+02 0.  0.
   -5000001    1    1    2    0    0  0.11054357228E+02 -0.31435795996E+02 -0.51089102461E+02  0.98231891328E+02  0.77000000000E+02 0.  0.
<mgrwt>
<rscale>  0 0.17518559E+03</rscale>
<asrwt>0</asrwt>
<pdfrwt beam="1">  1        2 0.32230868E-01 0.17518559E+03</pdfrwt>
<pdfrwt beam="2">  1       -2 0.56342754E-02 0.17518559E+03</pdfrwt>
<totfact> 0.25114451E+04</totfact>
</mgrwt>
</event>
<event>
 4    1  0.1171488E-003  0.3131657E+03  0.7818608E-02  0.1078838E+00
         -2   -1    0    0    0  501 -0.00000000000E+00  0.00000000000E+00  0.63035666204E+03  0.63035666204E+03  0.25500000000E-02 0. -1.
          2   -1    0    0  501    0  0.00000000000E+00 -0.00000000000E+00 -0.38895747624E+02  0.38895747708E+02  0.25500000000E-02 0.  1.
    5000001    1    1    2    0    0  0.94055414380E+02  0.93047854024E+02  0.22534150936E+03  0.27241901540E+03  0.77000000000E+02 0.  0.
   -5000001    1    1    2    0    0 -0.94055414380E+02 -0.93047854024E+02  0.36611940505E+03  0.39683339435E+03  0.77000000000E+02 0.  0.
<mgrwt>
<rscale>  0 0.31316573E+03</rscale>
<asrwt>0</asrwt>
<pdfrwt beam="1">  1        2 0.59839616E-02 0.31316573E+03</pdfrwt>
<pdfrwt beam="2">  1       -2 0.96977941E-01 0.31316573E+03</pdfrwt>
<totfact> 0.11455703E+03</totfact>
</mgrwt>
</event>
<event>
 4    1  0.1171488E-003  0.2526853E+03  0.7818608E-02  0.1111619E+00
         -2   -1    0    0    0  501 -0.00000000000E+00  0.00000000000E+00  0.10424800430E+02  0.10424800742E+02  0.25500000000E-02 0. -1.
          2   -1    0    0  501    0  0.00000000000E+00 -0.00000000000E+00 -0.15312013681E+04  0.15312013681E+04  0.25500000000E-02 0.  1.
    5000001    1    1    2    0    0  0.53944254272E+02  0.82040354924E+02 -0.63946176387E+03  0.65152202561E+03  0.77000000000E+02 0.  0.
   -5000001    1    1    2    0    0 -0.53944254272E+02 -0.82040354924E+02 -0.88131480383E+03  0.89010414326E+03  0.77000000000E+02 0.  0.
<mgrwt>
<rscale>  0 0.25268533E+03</rscale>
<asrwt>0</asrwt>
<pdfrwt beam="1">  1        2 0.23556926E+00 0.25268533E+03</pdfrwt>
<pdfrwt beam="2">  1       -2 0.16038167E-02 0.25268533E+03</pdfrwt>
<totfact> 0.14003172E+04</totfact>
</mgrwt>
</event>
<event>
 4    1  0.1171488E-003  0.5656102E+03  0.7818608E-02  0.9979440E-01
         -2   -1    0    0    0  501 -0.00000000000E+00  0.00000000000E+00  0.79492893025E+02  0.79492893066E+02  0.25500000000E-02 0. -1.
          2   -1    0    0  501    0  0.00000000000E+00 -0.00000000000E+00 -0.10061116534E+04  0.10061116534E+04  0.25500000000E-02 0.  1.
    5000001    1    1    2    0    0  0.19295337250E+03 -0.60749276237E+02 -0.81265366921E+03  0.84098541284E+03  0.77000000000E+02 0.  0.
   -5000001    1    1    2    0    0 -0.19295337250E+03  0.60749276237E+02 -0.11396509112E+03  0.24461913359E+03  0.77000000000E+02 0.  0.
<mgrwt>
<rscale>  0 0.56561021E+03</rscale>
<asrwt>0</asrwt>
<pdfrwt beam="1">  1        2 0.15478640E+00 0.56561021E+03</pdfrwt>
<pdfrwt beam="2">  1       -2 0.12229677E-01 0.56561021E+03</pdfrwt>
<totfact> 0.12409258E+03</totfact>
</mgrwt>
</event>
<event>
 4    1  0.1171488E-003  0.2421287E+03  0.7818608E-02  0.1118383E+00
          2   -1    0    0  501    0  0.00000000000E+00  0.00000000000E+00  0.10778704014E+04  0.10778704014E+04  0.25500000000E-02 0.  1.
         -2   -1    0    0    0  501 -0.00000000000E+00 -0.00000000000E+00 -0.13597716231E+02  0.13597716470E+02  0.25500000000E-02 0. -1.
    5000001    1    1    2    0    0  0.87839534065E+02 -0.25260617381E+02  0.44499534265E+03  0.46076429713E+03  0.77000000000E+02 0.  0.
   -5000001    1    1    2    0    0 -0.87839534065E+02  0.25260617381E+02  0.61927734251E+03  0.63070382073E+03  0.77000000000E+02 0.  0.
<mgrwt>
<rscale>  0 0.24212869E+03</rscale>
<asrwt>0</asrwt>
<pdfrwt beam="1">  1        2 0.16582624E+00 0.24212869E+03</pdfrwt>
<pdfrwt beam="2">  1       -2 0.20919560E-02 0.24212869E+03</pdfrwt>
<totfact> 0.16896816E+04</totfact>
</mgrwt>
</event>
<event>
 4    1  0.1171488E-003  0.2714364E+03  0.7818608E-02  0.1100460E+00
         -2   -1    0    0    0  501 -0.00000000000E+00  0.00000000000E+00  0.93305587702E+01  0.93305591187E+01  0.25500000000E-02 0. -1.
          2   -1    0    0  501    0  0.00000000000E+00 -0.00000000000E+00 -0.19740975741E+04  0.19740975741E+04  0.25500000000E-02 0.  1.
    5000001    1    1    2    0    0 -0.33098551179E+02  0.45139659730E+02 -0.27553828483E+03  0.29151920927E+03  0.77000000000E+02 0.  0.
   -5000001    1    1    2    0    0  0.33098551179E+02 -0.45139659730E+02 -0.16892287305E+04  0.16919089240E+04  0.77000000000E+02 0.  0.
<mgrwt>
<rscale>  0 0.27143643E+03</rscale>
<asrwt>0</asrwt>
<pdfrwt beam="1">  1        2 0.30370699E+00 0.27143643E+03</pdfrwt>
<pdfrwt beam="2">  1       -2 0.14354722E-02 0.27143643E+03</pdfrwt>
<totfact> 0.96442983E+03</totfact>
</mgrwt>
</event>
<event>
 4    1  0.1171488E-003  0.2551035E+03  0.7818608E-02  0.1110121E+00
         -2   -1    0    0    0  501 -0.00000000000E+00  0.00000000000E+00  0.71948536629E+02  0.71948536674E+02  0.25500000000E-02 0. -1.
          2   -1    0    0  501    0  0.00000000000E+00 -0.00000000000E+00 -0.22612627807E+03  0.22612627808E+03  0.25500000000E-02 0.  1.
    5000001    1    1    2    0    0 -0.18031759169E+02  0.86636191959E+02 -0.18555879538E+02  0.11876150370E+03  0.77000000000E+02 0.  0.
   -5000001    1    1    2    0    0  0.18031759169E+02 -0.86636191959E+02 -0.13562186190E+03  0.17931331105E+03  0.77000000000E+02 0.  0.
<mgrwt>
<rscale>  0 0.25510355E+03</rscale>
<asrwt>0</asrwt>
<pdfrwt beam="1">  1        2 0.34788658E-01 0.25510355E+03</pdfrwt>
<pdfrwt beam="2">  1       -2 0.11069006E-01 0.25510355E+03</pdfrwt>
<totfact> 0.82843182E+03</totfact>
</mgrwt>
</event>
<event>
 4    1  0.1171488E-003  0.2495518E+03  0.7818608E-02  0.1113588E+00
          2   -1    0    0  501    0  0.00000000000E+00  0.00000000000E+00  0.34816239078E+03  0.34816239079E+03  0.25500000000E-02 0.  1.
         -2   -1    0    0    0  501 -0.00000000000E+00 -0.00000000000E+00 -0.44717728351E+02  0.44717728424E+02  0.25500000000E-02 0. -1.
    5000001    1    1    2    0    0 -0.52427953767E+02 -0.82960041258E+02  0.15643812410E+03  0.20008234668E+03  0.77000000000E+02 0.  0.
   -5000001    1    1    2    0    0  0.52427953767E+02  0.82960041258E+02  0.14700653833E+03  0.19279777253E+03  0.77000000000E+02 0.  0.
<mgrwt>
<rscale>  0 0.24955185E+03</rscale>
<asrwt>0</asrwt>
<pdfrwt beam="1">  1        2 0.53563444E-01 0.24955185E+03</pdfrwt>
<pdfrwt beam="2">  1       -2 0.68796506E-02 0.24955185E+03</pdfrwt>
<totfact> 0.10978686E+04</totfact>
</mgrwt>
</event>
<event>
 4    1  0.1171488E-003  0.3213721E+03  0.7818608E-02  0.1075020E+00
          2   -1    0    0  501    0  0.00000000000E+00  0.00000000000E+00  0.46119567187E+04  0.46119567187E+04  0.25500000000E-02 0.  1.
         -2   -1    0    0    0  501 -0.00000000000E+00 -0.00000000000E+00 -0.55984911150E+01  0.55984916957E+01  0.25500000000E-02 0. -1.
    5000001    1    1    2    0    0  0.11017181323E+03 -0.86978892581E+02  0.21062533699E+04  0.21123293811E+04  0.77000000000E+02 0.  0.
   -5000001    1    1    2    0    0 -0.11017181323E+03  0.86978892581E+02  0.25001048577E+04  0.25052258293E+04  0.77000000000E+02 0.  0.
<mgrwt>
<rscale>  0 0.32137206E+03</rscale>
<asrwt>0</asrwt>
<pdfrwt beam="1">  1        2 0.70953413E+00 0.32137206E+03</pdfrwt>
<pdfrwt beam="2">  1       -2 0.86130354E-03 0.32137206E+03</pdfrwt>
<totfact> 0.34658141E+02</totfact>
</mgrwt>
</event>
<event>
 4    1  0.1171488E-003  0.2514802E+03  0.7818608E-02  0.1112373E+00
         -2   -1    0    0    0  501 -0.00000000000E+00  0.00000000000E+00  0.50269166715E+01  0.50269173182E+01  0.25500000000E-02 0. -1.
          2   -1    0    0  501    0  0.00000000000E+00 -0.00000000000E+00 -0.31451825711E+04  0.31451825711E+04  0.25500000000E-02 0.  1.
    5000001    1    1    2    0    0  0.51730946339E+02 -0.31406960672E+02 -0.25579456835E+04  0.25598198389E+04  0.77000000000E+02 0.  0.
   -5000001    1    1    2    0    0 -0.51730946339E+02  0.31406960672E+02 -0.58220997090E+03  0.59038964947E+03  0.77000000000E+02 0.  0.
<mgrwt>
<rscale>  0 0.25148019E+03</rscale>
<asrwt>0</asrwt>
<pdfrwt beam="1">  1        2 0.48387267E+00 0.25148019E+03</pdfrwt>
<pdfrwt beam="2">  1       -2 0.77337436E-03 0.25148019E+03</pdfrwt>
<totfact> 0.52829452E+03</totfact>
</mgrwt>
</event>
<event>
 4    1  0.1171488E-003  0.1997642E+03  0.7818608E-02  0.1149938E+00
         -2   -1    0    0    0  501 -0.00000000000E+00  0.00000000000E+00  0.11348540622E+02  0.11348540908E+02  0.25500000000E-02 0. -1.
          2   -1    0    0  501    0  0.00000000000E+00 -0.00000000000E+00 -0.87909395092E+03  0.87909395093E+03  0.25500000000E-02 0.  1.
    5000001    1    1    2    0    0  0.54199814402E+02  0.32904130009E+02 -0.45709088862E+03  0.46784760565E+03  0.77000000000E+02 0.  0.
   -5000001    1    1    2    0    0 -0.54199814402E+02 -0.32904130009E+02 -0.41065452168E+03  0.42259488619E+03  0.77000000000E+02 0.  0.
<mgrwt>
<rscale>  0 0.19976420E+03</rscale>
<asrwt>0</asrwt>
<pdfrwt beam="1">  1        2 0.13524517E+00 0.19976420E+03</pdfrwt>
<pdfrwt beam="2">  1       -2 0.17459300E-02 0.19976420E+03</pdfrwt>
<totfact> 0.28873201E+04</totfact>
</mgrwt>
</event>
<event>
 4    1  0.1171488E-003  0.1934852E+03  0.7818608E-02  0.1155355E+00
          2   -1    0    0  501    0  0.00000000000E+00  0.00000000000E+00  0.17018246832E+04  0.17018246832E+04  0.25500000000E-02 0.  1.
         -2   -1    0    0    0  501 -0.00000000000E+00 -0.00000000000E+00 -0.54994665200E+01  0.54994671111E+01  0.25500000000E-02 0. -1.
    5000001    1    1    2    0    0  0.46316521814E+02 -0.35774358626E+02  0.86809686612E+03  0.87346791235E+03  0.77000000000E+02 0.  0.
   -5000001    1    1    2    0    0 -0.46316521814E+02  0.35774358626E+02  0.82822835060E+03  0.83385623801E+03  0.77000000000E+02 0.  0.
<mgrwt>
<rscale>  0 0.19348518E+03</rscale>
<asrwt>0</asrwt>
<pdfrwt beam="1">  1        2 0.26181966E+00 0.19348518E+03</pdfrwt>
<pdfrwt beam="2">  1       -2 0.84607029E-03 0.19348518E+03</pdfrwt>
<totfact> 0.28467807E+04</totfact>
</mgrwt>
</event>
<event>
 4    1  0.1171488E-003  0.1973636E+03  0.7818608E-02  0.1151983E+00
         -2   -1    0    0    0  501 -0.00000000000E+00  0.00000000000E+00  0.71733777721E+02  0.71733777766E+02  0.25500000000E-02 0. -1.
          2   -1    0    0  501    0  0.00000000000E+00 -0.00000000000E+00 -0.13575335232E+03  0.13575335235E+03  0.25500000000E-02 0.  1.
    5000001    1    1    2    0    0 -0.26617938068E+02  0.41003587503E+02  0.75961149547E+01  0.91523274513E+02  0.77000000000E+02 0.  0.
   -5000001    1    1    2    0    0  0.26617938068E+02 -0.41003587503E+02 -0.71615689557E+02  0.11596385560E+03  0.77000000000E+02 0.  0.
<mgrwt>
<rscale>  0 0.19736363E+03</rscale>
<asrwt>0</asrwt>
<pdfrwt beam="1">  1        2 0.20885131E-01 0.19736363E+03</pdfrwt>
<pdfrwt beam="2">  1       -2 0.11035966E-01 0.19736363E+03</pdfrwt>
<totfact> 0.14423741E+04</totfact>
</mgrwt>
</event>
<event>
 4    1  0.1171488E-003  0.2003485E+03  0.7818608E-02  0.1149445E+00
          2   -1    0    0  501    0  0.00000000000E+00  0.00000000000E+00  0.26649460152E+03  0.26649460154E+03  0.25500000000E-02 0.  1.
         -2   -1    0    0    0  501 -0.00000000000E+00 -0.00000000000E+00 -0.37655102088E+02  0.37655102174E+02  0.25500000000E-02 0. -1.
    5000001    1    1    2    0    0 -0.16871843802E+02 -0.59946890890E+02  0.91517383845E+02  0.13484331792E+03  0.77000000000E+02 0.  0.
   -5000001    1    1    2    0    0  0.16871843802E+02  0.59946890890E+02  0.13732211559E+03  0.16930638579E+03  0.77000000000E+02 0.  0.
<mgrwt>
<rscale>  0 0.20034851E+03</rscale>
<asrwt>0</asrwt>
<pdfrwt beam="1">  1        2 0.40999169E-01 0.20034851E+03</pdfrwt>
<pdfrwt beam="2">  1       -2 0.57930927E-02 0.20034851E+03</pdfrwt>
<totfact> 0.18783361E+04</totfact>
</mgrwt>
</event>
<event>
 4    1  0.1171488E-003  0.3218742E+03  0.7818608E-02  0.1074790E+00
         -2   -1    0    0    0  501 -0.00000000000E+00  0.00000000000E+00  0.25423917327E+02  0.25423917455E+02  0.25500000000E-02 0. -1.
          2   -1    0    0  501    0  0.00000000000E+00 -0.00000000000E+00 -0.10187553722E+04  0.10187553722E+04  0.25500000000E-02 0.  1.
    5000001    1    1    2    0    0 -0.10827265374E+03  0.68223222699E+01 -0.79046799720E+03  0.80158478418E+03  0.77000000000E+02 0.  0.
   -5000001    1    1    2    0    0  0.10827265374E+03 -0.68223222699E+01 -0.20286345766E+03  0.24259450546E+03  0.77000000000E+02 0.  0.
<mgrwt>
<rscale>  0 0.32187421E+03</rscale>
<asrwt>0</asrwt>
<pdfrwt beam="1">  1        2 0.15673156E+00 0.32187421E+03</pdfrwt>
<pdfrwt beam="2">  1       -2 0.39113727E-02 0.32187421E+03</pdfrwt>
<totfact> 0.72892820E+03</totfact>
</mgrwt>
</event>
<event>
 4    1  0.1171488E-003  0.2642976E+03  0.7818608E-02  0.1104588E+00
         -2   -1    0    0    0  501 -0.00000000000E+00  0.00000000000E+00  0.39184250873E+02  0.39184250956E+02  0.25500000000E-02 0. -1.
          2   -1    0    0  501    0  0.00000000000E+00 -0.00000000000E+00 -0.44567168811E+03  0.44567168812E+03  0.25500000000E-02 0.  1.
    5000001    1    1    2    0    0 -0.92766291560E+02 -0.53991011137E+02 -0.21003316081E+03  0.24812001687E+03  0.77000000000E+02 0.  0.
   -5000001    1    1    2    0    0  0.92766291560E+02  0.53991011137E+02 -0.19645427643E+03  0.23673592220E+03  0.77000000000E+02 0.  0.
<mgrwt>
<rscale>  0 0.26429764E+03</rscale>
<asrwt>0</asrwt>
<pdfrwt beam="1">  1        2 0.68564871E-01 0.26429764E+03</pdfrwt>
<pdfrwt beam="2">  1       -2 0.60283466E-02 0.26429764E+03</pdfrwt>
<totfact> 0.10317453E+04</totfact>
</mgrwt>
</event>
<event>
 4    1  0.1171488E-003  0.2419619E+03  0.7818608E-02  0.1118493E+00
         -2   -1    0    0    0  501 -0.00000000000E+00  0.00000000000E+00  0.54172816910E+02  0.54172816970E+02  0.25500000000E-02 0. -1.
          2   -1    0    0  501    0  0.00000000000E+00 -0.00000000000E+00 -0.27017951105E+03  0.27017951106E+03  0.25500000000E-02 0.  1.
    5000001    1    1    2    0    0  0.78582684862E+02 -0.41733772430E+02 -0.14569145276E+03  0.18727505314E+03  0.77000000000E+02 0.  0.
   -5000001    1    1    2    0    0 -0.78582684862E+02  0.41733772430E+02 -0.70315241380E+02  0.13707727489E+03  0.77000000000E+02 0.  0.
<mgrwt>
<rscale>  0 0.24196186E+03</rscale>
<asrwt>0</asrwt>
<pdfrwt beam="1">  1        2 0.41566078E-01 0.24196186E+03</pdfrwt>
<pdfrwt beam="2">  1       -2 0.83342797E-02 0.24196186E+03</pdfrwt>
<totfact> 0.10683652E+04</totfact>
</mgrwt>
</event>
<event>
 4    1  0.1171488E-003  0.1829999E+03  0.7818608E-02  0.1164931E+00
          2   -1    0    0  501    0  0.00000000000E+00  0.00000000000E+00  0.15406698379E+04  0.15406698379E+04  0.25500000000E-02 0.  1.
         -2   -1    0    0    0  501 -0.00000000000E+00 -0.00000000000E+00 -0.54341581666E+01  0.54341587648E+01  0.25500000000E-02 0. -1.
    5000001    1    1    2    0    0 -0.40787937224E+02 -0.20328011139E+02  0.60590596849E+03  0.61247687835E+03  0.77000000000E+02 0.  0.
   -5000001    1    1    2    0    0  0.40787937224E+02  0.20328011139E+02  0.92932971127E+03  0.93362711834E+03  0.77000000000E+02 0.  0.
<mgrwt>
<rscale>  0 0.18299993E+03</rscale>
<asrwt>0</asrwt>
<pdfrwt beam="1">  1        2 0.23702624E+00 0.18299993E+03</pdfrwt>
<pdfrwt beam="2">  1       -2 0.83602400E-03 0.18299993E+03</pdfrwt>
<totfact> 0.35037721E+04</totfact>
</mgrwt>
</event>
<event>
 4    1  0.1171488E-003  0.2047458E+03  0.7818608E-02  0.1145796E+00
          2   -1    0    0  501    0  0.00000000000E+00  0.00000000000E+00  0.84541385080E+01  0.84541388926E+01  0.25500000000E-02 0.  1.
         -2   -1    0    0    0  501 -0.00000000000E+00 -0.00000000000E+00 -0.12396540333E+04  0.12396540333E+04  0.25500000000E-02 0. -1.
    5000001    1    1    2    0    0  0.36553012244E+01 -0.67352815180E+02 -0.60827421186E+03  0.61682759322E+03  0.77000000000E+02 0.  0.
   -5000001    1    1    2    0    0 -0.36553012244E+01  0.67352815180E+02 -0.62292568297E+03  0.63128057901E+03  0.77000000000E+02 0.  0.
<mgrwt>
<rscale>  0 0.20474577E+03</rscale>
<asrwt>0</asrwt>
<pdfrwt beam="1">  1        2 0.13006377E-02 0.20474577E+03</pdfrwt>
<pdfrwt beam="2">  1       -2 0.19071586E+00 0.20474577E+03</pdfrwt>
<totfact> 0.16276268E+03</totfact>
</mgrwt>
</event>
<event>
 4    1  0.1171488E-003  0.2488611E+03  0.7818608E-02  0.1114027E+00
          2   -1    0    0  501    0  0.00000000000E+00  0.00000000000E+00  0.11081124840E+03  0.11081124843E+03  0.25500000000E-02 0.  1.
         -2   -1    0    0    0  501 -0.00000000000E+00 -0.00000000000E+00 -0.13972374836E+03  0.13972374838E+03  0.25500000000E-02 0. -1.
    5000001    1    1    2    0    0  0.77422035196E+02 -0.48441163298E+02  0.20609703322E+02  0.12122078084E+03  0.77000000000E+02 0.  0.
   -5000001    1    1    2    0    0 -0.77422035196E+02  0.48441163298E+02 -0.49522203284E+02  0.12931421598E+03  0.77000000000E+02 0.  0.
<mgrwt>
<rscale>  0 0.24886111E+03</rscale>
<asrwt>0</asrwt>
<pdfrwt beam="1">  1        2 0.17047884E-01 0.24886111E+03</pdfrwt>
<pdfrwt beam="2">  1       -2 0.21495961E-01 0.24886111E+03</pdfrwt>
<totfact> 0.61252024E+03</totfact>
</mgrwt>
</event>
<event>
 4    1  0.1171488E-003  0.2170472E+03  0.7818608E-02  0.1136104E+00
          2   -1    0    0  501    0  0.00000000000E+00  0.00000000000E+00  0.41228179160E+03  0.41228179160E+03  0.25500000000E-02 0.  1.
         -2   -1    0    0    0  501 -0.00000000000E+00 -0.00000000000E+00 -0.28566308824E+02  0.28566308938E+02  0.25500000000E-02 0. -1.
    5000001    1    1    2    0    0 -0.52106925680E+02 -0.79444160788E+01  0.79316224625E+02  0.12246758322E+03  0.77000000000E+02 0.  0.
   -5000001    1    1    2    0    0  0.52106925680E+02  0.79444160788E+01  0.30439925815E+03  0.31838051732E+03  0.77000000000E+02 0.  0.
<mgrwt>
<rscale>  0 0.21704717E+03</rscale>
<asrwt>0</asrwt>
<pdfrwt beam="1">  1        2 0.63427970E-01 0.21704717E+03</pdfrwt>
<pdfrwt beam="2">  1       -2 0.43948166E-02 0.21704717E+03</pdfrwt>
<totfact> 0.17963475E+04</totfact>
</mgrwt>
</event>
<event>
 4    1  0.1171488E-003  0.3330416E+03  0.7818608E-02  0.1069799E+00
         -2   -1    0    0    0  501 -0.00000000000E+00  0.00000000000E+00  0.34902423937E+03  0.34902423938E+03  0.25500000000E-02 0. -1.
          2   -1    0    0  501    0  0.00000000000E+00 -0.00000000000E+00 -0.79447724270E+02  0.79447724310E+02  0.25500000000E-02 0.  1.
    5000001    1    1    2    0    0 -0.88077676883E+02 -0.97716424694E+02  0.48541922159E+02  0.15997341975E+03  0.77000000000E+02 0.  0.
   -5000001    1    1    2    0    0  0.88077676883E+02  0.97716424694E+02  0.22103459294E+03  0.26849854394E+03  0.77000000000E+02 0.  0.
<mgrwt>
<rscale>  0 0.33304163E+03</rscale>
<asrwt>0</asrwt>
<pdfrwt beam="1">  1        2 0.12222727E-01 0.33304163E+03</pdfrwt>
<pdfrwt beam="2">  1       -2 0.53696037E-01 0.33304163E+03</pdfrwt>
<totfact> 0.16675521E+03</totfact>
</mgrwt>
</event>
<event>
 4    1  0.1171488E-003  0.2393321E+03  0.7818608E-02  0.1120239E+00
         -2   -1    0    0    0  501 -0.00000000000E+00  0.00000000000E+00  0.18025186480E+02  0.18025186661E+02  0.25500000000E-02 0. -1.
          2   -1    0    0  501    0  0.00000000000E+00 -0.00000000000E+00 -0.79444201431E+03  0.79444201431E+03  0.25500000000E-02 0.  1.
    5000001    1    1    2    0    0  0.86776855761E+02  0.12592641446E+02 -0.47816344114E+03  0.49219718991E+03  0.77000000000E+02 0.  0.
   -5000001    1    1    2    0    0 -0.86776855761E+02 -0.12592641446E+02 -0.29825338669E+03  0.32027001106E+03  0.77000000000E+02 0.  0.
<mgrwt>
<rscale>  0 0.23933212E+03</rscale>
<asrwt>0</asrwt>
<pdfrwt beam="1">  1        2 0.12222182E+00 0.23933212E+03</pdfrwt>
<pdfrwt beam="2">  1       -2 0.27731062E-02 0.23933212E+03</pdfrwt>
<totfact> 0.16850161E+04</totfact>
</mgrwt>
</event>
<event>
 4    1  0.1171488E-003  0.1813191E+03  0.7818608E-02  0.1166533E+00
          2   -1    0    0  501    0  0.00000000000E+00  0.00000000000E+00  0.46601523548E+02  0.46601523618E+02  0.25500000000E-02 0.  1.
         -2   -1    0    0    0  501 -0.00000000000E+00 -0.00000000000E+00 -0.17637083965E+03  0.17637083967E+03  0.25500000000E-02 0. -1.
    5000001    1    1    2    0    0 -0.36931550555E+02  0.30424219957E+02 -0.65818973466E+02  0.11202995070E+03  0.77000000000E+02 0.  0.
   -5000001    1    1    2    0    0  0.36931550555E+02 -0.30424219957E+02 -0.63950342633E+02  0.11094241258E+03  0.77000000000E+02 0.  0.
<mgrwt>
<rscale>  0 0.18131905E+03</rscale>
<asrwt>0</asrwt>
<pdfrwt beam="1">  1        2 0.71694653E-02 0.18131905E+03</pdfrwt>
<pdfrwt beam="2">  1       -2 0.27133975E-01 0.18131905E+03</pdfrwt>
<totfact> 0.11530781E+04</totfact>
</mgrwt>
</event>
<event>
 4    1  0.1171488E-003  0.1711183E+03  0.7818608E-02  0.1176687E+00
          2   -1    0    0  501    0  0.00000000000E+00  0.00000000000E+00  0.48985086677E+03  0.48985086677E+03  0.25500000000E-02 0.  1.
         -2   -1    0    0    0  501 -0.00000000000E+00 -0.00000000000E+00 -0.14944079242E+02  0.14944079459E+02  0.25500000000E-02 0. -1.
    5000001    1    1    2    0    0  0.32661002360E+02  0.17672257641E+02  0.22709882642E+03  0.24265598432E+03  0.77000000000E+02 0.  0.
   -5000001    1    1    2    0    0 -0.32661002360E+02 -0.17672257641E+02  0.24780796111E+03  0.26213896192E+03  0.77000000000E+02 0.  0.
<mgrwt>
<rscale>  0 0.17111832E+03</rscale>
<asrwt>0</asrwt>
<pdfrwt beam="1">  1        2 0.75361673E-01 0.17111832E+03</pdfrwt>
<pdfrwt beam="2">  1       -2 0.22990891E-02 0.17111832E+03</pdfrwt>
<totfact> 0.38176450E+04</totfact>
</mgrwt>
</event>
<event>
 4    1  0.1171488E-003  0.3471798E+03  0.7818608E-02  0.1063779E+00
         -2   -1    0    0    0  501 -0.00000000000E+00  0.00000000000E+00  0.74951041617E+02  0.74951041661E+02  0.25500000000E-02 0. -1.
          2   -1    0    0  501    0  0.00000000000E+00 -0.00000000000E+00 -0.40204193740E+03  0.40204193741E+03  0.25500000000E-02 0.  1.
    5000001    1    1    2    0    0 -0.66755501721E+02 -0.75722313476E+02 -0.32619134883E+03  0.35002851572E+03  0.77000000000E+02 0.  0.
   -5000001    1    1    2    0    0  0.66755501721E+02  0.75722313476E+02 -0.89954695400E+00  0.12696446335E+03  0.77000000000E+02 0.  0.
<mgrwt>
<rscale>  0 0.34717985E+03</rscale>
<asrwt>0</asrwt>
<pdfrwt beam="1">  1        2 0.61852604E-01 0.34717985E+03</pdfrwt>
<pdfrwt beam="2">  1       -2 0.11530930E-01 0.34717985E+03</pdfrwt>
<totfact> 0.42011941E+03</totfact>
</mgrwt>
</event>
<event>
 4    1  0.1171488E-003  0.2149070E+03  0.7818608E-02  0.1137738E+00
          2   -1    0    0  501    0  0.00000000000E+00  0.00000000000E+00  0.11388836589E+04  0.11388836589E+04  0.25500000000E-02 0.  1.
         -2   -1    0    0    0  501 -0.00000000000E+00 -0.00000000000E+00 -0.10138222111E+02  0.10138222432E+02  0.25500000000E-02 0. -1.
    5000001    1    1    2    0    0  0.66328820645E+02  0.15194149896E+02  0.73233436404E+03  0.73950861753E+03  0.77000000000E+02 0.  0.
   -5000001    1    1    2    0    0 -0.66328820645E+02 -0.15194149896E+02  0.39641107278E+03  0.40951326384E+03  0.77000000000E+02 0.  0.
<mgrwt>
<rscale>  0 0.21490701E+03</rscale>
<asrwt>0</asrwt>
<pdfrwt beam="1">  1        2 0.17521292E+00 0.21490701E+03</pdfrwt>
<pdfrwt beam="2">  1       -2 0.15597260E-02 0.21490701E+03</pdfrwt>
<totfact> 0.23780080E+04</totfact>
</mgrwt>
</event>
<event>
 4    1  0.1171488E-003  0.2510280E+03  0.7818608E-02  0.1112657E+00
         -2   -1    0    0    0  501 -0.00000000000E+00  0.00000000000E+00  0.12446324323E+02  0.12446324584E+02  0.25500000000E-02 0. -1.
          2   -1    0    0  501    0  0.00000000000E+00 -0.00000000000E+00 -0.12657363048E+04  0.12657363049E+04  0.25500000000E-02 0.  1.
    5000001    1    1    2    0    0 -0.93955415325E+02 -0.31033010354E+02 -0.59691270116E+03  0.60993806293E+03  0.77000000000E+02 0.  0.
   -5000001    1    1    2    0    0  0.93955415325E+02  0.31033010354E+02 -0.65637727936E+03  0.66824456651E+03  0.77000000000E+02 0.  0.
<mgrwt>
<rscale>  0 0.25102800E+03</rscale>
<asrwt>0</asrwt>
<pdfrwt beam="1">  1        2 0.19472856E+00 0.25102800E+03</pdfrwt>
<pdfrwt beam="2">  1       -2 0.19148202E-02 0.25102800E+03</pdfrwt>
<totfact> 0.15045941E+04</totfact>
</mgrwt>
</event>
<event>
 4    1  0.1171488E-003  0.4334299E+03  0.7818608E-02  0.1032782E+00
         -2   -1    0    0    0  501 -0.00000000000E+00  0.00000000000E+00  0.37590315178E+02  0.37590315264E+02  0.25500000000E-02 0. -1.
          2   -1    0    0  501    0  0.00000000000E+00 -0.00000000000E+00 -0.12494009035E+04  0.12494009035E+04  0.25500000000E-02 0.  1.
    5000001    1    1    2    0    0  0.91162580325E+02 -0.17613919872E+03 -0.48345052224E+03  0.52819413176E+03  0.77000000000E+02 0.  0.
   -5000001    1    1    2    0    0 -0.91162580325E+02  0.17613919872E+03 -0.72836006612E+03  0.75879708704E+03  0.77000000000E+02 0.  0.
<mgrwt>
<rscale>  0 0.43342992E+03</rscale>
<asrwt>0</asrwt>
<pdfrwt beam="1">  1        2 0.19221549E+00 0.43342992E+03</pdfrwt>
<pdfrwt beam="2">  1       -2 0.57831264E-02 0.43342992E+03</pdfrwt>
<totfact> 0.29380999E+03</totfact>
</mgrwt>
</event>
<event>
 4    1  0.1171488E-003  0.5669724E+03  0.7818608E-02  0.9976401E-01
         -2   -1    0    0    0  501 -0.00000000000E+00  0.00000000000E+00  0.21084452231E+03  0.21084452233E+03  0.25500000000E-02 0. -1.
          2   -1    0    0  501    0  0.00000000000E+00 -0.00000000000E+00 -0.38115485024E+03  0.38115485024E+03  0.25500000000E-02 0.  1.
    5000001    1    1    2    0    0  0.65906168656E+02  0.21009450309E+03  0.83052401599E+02  0.24760861194E+03  0.77000000000E+02 0.  0.
   -5000001    1    1    2    0    0 -0.65906168656E+02 -0.21009450309E+03 -0.25336272952E+03  0.34439076063E+03  0.77000000000E+02 0.  0.
<mgrwt>
<rscale>  0 0.56697235E+03</rscale>
<asrwt>0</asrwt>
<pdfrwt beam="1">  1        2 0.58639208E-01 0.56697235E+03</pdfrwt>
<pdfrwt beam="2">  1       -2 0.32437619E-01 0.56697235E+03</pdfrwt>
<totfact> 0.74713374E+02</totfact>
</mgrwt>
</event>
<event>
 4    1  0.1171488E-003  0.2328902E+03  0.7818608E-02  0.1124622E+00
         -2   -1    0    0    0  501 -0.00000000000E+00  0.00000000000E+00  0.25901961588E+02  0.25901961714E+02  0.25500000000E-02 0. -1.
          2   -1    0    0  501    0  0.00000000000E+00 -0.00000000000E+00 -0.52349152403E+03  0.52349152404E+03  0.25500000000E-02 0.  1.
    5000001    1    1    2    0    0  0.25740177339E+02  0.82320466422E+02 -0.21617181982E+03  0.24514989620E+03  0.77000000000E+02 0.  0.
   -5000001    1    1    2    0    0 -0.25740177339E+02 -0.82320466422E+02 -0.28141774262E+03  0.30424358955E+03  0.77000000000E+02 0.  0.
<mgrwt>
<rscale>  0 0.23289017E+03</rscale>
<asrwt>0</asrwt>
<pdfrwt beam="1">  1        2 0.80537150E-01 0.23289017E+03</pdfrwt>
<pdfrwt beam="2">  1       -2 0.39849176E-02 0.23289017E+03</pdfrwt>
<totfact> 0.16063938E+04</totfact>
</mgrwt>
</event>
<event>
 4    1  0.1171488E-003  0.1826739E+03  0.7818608E-02  0.1165240E+00
          2   -1    0    0  501    0  0.00000000000E+00  0.00000000000E+00  0.60003298017E+03  0.60003298018E+03  0.25500000000E-02 0.  1.
         -2   -1    0    0    0  501 -0.00000000000E+00 -0.00000000000E+00 -0.13903302091E+02  0.13903302325E+02  0.25500000000E-02 0. -1.
    5000001    1    1    2    0    0  0.40099401821E+02  0.53371344215E+01  0.38674664797E+03  0.39640688282E+03  0.77000000000E+02 0.  0.
   -5000001    1    1    2    0    0 -0.40099401821E+02 -0.53371344215E+01  0.19938303011E+03  0.21752939968E+03  0.77000000000E+02 0.  0.
<mgrwt>
<rscale>  0 0.18267392E+03</rscale>
<asrwt>0</asrwt>
<pdfrwt beam="1">  1        2 0.92312784E-01 0.18267392E+03</pdfrwt>
<pdfrwt beam="2">  1       -2 0.21389692E-02 0.18267392E+03</pdfrwt>
<totfact> 0.33976433E+04</totfact>
</mgrwt>
</event>
<event>
 4    1  0.1171488E-003  0.3692985E+03  0.7818608E-02  0.1054962E+00
         -2   -1    0    0    0  501 -0.00000000000E+00  0.00000000000E+00  0.20275640806E+03  0.20275640808E+03  0.25500000000E-02 0. -1.
          2   -1    0    0  501    0  0.00000000000E+00 -0.00000000000E+00 -0.16815917793E+03  0.16815917795E+03  0.25500000000E-02 0.  1.
    5000001    1    1    2    0    0 -0.44017075488E+02 -0.16072543284E+03  0.37290122245E+02  0.18732250509E+03  0.77000000000E+02 0.  0.
   -5000001    1    1    2    0    0  0.44017075488E+02  0.16072543284E+03 -0.26928921143E+01  0.18359308093E+03  0.77000000000E+02 0.  0.
<mgrwt>
<rscale>  0 0.36929853E+03</rscale>
<asrwt>0</asrwt>
<pdfrwt beam="1">  1        2 0.25870643E-01 0.36929853E+03</pdfrwt>
<pdfrwt beam="2">  1       -2 0.31193294E-01 0.36929853E+03</pdfrwt>
<totfact> 0.19813132E+03</totfact>
</mgrwt>
</event>
<event>
 4    1  0.1171488E-003  0.2617082E+03  0.7818608E-02  0.1106121E+00
          2   -1    0    0  501    0  0.00000000000E+00  0.00000000000E+00  0.30416637038E+03  0.30416637039E+03  0.25500000000E-02 0.  1.
         -2   -1    0    0    0  501 -0.00000000000E+00 -0.00000000000E+00 -0.56294171114E+02  0.56294171172E+02  0.25500000000E-02 0. -1.
    5000001    1    1    2    0    0  0.71541010230E+02  0.71673352473E+02  0.81739002550E+02  0.15121326045E+03  0.77000000000E+02 0.  0.
   -5000001    1    1    2    0    0 -0.71541010230E+02 -0.71673352473E+02  0.16613319671E+03  0.20924728110E+03  0.77000000000E+02 0.  0.
<mgrwt>
<rscale>  0 0.26170819E+03</rscale>
<asrwt>0</asrwt>
<pdfrwt beam="1">  1        2 0.46794827E-01 0.26170819E+03</pdfrwt>
<pdfrwt beam="2">  1       -2 0.86606416E-02 0.26170819E+03</pdfrwt>
<totfact> 0.88901109E+03</totfact>
</mgrwt>
</event>
<event>
 4    1  0.1171488E-003  0.3468929E+03  0.7818608E-02  0.1063898E+00
         -2   -1    0    0    0  501 -0.00000000000E+00  0.00000000000E+00  0.30818507095E+02  0.30818507201E+02  0.25500000000E-02 0. -1.
          2   -1    0    0  501    0  0.00000000000E+00 -0.00000000000E+00 -0.97615603101E+03  0.97615603102E+03  0.25500000000E-02 0.  1.
    5000001    1    1    2    0    0 -0.13894197776E+03 -0.62848410265E+02 -0.38558957773E+03  0.42173821064E+03  0.77000000000E+02 0.  0.
   -5000001    1    1    2    0    0  0.13894197776E+03  0.62848410265E+02 -0.55974794619E+03  0.58523632758E+03  0.77000000000E+02 0.  0.
<mgrwt>
<rscale>  0 0.34689290E+03</rscale>
<asrwt>0</asrwt>
<pdfrwt beam="1">  1        2 0.15017783E+00 0.34689290E+03</pdfrwt>
<pdfrwt beam="2">  1       -2 0.47413095E-02 0.34689290E+03</pdfrwt>
<totfact> 0.57915863E+03</totfact>
</mgrwt>
</event>
<event>
 4    1  0.1171488E-003  0.2311482E+03  0.7818608E-02  0.1125834E+00
         -2   -1    0    0    0  501 -0.00000000000E+00  0.00000000000E+00  0.10313032217E+03  0.10313032220E+03  0.25500000000E-02 0. -1.
          2   -1    0    0  501    0  0.00000000000E+00 -0.00000000000E+00 -0.12951938179E+03  0.12951938181E+03  0.25500000000E-02 0.  1.
    5000001    1    1    2    0    0  0.77383819025E+02 -0.36999555313E+02 -0.47045108246E+01  0.11536184362E+03  0.77000000000E+02 0.  0.
   -5000001    1    1    2    0    0 -0.77383819025E+02  0.36999555313E+02 -0.21684548793E+02  0.11728786040E+03  0.77000000000E+02 0.  0.
<mgrwt>
<rscale>  0 0.23114823E+03</rscale>
<asrwt>0</asrwt>
<pdfrwt beam="1">  1        2 0.19926059E-01 0.23114823E+03</pdfrwt>
<pdfrwt beam="2">  1       -2 0.15866203E-01 0.23114823E+03</pdfrwt>
<totfact> 0.85179113E+03</totfact>
</mgrwt>
</event>
<event>
 4    1  0.1171488E-003  0.2275496E+03  0.7818608E-02  0.1128376E+00
          2   -1    0    0  501    0  0.00000000000E+00  0.00000000000E+00  0.11103248265E+03  0.11103248268E+03  0.25500000000E-02 0.  1.
         -2   -1    0    0    0  501 -0.00000000000E+00 -0.00000000000E+00 -0.11658486642E+03  0.11658486645E+03  0.25500000000E-02 0. -1.
    5000001    1    1    2    0    0  0.41213916783E+02 -0.71752850003E+02 -0.15766540523E+02  0.11412555463E+03  0.77000000000E+02 0.  0.
   -5000001    1    1    2    0    0 -0.41213916783E+02  0.71752850003E+02  0.10214156754E+02  0.11349179450E+03  0.77000000000E+02 0.  0.
<mgrwt>
<rscale>  0 0.22754962E+03</rscale>
<asrwt>0</asrwt>
<pdfrwt beam="1">  1        2 0.17081920E-01 0.22754962E+03</pdfrwt>
<pdfrwt beam="2">  1       -2 0.17936133E-01 0.22754962E+03</pdfrwt>
<totfact> 0.82823485E+03</totfact>
</mgrwt>
</event>
<event>
 4    1  0.1171488E-003  0.2135901E+03  0.7818608E-02  0.1138754E+00
         -2   -1    0    0    0  501 -0.00000000000E+00  0.00000000000E+00  0.38839979104E+02  0.38839979188E+02  0.25500000000E-02 0. -1.
          2   -1    0    0  501    0  0.00000000000E+00 -0.00000000000E+00 -0.29364533744E+03  0.29364533745E+03  0.25500000000E-02 0.  1.
    5000001    1    1    2    0    0  0.59069726024E+01 -0.70047113715E+02 -0.91407712560E+02  0.13865734882E+03  0.77000000000E+02 0.  0.
   -5000001    1    1    2    0    0 -0.59069726024E+01  0.70047113715E+02 -0.16339764578E+03  0.19382796782E+03  0.77000000000E+02 0.  0.
<mgrwt>
<rscale>  0 0.21359006E+03</rscale>
<asrwt>0</asrwt>
<pdfrwt beam="1">  1        2 0.45176204E-01 0.21359006E+03</pdfrwt>
<pdfrwt beam="2">  1       -2 0.59753816E-02 0.21359006E+03</pdfrwt>
<totfact> 0.16220663E+04</totfact>
</mgrwt>
</event>
<event>
 4    1  0.1171488E-003  0.1948856E+03  0.7818608E-02  0.1154127E+00
          2   -1    0    0  501    0  0.00000000000E+00  0.00000000000E+00  0.17201248998E+03  0.17201249000E+03  0.25500000000E-02 0.  1.
         -2   -1    0    0    0  501 -0.00000000000E+00 -0.00000000000E+00 -0.55200041790E+02  0.55200041848E+02  0.25500000000E-02 0. -1.
    5000001    1    1    2    0    0  0.39087668791E+02  0.42526047335E+02  0.40733053939E+02  0.10452029581E+03  0.77000000000E+02 0.  0.
   -5000001    1    1    2    0    0 -0.39087668791E+02 -0.42526047335E+02  0.76079394249E+02  0.12269223603E+03  0.77000000000E+02 0.  0.
<mgrwt>
<rscale>  0 0.19488557E+03</rscale>
<asrwt>0</asrwt>
<pdfrwt beam="1">  1        2 0.26463459E-01 0.19488557E+03</pdfrwt>
<pdfrwt beam="2">  1       -2 0.84923143E-02 0.19488557E+03</pdfrwt>
<totfact> 0.16717256E+04</totfact>
</mgrwt>
</event>
<event>
 4    1  0.1171488E-003  0.2088643E+03  0.7818608E-02  0.1142468E+00
          2   -1    0    0  501    0  0.00000000000E+00  0.00000000000E+00  0.91134986266E+03  0.91134986266E+03  0.25500000000E-02 0.  1.
         -2   -1    0    0    0  501 -0.00000000000E+00 -0.00000000000E+00 -0.11966946999E+02  0.11966947271E+02  0.25500000000E-02 0. -1.
    5000001    1    1    2    0    0  0.39880824941E+02 -0.31835704173E+01  0.70656378415E+03  0.71187217700E+03  0.77000000000E+02 0.  0.
   -5000001    1    1    2    0    0 -0.39880824941E+02  0.31835704173E+01  0.19281913151E+03  0.21144463293E+03  0.77000000000E+02 0.  0.
<mgrwt>
<rscale>  0 0.20886432E+03</rscale>
<asrwt>0</asrwt>
<pdfrwt beam="1">  1        2 0.14020763E+00 0.20886432E+03</pdfrwt>
<pdfrwt beam="2">  1       -2 0.18410693E-02 0.20886432E+03</pdfrwt>
<totfact> 0.25552545E+04</totfact>
</mgrwt>
</event>
<event>
 4    1  0.1171488E-003  0.3660529E+03  0.7818608E-02  0.1056213E+00
          2   -1    0    0  501    0  0.00000000000E+00  0.00000000000E+00  0.89012469163E+03  0.89012469164E+03  0.25500000000E-02 0.  1.
         -2   -1    0    0    0  501 -0.00000000000E+00 -0.00000000000E+00 -0.37633699378E+02  0.37633699464E+02  0.25500000000E-02 0. -1.
    5000001    1    1    2    0    0 -0.14942897323E+01 -0.16595849905E+03  0.41351517943E+03  0.45218166695E+03  0.77000000000E+02 0.  0.
   -5000001    1    1    2    0    0  0.14942897323E+01  0.16595849905E+03  0.43897581283E+03  0.47557672415E+03  0.77000000000E+02 0.  0.
<mgrwt>
<rscale>  0 0.36605292E+03</rscale>
<asrwt>0</asrwt>
<pdfrwt beam="1">  1        2 0.13694226E+00 0.36605292E+03</pdfrwt>
<pdfrwt beam="2">  1       -2 0.57898000E-02 0.36605292E+03</pdfrwt>
<totfact> 0.48437540E+03</totfact>
</mgrwt>
</event>
<event>
 4    1  0.1171488E-003  0.3035663E+03  0.7818608E-02  0.1083471E+00
         -2   -1    0    0    0  501 -0.00000000000E+00  0.00000000000E+00  0.26320104397E+02  0.26320104520E+02  0.25500000000E-02 0. -1.
          2   -1    0    0  501    0  0.00000000000E+00 -0.00000000000E+00 -0.87530523380E+03  0.87530523381E+03  0.25500000000E-02 0.  1.
    5000001    1    1    2    0    0 -0.83906503332E+02 -0.76213698627E+02 -0.61835445105E+03  0.63335618438E+03  0.77000000000E+02 0.  0.
   -5000001    1    1    2    0    0  0.83906503332E+02  0.76213698627E+02 -0.23063067836E+03  0.26826915395E+03  0.77000000000E+02 0.  0.
<mgrwt>
<rscale>  0 0.30356630E+03</rscale>
<asrwt>0</asrwt>
<pdfrwt beam="1">  1        2 0.13466232E+00 0.30356630E+03</pdfrwt>
<pdfrwt beam="2">  1       -2 0.40492475E-02 0.30356630E+03</pdfrwt>
<totfact> 0.85164107E+03</totfact>
</mgrwt>
</event>
<event>
 4    1  0.1171488E-003  0.2006085E+03  0.7818608E-02  0.1149227E+00
          2   -1    0    0  501    0  0.00000000000E+00  0.00000000000E+00  0.12525831311E+04  0.12525831311E+04  0.25500000000E-02 0.  1.
         -2   -1    0    0    0  501 -0.00000000000E+00 -0.00000000000E+00 -0.80321583313E+01  0.80321587361E+01  0.25500000000E-02 0. -1.
    5000001    1    1    2    0    0  0.47663936756E+02  0.29658548610E+02  0.42550977959E+03  0.43604936980E+03  0.77000000000E+02 0.  0.
   -5000001    1    1    2    0    0 -0.47663936756E+02 -0.29658548610E+02  0.81904119320E+03  0.82456592007E+03  0.77000000000E+02 0.  0.
<mgrwt>
<rscale>  0 0.20060854E+03</rscale>
<asrwt>0</asrwt>
<pdfrwt beam="1">  1        2 0.19270509E+00 0.20060854E+03</pdfrwt>
<pdfrwt beam="2">  1       -2 0.12357167E-02 0.20060854E+03</pdfrwt>
<totfact> 0.28655156E+04</totfact>
</mgrwt>
</event>
<event>
 4    1  0.1171488E-003  0.2439446E+03  0.7818608E-02  0.1117193E+00
          2   -1    0    0  501    0  0.00000000000E+00  0.00000000000E+00  0.43648189739E+03  0.43648189740E+03  0.25500000000E-02 0.  1.
         -2   -1    0    0    0  501 -0.00000000000E+00 -0.00000000000E+00 -0.34084448819E+02  0.34084448914E+02  0.25500000000E-02 0. -1.
    5000001    1    1    2    0    0  0.51220995198E+02  0.79348923184E+02  0.21147915681E+03  0.24407432418E+03  0.77000000000E+02 0.  0.
   -5000001    1    1    2    0    0 -0.51220995198E+02 -0.79348923184E+02  0.19091829176E+03  0.22649202213E+03  0.77000000000E+02 0.  0.
<mgrwt>
<rscale>  0 0.24394462E+03</rscale>
<asrwt>0</asrwt>
<pdfrwt beam="1">  1        2 0.67151058E-01 0.24394462E+03</pdfrwt>
<pdfrwt beam="2">  1       -2 0.52437616E-02 0.24394462E+03</pdfrwt>
<totfact> 0.13011788E+04</totfact>
</mgrwt>
</event>
<event>
 4    1  0.1171488E-003  0.1747870E+03  0.7818608E-02  0.1172946E+00
         -2   -1    0    0    0  501 -0.00000000000E+00  0.00000000000E+00  0.15503376895E+02  0.15503377105E+02  0.25500000000E-02 0. -1.
          2   -1    0    0  501    0  0.00000000000E+00 -0.00000000000E+00 -0.49264266026E+03  0.49264266027E+03  0.25500000000E-02 0.  1.
    5000001    1    1    2    0    0  0.24130793578E+02  0.31641544775E+02 -0.20604732188E+03  0.22353519054E+03  0.77000000000E+02 0.  0.
   -5000001    1    1    2    0    0 -0.24130793578E+02 -0.31641544775E+02 -0.27109196149E+03  0.28461084684E+03  0.77000000000E+02 0.  0.
<mgrwt>
<rscale>  0 0.17478701E+03</rscale>
<asrwt>0</asrwt>
<pdfrwt beam="1">  1        2 0.75791166E-01 0.17478701E+03</pdfrwt>
<pdfrwt beam="2">  1       -2 0.23851353E-02 0.17478701E+03</pdfrwt>
<totfact> 0.36018971E+04</totfact>
</mgrwt>
</event>
<event>
 4    1  0.1171488E-003  0.3980115E+03  0.7818608E-02  0.1044470E+00
         -2   -1    0    0    0  501 -0.00000000000E+00  0.00000000000E+00  0.65697214208E+03  0.65697214209E+03  0.25500000000E-02 0. -1.
          2   -1    0    0  501    0  0.00000000000E+00 -0.00000000000E+00 -0.60281525994E+02  0.60281526048E+02  0.25500000000E-02 0.  1.
    5000001    1    1    2    0    0  0.12816290844E+03 -0.12284818854E+03  0.38203840713E+03  0.42825197379E+03  0.77000000000E+02 0.  0.
   -5000001    1    1    2    0    0 -0.12816290844E+03  0.12284818854E+03  0.21465220896E+03  0.28900169435E+03  0.77000000000E+02 0.  0.
<mgrwt>
<rscale>  0 0.39801147E+03</rscale>
<asrwt>0</asrwt>
<pdfrwt beam="1">  1        2 0.92740813E-02 0.39801147E+03</pdfrwt>
<pdfrwt beam="2">  1       -2 0.10107263E+00 0.39801147E+03</pdfrwt>
<totfact> 0.59285270E+02</totfact>
</mgrwt>
</event>
<event>
 4    1  0.1171488E-003  0.3703287E+03  0.7818608E-02  0.1054567E+00
          2   -1    0    0  501    0  0.00000000000E+00  0.00000000000E+00  0.10133777121E+04  0.10133777121E+04  0.25500000000E-02 0.  1.
         -2   -1    0    0    0  501 -0.00000000000E+00 -0.00000000000E+00 -0.33833229997E+02  0.33833230093E+02  0.25500000000E-02 0. -1.
    5000001    1    1    2    0    0 -0.92493150710E+02  0.42113214182E+02  0.86945824362E+03  0.87875772721E+03  0.77000000000E+02 0.  0.
   -5000001    1    1    2    0    0  0.92493150710E+02 -0.42113214182E+02  0.11008623850E+03  0.16845321500E+03  0.77000000000E+02 0.  0.
<mgrwt>
<rscale>  0 0.37032873E+03</rscale>
<asrwt>0</asrwt>
<pdfrwt beam="1">  1        2 0.15590423E+00 0.37032873E+03</pdfrwt>
<pdfrwt beam="2">  1       -2 0.52051134E-02 0.37032873E+03</pdfrwt>
<totfact> 0.47643774E+03</totfact>
</mgrwt>
</event>
<event>
 4    1  0.1171488E-003  0.1917253E+03  0.7818608E-02  0.1156914E+00
         -2   -1    0    0    0  501 -0.00000000000E+00  0.00000000000E+00  0.10077086366E+02  0.10077086689E+02  0.25500000000E-02 0. -1.
          2   -1    0    0  501    0  0.00000000000E+00 -0.00000000000E+00 -0.91193454109E+03  0.91193454109E+03  0.25500000000E-02 0.  1.
    5000001    1    1    2    0    0  0.16887417846E+02 -0.42131617985E+02 -0.28431246588E+03  0.29803160298E+03  0.77000000000E+02 0.  0.
   -5000001    1    1    2    0    0 -0.16887417846E+02  0.42131617985E+02 -0.61754498883E+03  0.62398002480E+03  0.77000000000E+02 0.  0.
<mgrwt>
<rscale>  0 0.19172525E+03</rscale>
<asrwt>0</asrwt>
<pdfrwt beam="1">  1        2 0.14029756E+00 0.19172525E+03</pdfrwt>
<pdfrwt beam="2">  1       -2 0.15503217E-02 0.19172525E+03</pdfrwt>
<totfact> 0.32605418E+04</totfact>
</mgrwt>
</event>
<event>
 4    1  0.1171488E-003  0.2151253E+03  0.7818608E-02  0.1137570E+00
         -2   -1    0    0    0  501 -0.00000000000E+00  0.00000000000E+00  0.79826476797E+01  0.79826480870E+01  0.25500000000E-02 0. -1.
          2   -1    0    0  501    0  0.00000000000E+00 -0.00000000000E+00 -0.14493594096E+04  0.14493594096E+04  0.25500000000E-02 0.  1.
    5000001    1    1    2    0    0  0.68765859357E+02  0.13138711410E+01 -0.92507468080E+03  0.93081826085E+03  0.77000000000E+02 0.  0.
   -5000001    1    1    2    0    0 -0.68765859357E+02 -0.13138711410E+01 -0.51630208108E+03  0.52652379680E+03  0.77000000000E+02 0.  0.
<mgrwt>
<rscale>  0 0.21512532E+03</rscale>
<asrwt>0</asrwt>
<pdfrwt beam="1">  1        2 0.22297816E+00 0.21512532E+03</pdfrwt>
<pdfrwt beam="2">  1       -2 0.12281008E-02 0.21512532E+03</pdfrwt>
<totfact> 0.22691872E+04</totfact>
</mgrwt>
</event>
<event>
 4    1  0.1171488E-003  0.1973755E+03  0.7818608E-02  0.1151972E+00
         -2   -1    0    0    0  501 -0.00000000000E+00  0.00000000000E+00  0.17770873151E+02  0.17770873334E+02  0.25500000000E-02 0. -1.
          2   -1    0    0  501    0  0.00000000000E+00 -0.00000000000E+00 -0.54804702884E+03  0.54804702885E+03  0.25500000000E-02 0.  1.
    5000001    1    1    2    0    0  0.41661027843E+02  0.40094898653E+02 -0.32709028404E+03  0.34096964095E+03  0.77000000000E+02 0.  0.
   -5000001    1    1    2    0    0 -0.41661027843E+02 -0.40094898653E+02 -0.20318587165E+03  0.22484826123E+03  0.77000000000E+02 0.  0.
<mgrwt>
<rscale>  0 0.19737552E+03</rscale>
<asrwt>0</asrwt>
<pdfrwt beam="1">  1        2 0.84314915E-01 0.19737552E+03</pdfrwt>
<pdfrwt beam="2">  1       -2 0.27339809E-02 0.19737552E+03</pdfrwt>
<totfact> 0.26428355E+04</totfact>
</mgrwt>
</event>
<event>
 4    1  0.1171488E-003  0.2070734E+03  0.7818608E-02  0.1143905E+00
         -2   -1    0    0    0  501 -0.00000000000E+00  0.00000000000E+00  0.93911311429E+01  0.93911314891E+01  0.25500000000E-02 0. -1.
          2   -1    0    0  501    0  0.00000000000E+00 -0.00000000000E+00 -0.11414859901E+04  0.11414859901E+04  0.25500000000E-02 0.  1.
    5000001    1    1    2    0    0 -0.26284938980E+02 -0.60285582589E+02 -0.68597223621E+03  0.69340620010E+03  0.77000000000E+02 0.  0.
   -5000001    1    1    2    0    0  0.26284938980E+02  0.60285582589E+02 -0.44612262278E+03  0.45747092153E+03  0.77000000000E+02 0.  0.
<mgrwt>
<rscale>  0 0.20707337E+03</rscale>
<asrwt>0</asrwt>
<pdfrwt beam="1">  1        2 0.17561312E+00 0.20707337E+03</pdfrwt>
<pdfrwt beam="2">  1       -2 0.14447903E-02 0.20707337E+03</pdfrwt>
<totfact> 0.26433165E+04</totfact>
</mgrwt>
</event>
<event>
 4    1  0.1171488E-003  0.2200572E+03  0.7818608E-02  0.1133840E+00
          2   -1    0    0  501    0  0.00000000000E+00  0.00000000000E+00  0.91293690390E+03  0.91293690391E+03  0.25500000000E-02 0.  1.
         -2   -1    0    0    0  501 -0.00000000000E+00 -0.00000000000E+00 -0.13260815976E+02  0.13260816222E+02  0.25500000000E-02 0. -1.
    5000001    1    1    2    0    0  0.45787337146E+02 -0.59334401374E+02  0.35021631262E+03  0.36632979275E+03  0.77000000000E+02 0.  0.
   -5000001    1    1    2    0    0 -0.45787337146E+02  0.59334401374E+02  0.54945977530E+03  0.55986792738E+03  0.77000000000E+02 0.  0.
<mgrwt>
<rscale>  0 0.22005716E+03</rscale>
<asrwt>0</asrwt>
<pdfrwt beam="1">  1        2 0.14045176E+00 0.22005716E+03</pdfrwt>
<pdfrwt beam="2">  1       -2 0.20401266E-02 0.22005716E+03</pdfrwt>
<totfact> 0.22006462E+04</totfact>
</mgrwt>
</event>
<event>
 4    1  0.1171488E-003  0.6625927E+03  0.7818608E-02  0.9783433E-01
         -2   -1    0    0    0  501 -0.00000000000E+00  0.00000000000E+00  0.60202541697E+02  0.60202541751E+02  0.25500000000E-02 0. -1.
          2   -1    0    0  501    0  0.00000000000E+00 -0.00000000000E+00 -0.18231334722E+04  0.18231334722E+04  0.25500000000E-02 0.  1.
    5000001    1    1    2    0    0  0.20346452024E+02 -0.20869340125E+03 -0.15768970982E+04  0.15926394357E+04  0.77000000000E+02 0.  0.
   -5000001    1    1    2    0    0 -0.20346452024E+02  0.20869340125E+03 -0.18603383226E+03  0.29069657820E+03  0.77000000000E+02 0.  0.
<mgrwt>
<rscale>  0 0.66259269E+03</rscale>
<asrwt>0</asrwt>
<pdfrwt beam="1">  1        2 0.28048203E+00 0.66259269E+03</pdfrwt>
<pdfrwt beam="2">  1       -2 0.92619309E-02 0.66259269E+03</pdfrwt>
<totfact> 0.66728473E+02</totfact>
</mgrwt>
</event>
<event>
 4    1  0.1171488E-003  0.2089897E+03  0.7818608E-02  0.1142369E+00
          2   -1    0    0  501    0  0.00000000000E+00  0.00000000000E+00  0.13097064374E+04  0.13097064374E+04  0.25500000000E-02 0.  1.
         -2   -1    0    0    0  501 -0.00000000000E+00 -0.00000000000E+00 -0.83371125732E+01  0.83371129632E+01  0.25500000000E-02 0. -1.
    5000001    1    1    2    0    0  0.44387503072E+02 -0.51171232435E+02  0.77704391533E+03  0.78378249012E+03  0.77000000000E+02 0.  0.
   -5000001    1    1    2    0    0 -0.44387503072E+02  0.51171232435E+02  0.52432540953E+03  0.53426106028E+03  0.77000000000E+02 0.  0.
<mgrwt>
<rscale>  0 0.20898967E+03</rscale>
<asrwt>0</asrwt>
<pdfrwt beam="1">  1        2 0.20149332E+00 0.20898967E+03</pdfrwt>
<pdfrwt beam="2">  1       -2 0.12826326E-02 0.20898967E+03</pdfrwt>
<totfact> 0.25312069E+04</totfact>
</mgrwt>
</event>
<event>
 4    1  0.1171488E-003  0.2061214E+03  0.7818608E-02  0.1144675E+00
          2   -1    0    0  501    0  0.00000000000E+00  0.00000000000E+00  0.22802348687E+03  0.22802348688E+03  0.25500000000E-02 0.  1.
         -2   -1    0    0    0  501 -0.00000000000E+00 -0.00000000000E+00 -0.46580775697E+02  0.46580775766E+02  0.25500000000E-02 0. -1.
    5000001    1    1    2    0    0 -0.22217993005E+02  0.21672310998E+02  0.93650993640E+01  0.83546593966E+02  0.77000000000E+02 0.  0.
   -5000001    1    1    2    0    0  0.22217993005E+02 -0.21672310998E+02  0.17207761180E+03  0.19105766868E+03  0.77000000000E+02 0.  0.
<mgrwt>
<rscale>  0 0.20612143E+03</rscale>
<asrwt>0</asrwt>
<pdfrwt beam="1">  1        2 0.35080537E-01 0.20612143E+03</pdfrwt>
<pdfrwt beam="2">  1       -2 0.71662732E-02 0.20612143E+03</pdfrwt>
<totfact> 0.16061018E+04</totfact>
</mgrwt>
</event>
<event>
 4    1  0.1171488E-003  0.3414670E+03  0.7818608E-02  0.1066173E+00
          2   -1    0    0  501    0  0.00000000000E+00  0.00000000000E+00  0.10799001157E+04  0.10799001157E+04  0.25500000000E-02 0.  1.
         -2   -1    0    0    0  501 -0.00000000000E+00 -0.00000000000E+00 -0.26993168662E+02  0.26993168783E+02  0.25500000000E-02 0. -1.
    5000001    1    1    2    0    0  0.98359326446E+02  0.12275080031E+02  0.15127354660E+03  0.19656530871E+03  0.77000000000E+02 0.  0.
   -5000001    1    1    2    0    0 -0.98359326446E+02 -0.12275080031E+02  0.90163340040E+03  0.91032797574E+03  0.77000000000E+02 0.  0.
<mgrwt>
<rscale>  0 0.34146699E+03</rscale>
<asrwt>0</asrwt>
<pdfrwt beam="1">  1        2 0.16613846E+00 0.34146699E+03</pdfrwt>
<pdfrwt beam="2">  1       -2 0.41527958E-02 0.34146699E+03</pdfrwt>
<totfact> 0.61212402E+03</totfact>
</mgrwt>
</event>
<event>
 4    1  0.1171488E-003  0.2351829E+03  0.7818608E-02  0.1123044E+00
         -2   -1    0    0    0  501 -0.00000000000E+00  0.00000000000E+00  0.12933014794E+02  0.12933015046E+02  0.25500000000E-02 0. -1.
          2   -1    0    0  501    0  0.00000000000E+00 -0.00000000000E+00 -0.10691825561E+04  0.10691825561E+04  0.25500000000E-02 0.  1.
    5000001    1    1    2    0    0  0.49251855194E+02  0.12783424783E+02 -0.86339765867E+03  0.86831657717E+03  0.77000000000E+02 0.  0.
   -5000001    1    1    2    0    0 -0.49251855194E+02 -0.12783424783E+02 -0.19285188260E+03  0.21379899394E+03  0.77000000000E+02 0.  0.
<mgrwt>
<rscale>  0 0.23518294E+03</rscale>
<asrwt>0</asrwt>
<pdfrwt beam="1">  1        2 0.16448955E+00 0.23518294E+03</pdfrwt>
<pdfrwt beam="2">  1       -2 0.19896954E-02 0.23518294E+03</pdfrwt>
<totfact> 0.18379217E+04</totfact>
</mgrwt>
</event>
<event>
 4    1  0.1171488E-003  0.2729351E+03  0.7818608E-02  0.1099611E+00
         -2   -1    0    0    0  501 -0.00000000000E+00  0.00000000000E+00  0.16710765852E+02  0.16710766046E+02  0.25500000000E-02 0. -1.
          2   -1    0    0  501    0  0.00000000000E+00 -0.00000000000E+00 -0.11144548571E+04  0.11144548571E+04  0.25500000000E-02 0.  1.
    5000001    1    1    2    0    0  0.60380788660E+02  0.94953898040E+02 -0.57243056296E+03  0.58844526662E+03  0.77000000000E+02 0.  0.
   -5000001    1    1    2    0    0 -0.60380788660E+02 -0.94953898040E+02 -0.52531352826E+03  0.54272035651E+03  0.77000000000E+02 0.  0.
<mgrwt>
<rscale>  0 0.27293512E+03</rscale>
<asrwt>0</asrwt>
<pdfrwt beam="1">  1        2 0.17145454E+00 0.27293512E+03</pdfrwt>
<pdfrwt beam="2">  1       -2 0.25708879E-02 0.27293512E+03</pdfrwt>
<totfact> 0.11917079E+04</totfact>
</mgrwt>
</event>
<event>
 4    1  0.1171488E-003  0.1852096E+03  0.7818608E-02  0.1162854E+00
          2   -1    0    0  501    0  0.00000000000E+00  0.00000000000E+00  0.33323584036E+03  0.33323584037E+03  0.25500000000E-02 0.  1.
         -2   -1    0    0    0  501 -0.00000000000E+00 -0.00000000000E+00 -0.25734477379E+02  0.25734477505E+02  0.25500000000E-02 0. -1.
    5000001    1    1    2    0    0 -0.20084155814E+02 -0.47070818136E+02  0.14356553166E+03  0.17076034995E+03  0.77000000000E+02 0.  0.
   -5000001    1    1    2    0    0  0.20084155814E+02  0.47070818136E+02  0.16393583133E+03  0.18820996793E+03  0.77000000000E+02 0.  0.
<mgrwt>
<rscale>  0 0.18520961E+03</rscale>
<asrwt>0</asrwt>
<pdfrwt beam="1">  1        2 0.51267053E-01 0.18520961E+03</pdfrwt>
<pdfrwt beam="2">  1       -2 0.39591503E-02 0.18520961E+03</pdfrwt>
<totfact> 0.26103952E+04</totfact>
</mgrwt>
</event>
<event>
 4    1  0.1171488E-003  0.2314321E+03  0.7818608E-02  0.1125636E+00
          2   -1    0    0  501    0  0.00000000000E+00  0.00000000000E+00  0.75301404345E+03  0.75301404345E+03  0.25500000000E-02 0.  1.
         -2   -1    0    0    0  501 -0.00000000000E+00 -0.00000000000E+00 -0.17782136449E+02  0.17782136632E+02  0.25500000000E-02 0. -1.
    5000001    1    1    2    0    0  0.48706637358E+02 -0.14442486552E+02  0.13494709002E+03  0.16346448864E+03  0.77000000000E+02 0.  0.
   -5000001    1    1    2    0    0 -0.48706637358E+02  0.14442486552E+02  0.60028481698E+03  0.60733169145E+03  0.77000000000E+02 0.  0.
<mgrwt>
<rscale>  0 0.23143205E+03</rscale>
<asrwt>0</asrwt>
<pdfrwt beam="1">  1        2 0.11584831E+00 0.23143205E+03</pdfrwt>
<pdfrwt beam="2">  1       -2 0.27357134E-02 0.23143205E+03</pdfrwt>
<totfact> 0.18351665E+04</totfact>
</mgrwt>
</event>
<event>
 4    1  0.1171488E-003  0.1946105E+03  0.7818608E-02  0.1154367E+00
         -2   -1    0    0    0  501 -0.00000000000E+00  0.00000000000E+00  0.51432493647E+02  0.51432493710E+02  0.25500000000E-02 0. -1.
          2   -1    0    0  501    0  0.00000000000E+00 -0.00000000000E+00 -0.18409199919E+03  0.18409199921E+03  0.25500000000E-02 0.  1.
    5000001    1    1    2    0    0 -0.29691037059E+02  0.40554232517E+02 -0.27808755662E+02  0.96065240062E+02  0.77000000000E+02 0.  0.
   -5000001    1    1    2    0    0  0.29691037059E+02 -0.40554232517E+02 -0.10485074988E+03  0.13945925286E+03  0.77000000000E+02 0.  0.
<mgrwt>
<rscale>  0 0.19461049E+03</rscale>
<asrwt>0</asrwt>
<pdfrwt beam="1">  1        2 0.28321846E-01 0.19461049E+03</pdfrwt>
<pdfrwt beam="2">  1       -2 0.79126915E-02 0.19461049E+03</pdfrwt>
<totfact> 0.17317295E+04</totfact>
</mgrwt>
</event>
<event>
 4    1  0.1171488E-003  0.1672624E+03  0.7818608E-02  0.1180733E+00
         -2   -1    0    0    0  501 -0.00000000000E+00  0.00000000000E+00  0.14666963413E+03  0.14666963415E+03  0.25500000000E-02 0. -1.
          2   -1    0    0  501    0  0.00000000000E+00 -0.00000000000E+00 -0.47686635758E+02  0.47686635826E+02  0.25500000000E-02 0.  1.
    5000001    1    1    2    0    0  0.29048184024E+02 -0.56267538076E+01  0.33486290736E+02  0.89026900546E+02  0.77000000000E+02 0.  0.
   -5000001    1    1    2    0    0 -0.29048184024E+02  0.56267538076E+01  0.65496707632E+02  0.10532936943E+03  0.77000000000E+02 0.  0.
<mgrwt>
<rscale>  0 0.16726245E+03</rscale>
<asrwt>0</asrwt>
<pdfrwt beam="1">  1        2 0.73364054E-02 0.16726245E+03</pdfrwt>
<pdfrwt beam="2">  1       -2 0.22564559E-01 0.16726245E+03</pdfrwt>
<totfact> 0.15362719E+04</totfact>
</mgrwt>
</event>
<event>
 4    1  0.1171488E-003  0.2083010E+03  0.7818608E-02  0.1142918E+00
          2   -1    0    0  501    0  0.00000000000E+00  0.00000000000E+00  0.48555584659E+03  0.48555584660E+03  0.25500000000E-02 0.  1.
         -2   -1    0    0    0  501 -0.00000000000E+00 -0.00000000000E+00 -0.22340024021E+02  0.22340024167E+02  0.25500000000E-02 0. -1.
    5000001    1    1    2    0    0 -0.10118763544E+02  0.43650706695E+02  0.36315196906E+03  0.37391994625E+03  0.77000000000E+02 0.  0.
   -5000001    1    1    2    0    0  0.10118763544E+02 -0.43650706695E+02  0.10006385351E+03  0.13397592452E+03  0.77000000000E+02 0.  0.
<mgrwt>
<rscale>  0 0.20830103E+03</rscale>
<asrwt>0</asrwt>
<pdfrwt beam="1">  1        2 0.74700901E-01 0.20830103E+03</pdfrwt>
<pdfrwt beam="2">  1       -2 0.34369267E-02 0.20830103E+03</pdfrwt>
<totfact> 0.21637514E+04</totfact>
</mgrwt>
</event>
<event>
 4    1  0.1171488E-003  0.2331934E+03  0.7818608E-02  0.1124412E+00
          2   -1    0    0  501    0  0.00000000000E+00  0.00000000000E+00  0.10805175210E+04  0.10805175210E+04  0.25500000000E-02 0.  1.
         -2   -1    0    0    0  501 -0.00000000000E+00 -0.00000000000E+00 -0.12581742101E+02  0.12581742359E+02  0.25500000000E-02 0. -1.
    5000001    1    1    2    0    0  0.80168289749E+02 -0.17129516821E+02  0.38983761360E+03  0.40573727954E+03  0.77000000000E+02 0.  0.
   -5000001    1    1    2    0    0 -0.80168289749E+02  0.17129516821E+02  0.67809816531E+03  0.68736198384E+03  0.77000000000E+02 0.  0.
<mgrwt>
<rscale>  0 0.23319342E+03</rscale>
<asrwt>0</asrwt>
<pdfrwt beam="1">  1        2 0.16623346E+00 0.23319342E+03</pdfrwt>
<pdfrwt beam="2">  1       -2 0.19356527E-02 0.23319342E+03</pdfrwt>
<totfact> 0.18836475E+04</totfact>
</mgrwt>
</event>
<event>
 4    1  0.1171488E-003  0.2375692E+03  0.7818608E-02  0.1121423E+00
          2   -1    0    0  501    0  0.00000000000E+00  0.00000000000E+00  0.41683002060E+03  0.41683002061E+03  0.25500000000E-02 0. -1.
         -2   -1    0    0    0  501 -0.00000000000E+00 -0.00000000000E+00 -0.33850195240E+02  0.33850195336E+02  0.25500000000E-02 0.  1.
    5000001    1    1    2    0    0  0.76143218151E+02  0.48683231778E+02  0.18466821632E+03  0.21954315486E+03  0.77000000000E+02 0.  0.
   -5000001    1    1    2    0    0 -0.76143218151E+02 -0.48683231778E+02  0.19831160904E+03  0.23113706108E+03  0.77000000000E+02 0.  0.
<mgrwt>
<rscale>  0 0.23756917E+03</rscale>
<asrwt>0</asrwt>
<pdfrwt beam="1">  1        2 0.64127696E-01 0.23756917E+03</pdfrwt>
<pdfrwt beam="2">  1       -2 0.52077223E-02 0.23756917E+03</pdfrwt>
<totfact> 0.13807687E+04</totfact>
</mgrwt>
</event>
<event>
 4    1  0.1171488E-003  0.2799181E+03  0.7818608E-02  0.1095734E+00
          2   -1    0    0  501    0  0.00000000000E+00  0.00000000000E+00  0.65819443834E+03  0.65819443834E+03  0.25500000000E-02 0.  1.
         -2   -1    0    0    0  501 -0.00000000000E+00 -0.00000000000E+00 -0.29761016335E+02  0.29761016444E+02  0.25500000000E-02 0. -1.
    5000001    1    1    2    0    0  0.10920214665E+03 -0.35295432437E+02  0.36854578822E+03  0.39360624284E+03  0.77000000000E+02 0.  0.
   -5000001    1    1    2    0    0 -0.10920214665E+03  0.35295432437E+02  0.25988763378E+03  0.29434921195E+03  0.77000000000E+02 0.  0.
<mgrwt>
<rscale>  0 0.27991810E+03</rscale>
<asrwt>0</asrwt>
<pdfrwt beam="1">  1        2 0.10126068E+00 0.27991810E+03</pdfrwt>
<pdfrwt beam="2">  1       -2 0.45786179E-02 0.27991810E+03</pdfrwt>
<totfact> 0.10086895E+04</totfact>
</mgrwt>
</event>
<event>
 4    1  0.1171488E-003  0.3150089E+03  0.7818608E-02  0.1077970E+00
          2   -1    0    0  501    0  0.00000000000E+00  0.00000000000E+00  0.85621545440E+02  0.85621545478E+02  0.25500000000E-02 0.  1.
         -2   -1    0    0    0  501 -0.00000000000E+00 -0.00000000000E+00 -0.28973606951E+03  0.28973606952E+03  0.25500000000E-02 0. -1.
    5000001    1    1    2    0    0  0.10209552548E+03  0.87867470608E+02 -0.13435015038E+03  0.20523925458E+03  0.77000000000E+02 0.  0.
   -5000001    1    1    2    0    0 -0.10209552548E+03 -0.87867470608E+02 -0.69764373692E+02  0.17011836042E+03  0.77000000000E+02 0.  0.
<mgrwt>
<rscale>  0 0.31500889E+03</rscale>
<asrwt>0</asrwt>
<pdfrwt beam="1">  1        2 0.13172546E-01 0.31500889E+03</pdfrwt>
<pdfrwt beam="2">  1       -2 0.44574780E-01 0.31500889E+03</pdfrwt>
<totfact> 0.22043926E+03</totfact>
</mgrwt>
</event>
<event>
 4    1  0.1171488E-003  0.2102882E+03  0.7818608E-02  0.1141338E+00
          2   -1    0    0  501    0  0.00000000000E+00  0.00000000000E+00  0.40464557841E+03  0.40464557842E+03  0.25500000000E-02 0.  1.
         -2   -1    0    0    0  501 -0.00000000000E+00 -0.00000000000E+00 -0.27320903283E+02  0.27320903402E+02  0.25500000000E-02 0. -1.
    5000001    1    1    2    0    0 -0.34563685833E+02 -0.59084980168E+02  0.14554448568E+03  0.17831960232E+03  0.77000000000E+02 0.  0.
   -5000001    1    1    2    0    0  0.34563685833E+02  0.59084980168E+02  0.23178018945E+03  0.25364687950E+03  0.77000000000E+02 0.  0.
<mgrwt>
<rscale>  0 0.21028821E+03</rscale>
<asrwt>0</asrwt>
<pdfrwt beam="1">  1        2 0.62253163E-01 0.21028821E+03</pdfrwt>
<pdfrwt beam="2">  1       -2 0.42032161E-02 0.21028821E+03</pdfrwt>
<totfact> 0.19559935E+04</totfact>
</mgrwt>
</event>
<event>
 4    1  0.1171488E-003  0.3168307E+03  0.7818608E-02  0.1077117E+00
          2   -1    0    0  501    0  0.00000000000E+00  0.00000000000E+00  0.53105146016E+03  0.53105146017E+03  0.25500000000E-02 0. -1.
         -2   -1    0    0    0  501 -0.00000000000E+00 -0.00000000000E+00 -0.47256098299E+02  0.47256098368E+02  0.25500000000E-02 0.  1.
    5000001    1    1    2    0    0 -0.16269097595E+02  0.13535128370E+03  0.19787200934E+03  0.25232317693E+03  0.77000000000E+02 0.  0.
   -5000001    1    1    2    0    0  0.16269097595E+02 -0.13535128370E+03  0.28592335252E+03  0.32598438161E+03  0.77000000000E+02 0.  0.
<mgrwt>
<rscale>  0 0.31683068E+03</rscale>
<asrwt>0</asrwt>
<pdfrwt beam="1">  1        2 0.81700226E-01 0.31683068E+03</pdfrwt>
<pdfrwt beam="2">  1       -2 0.72701688E-02 0.31683068E+03</pdfrwt>
<totfact> 0.63903858E+03</totfact>
</mgrwt>
</event>
<event>
 4    1  0.1171488E-003  0.3353147E+03  0.7818608E-02  0.1068809E+00
          2   -1    0    0  501    0  0.00000000000E+00  0.00000000000E+00  0.81598960442E+03  0.81598960442E+03  0.25500000000E-02 0.  1.
         -2   -1    0    0    0  501 -0.00000000000E+00 -0.00000000000E+00 -0.34447736486E+02  0.34447736580E+02  0.25500000000E-02 0. -1.
    5000001    1    1    2    0    0  0.52719548543E+02 -0.13876558008E+03  0.36025611508E+03  0.39717591249E+03  0.77000000000E+02 0.  0.
   -5000001    1    1    2    0    0 -0.52719548543E+02  0.13876558008E+03  0.42128575286E+03  0.45326142851E+03  0.77000000000E+02 0.  0.
<mgrwt>
<rscale>  0 0.33531475E+03</rscale>
<asrwt>0</asrwt>
<pdfrwt beam="1">  1        2 0.12553686E+00 0.33531475E+03</pdfrwt>
<pdfrwt beam="2">  1       -2 0.52996518E-02 0.33531475E+03</pdfrwt>
<totfact> 0.62157647E+03</totfact>
</mgrwt>
</event>
<event>
 4    1  0.1171488E-003  0.2355902E+03  0.7818608E-02  0.1122766E+00
         -2   -1    0    0    0  501 -0.00000000000E+00  0.00000000000E+00  0.12552747428E+02  0.12552747687E+02  0.25500000000E-02 0.  1.
          2   -1    0    0  501    0  0.00000000000E+00 -0.00000000000E+00 -0.11053900267E+04  0.11053900267E+04  0.25500000000E-02 0. -1.
    5000001    1    1    2    0    0  0.35573217964E+02 -0.77759139989E+02 -0.42686527461E+03  0.44210281650E+03  0.77000000000E+02 0.  0.
   -5000001    1    1    2    0    0 -0.35573217964E+02  0.77759139989E+02 -0.66597200462E+03  0.67583995785E+03  0.77000000000E+02 0.  0.
<mgrwt>
<rscale>  0 0.23559017E+03</rscale>
<asrwt>0</asrwt>
<pdfrwt beam="1">  1        2 0.17005993E+00 0.23559017E+03</pdfrwt>
<pdfrwt beam="2">  1       -2 0.19311928E-02 0.23559017E+03</pdfrwt>
<totfact> 0.18285228E+04</totfact>
</mgrwt>
</event>
<event>
 4    1  0.1171488E-003  0.3532626E+03  0.7818608E-02  0.1061284E+00
         -2   -1    0    0    0  501 -0.00000000000E+00  0.00000000000E+00  0.65268408658E+02  0.65268408708E+02  0.25500000000E-02 0. -1.
          2   -1    0    0  501    0  0.00000000000E+00 -0.00000000000E+00 -0.47800493712E+03  0.47800493712E+03  0.25500000000E-02 0.  1.
    5000001    1    1    2    0    0 -0.11832213116E+03  0.22965239691E+02 -0.36575975986E+03  0.39272984466E+03  0.77000000000E+02 0.  0.
   -5000001    1    1    2    0    0  0.11832213116E+03 -0.22965239691E+02 -0.46976768596E+02  0.15054350117E+03  0.77000000000E+02 0.  0.
<mgrwt>
<rscale>  0 0.35326263E+03</rscale>
<asrwt>0</asrwt>
<pdfrwt beam="1">  1        2 0.73539219E-01 0.35326263E+03</pdfrwt>
<pdfrwt beam="2">  1       -2 0.10041294E-01 0.35326263E+03</pdfrwt>
<totfact> 0.43341546E+03</totfact>
</mgrwt>
</event>
<event>
 4    1  0.1171488E-003  0.2213140E+03  0.7818608E-02  0.1132907E+00
         -2   -1    0    0    0  501 -0.00000000000E+00  0.00000000000E+00  0.43968878306E+01  0.43968885701E+01  0.25500000000E-02 0. -1.
          2   -1    0    0  501    0  0.00000000000E+00 -0.00000000000E+00 -0.27849185253E+04  0.27849185253E+04  0.25500000000E-02 0.  1.
    5000001    1    1    2    0    0 -0.68771898796E+01 -0.74502269533E+02 -0.10525238778E+04  0.10579855373E+04  0.77000000000E+02 0.  0.
   -5000001    1    1    2    0    0  0.68771898796E+01  0.74502269533E+02 -0.17279977597E+04  0.17313298766E+04  0.77000000000E+02 0.  0.
<mgrwt>
<rscale>  0 0.22131403E+03</rscale>
<asrwt>0</asrwt>
<pdfrwt beam="1">  1        2 0.42844759E+00 0.22131403E+03</pdfrwt>
<pdfrwt beam="2">  1       -2 0.67644656E-03 0.22131403E+03</pdfrwt>
<totfact> 0.10429558E+04</totfact>
</mgrwt>
</event>
<event>
 4    1  0.1171488E-003  0.2143698E+03  0.7818608E-02  0.1138152E+00
          2   -1    0    0  501    0  0.00000000000E+00  0.00000000000E+00  0.40861329702E+02  0.40861329781E+02  0.25500000000E-02 0.  1.
         -2   -1    0    0    0  501 -0.00000000000E+00 -0.00000000000E+00 -0.28116081074E+03  0.28116081075E+03  0.25500000000E-02 0. -1.
    5000001    1    1    2    0    0  0.65224218077E+02  0.35872857271E+02 -0.12661855722E+03  0.16583823306E+03  0.77000000000E+02 0.  0.
   -5000001    1    1    2    0    0 -0.65224218077E+02 -0.35872857271E+02 -0.11368092381E+03  0.15618390747E+03  0.77000000000E+02 0.  0.
<mgrwt>
<rscale>  0 0.21436982E+03</rscale>
<asrwt>0</asrwt>
<pdfrwt beam="1">  1        2 0.62863586E-02 0.21436982E+03</pdfrwt>
<pdfrwt beam="2">  1       -2 0.43255508E-01 0.21436982E+03</pdfrwt>
<totfact> 0.58228689E+03</totfact>
</mgrwt>
</event>
<event>
 4    1  0.1171488E-003  0.2221101E+03  0.7818608E-02  0.1132320E+00
         -2   -1    0    0    0  501 -0.00000000000E+00  0.00000000000E+00  0.50823772315E+01  0.50823778712E+01  0.25500000000E-02 0. -1.
          2   -1    0    0  501    0  0.00000000000E+00 -0.00000000000E+00 -0.24266635971E+04  0.24266635971E+04  0.25500000000E-02 0.  1.
    5000001    1    1    2    0    0 -0.67531281968E+02  0.53565027599E+00 -0.16808651999E+04  0.16839826546E+04  0.77000000000E+02 0.  0.
   -5000001    1    1    2    0    0  0.67531281968E+02 -0.53565027599E+00 -0.74071602001E+03  0.74776332035E+03  0.77000000000E+02 0.  0.
<mgrwt>
<rscale>  0 0.22211007E+03</rscale>
<asrwt>0</asrwt>
<pdfrwt beam="1">  1        2 0.37333194E+00 0.22211007E+03</pdfrwt>
<pdfrwt beam="2">  1       -2 0.78190618E-03 0.22211007E+03</pdfrwt>
<totfact> 0.13350762E+04</totfact>
</mgrwt>
</event>
<event>
 4    1  0.1171488E-003  0.1901612E+03  0.7818608E-02  0.1158316E+00
          2   -1    0    0  501    0  0.00000000000E+00  0.00000000000E+00  0.19796725381E+04  0.19796725381E+04  0.25500000000E-02 0.  1.
         -2   -1    0    0    0  501 -0.00000000000E+00 -0.00000000000E+00 -0.45665728958E+01  0.45665736077E+01  0.25500000000E-02 0. -1.
    5000001    1    1    2    0    0  0.30583651081E+01  0.47675375950E+02  0.68711431739E+03  0.69306376346E+03  0.77000000000E+02 0.  0.
   -5000001    1    1    2    0    0 -0.30583651081E+01 -0.47675375950E+02  0.12879916479E+04  0.12911753483E+04  0.77000000000E+02 0.  0.
<mgrwt>
<rscale>  0 0.19016119E+03</rscale>
<asrwt>0</asrwt>
<pdfrwt beam="1">  1        2 0.30456505E+00 0.19016119E+03</pdfrwt>
<pdfrwt beam="2">  1       -2 0.70254962E-03 0.19016119E+03</pdfrwt>
<totfact> 0.26659006E+04</totfact>
</mgrwt>
</event>
<event>
 4    1  0.1171488E-003  0.2602120E+03  0.7818608E-02  0.1107016E+00
         -2   -1    0    0    0  501 -0.00000000000E+00  0.00000000000E+00  0.47631626084E+02  0.47631626152E+02  0.25500000000E-02 0. -1.
          2   -1    0    0  501    0  0.00000000000E+00 -0.00000000000E+00 -0.35538523716E+03  0.35538523717E+03  0.25500000000E-02 0.  1.
    5000001    1    1    2    0    0 -0.38440189103E+02  0.83652572077E+02 -0.76078599614E+02  0.14209980391E+03  0.77000000000E+02 0.  0.
   -5000001    1    1    2    0    0  0.38440189103E+02 -0.83652572077E+02 -0.23167501146E+03  0.26091705940E+03  0.77000000000E+02 0.  0.
<mgrwt>
<rscale>  0 0.26021204E+03</rscale>
<asrwt>0</asrwt>
<pdfrwt beam="1">  1        2 0.54674650E-01 0.26021204E+03</pdfrwt>
<pdfrwt beam="2">  1       -2 0.73279427E-02 0.26021204E+03</pdfrwt>
<totfact> 0.97571851E+03</totfact>
</mgrwt>
</event>
<event>
 4    1  0.1171488E-003  0.2486295E+03  0.7818608E-02  0.1114174E+00
         -2   -1    0    0    0  501 -0.00000000000E+00  0.00000000000E+00  0.83433584652E+01  0.83433588549E+01  0.25500000000E-02 0. -1.
          2   -1    0    0  501    0  0.00000000000E+00 -0.00000000000E+00 -0.18522702059E+04  0.18522702059E+04  0.25500000000E-02 0.  1.
    5000001    1    1    2    0    0 -0.55901255295E+02 -0.76359513428E+02 -0.74338731190E+03  0.75333221167E+03  0.77000000000E+02 0.  0.
   -5000001    1    1    2    0    0  0.55901255295E+02  0.76359513428E+02 -0.11005395355E+04  0.11072813531E+04  0.77000000000E+02 0.  0.
<mgrwt>
<rscale>  0 0.24862948E+03</rscale>
<asrwt>0</asrwt>
<pdfrwt beam="1">  1        2 0.28496432E+00 0.24862948E+03</pdfrwt>
<pdfrwt beam="2">  1       -2 0.12835951E-02 0.24862948E+03</pdfrwt>
<totfact> 0.13130187E+04</totfact>
</mgrwt>
</event>
<event>
 4    1  0.1171488E-003  0.2859064E+03  0.7818608E-02  0.1092506E+00
          2   -1    0    0  501    0  0.00000000000E+00  0.00000000000E+00  0.38522775797E+03  0.38522775798E+03  0.25500000000E-02 0.  1.
         -2   -1    0    0    0  501 -0.00000000000E+00 -0.00000000000E+00 -0.53048152067E+02  0.53048152129E+02  0.25500000000E-02 0. -1.
    5000001    1    1    2    0    0 -0.82355599655E+02 -0.80937556473E+02  0.11358174255E+03  0.17934086284E+03  0.77000000000E+02 0.  0.
   -5000001    1    1    2    0    0  0.82355599655E+02  0.80937556473E+02  0.21859786335E+03  0.25893504727E+03  0.77000000000E+02 0.  0.
<mgrwt>
<rscale>  0 0.28590642E+03</rscale>
<asrwt>0</asrwt>
<pdfrwt beam="1">  1        2 0.59265810E-01 0.28590642E+03</pdfrwt>
<pdfrwt beam="2">  1       -2 0.81612540E-02 0.28590642E+03</pdfrwt>
<totfact> 0.75882056E+03</totfact>
</mgrwt>
</event>
<event>
 4    1  0.1171488E-003  0.3400009E+03  0.7818608E-02  0.1066796E+00
          2   -1    0    0  501    0  0.00000000000E+00  0.00000000000E+00  0.25761432966E+03  0.25761432967E+03  0.25500000000E-02 0.  1.
         -2   -1    0    0    0  501 -0.00000000000E+00 -0.00000000000E+00 -0.11218381923E+03  0.11218381926E+03  0.25500000000E-02 0. -1.
    5000001    1    1    2    0    0  0.50103541563E+02 -0.11192195300E+03  0.16959614794E+03  0.22299942115E+03  0.77000000000E+02 0.  0.
   -5000001    1    1    2    0    0 -0.50103541563E+02  0.11192195300E+03 -0.24165637516E+02  0.14679872778E+03  0.77000000000E+02 0.  0.
<mgrwt>
<rscale>  0 0.34000094E+03</rscale>
<asrwt>0</asrwt>
<pdfrwt beam="1">  1        2 0.39632973E-01 0.34000094E+03</pdfrwt>
<pdfrwt beam="2">  1       -2 0.17259049E-01 0.34000094E+03</pdfrwt>
<totfact> 0.35001925E+03</totfact>
</mgrwt>
</event>
<event>
 4    1  0.1171488E-003  0.1885097E+03  0.7818608E-02  0.1159812E+00
          2   -1    0    0  501    0  0.00000000000E+00  0.00000000000E+00  0.13272497017E+03  0.13272497020E+03  0.25500000000E-02 0.  1.
         -2   -1    0    0    0  501 -0.00000000000E+00 -0.00000000000E+00 -0.66935211876E+02  0.66935211925E+02  0.25500000000E-02 0. -1.
    5000001    1    1    2    0    0 -0.43894507909E+02 -0.22286761639E+02  0.84758477208E+01  0.91783808831E+02  0.77000000000E+02 0.  0.
   -5000001    1    1    2    0    0  0.43894507909E+02  0.22286761639E+02  0.57313910575E+02  0.10787637329E+03  0.77000000000E+02 0.  0.
<mgrwt>
<rscale>  0 0.18850967E+03</rscale>
<asrwt>0</asrwt>
<pdfrwt beam="1">  1        2 0.20419226E-01 0.18850967E+03</pdfrwt>
<pdfrwt beam="2">  1       -2 0.10297725E-01 0.18850967E+03</pdfrwt>
<totfact> 0.16462906E+04</totfact>
</mgrwt>
</event>
<event>
 4    1  0.1171488E-003  0.2943307E+03  0.7818608E-02  0.1088109E+00
         -2   -1    0    0    0  501 -0.00000000000E+00  0.00000000000E+00  0.21787412773E+02  0.21787412922E+02  0.25500000000E-02 0. -1.
          2   -1    0    0  501    0  0.00000000000E+00 -0.00000000000E+00 -0.99404402644E+03  0.99404402645E+03  0.25500000000E-02 0.  1.
    5000001    1    1    2    0    0  0.13116943962E+02 -0.12125091886E+03 -0.38522153448E+03  0.41133741645E+03  0.77000000000E+02 0.  0.
   -5000001    1    1    2    0    0 -0.13116943962E+02  0.12125091886E+03 -0.58703507919E+03  0.60449402291E+03  0.77000000000E+02 0.  0.
<mgrwt>
<rscale>  0 0.29433075E+03</rscale>
<asrwt>0</asrwt>
<pdfrwt beam="1">  1        2 0.15292981E+00 0.29433075E+03</pdfrwt>
<pdfrwt beam="2">  1       -2 0.33519104E-02 0.29433075E+03</pdfrwt>
<totfact> 0.95001349E+03</totfact>
</mgrwt>
</event>
<event>
 4    1  0.1171488E-003  0.1847680E+03  0.7818608E-02  0.1163267E+00
          2   -1    0    0  501    0  0.00000000000E+00  0.00000000000E+00  0.24222310827E+03  0.24222310828E+03  0.25500000000E-02 0.  1.
         -2   -1    0    0    0  501 -0.00000000000E+00 -0.00000000000E+00 -0.35235291127E+02  0.35235291220E+02  0.25500000000E-02 0. -1.
    5000001    1    1    2    0    0 -0.57608144682E+01 -0.37671246059E+02  0.15449488063E+03  0.17677663280E+03  0.77000000000E+02 0.  0.
   -5000001    1    1    2    0    0  0.57608144682E+01  0.37671246059E+02  0.52492936515E+02  0.10068176671E+03  0.77000000000E+02 0.  0.
<mgrwt>
<rscale>  0 0.18476798E+03</rscale>
<asrwt>0</asrwt>
<pdfrwt beam="1">  1        2 0.37265093E-01 0.18476798E+03</pdfrwt>
<pdfrwt beam="2">  1       -2 0.54208141E-02 0.18476798E+03</pdfrwt>
<totfact> 0.22875472E+04</totfact>
</mgrwt>
</event>
<event>
 4    1  0.1171488E-003  0.2087003E+03  0.7818608E-02  0.1142599E+00
         -2   -1    0    0    0  501 -0.00000000000E+00  0.00000000000E+00  0.27145379743E+02  0.27145379862E+02  0.25500000000E-02 0. -1.
          2   -1    0    0  501    0  0.00000000000E+00 -0.00000000000E+00 -0.40113488174E+03  0.40113488175E+03  0.25500000000E-02 0.  1.
    5000001    1    1    2    0    0  0.47668689519E+02 -0.24958370568E+02 -0.93747294375E+02  0.13271314714E+03  0.77000000000E+02 0.  0.
   -5000001    1    1    2    0    0 -0.47668689519E+02  0.24958370568E+02 -0.28024220763E+03  0.29556711447E+03  0.77000000000E+02 0.  0.
<mgrwt>
<rscale>  0 0.20870035E+03</rscale>
<asrwt>0</asrwt>
<pdfrwt beam="1">  1        2 0.61713055E-01 0.20870035E+03</pdfrwt>
<pdfrwt beam="2">  1       -2 0.41762125E-02 0.20870035E+03</pdfrwt>
<totfact> 0.19926662E+04</totfact>
</mgrwt>
</event>
<event>
 4    1  0.1171488E-003  0.4984673E+03  0.7818608E-02  0.1014180E+00
          2   -1    0    0  501    0  0.00000000000E+00  0.00000000000E+00  0.94828792286E+03  0.94828792286E+03  0.25500000000E-02 0.  1.
         -2   -1    0    0    0  501 -0.00000000000E+00 -0.00000000000E+00 -0.65504804382E+02  0.65504804431E+02  0.25500000000E-02 0. -1.
    5000001    1    1    2    0    0  0.22353838677E+03  0.32204880829E+02  0.29498689400E+03  0.37941116528E+03  0.77000000000E+02 0.  0.
   -5000001    1    1    2    0    0 -0.22353838677E+03 -0.32204880829E+02  0.58779622447E+03  0.63438156201E+03  0.77000000000E+02 0.  0.
<mgrwt>
<rscale>  0 0.49846731E+03</rscale>
<asrwt>0</asrwt>
<pdfrwt beam="1">  1        2 0.14589045E+00 0.49846731E+03</pdfrwt>
<pdfrwt beam="2">  1       -2 0.10077662E-01 0.49846731E+03</pdfrwt>
<totfact> 0.18544710E+03</totfact>
</mgrwt>
</event>
<event>
 4    1  0.1171488E-003  0.2249777E+03  0.7818608E-02  0.1130225E+00
          2   -1    0    0  501    0  0.00000000000E+00  0.00000000000E+00  0.16158376265E+04  0.16158376265E+04  0.25500000000E-02 0.  1.
         -2   -1    0    0    0  501 -0.00000000000E+00 -0.00000000000E+00 -0.78310716898E+01  0.78310721050E+01  0.25500000000E-02 0. -1.
    5000001    1    1    2    0    0 -0.14400749708E+01 -0.80403857026E+02  0.68810623887E+03  0.69705527041E+03  0.77000000000E+02 0.  0.
   -5000001    1    1    2    0    0  0.14400749708E+01  0.80403857026E+02  0.91990031599E+03  0.92661342824E+03  0.77000000000E+02 0.  0.
<mgrwt>
<rscale>  0 0.22497769E+03</rscale>
<asrwt>0</asrwt>
<pdfrwt beam="1">  1        2 0.24859057E+00 0.22497769E+03</pdfrwt>
<pdfrwt beam="2">  1       -2 0.12047795E-02 0.22497769E+03</pdfrwt>
<totfact> 0.19083724E+04</totfact>
</mgrwt>
</event>
<event>
 4    1  0.1171488E-003  0.2468287E+03  0.7818608E-02  0.1115326E+00
         -2   -1    0    0    0  501 -0.00000000000E+00  0.00000000000E+00  0.34097447818E+02  0.34097447913E+02  0.25500000000E-02 0. -1.
          2   -1    0    0  501    0  0.00000000000E+00 -0.00000000000E+00 -0.44669318474E+03  0.44669318475E+03  0.25500000000E-02 0.  1.
    5000001    1    1    2    0    0 -0.61198865630E+02 -0.58111151013E+02 -0.11535309477E+03  0.16235006467E+03  0.77000000000E+02 0.  0.
   -5000001    1    1    2    0    0  0.61198865630E+02  0.58111151013E+02 -0.29724264215E+03  0.31844056799E+03  0.77000000000E+02 0.  0.
<mgrwt>
<rscale>  0 0.24682867E+03</rscale>
<asrwt>0</asrwt>
<pdfrwt beam="1">  1        2 0.68722024E-01 0.24682867E+03</pdfrwt>
<pdfrwt beam="2">  1       -2 0.52457615E-02 0.24682867E+03</pdfrwt>
<totfact> 0.12686284E+04</totfact>
</mgrwt>
</event>
<event>
 4    1  0.1171488E-003  0.2337660E+03  0.7818608E-02  0.1124017E+00
          2   -1    0    0  501    0  0.00000000000E+00  0.00000000000E+00  0.46926535851E+03  0.46926535851E+03  0.25500000000E-02 0.  1.
         -2   -1    0    0    0  501 -0.00000000000E+00 -0.00000000000E+00 -0.29112818837E+02  0.29112818949E+02  0.25500000000E-02 0. -1.
    5000001    1    1    2    0    0  0.11099730396E+02 -0.60383101373E+02  0.85859460540E+02  0.13065286032E+03  0.77000000000E+02 0.  0.
   -5000001    1    1    2    0    0 -0.11099730396E+02  0.60383101373E+02  0.35429307913E+03  0.36772531714E+03  0.77000000000E+02 0.  0.
<mgrwt>
<rscale>  0 0.23376601E+03</rscale>
<asrwt>0</asrwt>
<pdfrwt beam="1">  1        2 0.72194666E-01 0.23376601E+03</pdfrwt>
<pdfrwt beam="2">  1       -2 0.44788955E-02 0.23376601E+03</pdfrwt>
<totfact> 0.15222326E+04</totfact>
</mgrwt>
</event>
<event>
 4    1  0.1171488E-003  0.3098054E+03  0.7818608E-02  0.1080439E+00
         -2   -1    0    0    0  501 -0.00000000000E+00  0.00000000000E+00  0.36719562097E+02  0.36719562185E+02  0.25500000000E-02 0. -1.
          2   -1    0    0  501    0  0.00000000000E+00 -0.00000000000E+00 -0.65346205522E+03  0.65346205522E+03  0.25500000000E-02 0.  1.
    5000001    1    1    2    0    0 -0.40278859697E+02  0.10402279381E+03 -0.47542159745E+03  0.49436608246E+03  0.77000000000E+02 0.  0.
   -5000001    1    1    2    0    0  0.40278859697E+02 -0.10402279381E+03 -0.14132089567E+03  0.19581553494E+03  0.77000000000E+02 0.  0.
<mgrwt>
<rscale>  0 0.30980536E+03</rscale>
<asrwt>0</asrwt>
<pdfrwt beam="1">  1        2 0.10053262E+00 0.30980536E+03</pdfrwt>
<pdfrwt beam="2">  1       -2 0.56491639E-02 0.30980536E+03</pdfrwt>
<totfact> 0.74097700E+03</totfact>
</mgrwt>
</event>
<event>
 4    1  0.1171488E-003  0.1880767E+03  0.7818608E-02  0.1160208E+00
         -2   -1    0    0    0  501 -0.00000000000E+00  0.00000000000E+00  0.63745495415E+01  0.63745500515E+01  0.25500000000E-02 0. -1.
          2   -1    0    0  501    0  0.00000000000E+00 -0.00000000000E+00 -0.13872685858E+04  0.13872685858E+04  0.25500000000E-02 0.  1.
    5000001    1    1    2    0    0 -0.10233781769E+02 -0.52978133417E+02 -0.67804826257E+03  0.68453623665E+03  0.77000000000E+02 0.  0.
   -5000001    1    1    2    0    0  0.10233781769E+02  0.52978133417E+02 -0.70284577367E+03  0.70910689919E+03  0.77000000000E+02 0.  0.
<mgrwt>
<rscale>  0 0.18807672E+03</rscale>
<asrwt>0</asrwt>
<pdfrwt beam="1">  1        2 0.21342570E+00 0.18807672E+03</pdfrwt>
<pdfrwt beam="2">  1       -2 0.98070107E-03 0.18807672E+03</pdfrwt>
<totfact> 0.33650662E+04</totfact>
</mgrwt>
</event>
<event>
 4    1  0.1171488E-003  0.2724064E+03  0.7818608E-02  0.1099910E+00
          2   -1    0    0  501    0  0.00000000000E+00  0.00000000000E+00  0.13584910037E+04  0.13584910037E+04  0.25500000000E-02 0.  1.
         -2   -1    0    0    0  501 -0.00000000000E+00 -0.00000000000E+00 -0.13655825809E+02  0.13655826047E+02  0.25500000000E-02 0. -1.
    5000001    1    1    2    0    0 -0.38920875153E+02 -0.96771983130E+02  0.46214133587E+03  0.47998256798E+03  0.77000000000E+02 0.  0.
   -5000001    1    1    2    0    0  0.38920875153E+02  0.96771983130E+02  0.88269384198E+03  0.89216426173E+03  0.77000000000E+02 0.  0.
<mgrwt>
<rscale>  0 0.27240644E+03</rscale>
<asrwt>0</asrwt>
<pdfrwt beam="1">  1        2 0.20899860E+00 0.27240644E+03</pdfrwt>
<pdfrwt beam="2">  1       -2 0.21008965E-02 0.27240644E+03</pdfrwt>
<totfact> 0.11698615E+04</totfact>
</mgrwt>
</event>
<event>
 4    1  0.1171488E-003  0.1928028E+03  0.7818608E-02  0.1155957E+00
          2   -1    0    0  501    0  0.00000000000E+00  0.00000000000E+00  0.70637957978E+03  0.70637957978E+03  0.25500000000E-02 0.  1.
         -2   -1    0    0    0  501 -0.00000000000E+00 -0.00000000000E+00 -0.13156137207E+02  0.13156137454E+02  0.25500000000E-02 0. -1.
    5000001    1    1    2    0    0  0.29351720608E+02 -0.48195602374E+02  0.29655767503E+03  0.31154420908E+03  0.77000000000E+02 0.  0.
   -5000001    1    1    2    0    0 -0.29351720608E+02  0.48195602374E+02  0.39666576754E+03  0.40799150816E+03  0.77000000000E+02 0.  0.
<mgrwt>
<rscale>  0 0.19280277E+03</rscale>
<asrwt>0</asrwt>
<pdfrwt beam="1">  1        2 0.10867379E+00 0.19280277E+03</pdfrwt>
<pdfrwt beam="2">  1       -2 0.20240211E-02 0.19280277E+03</pdfrwt>
<totfact> 0.30539482E+04</totfact>
</mgrwt>
</event>
<event>
 4    1  0.1171488E-003  0.3429992E+03  0.7818608E-02  0.1065526E+00
         -2   -1    0    0    0  501 -0.00000000000E+00  0.00000000000E+00  0.11773735393E+03  0.11773735395E+03  0.25500000000E-02 0. -1.
          2   -1    0    0  501    0  0.00000000000E+00 -0.00000000000E+00 -0.24981123916E+03  0.24981123917E+03  0.25500000000E-02 0.  1.
    5000001    1    1    2    0    0 -0.83047458627E+02 -0.12013690734E+03 -0.16311380075E+02  0.16590605176E+03  0.77000000000E+02 0.  0.
   -5000001    1    1    2    0    0  0.83047458627E+02  0.12013690734E+03 -0.11576250515E+03  0.20164254137E+03  0.77000000000E+02 0.  0.
<mgrwt>
<rscale>  0 0.34299921E+03</rscale>
<asrwt>0</asrwt>
<pdfrwt beam="1">  1        2 0.38432498E-01 0.34299921E+03</pdfrwt>
<pdfrwt beam="2">  1       -2 0.18113439E-01 0.34299921E+03</pdfrwt>
<totfact> 0.33357331E+03</totfact>
</mgrwt>
</event>
<event>
 4    1  0.1171488E-003  0.2874048E+03  0.7818608E-02  0.1091712E+00
         -2   -1    0    0    0  501 -0.00000000000E+00  0.00000000000E+00  0.23932098726E+02  0.23932098861E+02  0.25500000000E-02 0. -1.
          2   -1    0    0  501    0  0.00000000000E+00 -0.00000000000E+00 -0.86287385175E+03  0.86287385175E+03  0.25500000000E-02 0.  1.
    5000001    1    1    2    0    0 -0.55195502613E+02 -0.96981428832E+02 -0.56646298679E+03  0.58246137764E+03  0.77000000000E+02 0.  0.
   -5000001    1    1    2    0    0  0.55195502613E+02  0.96981428832E+02 -0.27247876624E+03  0.30434457297E+03  0.77000000000E+02 0.  0.
<mgrwt>
<rscale>  0 0.28740482E+03</rscale>
<asrwt>0</asrwt>
<pdfrwt beam="1">  1        2 0.13274980E+00 0.28740482E+03</pdfrwt>
<pdfrwt beam="2">  1       -2 0.36818620E-02 0.28740482E+03</pdfrwt>
<totfact> 0.99995274E+03</totfact>
</mgrwt>
</event>
<event>
 4    1  0.1171488E-003  0.1932668E+03  0.7818608E-02  0.1155547E+00
          2   -1    0    0  501    0  0.00000000000E+00  0.00000000000E+00  0.22158916939E+03  0.22158916941E+03  0.25500000000E-02 0.  1.
         -2   -1    0    0    0  501 -0.00000000000E+00 -0.00000000000E+00 -0.42141129517E+02  0.42141129594E+02  0.25500000000E-02 0. -1.
    5000001    1    1    2    0    0  0.42513434457E+02  0.32650842881E+02  0.12130328236E+03  0.15335239144E+03  0.77000000000E+02 0.  0.
   -5000001    1    1    2    0    0 -0.42513434457E+02 -0.32650842881E+02  0.58144757518E+02  0.11037790756E+03  0.77000000000E+02 0.  0.
<mgrwt>
<rscale>  0 0.19326684E+03</rscale>
<asrwt>0</asrwt>
<pdfrwt beam="1">  1        2 0.34090641E-01 0.19326684E+03</pdfrwt>
<pdfrwt beam="2">  1       -2 0.64832508E-02 0.19326684E+03</pdfrwt>
<totfact> 0.19236801E+04</totfact>
</mgrwt>
</event>
<event>
 4    1  0.1171488E-003  0.1752930E+03  0.7818608E-02  0.1172438E+00
          2   -1    0    0  501    0  0.00000000000E+00  0.00000000000E+00  0.54160153204E+03  0.54160153205E+03  0.25500000000E-02 0.  1.
         -2   -1    0    0    0  501 -0.00000000000E+00 -0.00000000000E+00 -0.14183689695E+02  0.14183689924E+02  0.25500000000E-02 0. -1.
    5000001    1    1    2    0    0 -0.12689351271E+02  0.39898110906E+02  0.26425112721E+03  0.27840714273E+03  0.77000000000E+02 0.  0.
   -5000001    1    1    2    0    0  0.12689351271E+02 -0.39898110906E+02  0.26316671514E+03  0.27737807925E+03  0.77000000000E+02 0.  0.
<mgrwt>
<rscale>  0 0.17529299E+03</rscale>
<asrwt>0</asrwt>
<pdfrwt beam="1">  1        2 0.83323329E-01 0.17529299E+03</pdfrwt>
<pdfrwt beam="2">  1       -2 0.21821057E-02 0.17529299E+03</pdfrwt>
<totfact> 0.36934688E+04</totfact>
</mgrwt>
</event>
<event>
 4    1  0.1171488E-003  0.1701071E+03  0.7818608E-02  0.1177736E+00
         -2   -1    0    0    0  501 -0.00000000000E+00  0.00000000000E+00  0.14868881273E+03  0.14868881275E+03  0.25500000000E-02 0. -1.
          2   -1    0    0  501    0  0.00000000000E+00 -0.00000000000E+00 -0.48652676723E+02  0.48652676790E+02  0.25500000000E-02 0.  1.
    5000001    1    1    2    0    0  0.28090654650E+02  0.21974786535E+02  0.56695720453E+02  0.10205577318E+03  0.77000000000E+02 0.  0.
   -5000001    1    1    2    0    0 -0.28090654650E+02 -0.21974786535E+02  0.43340415553E+02  0.95285716360E+02  0.77000000000E+02 0.  0.
<mgrwt>
<rscale>  0 0.17010713E+03</rscale>
<asrwt>0</asrwt>
<pdfrwt beam="1">  1        2 0.74850273E-02 0.17010713E+03</pdfrwt>
<pdfrwt beam="2">  1       -2 0.22875202E-01 0.17010713E+03</pdfrwt>
<totfact> 0.14647654E+04</totfact>
</mgrwt>
</event>
<event>
 4    1  0.1171488E-003  0.1969570E+03  0.7818608E-02  0.1152332E+00
          2   -1    0    0  501    0  0.00000000000E+00  0.00000000000E+00  0.41183778585E+02  0.41183778664E+02  0.25500000000E-02 0.  1.
         -2   -1    0    0    0  501 -0.00000000000E+00 -0.00000000000E+00 -0.23548135352E+03  0.23548135353E+03  0.25500000000E-02 0. -1.
    5000001    1    1    2    0    0 -0.56693610630E+01  0.58463637443E+02 -0.12223252271E+03  0.15594847920E+03  0.77000000000E+02 0.  0.
   -5000001    1    1    2    0    0  0.56693610630E+01 -0.58463637443E+02 -0.72065052225E+02  0.12071665299E+03  0.77000000000E+02 0.  0.
<mgrwt>
<rscale>  0 0.19695697E+03</rscale>
<asrwt>0</asrwt>
<pdfrwt beam="1">  1        2 0.63359661E-02 0.19695697E+03</pdfrwt>
<pdfrwt beam="2">  1       -2 0.36227900E-01 0.19695697E+03</pdfrwt>
<totfact> 0.80307310E+03</totfact>
</mgrwt>
</event>
<event>
 4    1  0.1171488E-003  0.2279494E+03  0.7818608E-02  0.1128091E+00
          2   -1    0    0  501    0  0.00000000000E+00  0.00000000000E+00  0.46963630340E+03  0.46963630341E+03  0.25500000000E-02 0.  1.
         -2   -1    0    0    0  501 -0.00000000000E+00 -0.00000000000E+00 -0.27660184358E+02  0.27660184475E+02  0.25500000000E-02 0. -1.
    5000001    1    1    2    0    0  0.39076835133E+02  0.57098809807E+02  0.32502027162E+03  0.34110768108E+03  0.77000000000E+02 0.  0.
   -5000001    1    1    2    0    0 -0.39076835133E+02 -0.57098809807E+02  0.11695584742E+03  0.15618880681E+03  0.77000000000E+02 0.  0.
<mgrwt>
<rscale>  0 0.22794935E+03</rscale>
<asrwt>0</asrwt>
<pdfrwt beam="1">  1        2 0.72251735E-01 0.22794935E+03</pdfrwt>
<pdfrwt beam="2">  1       -2 0.42554132E-02 0.22794935E+03</pdfrwt>
<totfact> 0.16403643E+04</totfact>
</mgrwt>
</event>
<event>
 4    1  0.1171488E-003  0.4702982E+03  0.7818608E-02  0.1021836E+00
          2   -1    0    0  501    0  0.00000000000E+00  0.00000000000E+00  0.17590732709E+03  0.17590732711E+03  0.25500000000E-02 0.  1.
         -2   -1    0    0    0  501 -0.00000000000E+00 -0.00000000000E+00 -0.31434226737E+03  0.31434226738E+03  0.25500000000E-02 0. -1.
    5000001    1    1    2    0    0  0.18859093950E+03  0.83659587407E+02 -0.15518189337E+03  0.26939912594E+03  0.77000000000E+02 0.  0.
   -5000001    1    1    2    0    0 -0.18859093950E+03 -0.83659587407E+02  0.16746953089E+02  0.22085046856E+03  0.77000000000E+02 0.  0.
<mgrwt>
<rscale>  0 0.47029824E+03</rscale>
<asrwt>0</asrwt>
<pdfrwt beam="1">  1        2 0.27062666E-01 0.47029824E+03</pdfrwt>
<pdfrwt beam="2">  1       -2 0.48360349E-01 0.47029824E+03</pdfrwt>
<totfact> 0.81335627E+02</totfact>
</mgrwt>
</event>
<event>
 4    1  0.1171488E-003  0.3166463E+03  0.7818608E-02  0.1077203E+00
         -2   -1    0    0    0  501 -0.00000000000E+00  0.00000000000E+00  0.18537091023E+03  0.18537091025E+03  0.25500000000E-02 0. -1.
          2   -1    0    0  501    0  0.00000000000E+00 -0.00000000000E+00 -0.13522196690E+03  0.13522196692E+03  0.25500000000E-02 0.  1.
    5000001    1    1    2    0    0  0.28768350568E+02 -0.12931799721E+03 -0.15252310471E+02  0.15398829622E+03  0.77000000000E+02 0.  0.
   -5000001    1    1    2    0    0 -0.28768350568E+02  0.12931799721E+03  0.65401253807E+02  0.16660458096E+03  0.77000000000E+02 0.  0.
<mgrwt>
<rscale>  0 0.31664630E+03</rscale>
<asrwt>0</asrwt>
<pdfrwt beam="1">  1        2 0.20803380E-01 0.31664630E+03</pdfrwt>
<pdfrwt beam="2">  1       -2 0.28518602E-01 0.31664630E+03</pdfrwt>
<totfact> 0.29790748E+03</totfact>
</mgrwt>
</event>
<event>
 4    1  0.1171488E-003  0.5452505E+03  0.7818608E-02  0.1002599E+00
          2   -1    0    0  501    0  0.00000000000E+00  0.00000000000E+00  0.21486031901E+04  0.21486031901E+04  0.25500000000E-02 0.  1.
         -2   -1    0    0    0  501 -0.00000000000E+00 -0.00000000000E+00 -0.34592026816E+02  0.34592026910E+02  0.25500000000E-02 0. -1.
    5000001    1    1    2    0    0 -0.85582846838E+02  0.18061347996E+03  0.17323677535E+04  0.17455579870E+04  0.77000000000E+02 0.  0.
   -5000001    1    1    2    0    0  0.85582846838E+02 -0.18061347996E+03  0.38164340985E+03  0.43763723002E+03  0.77000000000E+02 0.  0.
<mgrwt>
<rscale>  0 0.54525055E+03</rscale>
<asrwt>0</asrwt>
<pdfrwt beam="1">  1        2 0.33055432E+00 0.54525055E+03</pdfrwt>
<pdfrwt beam="2">  1       -2 0.53218505E-02 0.54525055E+03</pdfrwt>
<totfact> 0.10763053E+03</totfact>
</mgrwt>
</event>
<event>
 4    1  0.1171488E-003  0.3605867E+03  0.7818608E-02  0.1058352E+00
         -2   -1    0    0    0  501 -0.00000000000E+00  0.00000000000E+00  0.28788340434E+02  0.28788340547E+02  0.25500000000E-02 0. -1.
          2   -1    0    0  501    0  0.00000000000E+00 -0.00000000000E+00 -0.11291269074E+04  0.11291269074E+04  0.25500000000E-02 0.  1.
    5000001    1    1    2    0    0  0.11627088981E+03 -0.73767345505E+02 -0.26992627056E+03  0.31264953641E+03  0.77000000000E+02 0.  0.
   -5000001    1    1    2    0    0 -0.11627088981E+03  0.73767345505E+02 -0.83041229646E+03  0.84526571159E+03  0.77000000000E+02 0.  0.
<mgrwt>
<rscale>  0 0.36058669E+03</rscale>
<asrwt>0</asrwt>
<pdfrwt beam="1">  1        2 0.17371180E+00 0.36058669E+03</pdfrwt>
<pdfrwt beam="2">  1       -2 0.44289763E-02 0.36058669E+03</pdfrwt>
<totfact> 0.51935439E+03</totfact>
</mgrwt>
</event>
<event>
 4    1  0.1171488E-003  0.2628681E+03  0.7818608E-02  0.1105432E+00
         -2   -1    0    0    0  501 -0.00000000000E+00  0.00000000000E+00  0.12211576410E+02  0.12211576676E+02  0.25500000000E-02 0. -1.
          2   -1    0    0  501    0  0.00000000000E+00 -0.00000000000E+00 -0.14146339991E+04  0.14146339991E+04  0.25500000000E-02 0.  1.
    5000001    1    1    2    0    0  0.79947337131E+02  0.46543484424E+02 -0.98781931325E+03  0.99512505158E+03  0.77000000000E+02 0.  0.
   -5000001    1    1    2    0    0 -0.79947337131E+02 -0.46543484424E+02 -0.41460310947E+03  0.43172052423E+03  0.77000000000E+02 0.  0.
<mgrwt>
<rscale>  0 0.26286811E+03</rscale>
<asrwt>0</asrwt>
<pdfrwt beam="1">  1        2 0.21763587E+00 0.26286811E+03</pdfrwt>
<pdfrwt beam="2">  1       -2 0.18787052E-02 0.26286811E+03</pdfrwt>
<totfact> 0.12840144E+04</totfact>
</mgrwt>
</event>
<event>
 4    1  0.1171488E-003  0.2061729E+03  0.7818608E-02  0.1144633E+00
          2   -1    0    0  501    0  0.00000000000E+00  0.00000000000E+00  0.52033748559E+03  0.52033748559E+03  0.25500000000E-02 0.  1.
         -2   -1    0    0    0  501 -0.00000000000E+00 -0.00000000000E+00 -0.20422930278E+02  0.20422930437E+02  0.25500000000E-02 0. -1.
    5000001    1    1    2    0    0 -0.31497647716E+02 -0.60317665348E+02  0.22840938361E+03  0.25045991513E+03  0.77000000000E+02 0.  0.
   -5000001    1    1    2    0    0  0.31497647716E+02  0.60317665348E+02  0.27150517170E+03  0.29030050090E+03  0.77000000000E+02 0.  0.
<mgrwt>
<rscale>  0 0.20617290E+03</rscale>
<asrwt>0</asrwt>
<pdfrwt beam="1">  1        2 0.80051921E-01 0.20617290E+03</pdfrwt>
<pdfrwt beam="2">  1       -2 0.31419893E-02 0.20617290E+03</pdfrwt>
<totfact> 0.22875985E+04</totfact>
</mgrwt>
</event>
<event>
 4    1  0.1171488E-003  0.3081314E+03  0.7818608E-02  0.1081245E+00
          2   -1    0    0  501    0  0.00000000000E+00  0.00000000000E+00  0.21255374346E+04  0.21255374346E+04  0.25500000000E-02 0.  1.
         -2   -1    0    0    0  501 -0.00000000000E+00 -0.00000000000E+00 -0.11167168697E+02  0.11167168988E+02  0.25500000000E-02 0. -1.
    5000001    1    1    2    0    0  0.13023137496E+03 -0.28983735177E+02  0.10754891596E+04  0.10864650019E+04  0.77000000000E+02 0.  0.
   -5000001    1    1    2    0    0 -0.13023137496E+03  0.28983735177E+02  0.10388811063E+04  0.10502396017E+04  0.77000000000E+02 0.  0.
<mgrwt>
<rscale>  0 0.30813137E+03</rscale>
<asrwt>0</asrwt>
<pdfrwt beam="1">  1        2 0.32700571E+00 0.30813137E+03</pdfrwt>
<pdfrwt beam="2">  1       -2 0.17180262E-02 0.30813137E+03</pdfrwt>
<totfact> 0.61673506E+03</totfact>
</mgrwt>
</event>
<event>
 4    1  0.1171488E-003  0.2441399E+03  0.7818608E-02  0.1117065E+00
          2   -1    0    0  501    0  0.00000000000E+00  0.00000000000E+00  0.60699562992E+02  0.60699563045E+02  0.25500000000E-02 0.  1.
         -2   -1    0    0    0  501 -0.00000000000E+00 -0.00000000000E+00 -0.24548894273E+03  0.24548894274E+03  0.25500000000E-02 0. -1.
    5000001    1    1    2    0    0  0.65775500923E+02  0.56811118199E+02 -0.45165389712E+02  0.12459065816E+03  0.77000000000E+02 0.  0.
   -5000001    1    1    2    0    0 -0.65775500923E+02 -0.56811118199E+02 -0.13962399003E+03  0.18159784763E+03  0.77000000000E+02 0.  0.
<mgrwt>
<rscale>  0 0.24413989E+03</rscale>
<asrwt>0</asrwt>
<pdfrwt beam="1">  1        2 0.93383945E-02 0.24413989E+03</pdfrwt>
<pdfrwt beam="2">  1       -2 0.37767529E-01 0.24413989E+03</pdfrwt>
<totfact> 0.45894299E+03</totfact>
</mgrwt>
</event>
<event>
 4    1  0.1171488E-003  0.1642473E+03  0.7818608E-02  0.1183983E+00
          2   -1    0    0  501    0  0.00000000000E+00  0.00000000000E+00  0.11334186866E+03  0.11334186868E+03  0.25500000000E-02 0.  1.
         -2   -1    0    0    0  501 -0.00000000000E+00 -0.00000000000E+00 -0.59504006568E+02  0.59504006623E+02  0.25500000000E-02 0. -1.
    5000001    1    1    2    0    0  0.26671610467E+02 -0.18149401392E+01  0.37475356880E+02  0.89711042720E+02  0.77000000000E+02 0.  0.
   -5000001    1    1    2    0    0 -0.26671610467E+02  0.18149401392E+01  0.16362505207E+02  0.83134832587E+02  0.77000000000E+02 0.  0.
<mgrwt>
<rscale>  0 0.16424732E+03</rscale>
<asrwt>0</asrwt>
<pdfrwt beam="1">  1        2 0.17437211E-01 0.16424732E+03</pdfrwt>
<pdfrwt beam="2">  1       -2 0.91544625E-02 0.16424732E+03</pdfrwt>
<totfact> 0.23464358E+04</totfact>
</mgrwt>
</event>
<event>
 4    1  0.1171488E-003  0.3165926E+03  0.7818608E-02  0.1077228E+00
          2   -1    0    0  501    0  0.00000000000E+00  0.00000000000E+00  0.40470478020E+03  0.40470478021E+03  0.25500000000E-02 0.  1.
         -2   -1    0    0    0  501 -0.00000000000E+00 -0.00000000000E+00 -0.61916054619E+02  0.61916054672E+02  0.25500000000E-02 0. -1.
    5000001    1    1    2    0    0 -0.61295413043E+02  0.10321956608E+03  0.27262473835E+03  0.30767621689E+03  0.77000000000E+02 0.  0.
   -5000001    1    1    2    0    0  0.61295413043E+02 -0.10321956608E+03  0.70163987234E+02  0.15894461799E+03  0.77000000000E+02 0.  0.
<mgrwt>
<rscale>  0 0.31659263E+03</rscale>
<asrwt>0</asrwt>
<pdfrwt beam="1">  1        2 0.62262274E-01 0.31659263E+03</pdfrwt>
<pdfrwt beam="2">  1       -2 0.95255468E-02 0.31659263E+03</pdfrwt>
<totfact> 0.56529932E+03</totfact>
</mgrwt>
</event>
<event>
 4    1  0.1171488E-003  0.2402041E+03  0.7818608E-02  0.1119657E+00
          2   -1    0    0  501    0  0.00000000000E+00  0.00000000000E+00  0.23033098953E+04  0.23033098953E+04  0.25500000000E-02 0.  1.
         -2   -1    0    0    0  501 -0.00000000000E+00 -0.00000000000E+00 -0.62625123349E+01  0.62625128541E+01  0.25500000000E-02 0. -1.
    5000001    1    1    2    0    0 -0.40092936629E+02 -0.57985626886E+02  0.57760315533E+03  0.58696182290E+03  0.77000000000E+02 0.  0.
   -5000001    1    1    2    0    0  0.40092936629E+02  0.57985626886E+02  0.17194442276E+04  0.17226105852E+04  0.77000000000E+02 0.  0.
<mgrwt>
<rscale>  0 0.24020414E+03</rscale>
<asrwt>0</asrwt>
<pdfrwt beam="1">  1        2 0.35435541E+00 0.24020414E+03</pdfrwt>
<pdfrwt beam="2">  1       -2 0.96346337E-03 0.24020414E+03</pdfrwt>
<totfact> 0.11515698E+04</totfact>
</mgrwt>
</event>
<event>
 4    1  0.1171488E-003  0.3078019E+03  0.7818608E-02  0.1081404E+00
          2   -1    0    0  501    0  0.00000000000E+00  0.00000000000E+00  0.32945513907E+04  0.32945513907E+04  0.25500000000E-02 0.  1.
         -2   -1    0    0    0  501 -0.00000000000E+00 -0.00000000000E+00 -0.71892931590E+01  0.71892936112E+01  0.25500000000E-02 0. -1.
    5000001    1    1    2    0    0  0.92785278637E+02 -0.93894195074E+02  0.14484441342E+04  0.14564836552E+04  0.77000000000E+02 0.  0.
   -5000001    1    1    2    0    0 -0.92785278637E+02  0.93894195074E+02  0.18389179633E+04  0.18452570292E+04  0.77000000000E+02 0.  0.
<mgrwt>
<rscale>  0 0.30780186E+03</rscale>
<asrwt>0</asrwt>
<pdfrwt beam="1">  1        2 0.50685584E+00 0.30780186E+03</pdfrwt>
<pdfrwt beam="2">  1       -2 0.11060413E-02 0.30780186E+03</pdfrwt>
<totfact> 0.25247248E+03</totfact>
</mgrwt>
</event>
<event>
 4    1  0.1171488E-003  0.2168661E+03  0.7818608E-02  0.1136241E+00
          2   -1    0    0  501    0  0.00000000000E+00  0.00000000000E+00  0.29055102237E+02  0.29055102349E+02  0.25500000000E-02 0.  1.
         -2   -1    0    0    0  501 -0.00000000000E+00 -0.00000000000E+00 -0.40467007846E+03  0.40467007847E+03  0.25500000000E-02 0. -1.
    5000001    1    1    2    0    0 -0.43599438092E+02  0.53834025199E+02 -0.25198485363E+03  0.27244151617E+03  0.77000000000E+02 0.  0.
   -5000001    1    1    2    0    0  0.43599438092E+02 -0.53834025199E+02 -0.12363012259E+03  0.16128366465E+03  0.77000000000E+02 0.  0.
<mgrwt>
<rscale>  0 0.21686614E+03</rscale>
<asrwt>0</asrwt>
<pdfrwt beam="1">  1        2 0.44700160E-02 0.21686614E+03</pdfrwt>
<pdfrwt beam="2">  1       -2 0.62256931E-01 0.21686614E+03</pdfrwt>
<totfact> 0.43897422E+03</totfact>
</mgrwt>
</event>
<event>
 4    1  0.1171488E-003  0.3010523E+03  0.7818608E-02  0.1084716E+00
         -2   -1    0    0    0  501 -0.00000000000E+00  0.00000000000E+00  0.10981219514E+02  0.10981219810E+02  0.25500000000E-02 0. -1.
          2   -1    0    0  501    0  0.00000000000E+00 -0.00000000000E+00 -0.20633523039E+04  0.20633523039E+04  0.25500000000E-02 0.  1.
    5000001    1    1    2    0    0 -0.68801603533E+02  0.67258081384E+02 -0.43059244642E+03  0.44787963235E+03  0.77000000000E+02 0.  0.
   -5000001    1    1    2    0    0  0.68801603533E+02 -0.67258081384E+02 -0.16217786380E+04  0.16264538914E+04  0.77000000000E+02 0.  0.
<mgrwt>
<rscale>  0 0.30105232E+03</rscale>
<asrwt>0</asrwt>
<pdfrwt beam="1">  1        2 0.31743851E+00 0.30105232E+03</pdfrwt>
<pdfrwt beam="2">  1       -2 0.16894200E-02 0.30105232E+03</pdfrwt>
<totfact> 0.68204297E+03</totfact>
</mgrwt>
</event>
<event>
 4    1  0.1171488E-003  0.3094684E+03  0.7818608E-02  0.1080601E+00
         -2   -1    0    0    0  501 -0.00000000000E+00  0.00000000000E+00  0.55405979226E+02  0.55405979285E+02  0.25500000000E-02 0. -1.
          2   -1    0    0  501    0  0.00000000000E+00 -0.00000000000E+00 -0.43213155884E+03  0.43213155885E+03  0.25500000000E-02 0.  1.
    5000001    1    1    2    0    0  0.75889980549E+02 -0.45277971354E+01 -0.14112343187E+02  0.10912354615E+03  0.77000000000E+02 0.  0.
   -5000001    1    1    2    0    0 -0.75889980549E+02  0.45277971354E+01 -0.36261323643E+03  0.37841399198E+03  0.77000000000E+02 0.  0.
<mgrwt>
<rscale>  0 0.30946840E+03</rscale>
<asrwt>0</asrwt>
<pdfrwt beam="1">  1        2 0.66481776E-01 0.30946840E+03</pdfrwt>
<pdfrwt beam="2">  1       -2 0.85239971E-02 0.30946840E+03</pdfrwt>
<totfact> 0.62669656E+03</totfact>
</mgrwt>
</event>
<event>
 4    1  0.1171488E-003  0.2905946E+03  0.7818608E-02  0.1090039E+00
         -2   -1    0    0    0  501 -0.00000000000E+00  0.00000000000E+00  0.53702416586E+02  0.53702416647E+02  0.25500000000E-02 0. -1.
          2   -1    0    0  501    0  0.00000000000E+00 -0.00000000000E+00 -0.39311645052E+03  0.39311645052E+03  0.25500000000E-02 0.  1.
    5000001    1    1    2    0    0 -0.11645299267E+03 -0.25015800562E+02 -0.21821376290E+03  0.26025628926E+03  0.77000000000E+02 0.  0.
   -5000001    1    1    2    0    0  0.11645299267E+03  0.25015800562E+02 -0.12120027103E+03  0.18656257791E+03  0.77000000000E+02 0.  0.
<mgrwt>
<rscale>  0 0.29059459E+03</rscale>
<asrwt>0</asrwt>
<pdfrwt beam="1">  1        2 0.60479452E-01 0.29059459E+03</pdfrwt>
<pdfrwt beam="2">  1       -2 0.82619105E-02 0.29059459E+03</pdfrwt>
<totfact> 0.72856259E+03</totfact>
</mgrwt>
</event>
<event>
 4    1  0.1171488E-003  0.2633331E+03  0.7818608E-02  0.1105157E+00
         -2   -1    0    0    0  501 -0.00000000000E+00  0.00000000000E+00  0.43931744245E+03  0.43931744246E+03  0.25500000000E-02 0. -1.
          2   -1    0    0  501    0  0.00000000000E+00 -0.00000000000E+00 -0.39461394465E+02  0.39461394548E+02  0.25500000000E-02 0.  1.
    5000001    1    1    2    0    0  0.34221742395E+02 -0.95835671490E+02  0.25888416599E+03  0.28862712101E+03  0.77000000000E+02 0.  0.
   -5000001    1    1    2    0    0 -0.34221742395E+02  0.95835671490E+02  0.14097188199E+03  0.19015171599E+03  0.77000000000E+02 0.  0.
<mgrwt>
<rscale>  0 0.26333309E+03</rscale>
<asrwt>0</asrwt>
<pdfrwt beam="1">  1        2 0.60709836E-02 0.26333309E+03</pdfrwt>
<pdfrwt beam="2">  1       -2 0.67587300E-01 0.26333309E+03</pdfrwt>
<totfact> 0.24901216E+03</totfact>
</mgrwt>
</event>
<event>
 4    1  0.1171488E-003  0.7378269E+03  0.7818608E-02  0.9654644E-01
         -2   -1    0    0    0  501 -0.00000000000E+00  0.00000000000E+00  0.70849731663E+02  0.70849731709E+02  0.25500000000E-02 0. -1.
          2   -1    0    0  501    0  0.00000000000E+00 -0.00000000000E+00 -0.19209267639E+04  0.19209267639E+04  0.25500000000E-02 0.  1.
    5000001    1    1    2    0    0 -0.75619713363E+02  0.28249817006E+03 -0.14954266890E+04  0.15256977222E+04  0.77000000000E+02 0.  0.
   -5000001    1    1    2    0    0  0.75619713363E+02 -0.28249817006E+03 -0.35465034324E+03  0.46607877349E+03  0.77000000000E+02 0.  0.
<mgrwt>
<rscale>  0 0.73782693E+03</rscale>
<asrwt>0</asrwt>
<pdfrwt beam="1">  1        2 0.29552716E+00 0.73782693E+03</pdfrwt>
<pdfrwt beam="2">  1       -2 0.10899960E-01 0.73782693E+03</pdfrwt>
<totfact> 0.45069726E+02</totfact>
</mgrwt>
</event>
<event>
 4    1  0.1171488E-003  0.2851925E+03  0.7818608E-02  0.1092886E+00
          2   -1    0    0  501    0  0.00000000000E+00  0.00000000000E+00  0.17453728437E+04  0.17453728437E+04  0.25500000000E-02 0.  1.
         -2   -1    0    0    0  501 -0.00000000000E+00 -0.00000000000E+00 -0.11650059191E+02  0.11650059470E+02  0.25500000000E-02 0. -1.
    5000001    1    1    2    0    0  0.65517062892E+02  0.89995122301E+02  0.11432822472E+04  0.11512666521E+04  0.77000000000E+02 0.  0.
   -5000001    1    1    2    0    0 -0.65517062892E+02 -0.89995122301E+02  0.59044053735E+03  0.60575625107E+03  0.77000000000E+02 0.  0.
<mgrwt>
<rscale>  0 0.28519255E+03</rscale>
<asrwt>0</asrwt>
<pdfrwt beam="1">  1        2 0.26851888E+00 0.28519255E+03</pdfrwt>
<pdfrwt beam="2">  1       -2 0.17923169E-02 0.28519255E+03</pdfrwt>
<totfact> 0.91921422E+03</totfact>
</mgrwt>
</event>
<event>
 4    1  0.1171488E-003  0.2163747E+03  0.7818608E-02  0.1136615E+00
         -2   -1    0    0    0  501 -0.00000000000E+00  0.00000000000E+00  0.49230088516E+02  0.49230088582E+02  0.25500000000E-02 0. -1.
          2   -1    0    0  501    0  0.00000000000E+00 -0.00000000000E+00 -0.23775099234E+03  0.23775099235E+03  0.25500000000E-02 0.  1.
    5000001    1    1    2    0    0 -0.25792422772E+02  0.39847116867E+02 -0.17297769340E+03  0.19520072800E+03  0.77000000000E+02 0.  0.
   -5000001    1    1    2    0    0  0.25792422772E+02 -0.39847116867E+02 -0.15543210418E+02  0.91780352936E+02  0.77000000000E+02 0.  0.
<mgrwt>
<rscale>  0 0.21637470E+03</rscale>
<asrwt>0</asrwt>
<pdfrwt beam="1">  1        2 0.36577075E-01 0.21637470E+03</pdfrwt>
<pdfrwt beam="2">  1       -2 0.75738599E-02 0.21637470E+03</pdfrwt>
<totfact> 0.14138491E+04</totfact>
</mgrwt>
</event>
<event>
 4    1  0.1171488E-003  0.2117703E+03  0.7818608E-02  0.1140172E+00
         -2   -1    0    0    0  501 -0.00000000000E+00  0.00000000000E+00  0.59579902904E+02  0.59579902958E+02  0.25500000000E-02 0. -1.
          2   -1    0    0  501    0  0.00000000000E+00 -0.00000000000E+00 -0.18817857972E+03  0.18817857974E+03  0.25500000000E-02 0.  1.
    5000001    1    1    2    0    0 -0.30467983348E+02 -0.52458826425E+02 -0.11113253099E+03  0.14818794122E+03  0.77000000000E+02 0.  0.
   -5000001    1    1    2    0    0  0.30467983348E+02  0.52458826425E+02 -0.17466145823E+02  0.99570541472E+02  0.77000000000E+02 0.  0.
<mgrwt>
<rscale>  0 0.21177027E+03</rscale>
<asrwt>0</asrwt>
<pdfrwt beam="1">  1        2 0.28950551E-01 0.21177027E+03</pdfrwt>
<pdfrwt beam="2">  1       -2 0.91661390E-02 0.21177027E+03</pdfrwt>
<totfact> 0.13513954E+04</totfact>
</mgrwt>
</event>
<event>
 4    1  0.1171488E-003  0.1909496E+03  0.7818608E-02  0.1157608E+00
          2   -1    0    0  501    0  0.00000000000E+00  0.00000000000E+00  0.15573535672E+03  0.15573535674E+03  0.25500000000E-02 0.  1.
         -2   -1    0    0    0  501 -0.00000000000E+00 -0.00000000000E+00 -0.58531585736E+02  0.58531585791E+02  0.25500000000E-02 0. -1.
    5000001    1    1    2    0    0  0.43035411844E+02 -0.35823565041E+02  0.56620312685E+02  0.11077108961E+03  0.77000000000E+02 0.  0.
   -5000001    1    1    2    0    0 -0.43035411844E+02  0.35823565041E+02  0.40583458302E+02  0.10349585292E+03  0.77000000000E+02 0.  0.
<mgrwt>
<rscale>  0 0.19094960E+03</rscale>
<asrwt>0</asrwt>
<pdfrwt beam="1">  1        2 0.23959285E-01 0.19094960E+03</pdfrwt>
<pdfrwt beam="2">  1       -2 0.90048595E-02 0.19094960E+03</pdfrwt>
<totfact> 0.17006778E+04</totfact>
</mgrwt>
</event>
<event>
 4    1  0.1171488E-003  0.2145081E+03  0.7818608E-02  0.1138045E+00
         -2   -1    0    0    0  501 -0.00000000000E+00  0.00000000000E+00  0.12770140252E+03  0.12770140254E+03  0.25500000000E-02 0. -1.
          2   -1    0    0  501    0  0.00000000000E+00 -0.00000000000E+00 -0.90080654684E+02  0.90080654720E+02  0.25500000000E-02 0.  1.
    5000001    1    1    2    0    0 -0.37536974072E+02  0.62937845480E+02  0.33319369451E+02  0.11139738416E+03  0.77000000000E+02 0.  0.
   -5000001    1    1    2    0    0  0.37536974072E+02 -0.62937845480E+02  0.43013783831E+01  0.10638467311E+03  0.77000000000E+02 0.  0.
<mgrwt>
<rscale>  0 0.21450805E+03</rscale>
<asrwt>0</asrwt>
<pdfrwt beam="1">  1        2 0.13858562E-01 0.21450805E+03</pdfrwt>
<pdfrwt beam="2">  1       -2 0.19646370E-01 0.21450805E+03</pdfrwt>
<totfact> 0.90524839E+03</totfact>
</mgrwt>
</event>
<event>
 4    1  0.1171488E-003  0.2674982E+03  0.7818608E-02  0.1102720E+00
         -2   -1    0    0    0  501 -0.00000000000E+00  0.00000000000E+00  0.17989488654E+03  0.17989488656E+03  0.25500000000E-02 0. -1.
          2   -1    0    0  501    0  0.00000000000E+00 -0.00000000000E+00 -0.99440427010E+02  0.99440427042E+02  0.25500000000E-02 0.  1.
    5000001    1    1    2    0    0 -0.61000908881E+02  0.39022956456E+02 -0.45349912481E+02  0.11501963561E+03  0.77000000000E+02 0.  0.
   -5000001    1    1    2    0    0  0.61000908881E+02 -0.39022956456E+02  0.12580437201E+03  0.16431567799E+03  0.77000000000E+02 0.  0.
<mgrwt>
<rscale>  0 0.26749822E+03</rscale>
<asrwt>0</asrwt>
<pdfrwt beam="1">  1        2 0.15298527E-01 0.26749822E+03</pdfrwt>
<pdfrwt beam="2">  1       -2 0.27676136E-01 0.26749822E+03</pdfrwt>
<totfact> 0.44741385E+03</totfact>
</mgrwt>
</event>
<event>
 4    1  0.1171488E-003  0.1946265E+03  0.7818608E-02  0.1154354E+00
         -2   -1    0    0    0  501 -0.00000000000E+00  0.00000000000E+00  0.91470344923E+02  0.91470344958E+02  0.25500000000E-02 0. -1.
          2   -1    0    0  501    0  0.00000000000E+00 -0.00000000000E+00 -0.10352936447E+03  0.10352936450E+03  0.25500000000E-02 0.  1.
    5000001    1    1    2    0    0 -0.48988925895E+02 -0.27937531594E+02 -0.25051337016E+02  0.98676187696E+02  0.77000000000E+02 0.  0.
   -5000001    1    1    2    0    0  0.48988925895E+02  0.27937531594E+02  0.12992317468E+02  0.96323521764E+02  0.77000000000E+02 0.  0.
<mgrwt>
<rscale>  0 0.19462648E+03</rscale>
<asrwt>0</asrwt>
<pdfrwt beam="1">  1        2 0.15927594E-01 0.19462648E+03</pdfrwt>
<pdfrwt beam="2">  1       -2 0.14072361E-01 0.19462648E+03</pdfrwt>
<totfact> 0.13302312E+04</totfact>
</mgrwt>
</event>
<event>
 4    1  0.1171488E-003  0.1919247E+03  0.7818608E-02  0.1156737E+00
          2   -1    0    0  501    0  0.00000000000E+00  0.00000000000E+00  0.18322551534E+03  0.18322551536E+03  0.25500000000E-02 0.  1.
         -2   -1    0    0    0  501 -0.00000000000E+00 -0.00000000000E+00 -0.50259219361E+02  0.50259219425E+02  0.25500000000E-02 0. -1.
    5000001    1    1    2    0    0  0.36767123216E+01  0.35153137827E+02  0.11664259720E+02  0.85523776036E+02  0.77000000000E+02 0.  0.
   -5000001    1    1    2    0    0 -0.36767123216E+01 -0.35153137827E+02  0.12130203626E+03  0.14796095875E+03  0.77000000000E+02 0.  0.
<mgrwt>
<rscale>  0 0.19192469E+03</rscale>
<asrwt>0</asrwt>
<pdfrwt beam="1">  1        2 0.28188541E-01 0.19192469E+03</pdfrwt>
<pdfrwt beam="2">  1       -2 0.77321875E-02 0.19192469E+03</pdfrwt>
<totfact> 0.18022792E+04</totfact>
</mgrwt>
</event>
<event>
 4    1  0.1171488E-003  0.3111313E+03  0.7818608E-02  0.1079805E+00
          2   -1    0    0  501    0  0.00000000000E+00  0.00000000000E+00  0.32168379805E+03  0.32168379806E+03  0.25500000000E-02 0.  1.
         -2   -1    0    0    0  501 -0.00000000000E+00 -0.00000000000E+00 -0.75231260264E+02  0.75231260307E+02  0.25500000000E-02 0. -1.
    5000001    1    1    2    0    0 -0.12784747676E+03 -0.33774908304E+02  0.87461709493E+02  0.17625059538E+03  0.77000000000E+02 0.  0.
   -5000001    1    1    2    0    0  0.12784747676E+03  0.33774908304E+02  0.15899082829E+03  0.22066446298E+03  0.77000000000E+02 0.  0.
<mgrwt>
<rscale>  0 0.31113134E+03</rscale>
<asrwt>0</asrwt>
<pdfrwt beam="1">  1        2 0.49489814E-01 0.31113134E+03</pdfrwt>
<pdfrwt beam="2">  1       -2 0.11574040E-01 0.31113134E+03</pdfrwt>
<totfact> 0.53076815E+03</totfact>
</mgrwt>
</event>
<event>
 4    1  0.1171488E-003  0.3757934E+03  0.7818608E-02  0.1052500E+00
         -2   -1    0    0    0  501 -0.00000000000E+00  0.00000000000E+00  0.46477560328E+03  0.46477560329E+03  0.25500000000E-02 0. -1.
          2   -1    0    0  501    0  0.00000000000E+00 -0.00000000000E+00 -0.75961763677E+02  0.75961763720E+02  0.25500000000E-02 0.  1.
    5000001    1    1    2    0    0  0.17466214154E+02  0.16899045586E+03  0.16180551865E+03  0.24692684883E+03  0.77000000000E+02 0.  0.
   -5000001    1    1    2    0    0 -0.17466214154E+02 -0.16899045586E+03  0.22700832096E+03  0.29381051818E+03  0.77000000000E+02 0.  0.
<mgrwt>
<rscale>  0 0.37579342E+03</rscale>
<asrwt>0</asrwt>
<pdfrwt beam="1">  1        2 0.11686425E-01 0.37579342E+03</pdfrwt>
<pdfrwt beam="2">  1       -2 0.71503942E-01 0.37579342E+03</pdfrwt>
<totfact> 0.96780496E+02</totfact>
</mgrwt>
</event>
<event>
 4    1  0.1171488E-003  0.2375717E+03  0.7818608E-02  0.1121421E+00
         -2   -1    0    0    0  501 -0.00000000000E+00  0.00000000000E+00  0.24195989778E+03  0.24195989780E+03  0.25500000000E-02 0. -1.
          2   -1    0    0  501    0  0.00000000000E+00 -0.00000000000E+00 -0.58315748790E+02  0.58315748846E+02  0.25500000000E-02 0.  1.
    5000001    1    1    2    0    0 -0.73741004522E+02 -0.49786030993E+02  0.71258783835E+02  0.13756161857E+03  0.77000000000E+02 0.  0.
   -5000001    1    1    2    0    0  0.73741004522E+02  0.49786030993E+02  0.11238536516E+03  0.16271402807E+03  0.77000000000E+02 0.  0.
<mgrwt>
<rscale>  0 0.23757165E+03</rscale>
<asrwt>0</asrwt>
<pdfrwt beam="1">  1        2 0.89716538E-02 0.23757165E+03</pdfrwt>
<pdfrwt beam="2">  1       -2 0.37224599E-01 0.23757165E+03</pdfrwt>
<totfact> 0.49530849E+03</totfact>
</mgrwt>
</event>
<event>
 4    1  0.1171488E-003  0.2629942E+03  0.7818608E-02  0.1105358E+00
         -2   -1    0    0    0  501 -0.00000000000E+00  0.00000000000E+00  0.34928590474E+03  0.34928590475E+03  0.25500000000E-02 0. -1.
          2   -1    0    0  501    0  0.00000000000E+00 -0.00000000000E+00 -0.49505246826E+02  0.49505246892E+02  0.25500000000E-02 0.  1.
    5000001    1    1    2    0    0  0.90363671984E+02 -0.56198259437E+02  0.14046363711E+03  0.19230931056E+03  0.77000000000E+02 0.  0.
   -5000001    1    1    2    0    0 -0.90363671984E+02  0.56198259437E+02  0.15931702080E+03  0.20648184108E+03  0.77000000000E+02 0.  0.
<mgrwt>
<rscale>  0 0.26299418E+03</rscale>
<asrwt>0</asrwt>
<pdfrwt beam="1">  1        2 0.76161915E-02 0.26299418E+03</pdfrwt>
<pdfrwt beam="2">  1       -2 0.53736295E-01 0.26299418E+03</pdfrwt>
<totfact> 0.29898918E+03</totfact>
</mgrwt>
</event>
<event>
 4    1  0.1171488E-003  0.2742900E+03  0.7818608E-02  0.1098849E+00
         -2   -1    0    0    0  501 -0.00000000000E+00  0.00000000000E+00  0.33590716987E+02  0.33590717084E+02  0.25500000000E-02 0. -1.
          2   -1    0    0  501    0  0.00000000000E+00 -0.00000000000E+00 -0.55993888988E+03  0.55993888989E+03  0.25500000000E-02 0.  1.
    5000001    1    1    2    0    0  0.85258839070E+02 -0.62972145552E+02 -0.17540527592E+03  0.21893051769E+03  0.77000000000E+02 0.  0.
   -5000001    1    1    2    0    0 -0.85258839070E+02  0.62972145552E+02 -0.35094289697E+03  0.37459908928E+03  0.77000000000E+02 0.  0.
<mgrwt>
<rscale>  0 0.27428998E+03</rscale>
<asrwt>0</asrwt>
<pdfrwt beam="1">  1        2 0.86144438E-01 0.27428998E+03</pdfrwt>
<pdfrwt beam="2">  1       -2 0.51678030E-02 0.27428998E+03</pdfrwt>
<totfact> 0.10127343E+04</totfact>
</mgrwt>
</event>
<event>
 4    1  0.1171488E-003  0.2610203E+03  0.7818608E-02  0.1106532E+00
         -2   -1    0    0    0  501 -0.00000000000E+00  0.00000000000E+00  0.44608196868E+02  0.44608196941E+02  0.25500000000E-02 0. -1.
          2   -1    0    0  501    0  0.00000000000E+00 -0.00000000000E+00 -0.38183326958E+03  0.38183326959E+03  0.25500000000E-02 0.  1.
    5000001    1    1    2    0    0  0.92126866419E+02  0.50173827333E+02 -0.15234699519E+03  0.20035812788E+03  0.77000000000E+02 0.  0.
   -5000001    1    1    2    0    0 -0.92126866419E+02 -0.50173827333E+02 -0.18487807752E+03  0.22608333864E+03  0.77000000000E+02 0.  0.
<mgrwt>
<rscale>  0 0.26102026E+03</rscale>
<asrwt>0</asrwt>
<pdfrwt beam="1">  1        2 0.58743578E-01 0.26102026E+03</pdfrwt>
<pdfrwt beam="2">  1       -2 0.68627998E-02 0.26102026E+03</pdfrwt>
<totfact> 0.99955211E+03</totfact>
</mgrwt>
</event>
<event>
 4    1  0.1171488E-003  0.2171933E+03  0.7818608E-02  0.1135993E+00
          2   -1    0    0  501    0  0.00000000000E+00  0.00000000000E+00  0.95381624331E+03  0.95381624331E+03  0.25500000000E-02 0.  1.
         -2   -1    0    0    0  501 -0.00000000000E+00 -0.00000000000E+00 -0.12364262079E+02  0.12364262342E+02  0.25500000000E-02 0. -1.
    5000001    1    1    2    0    0  0.71094594696E+02 -0.71684741879E+01  0.59323347281E+03  0.60246226577E+03  0.77000000000E+02 0.  0.
   -5000001    1    1    2    0    0 -0.71094594696E+02  0.71684741879E+01  0.34821850842E+03  0.36371823988E+03  0.77000000000E+02 0.  0.
<mgrwt>
<rscale>  0 0.21719332E+03</rscale>
<asrwt>0</asrwt>
<pdfrwt beam="1">  1        2 0.14674094E+00 0.21719332E+03</pdfrwt>
<pdfrwt beam="2">  1       -2 0.19021944E-02 0.21719332E+03</pdfrwt>
<totfact> 0.22962317E+04</totfact>
</mgrwt>
</event>
<event>
 4    1  0.1171488E-003  0.2831550E+03  0.7818608E-02  0.1093978E+00
          2   -1    0    0  501    0  0.00000000000E+00  0.00000000000E+00  0.22276293206E+04  0.22276293206E+04  0.25500000000E-02 0.  1.
         -2   -1    0    0    0  501 -0.00000000000E+00 -0.00000000000E+00 -0.89979888807E+01  0.89979892421E+01  0.25500000000E-02 0. -1.
    5000001    1    1    2    0    0 -0.11192046988E+03 -0.15319693193E+02  0.14000034782E+04  0.14066625834E+04  0.77000000000E+02 0.  0.
   -5000001    1    1    2    0    0  0.11192046988E+03  0.15319693193E+02  0.81862785361E+03  0.82996472653E+03  0.77000000000E+02 0.  0.
<mgrwt>
<rscale>  0 0.28315497E+03</rscale>
<asrwt>0</asrwt>
<pdfrwt beam="1">  1        2 0.34271226E+00 0.28315497E+03</pdfrwt>
<pdfrwt beam="2">  1       -2 0.13843058E-02 0.28315497E+03</pdfrwt>
<totfact> 0.74697263E+03</totfact>
</mgrwt>
</event>
<event>
 4    1  0.1171488E-003  0.2309231E+03  0.7818608E-02  0.1125992E+00
          2   -1    0    0  501    0  0.00000000000E+00  0.00000000000E+00  0.12730042668E+04  0.12730042668E+04  0.25500000000E-02 0.  1.
         -2   -1    0    0    0  501 -0.00000000000E+00 -0.00000000000E+00 -0.10472368363E+02  0.10472368673E+02  0.25500000000E-02 0. -1.
    5000001    1    1    2    0    0 -0.24862613455E+02  0.71713848486E+02  0.85644107589E+03  0.86323886734E+03  0.77000000000E+02 0.  0.
   -5000001    1    1    2    0    0  0.24862613455E+02 -0.71713848486E+02  0.40609082257E+03  0.42023776816E+03  0.77000000000E+02 0.  0.
<mgrwt>
<rscale>  0 0.23092310E+03</rscale>
<asrwt>0</asrwt>
<pdfrwt beam="1">  1        2 0.19584686E+00 0.23092310E+03</pdfrwt>
<pdfrwt beam="2">  1       -2 0.16111332E-02 0.23092310E+03</pdfrwt>
<totfact> 0.19127668E+04</totfact>
</mgrwt>
</event>
<event>
 4    1  0.1171488E-003  0.3155666E+03  0.7818608E-02  0.1077708E+00
         -2   -1    0    0    0  501 -0.00000000000E+00  0.00000000000E+00  0.50782268664E+02  0.50782268728E+02  0.25500000000E-02 0. -1.
          2   -1    0    0  501    0  0.00000000000E+00 -0.00000000000E+00 -0.49024150246E+03  0.49024150247E+03  0.25500000000E-02 0.  1.
    5000001    1    1    2    0    0 -0.73129950572E+01  0.87349898887E+02 -0.37617304171E+02  0.12258689288E+03  0.77000000000E+02 0.  0.
   -5000001    1    1    2    0    0  0.73129950572E+01 -0.87349898887E+02 -0.40184192962E+03  0.41843687832E+03  0.77000000000E+02 0.  0.
<mgrwt>
<rscale>  0 0.31556664E+03</rscale>
<asrwt>0</asrwt>
<pdfrwt beam="1">  1        2 0.75421766E-01 0.31556664E+03</pdfrwt>
<pdfrwt beam="2">  1       -2 0.78126571E-02 0.31556664E+03</pdfrwt>
<totfact> 0.62498968E+03</totfact>
</mgrwt>
</event>
<event>
 4    1  0.1171488E-003  0.1871885E+03  0.7818608E-02  0.1161022E+00
         -2   -1    0    0    0  501 -0.00000000000E+00  0.00000000000E+00  0.57950160893E+02  0.57950160949E+02  0.25500000000E-02 0. -1.
          2   -1    0    0  501    0  0.00000000000E+00 -0.00000000000E+00 -0.15116230803E+03  0.15116230806E+03  0.25500000000E-02 0.  1.
    5000001    1    1    2    0    0 -0.60597423596E+01 -0.48736634392E+02 -0.69470276729E+02  0.11474798193E+03  0.77000000000E+02 0.  0.
   -5000001    1    1    2    0    0  0.60597423596E+01  0.48736634392E+02 -0.23741870413E+02  0.94364487070E+02  0.77000000000E+02 0.  0.
<mgrwt>
<rscale>  0 0.18718846E+03</rscale>
<asrwt>0</asrwt>
<pdfrwt beam="1">  1        2 0.23255740E-01 0.18718846E+03</pdfrwt>
<pdfrwt beam="2">  1       -2 0.89154094E-02 0.18718846E+03</pdfrwt>
<totfact> 0.17831831E+04</totfact>
</mgrwt>
</event>
<event>
 4    1  0.1171488E-003  0.2550860E+03  0.7818608E-02  0.1110132E+00
         -2   -1    0    0    0  501 -0.00000000000E+00  0.00000000000E+00  0.31249971890E+02  0.31249971994E+02  0.25500000000E-02 0. -1.
          2   -1    0    0  501    0  0.00000000000E+00 -0.00000000000E+00 -0.52055129166E+03  0.52055129167E+03  0.25500000000E-02 0.  1.
    5000001    1    1    2    0    0 -0.54535407151E+02  0.85109865660E+02 -0.26838808011E+03  0.29694942567E+03  0.77000000000E+02 0.  0.
   -5000001    1    1    2    0    0  0.54535407151E+02 -0.85109865660E+02 -0.22091323967E+03  0.25485183799E+03  0.77000000000E+02 0.  0.
<mgrwt>
<rscale>  0 0.25508597E+03</rscale>
<asrwt>0</asrwt>
<pdfrwt beam="1">  1        2 0.80084808E-01 0.25508597E+03</pdfrwt>
<pdfrwt beam="2">  1       -2 0.48076884E-02 0.25508597E+03</pdfrwt>
<totfact> 0.12238031E+04</totfact>
</mgrwt>
</event>
<event>
 4    1  0.1171488E-003  0.1910300E+03  0.7818608E-02  0.1157536E+00
          2   -1    0    0  501    0  0.00000000000E+00  0.00000000000E+00  0.33166430431E+04  0.33166430431E+04  0.25500000000E-02 0.  1.
         -2   -1    0    0    0  501 -0.00000000000E+00 -0.00000000000E+00 -0.27507077562E+01  0.27507089382E+01  0.25500000000E-02 0. -1.
    5000001    1    1    2    0    0 -0.27892810918E+02  0.43378159894E+02  0.12552402212E+04  0.12586566993E+04  0.77000000000E+02 0.  0.
   -5000001    1    1    2    0    0  0.27892810918E+02 -0.43378159894E+02  0.20586521141E+04  0.20607370528E+04  0.77000000000E+02 0.  0.
<mgrwt>
<rscale>  0 0.19103003E+03</rscale>
<asrwt>0</asrwt>
<pdfrwt beam="1">  1        2 0.51025371E+00 0.19103003E+03</pdfrwt>
<pdfrwt beam="2">  1       -2 0.42318513E-03 0.19103003E+03</pdfrwt>
<totfact> 0.98526004E+03</totfact>
</mgrwt>
</event>
<event>
 4    1  0.1171488E-003  0.7131853E+03  0.7818608E-02  0.9694946E-01
          2   -1    0    0  501    0  0.00000000000E+00  0.00000000000E+00  0.10256818011E+04  0.10256818011E+04  0.25500000000E-02 0.  1.
         -2   -1    0    0    0  501 -0.00000000000E+00 -0.00000000000E+00 -0.12397441975E+03  0.12397441978E+03  0.25500000000E-02 0. -1.
    5000001    1    1    2    0    0 -0.32146313663E+03  0.12100470133E+03  0.35897493574E+03  0.50276504497E+03  0.77000000000E+02 0.  0.
   -5000001    1    1    2    0    0  0.32146313663E+03 -0.12100470133E+03  0.54273244565E+03  0.64689117595E+03  0.77000000000E+02 0.  0.
<mgrwt>
<rscale>  0 0.71318527E+03</rscale>
<asrwt>0</asrwt>
<pdfrwt beam="1">  1        2 0.15779720E+00 0.71318527E+03</pdfrwt>
<pdfrwt beam="2">  1       -2 0.19072988E-01 0.71318527E+03</pdfrwt>
<totfact> 0.56632179E+02</totfact>
</mgrwt>
</event>
<event>
 4    1  0.1171488E-003  0.2025189E+03  0.7818608E-02  0.1147631E+00
         -2   -1    0    0    0  501 -0.00000000000E+00  0.00000000000E+00  0.91099511886E+01  0.91099515455E+01  0.25500000000E-02 0. -1.
          2   -1    0    0  501    0  0.00000000000E+00 -0.00000000000E+00 -0.11255248577E+04  0.11255248577E+04  0.25500000000E-02 0.  1.
    5000001    1    1    2    0    0 -0.45203239934E+01 -0.62230144725E+02 -0.44183317081E+03  0.45281185394E+03  0.77000000000E+02 0.  0.
   -5000001    1    1    2    0    0  0.45203239934E+01  0.62230144725E+02 -0.67458173566E+03  0.68182295526E+03  0.77000000000E+02 0.  0.
<mgrwt>
<rscale>  0 0.20251890E+03</rscale>
<asrwt>0</asrwt>
<pdfrwt beam="1">  1        2 0.17315756E+00 0.20251890E+03</pdfrwt>
<pdfrwt beam="2">  1       -2 0.14015319E-02 0.20251890E+03</pdfrwt>
<totfact> 0.28177704E+04</totfact>
</mgrwt>
</event>
<event>
 4    1  0.1171488E-003  0.2308926E+03  0.7818608E-02  0.1126013E+00
          2   -1    0    0  501    0  0.00000000000E+00  0.00000000000E+00  0.28782281238E+04  0.28782281238E+04  0.25500000000E-02 0.  1.
         -2   -1    0    0    0  501 -0.00000000000E+00 -0.00000000000E+00 -0.46305728984E+01  0.46305736006E+01  0.25500000000E-02 0. -1.
    5000001    1    1    2    0    0 -0.81605830673E+02 -0.17653820150E+02  0.11785897487E+04  0.11840498151E+04  0.77000000000E+02 0.  0.
   -5000001    1    1    2    0    0  0.81605830673E+02  0.17653820150E+02  0.16950078022E+04  0.16988088823E+04  0.77000000000E+02 0.  0.
<mgrwt>
<rscale>  0 0.23089258E+03</rscale>
<asrwt>0</asrwt>
<pdfrwt beam="1">  1        2 0.44280437E+00 0.23089258E+03</pdfrwt>
<pdfrwt beam="2">  1       -2 0.71239582E-03 0.23089258E+03</pdfrwt>
<totfact> 0.85626285E+03</totfact>
</mgrwt>
</event>
<event>
 4    1  0.1171488E-003  0.4847955E+03  0.7818608E-02  0.1017825E+00
          2   -1    0    0  501    0  0.00000000000E+00  0.00000000000E+00  0.27766046164E+03  0.27766046165E+03  0.25500000000E-02 0.  1.
         -2   -1    0    0    0  501 -0.00000000000E+00 -0.00000000000E+00 -0.21161338704E+03  0.21161338705E+03  0.25500000000E-02 0. -1.
    5000001    1    1    2    0    0  0.92108574086E+02  0.98797731612E+02 -0.15465853975E+03  0.21930172163E+03  0.77000000000E+02 0.  0.
   -5000001    1    1    2    0    0 -0.92108574086E+02 -0.98797731612E+02  0.22070561435E+03  0.26997212707E+03  0.77000000000E+02 0.  0.
<mgrwt>
<rscale>  0 0.48479551E+03</rscale>
<asrwt>0</asrwt>
<pdfrwt beam="1">  1        2 0.42716994E-01 0.48479551E+03</pdfrwt>
<pdfrwt beam="2">  1       -2 0.32555906E-01 0.48479551E+03</pdfrwt>
<totfact> 0.10529073E+03</totfact>
</mgrwt>
</event>
<event>
 4    1  0.1171488E-003  0.2139942E+03  0.7818608E-02  0.1138441E+00
         -2   -1    0    0    0  501 -0.00000000000E+00  0.00000000000E+00  0.22478406567E+02  0.22478406712E+02  0.25500000000E-02 0. -1.
          2   -1    0    0  501    0  0.00000000000E+00 -0.00000000000E+00 -0.50930583611E+03  0.50930583612E+03  0.25500000000E-02 0.  1.
    5000001    1    1    2    0    0  0.61091422144E+02  0.49725055235E+01 -0.13908653837E+03  0.17038472005E+03  0.77000000000E+02 0.  0.
   -5000001    1    1    2    0    0 -0.61091422144E+02 -0.49725055235E+01 -0.34774089117E+03  0.36139952278E+03  0.77000000000E+02 0.  0.
<mgrwt>
<rscale>  0 0.21399424E+03</rscale>
<asrwt>0</asrwt>
<pdfrwt beam="1">  1        2 0.78354735E-01 0.21399424E+03</pdfrwt>
<pdfrwt beam="2">  1       -2 0.34582168E-02 0.21399424E+03</pdfrwt>
<totfact> 0.20368799E+04</totfact>
</mgrwt>
</event>
<event>
 4    1  0.1171488E-003  0.1896459E+03  0.7818608E-02  0.1158781E+00
         -2   -1    0    0    0  501 -0.00000000000E+00  0.00000000000E+00  0.19856493857E+02  0.19856494020E+02  0.25500000000E-02 0. -1.
          2   -1    0    0  501    0  0.00000000000E+00 -0.00000000000E+00 -0.45281877752E+03  0.45281877753E+03  0.25500000000E-02 0.  1.
    5000001    1    1    2    0    0 -0.37661900533E+02 -0.15050322025E+01 -0.11549366147E+03  0.14383486960E+03  0.77000000000E+02 0.  0.
   -5000001    1    1    2    0    0  0.37661900533E+02  0.15050322025E+01 -0.31746862220E+03  0.32884040195E+03  0.77000000000E+02 0.  0.
<mgrwt>
<rscale>  0 0.18964592E+03</rscale>
<asrwt>0</asrwt>
<pdfrwt beam="1">  1        2 0.69664420E-01 0.18964592E+03</pdfrwt>
<pdfrwt beam="2">  1       -2 0.30548456E-02 0.18964592E+03</pdfrwt>
<totfact> 0.27635613E+04</totfact>
</mgrwt>
</event>
<event>
 4    1  0.1171488E-003  0.2148447E+03  0.7818608E-02  0.1137786E+00
          2   -1    0    0  501    0  0.00000000000E+00  0.00000000000E+00  0.99697599728E+03  0.99697599729E+03  0.25500000000E-02 0.  1.
         -2   -1    0    0    0  501 -0.00000000000E+00 -0.00000000000E+00 -0.11574567649E+02  0.11574567929E+02  0.25500000000E-02 0. -1.
    5000001    1    1    2    0    0 -0.66204022325E+02 -0.32694720753E+02  0.43357294298E+03  0.44650466316E+03  0.77000000000E+02 0.  0.
   -5000001    1    1    2    0    0  0.66204022325E+02  0.32694720753E+02  0.55182848665E+03  0.56204590205E+03  0.77000000000E+02 0.  0.
<mgrwt>
<rscale>  0 0.21484475E+03</rscale>
<asrwt>0</asrwt>
<pdfrwt beam="1">  1        2 0.15338091E+00 0.21484475E+03</pdfrwt>
<pdfrwt beam="2">  1       -2 0.17807029E-02 0.21484475E+03</pdfrwt>
<totfact> 0.23772882E+04</totfact>
</mgrwt>
</event>
<event>
 4    1  0.1171488E-003  0.2198413E+03  0.7818608E-02  0.1134001E+00
          2   -1    0    0  501    0  0.00000000000E+00  0.00000000000E+00  0.83121356641E+02  0.83121356680E+02  0.25500000000E-02 0.  1.
         -2   -1    0    0    0  501 -0.00000000000E+00 -0.00000000000E+00 -0.14536038069E+03  0.14536038072E+03  0.25500000000E-02 0. -1.
    5000001    1    1    2    0    0  0.11209710303E+02  0.70038522252E+02  0.37010121742E+01  0.10475566665E+03  0.77000000000E+02 0.  0.
   -5000001    1    1    2    0    0 -0.11209710303E+02 -0.70038522252E+02 -0.65940036228E+02  0.12372607075E+03  0.77000000000E+02 0.  0.
<mgrwt>
<rscale>  0 0.21984133E+03</rscale>
<asrwt>0</asrwt>
<pdfrwt beam="1">  1        2 0.12787901E-01 0.21984133E+03</pdfrwt>
<pdfrwt beam="2">  1       -2 0.22363136E-01 0.21984133E+03</pdfrwt>
<totfact> 0.79931030E+03</totfact>
</mgrwt>
</event>
<event>
 4    1  0.1171488E-003  0.3059205E+03  0.7818608E-02  0.1082318E+00
          2   -1    0    0  501    0  0.00000000000E+00  0.00000000000E+00  0.24917383438E+04  0.24917383438E+04  0.25500000000E-02 0.  1.
         -2   -1    0    0    0  501 -0.00000000000E+00 -0.00000000000E+00 -0.93897654527E+01  0.93897657989E+01  0.25500000000E-02 0. -1.
    5000001    1    1    2    0    0 -0.10633827920E+03  0.71495008923E+02  0.15059060204E+04  0.15133080679E+04  0.77000000000E+02 0.  0.
   -5000001    1    1    2    0    0  0.10633827920E+03 -0.71495008923E+02  0.97644255789E+03  0.98782004170E+03  0.77000000000E+02 0.  0.
<mgrwt>
<rscale>  0 0.30592051E+03</rscale>
<asrwt>0</asrwt>
<pdfrwt beam="1">  1        2 0.38334460E+00 0.30592051E+03</pdfrwt>
<pdfrwt beam="2">  1       -2 0.14445784E-02 0.30592051E+03</pdfrwt>
<totfact> 0.50482445E+03</totfact>
</mgrwt>
</event>
<event>
 4    1  0.1171488E-003  0.1581664E+03  0.7818608E-02  0.1190783E+00
         -2   -1    0    0    0  501 -0.00000000000E+00  0.00000000000E+00  0.18850908824E+02  0.18850908996E+02  0.25500000000E-02 0. -1.
          2   -1    0    0  501    0  0.00000000000E+00 -0.00000000000E+00 -0.33176935464E+03  0.33176935465E+03  0.25500000000E-02 0.  1.
    5000001    1    1    2    0    0 -0.92427463102E+01 -0.12897835655E+02 -0.13747092538E+03  0.15836362540E+03  0.77000000000E+02 0.  0.
   -5000001    1    1    2    0    0  0.92427463102E+01  0.12897835655E+02 -0.17544752043E+03  0.19225663825E+03  0.77000000000E+02 0.  0.
<mgrwt>
<rscale>  0 0.15816642E+03</rscale>
<asrwt>0</asrwt>
<pdfrwt beam="1">  1        2 0.51041435E-01 0.15816642E+03</pdfrwt>
<pdfrwt beam="2">  1       -2 0.29001401E-02 0.15816642E+03</pdfrwt>
<totfact> 0.41010393E+04</totfact>
</mgrwt>
</event>
<event>
 4    1  0.1171488E-003  0.1889330E+03  0.7818608E-02  0.1159427E+00
         -2   -1    0    0    0  501 -0.00000000000E+00  0.00000000000E+00  0.14767133881E+03  0.14767133883E+03  0.25500000000E-02 0. -1.
          2   -1    0    0  501    0  0.00000000000E+00 -0.00000000000E+00 -0.60430949779E+02  0.60430949833E+02  0.25500000000E-02 0.  1.
    5000001    1    1    2    0    0 -0.50769465003E+02 -0.12706009799E+02  0.25998955784E+02  0.96663990005E+02  0.77000000000E+02 0.  0.
   -5000001    1    1    2    0    0  0.50769465003E+02  0.12706009799E+02  0.61241433243E+02  0.11143829866E+03  0.77000000000E+02 0.  0.
<mgrwt>
<rscale>  0 0.18893300E+03</rscale>
<asrwt>0</asrwt>
<pdfrwt beam="1">  1        2 0.92970693E-02 0.18893300E+03</pdfrwt>
<pdfrwt beam="2">  1       -2 0.22718667E-01 0.18893300E+03</pdfrwt>
<totfact> 0.11381375E+04</totfact>
</mgrwt>
</event>
<event>
 4    1  0.1171488E-003  0.3206670E+03  0.7818608E-02  0.1075343E+00
         -2   -1    0    0    0  501 -0.00000000000E+00  0.00000000000E+00  0.71294778585E+02  0.71294778631E+02  0.25500000000E-02 0. -1.
          2   -1    0    0  501    0  0.00000000000E+00 -0.00000000000E+00 -0.36057109945E+03  0.36057109946E+03  0.25500000000E-02 0.  1.
    5000001    1    1    2    0    0 -0.64926900273E+02  0.11290909178E+02 -0.31195736023E+03  0.32800820358E+03  0.77000000000E+02 0.  0.
   -5000001    1    1    2    0    0  0.64926900273E+02 -0.11290909178E+02  0.22681039366E+02  0.10385767452E+03  0.77000000000E+02 0.  0.
<mgrwt>
<rscale>  0 0.32066703E+03</rscale>
<asrwt>0</asrwt>
<pdfrwt beam="1">  1        2 0.55472476E-01 0.32066703E+03</pdfrwt>
<pdfrwt beam="2">  1       -2 0.10968428E-01 0.32066703E+03</pdfrwt>
<totfact> 0.51187871E+03</totfact>
</mgrwt>
</event>
<event>
 4    1  0.1171488E-003  0.2371564E+03  0.7818608E-02  0.1121702E+00
          2   -1    0    0  501    0  0.00000000000E+00  0.00000000000E+00  0.36747496209E+03  0.36747496210E+03  0.25500000000E-02 0.  1.
         -2   -1    0    0    0  501 -0.00000000000E+00 -0.00000000000E+00 -0.38263271938E+02  0.38263272023E+02  0.25500000000E-02 0. -1.
    5000001    1    1    2    0    0  0.58641710803E+02  0.69969090980E+01  0.48017126768E+02  0.10827027037E+03  0.77000000000E+02 0.  0.
   -5000001    1    1    2    0    0 -0.58641710803E+02 -0.69969090980E+01  0.28119456339E+03  0.29746796376E+03  0.77000000000E+02 0.  0.
<mgrwt>
<rscale>  0 0.23715644E+03</rscale>
<asrwt>0</asrwt>
<pdfrwt beam="1">  1        2 0.56534610E-01 0.23715644E+03</pdfrwt>
<pdfrwt beam="2">  1       -2 0.58866571E-02 0.23715644E+03</pdfrwt>
<totfact> 0.13127978E+04</totfact>
</mgrwt>
</event>
<event>
 4    1  0.1171488E-003  0.2879394E+03  0.7818608E-02  0.1091430E+00
          2   -1    0    0  501    0  0.00000000000E+00  0.00000000000E+00  0.18476757998E+04  0.18476757998E+04  0.25500000000E-02 0.  1.
         -2   -1    0    0    0  501 -0.00000000000E+00 -0.00000000000E+00 -0.11218023931E+02  0.11218024221E+02  0.25500000000E-02 0. -1.
    5000001    1    1    2    0    0 -0.63168411583E+02  0.80193740977E+02  0.49111748855E+03  0.50749056333E+03  0.77000000000E+02 0.  0.
   -5000001    1    1    2    0    0  0.63168411583E+02 -0.80193740977E+02  0.13453402873E+04  0.13514032607E+04  0.77000000000E+02 0.  0.
<mgrwt>
<rscale>  0 0.28793938E+03</rscale>
<asrwt>0</asrwt>
<pdfrwt beam="1">  1        2 0.28425747E+00 0.28793938E+03</pdfrwt>
<pdfrwt beam="2">  1       -2 0.17258520E-02 0.28793938E+03</pdfrwt>
<totfact> 0.85854414E+03</totfact>
</mgrwt>
</event>
<event>
 4    1  0.1171488E-003  0.3520285E+03  0.7818608E-02  0.1061786E+00
         -2   -1    0    0    0  501 -0.00000000000E+00  0.00000000000E+00  0.16419856286E+02  0.16419856484E+02  0.25500000000E-02 0. -1.
          2   -1    0    0  501    0  0.00000000000E+00 -0.00000000000E+00 -0.18868018607E+04  0.18868018607E+04  0.25500000000E-02 0.  1.
    5000001    1    1    2    0    0 -0.11678408174E+03 -0.37085077313E+02 -0.14768666217E+04  0.14839399728E+04  0.77000000000E+02 0.  0.
   -5000001    1    1    2    0    0  0.11678408174E+03  0.37085077313E+02 -0.39351538272E+03  0.41928174435E+03  0.77000000000E+02 0.  0.
<mgrwt>
<rscale>  0 0.35202850E+03</rscale>
<asrwt>0</asrwt>
<pdfrwt beam="1">  1        2 0.29027704E+00 0.35202850E+03</pdfrwt>
<pdfrwt beam="2">  1       -2 0.25261332E-02 0.35202850E+03</pdfrwt>
<totfact> 0.46609238E+03</totfact>
</mgrwt>
</event>
<event>
 4    1  0.1171488E-003  0.1588170E+03  0.7818608E-02  0.1190039E+00
         -2   -1    0    0    0  501 -0.00000000000E+00  0.00000000000E+00  0.14633656533E+01  0.14633678750E+01  0.25500000000E-02 0. -1.
          2   -1    0    0  501    0  0.00000000000E+00 -0.00000000000E+00 -0.43090437550E+04  0.43090437550E+04  0.25500000000E-02 0.  1.
    5000001    1    1    2    0    0 -0.16542865988E+02  0.74795378358E+01 -0.19675176793E+04  0.19691075207E+04  0.77000000000E+02 0.  0.
   -5000001    1    1    2    0    0  0.16542865988E+02 -0.74795378358E+01 -0.23400627101E+04  0.23413996022E+04  0.77000000000E+02 0.  0.
<mgrwt>
<rscale>  0 0.15881702E+03</rscale>
<asrwt>0</asrwt>
<pdfrwt beam="1">  1        2 0.66291965E+00 0.15881702E+03</pdfrwt>
<pdfrwt beam="2">  1       -2 0.22513680E-03 0.15881702E+03</pdfrwt>
<totfact> 0.46596082E+03</totfact>
</mgrwt>
</event>
<event>
 4    1  0.1171488E-003  0.2056893E+03  0.7818608E-02  0.1145026E+00
         -2   -1    0    0    0  501 -0.00000000000E+00  0.00000000000E+00  0.11270057403E+03  0.11270057406E+03  0.25500000000E-02 0. -1.
          2   -1    0    0  501    0  0.00000000000E+00 -0.00000000000E+00 -0.93850614989E+02  0.93850615023E+02  0.25500000000E-02 0.  1.
    5000001    1    1    2    0    0 -0.39766454391E+02 -0.55107293316E+02  0.14909874402E+02  0.10377614864E+03  0.77000000000E+02 0.  0.
   -5000001    1    1    2    0    0  0.39766454391E+02  0.55107293316E+02  0.39400846406E+01  0.10277504045E+03  0.77000000000E+02 0.  0.
<mgrwt>
<rscale>  0 0.20568926E+03</rscale>
<asrwt>0</asrwt>
<pdfrwt beam="1">  1        2 0.14438556E-01 0.20568926E+03</pdfrwt>
<pdfrwt beam="2">  1       -2 0.17338550E-01 0.20568926E+03</pdfrwt>
<totfact> 0.10616651E+04</totfact>
</mgrwt>
</event>
<event>
 4    1  0.1171488E-003  0.1988069E+03  0.7818608E-02  0.1150750E+00
          2   -1    0    0  501    0  0.00000000000E+00  0.00000000000E+00  0.24122763219E+03  0.24122763220E+03  0.25500000000E-02 0.  1.
         -2   -1    0    0    0  501 -0.00000000000E+00 -0.00000000000E+00 -0.40961507026E+02  0.40961507105E+02  0.25500000000E-02 0. -1.
    5000001    1    1    2    0    0 -0.40450325795E+02  0.45480946403E+02  0.77811600315E+02  0.12525330529E+03  0.77000000000E+02 0.  0.
   -5000001    1    1    2    0    0  0.40450325795E+02 -0.45480946403E+02  0.12245452485E+03  0.15693583402E+03  0.77000000000E+02 0.  0.
<mgrwt>
<rscale>  0 0.19880692E+03</rscale>
<asrwt>0</asrwt>
<pdfrwt beam="1">  1        2 0.37111944E-01 0.19880692E+03</pdfrwt>
<pdfrwt beam="2">  1       -2 0.63017702E-02 0.19880692E+03</pdfrwt>
<totfact> 0.18371679E+04</totfact>
</mgrwt>
</event>
<event>
 4    1  0.1171488E-003  0.1858942E+03  0.7818608E-02  0.1162217E+00
          2   -1    0    0  501    0  0.00000000000E+00  0.00000000000E+00  0.91093419695E+03  0.91093419695E+03  0.25500000000E-02 0.  1.
         -2   -1    0    0    0  501 -0.00000000000E+00 -0.00000000000E+00 -0.94838526459E+01  0.94838529888E+01  0.25500000000E-02 0. -1.
    5000001    1    1    2    0    0 -0.43963385318E+01 -0.46833931969E+02  0.34029665767E+03  0.35205618898E+03  0.77000000000E+02 0.  0.
   -5000001    1    1    2    0    0  0.43963385318E+01  0.46833931969E+02  0.56115368663E+03  0.56836186096E+03  0.77000000000E+02 0.  0.
<mgrwt>
<rscale>  0 0.18589423E+03</rscale>
<asrwt>0</asrwt>
<pdfrwt beam="1">  1        2 0.14014375E+00 0.18589423E+03</pdfrwt>
<pdfrwt beam="2">  1       -2 0.14590540E-02 0.18589423E+03</pdfrwt>
<totfact> 0.35576318E+04</totfact>
</mgrwt>
</event>
<event>
 4    1  0.1171488E-003  0.2500590E+03  0.7818608E-02  0.1113268E+00
         -2   -1    0    0    0  501 -0.00000000000E+00  0.00000000000E+00  0.52886484586E+01  0.52886490734E+01  0.25500000000E-02 0. -1.
          2   -1    0    0  501    0  0.00000000000E+00 -0.00000000000E+00 -0.29558349598E+04  0.29558349598E+04  0.25500000000E-02 0.  1.
    5000001    1    1    2    0    0  0.62515495174E+02 -0.49873035225E+02 -0.79420895779E+03  0.80193040559E+03  0.77000000000E+02 0.  0.
   -5000001    1    1    2    0    0 -0.62515495174E+02  0.49873035225E+02 -0.21563373536E+04  0.21591932033E+04  0.77000000000E+02 0.  0.
<mgrwt>
<rscale>  0 0.25005898E+03</rscale>
<asrwt>0</asrwt>
<pdfrwt beam="1">  1        2 0.45474252E+00 0.25005898E+03</pdfrwt>
<pdfrwt beam="2">  1       -2 0.81364063E-03 0.25005898E+03</pdfrwt>
<totfact> 0.63694587E+03</totfact>
</mgrwt>
</event>
<event>
 4    1  0.1171488E-003  0.2965104E+03  0.7818608E-02  0.1086998E+00
         -2   -1    0    0    0  501 -0.00000000000E+00  0.00000000000E+00  0.54995581503E+02  0.54995581562E+02  0.25500000000E-02 0. -1.
          2   -1    0    0  501    0  0.00000000000E+00 -0.00000000000E+00 -0.39966133259E+03  0.39966133260E+03  0.25500000000E-02 0.  1.
    5000001    1    1    2    0    0 -0.86074372089E+02 -0.91563811113E+02 -0.14770928978E+03  0.20866183964E+03  0.77000000000E+02 0.  0.
   -5000001    1    1    2    0    0  0.86074372089E+02  0.91563811113E+02 -0.19695646131E+03  0.24599507452E+03  0.77000000000E+02 0.  0.
<mgrwt>
<rscale>  0 0.29651042E+03</rscale>
<asrwt>0</asrwt>
<pdfrwt beam="1">  1        2 0.61486357E-01 0.29651042E+03</pdfrwt>
<pdfrwt beam="2">  1       -2 0.84608590E-02 0.29651042E+03</pdfrwt>
<totfact> 0.68979255E+03</totfact>
</mgrwt>
</event>
<event>
 4    1  0.1171488E-003  0.3723037E+03  0.7818608E-02  0.1053816E+00
          2   -1    0    0  501    0  0.00000000000E+00  0.00000000000E+00  0.48720863518E+03  0.48720863519E+03  0.25500000000E-02 0.  1.
         -2   -1    0    0    0  501 -0.00000000000E+00 -0.00000000000E+00 -0.71124590014E+02  0.71124590060E+02  0.25500000000E-02 0. -1.
    5000001    1    1    2    0    0 -0.13170480720E+03 -0.54033203709E+02  0.34596101126E+03  0.38194733231E+03  0.77000000000E+02 0.  0.
   -5000001    1    1    2    0    0  0.13170480720E+03  0.54033203709E+02  0.70123033903E+02  0.17638589294E+03  0.77000000000E+02 0.  0.
<mgrwt>
<rscale>  0 0.37230372E+03</rscale>
<asrwt>0</asrwt>
<pdfrwt beam="1">  1        2 0.74955177E-01 0.37230372E+03</pdfrwt>
<pdfrwt beam="2">  1       -2 0.10942244E-01 0.37230372E+03</pdfrwt>
<totfact> 0.36986097E+03</totfact>
</mgrwt>
</event>
<event>
 4    1  0.1171488E-003  0.2195260E+03  0.7818608E-02  0.1134237E+00
          2   -1    0    0  501    0  0.00000000000E+00  0.00000000000E+00  0.23086936913E+04  0.23086936913E+04  0.25500000000E-02 0.  1.
         -2   -1    0    0    0  501 -0.00000000000E+00 -0.00000000000E+00 -0.52184982230E+01  0.52184988460E+01  0.25500000000E-02 0. -1.
    5000001    1    1    2    0    0 -0.13502885707E+02  0.75900135239E+02  0.12914761554E+04  0.12960643573E+04  0.77000000000E+02 0.  0.
   -5000001    1    1    2    0    0  0.13502885707E+02 -0.75900135239E+02  0.10119990377E+04  0.10178478328E+04  0.77000000000E+02 0.  0.
<mgrwt>
<rscale>  0 0.21952599E+03</rscale>
<asrwt>0</asrwt>
<pdfrwt beam="1">  1        2 0.35518417E+00 0.21952599E+03</pdfrwt>
<pdfrwt beam="2">  1       -2 0.80284475E-03 0.21952599E+03</pdfrwt>
<totfact> 0.14862053E+04</totfact>
</mgrwt>
</event>
<event>
 4    1  0.1171488E-003  0.2252428E+03  0.7818608E-02  0.1130034E+00
          2   -1    0    0  501    0  0.00000000000E+00  0.00000000000E+00  0.24402775806E+03  0.24402775808E+03  0.25500000000E-02 0.  1.
         -2   -1    0    0    0  501 -0.00000000000E+00 -0.00000000000E+00 -0.51975980640E+02  0.51975980702E+02  0.25500000000E-02 0. -1.
    5000001    1    1    2    0    0 -0.23038797507E+02 -0.52859918638E+02  0.19065093150E+02  0.98068521789E+02  0.77000000000E+02 0.  0.
   -5000001    1    1    2    0    0  0.23038797507E+02  0.52859918638E+02  0.17298668427E+03  0.19793521699E+03  0.77000000000E+02 0.  0.
<mgrwt>
<rscale>  0 0.22524282E+03</rscale>
<asrwt>0</asrwt>
<pdfrwt beam="1">  1        2 0.37542732E-01 0.22524282E+03</pdfrwt>
<pdfrwt beam="2">  1       -2 0.79963046E-02 0.22524282E+03</pdfrwt>
<totfact> 0.12666017E+04</totfact>
</mgrwt>
</event>
<event>
 4    1  0.1171488E-003  0.2144689E+03  0.7818608E-02  0.1138075E+00
          2   -1    0    0  501    0  0.00000000000E+00  0.00000000000E+00  0.23082475511E+04  0.23082475511E+04  0.25500000000E-02 0.  1.
         -2   -1    0    0    0  501 -0.00000000000E+00 -0.00000000000E+00 -0.49818004166E+01  0.49818010692E+01  0.25500000000E-02 0. -1.
    5000001    1    1    2    0    0  0.50046337253E+02  0.31869895125E+02  0.16399714324E+04  0.16428498486E+04  0.77000000000E+02 0.  0.
   -5000001    1    1    2    0    0 -0.50046337253E+02 -0.31869895125E+02  0.66329431832E+03  0.67037950357E+03  0.77000000000E+02 0.  0.
<mgrwt>
<rscale>  0 0.21446892E+03</rscale>
<asrwt>0</asrwt>
<pdfrwt beam="1">  1        2 0.35511576E+00 0.21446892E+03</pdfrwt>
<pdfrwt beam="2">  1       -2 0.76642926E-03 0.21446892E+03</pdfrwt>
<totfact> 0.15889337E+04</totfact>
</mgrwt>
</event>
<event>
 4    1  0.1171488E-003  0.2405565E+03  0.7818608E-02  0.1119423E+00
          2   -1    0    0  501    0  0.00000000000E+00  0.00000000000E+00  0.15376252948E+04  0.15376252948E+04  0.25500000000E-02 0.  1.
         -2   -1    0    0    0  501 -0.00000000000E+00 -0.00000000000E+00 -0.94085748729E+01  0.94085752185E+01  0.25500000000E-02 0. -1.
    5000001    1    1    2    0    0 -0.86556502233E+02  0.22418803877E+02  0.61421742486E+03  0.62544917926E+03  0.77000000000E+02 0.  0.
   -5000001    1    1    2    0    0  0.86556502233E+02 -0.22418803877E+02  0.91399929512E+03  0.92158469080E+03  0.77000000000E+02 0.  0.
<mgrwt>
<rscale>  0 0.24055655E+03</rscale>
<asrwt>0</asrwt>
<pdfrwt beam="1">  1        2 0.23655741E+00 0.24055655E+03</pdfrwt>
<pdfrwt beam="2">  1       -2 0.14474751E-02 0.24055655E+03</pdfrwt>
<totfact> 0.16112128E+04</totfact>
</mgrwt>
</event>
<event>
 4    1  0.1171488E-003  0.2424829E+03  0.7818608E-02  0.1118150E+00
          2   -1    0    0  501    0  0.00000000000E+00  0.00000000000E+00  0.63155655149E+03  0.63155655149E+03  0.25500000000E-02 0.  1.
         -2   -1    0    0    0  501 -0.00000000000E+00 -0.00000000000E+00 -0.23275010647E+02  0.23275010787E+02  0.25500000000E-02 0. -1.
    5000001    1    1    2    0    0 -0.31791010036E+02  0.10792261197E+02  0.68043888129E+02  0.10810232159E+03  0.77000000000E+02 0.  0.
   -5000001    1    1    2    0    0  0.31791010036E+02 -0.10792261197E+02  0.54023765271E+03  0.54672924069E+03  0.77000000000E+02 0.  0.
<mgrwt>
<rscale>  0 0.24248287E+03</rscale>
<asrwt>0</asrwt>
<pdfrwt beam="1">  1        2 0.97162539E-01 0.24248287E+03</pdfrwt>
<pdfrwt beam="2">  1       -2 0.35807711E-02 0.24248287E+03</pdfrwt>
<totfact> 0.15235799E+04</totfact>
</mgrwt>
</event>
<event>
 4    1  0.1171488E-003  0.3412957E+03  0.7818608E-02  0.1066245E+00
         -2   -1    0    0    0  501 -0.00000000000E+00  0.00000000000E+00  0.53039603998E+03  0.53039603999E+03  0.25500000000E-02 0. -1.
          2   -1    0    0  501    0  0.00000000000E+00 -0.00000000000E+00 -0.54903680309E+02  0.54903680368E+02  0.25500000000E-02 0.  1.
    5000001    1    1    2    0    0 -0.12383128317E+03  0.66253451072E+02  0.13675434581E+03  0.21060497992E+03  0.77000000000E+02 0.  0.
   -5000001    1    1    2    0    0  0.12383128317E+03 -0.66253451072E+02  0.33873801387E+03  0.37469474043E+03  0.77000000000E+02 0.  0.
<mgrwt>
<rscale>  0 0.34129573E+03</rscale>
<asrwt>0</asrwt>
<pdfrwt beam="1">  1        2 0.84467199E-02 0.34129573E+03</pdfrwt>
<pdfrwt beam="2">  1       -2 0.81599392E-01 0.34129573E+03</pdfrwt>
<totfact> 0.10867459E+03</totfact>
</mgrwt>
</event>
<event>
 4    1  0.1171488E-003  0.3697426E+03  0.7818608E-02  0.1054791E+00
          2   -1    0    0  501    0  0.00000000000E+00  0.00000000000E+00  0.64317269418E+03  0.64317269419E+03  0.25500000000E-02 0.  1.
         -2   -1    0    0    0  501 -0.00000000000E+00 -0.00000000000E+00 -0.53138748200E+02  0.53138748261E+02  0.25500000000E-02 0. -1.
    5000001    1    1    2    0    0  0.20124307067E+02  0.15460828090E+03  0.41322167438E+03  0.44831892714E+03  0.77000000000E+02 0.  0.
   -5000001    1    1    2    0    0 -0.20124307067E+02 -0.15460828090E+03  0.17681227160E+03  0.24799251531E+03  0.77000000000E+02 0.  0.
<mgrwt>
<rscale>  0 0.36974257E+03</rscale>
<asrwt>0</asrwt>
<pdfrwt beam="1">  1        2 0.98949637E-01 0.36974257E+03</pdfrwt>
<pdfrwt beam="2">  1       -2 0.81751927E-02 0.36974257E+03</pdfrwt>
<totfact> 0.42674259E+03</totfact>
</mgrwt>
</event>
<event>
 4    1  0.1171488E-003  0.1995933E+03  0.7818608E-02  0.1150083E+00
         -2   -1    0    0    0  501 -0.00000000000E+00  0.00000000000E+00  0.69666782163E+01  0.69666786830E+01  0.25500000000E-02 0. -1.
          2   -1    0    0  501    0  0.00000000000E+00 -0.00000000000E+00 -0.14295724958E+04  0.14295724958E+04  0.25500000000E-02 0.  1.
    5000001    1    1    2    0    0 -0.98251091678E+01 -0.56922926159E+02 -0.52174924450E+03  0.53055445189E+03  0.77000000000E+02 0.  0.
   -5000001    1    1    2    0    0  0.98251091678E+01  0.56922926159E+02 -0.90085657307E+03  0.90598472258E+03  0.77000000000E+02 0.  0.
<mgrwt>
<rscale>  0 0.19959331E+03</rscale>
<asrwt>0</asrwt>
<pdfrwt beam="1">  1        2 0.21993400E+00 0.19959331E+03</pdfrwt>
<pdfrwt beam="2">  1       -2 0.10717978E-02 0.19959331E+03</pdfrwt>
<totfact> 0.28201221E+04</totfact>
</mgrwt>
</event>
<event>
 4    1  0.1171488E-003  0.4147182E+03  0.7818608E-02  0.1038799E+00
          2   -1    0    0  501    0  0.00000000000E+00  0.00000000000E+00  0.76770783583E+03  0.76770783583E+03  0.25500000000E-02 0.  1.
         -2   -1    0    0    0  501 -0.00000000000E+00 -0.00000000000E+00 -0.56008010874E+02  0.56008010932E+02  0.25500000000E-02 0. -1.
    5000001    1    1    2    0    0  0.66736138983E+02 -0.35515128946E+02  0.70754728600E+03  0.71572843912E+03  0.77000000000E+02 0.  0.
   -5000001    1    1    2    0    0 -0.66736138983E+02  0.35515128946E+02  0.41525389506E+01  0.10798740765E+03  0.77000000000E+02 0.  0.
<mgrwt>
<rscale>  0 0.41471816E+03</rscale>
<asrwt>0</asrwt>
<pdfrwt beam="1">  1        2 0.11810890E+00 0.41471816E+03</pdfrwt>
<pdfrwt beam="2">  1       -2 0.86166171E-02 0.41471816E+03</pdfrwt>
<totfact> 0.31606521E+03</totfact>
</mgrwt>
</event>
<event>
 4    1  0.1171488E-003  0.2092803E+03  0.7818608E-02  0.1142137E+00
         -2   -1    0    0    0  501 -0.00000000000E+00  0.00000000000E+00  0.42900131977E+02  0.42900132053E+02  0.25500000000E-02 0. -1.
          2   -1    0    0  501    0  0.00000000000E+00 -0.00000000000E+00 -0.25523377560E+03  0.25523377561E+03  0.25500000000E-02 0.  1.
    5000001    1    1    2    0    0 -0.30700453235E+02 -0.24780384612E+02 -0.19001053694E+03  0.20878119991E+03  0.77000000000E+02 0.  0.
   -5000001    1    1    2    0    0  0.30700453235E+02  0.24780384612E+02 -0.22323106684E+02  0.89352707751E+02  0.77000000000E+02 0.  0.
<mgrwt>
<rscale>  0 0.20928032E+03</rscale>
<asrwt>0</asrwt>
<pdfrwt beam="1">  1        2 0.39266734E-01 0.20928032E+03</pdfrwt>
<pdfrwt beam="2">  1       -2 0.66000205E-02 0.20928032E+03</pdfrwt>
<totfact> 0.16163616E+04</totfact>
</mgrwt>
</event>
<event>
 4    1  0.1171488E-003  0.4245939E+03  0.7818608E-02  0.1035581E+00
         -2   -1    0    0    0  501 -0.00000000000E+00  0.00000000000E+00  0.42112422827E+02  0.42112422905E+02  0.25500000000E-02 0. -1.
          2   -1    0    0  501    0  0.00000000000E+00 -0.00000000000E+00 -0.10702305558E+04  0.10702305558E+04  0.25500000000E-02 0.  1.
    5000001    1    1    2    0    0  0.72776367366E+02  0.90097708492E+02 -0.93426245511E+03  0.94455774400E+03  0.77000000000E+02 0.  0.
   -5000001    1    1    2    0    0 -0.72776367366E+02 -0.90097708492E+02 -0.93855677888E+02  0.16778523473E+03  0.77000000000E+02 0.  0.
<mgrwt>
<rscale>  0 0.42459393E+03</rscale>
<asrwt>0</asrwt>
<pdfrwt beam="1">  1        2 0.16465083E+00 0.42459393E+03</pdfrwt>
<pdfrwt beam="2">  1       -2 0.64788351E-02 0.42459393E+03</pdfrwt>
<totfact> 0.31373005E+03</totfact>
</mgrwt>
</event>
<event>
 4    1  0.1171488E-003  0.2000101E+03  0.7818608E-02  0.1149730E+00
         -2   -1    0    0    0  501 -0.00000000000E+00  0.00000000000E+00  0.55147182843E+01  0.55147188738E+01  0.25500000000E-02 0. -1.
          2   -1    0    0  501    0  0.00000000000E+00 -0.00000000000E+00 -0.18135131075E+04  0.18135131075E+04  0.25500000000E-02 0.  1.
    5000001    1    1    2    0    0 -0.35836273184E+02  0.44270439104E+02 -0.64231508186E+03  0.64941648781E+03  0.77000000000E+02 0.  0.
   -5000001    1    1    2    0    0  0.35836273184E+02 -0.44270439104E+02 -0.11656833073E+04  0.11696113386E+04  0.77000000000E+02 0.  0.
<mgrwt>
<rscale>  0 0.20001014E+03</rscale>
<asrwt>0</asrwt>
<pdfrwt beam="1">  1        2 0.27900154E+00 0.20001014E+03</pdfrwt>
<pdfrwt beam="2">  1       -2 0.84841969E-03 0.20001014E+03</pdfrwt>
<totfact> 0.24851518E+04</totfact>
</mgrwt>
</event>
<event>
 4    1  0.1171488E-003  0.2275838E+03  0.7818608E-02  0.1128352E+00
          2   -1    0    0  501    0  0.00000000000E+00  0.00000000000E+00  0.10319162582E+04  0.10319162582E+04  0.25500000000E-02 0.  1.
         -2   -1    0    0    0  501 -0.00000000000E+00 -0.00000000000E+00 -0.12548102507E+02  0.12548102766E+02  0.25500000000E-02 0. -1.
    5000001    1    1    2    0    0  0.20418507871E+02  0.73331081949E+02  0.67032672127E+03  0.67901493083E+03  0.77000000000E+02 0.  0.
   -5000001    1    1    2    0    0 -0.20418507871E+02 -0.73331081949E+02  0.34904143440E+03  0.36544943011E+03  0.77000000000E+02 0.  0.
<mgrwt>
<rscale>  0 0.22758375E+03</rscale>
<asrwt>0</asrwt>
<pdfrwt beam="1">  1        2 0.15875639E+00 0.22758375E+03</pdfrwt>
<pdfrwt beam="2">  1       -2 0.19304768E-02 0.22758375E+03</pdfrwt>
<totfact> 0.20186154E+04</totfact>
</mgrwt>
</event>
<event>
 4    1  0.1171488E-003  0.1711008E+03  0.7818608E-02  0.1176705E+00
          2   -1    0    0  501    0  0.00000000000E+00  0.00000000000E+00  0.28123281843E+02  0.28123281958E+02  0.25500000000E-02 0.  1.
         -2   -1    0    0    0  501 -0.00000000000E+00 -0.00000000000E+00 -0.26024236981E+03  0.26024236982E+03  0.25500000000E-02 0. -1.
    5000001    1    1    2    0    0  0.32402562889E+01 -0.33639051497E+02 -0.89530073248E+02  0.12282800602E+03  0.77000000000E+02 0.  0.
   -5000001    1    1    2    0    0 -0.32402562889E+01  0.33639051497E+02 -0.14258901472E+03  0.16553764577E+03  0.77000000000E+02 0.  0.
<mgrwt>
<rscale>  0 0.17110078E+03</rscale>
<asrwt>0</asrwt>
<pdfrwt beam="1">  1        2 0.43266589E-02 0.17110078E+03</pdfrwt>
<pdfrwt beam="2">  1       -2 0.40037286E-01 0.17110078E+03</pdfrwt>
<totfact> 0.10843452E+04</totfact>
</mgrwt>
</event>
<event>
 4    1  0.1171488E-003  0.3761354E+03  0.7818608E-02  0.1052371E+00
         -2   -1    0    0    0  501 -0.00000000000E+00  0.00000000000E+00  0.53448268268E+02  0.53448268329E+02  0.25500000000E-02 0. -1.
          2   -1    0    0  501    0  0.00000000000E+00 -0.00000000000E+00 -0.66175137548E+03  0.66175137549E+03  0.25500000000E-02 0.  1.
    5000001    1    1    2    0    0  0.93456905701E+00  0.16536279452E+03 -0.39117732600E+03  0.43161838192E+03  0.77000000000E+02 0.  0.
   -5000001    1    1    2    0    0 -0.93456905701E+00 -0.16536279452E+03 -0.21712578121E+03  0.28358126190E+03  0.77000000000E+02 0.  0.
<mgrwt>
<rscale>  0 0.37613543E+03</rscale>
<asrwt>0</asrwt>
<pdfrwt beam="1">  1        2 0.10180790E+00 0.37613543E+03</pdfrwt>
<pdfrwt beam="2">  1       -2 0.82228110E-02 0.37613543E+03</pdfrwt>
<totfact> 0.40871979E+03</totfact>
</mgrwt>
</event>
<event>
 4    1  0.1171488E-003  0.2565587E+03  0.7818608E-02  0.1109229E+00
          2   -1    0    0  501    0  0.00000000000E+00  0.00000000000E+00  0.36996166770E+04  0.36996166770E+04  0.25500000000E-02 0.  1.
         -2   -1    0    0    0  501 -0.00000000000E+00 -0.00000000000E+00 -0.44479173483E+01  0.44479180793E+01  0.25500000000E-02 0. -1.
    5000001    1    1    2    0    0  0.13196508098E+01  0.70166628399E+02  0.76703720673E+03  0.77408021143E+03  0.77000000000E+02 0.  0.
   -5000001    1    1    2    0    0 -0.13196508098E+01 -0.70166628399E+02  0.29281315530E+04  0.29299843837E+04  0.77000000000E+02 0.  0.
<mgrwt>
<rscale>  0 0.25655869E+03</rscale>
<asrwt>0</asrwt>
<pdfrwt beam="1">  1        2 0.56916977E+00 0.25655869E+03</pdfrwt>
<pdfrwt beam="2">  1       -2 0.68429747E-03 0.25655869E+03</pdfrwt>
<totfact> 0.27485695E+03</totfact>
</mgrwt>
</event>
<event>
 4    1  0.1171488E-003  0.1773175E+03  0.7818608E-02  0.1170425E+00
         -2   -1    0    0    0  501 -0.00000000000E+00  0.00000000000E+00  0.17755358884E+02  0.17755359067E+02  0.25500000000E-02 0. -1.
          2   -1    0    0  501    0  0.00000000000E+00 -0.00000000000E+00 -0.44270451529E+03  0.44270451530E+03  0.25500000000E-02 0.  1.
    5000001    1    1    2    0    0  0.15837919755E+02 -0.40987278981E+02 -0.21445370154E+03  0.23205643030E+03  0.77000000000E+02 0.  0.
   -5000001    1    1    2    0    0 -0.15837919755E+02  0.40987278981E+02 -0.21049545487E+03  0.22840344407E+03  0.77000000000E+02 0.  0.
<mgrwt>
<rscale>  0 0.17731754E+03</rscale>
<asrwt>0</asrwt>
<pdfrwt beam="1">  1        2 0.68108379E-01 0.17731754E+03</pdfrwt>
<pdfrwt beam="2">  1       -2 0.27315940E-02 0.17731754E+03</pdfrwt>
<totfact> 0.33218959E+04</totfact>
</mgrwt>
</event>
<event>
 4    1  0.1171488E-003  0.1747960E+03  0.7818608E-02  0.1172937E+00
          2   -1    0    0  501    0  0.00000000000E+00  0.00000000000E+00  0.56064858362E+02  0.56064858420E+02  0.25500000000E-02 0.  1.
         -2   -1    0    0    0  501 -0.00000000000E+00 -0.00000000000E+00 -0.13624242054E+03  0.13624242057E+03  0.25500000000E-02 0. -1.
    5000001    1    1    2    0    0  0.40529666182E+01 -0.40564579931E+02 -0.32506279264E+02  0.92992310838E+02  0.77000000000E+02 0.  0.
   -5000001    1    1    2    0    0 -0.40529666182E+01  0.40564579931E+02 -0.47671282917E+02  0.99314968148E+02  0.77000000000E+02 0.  0.
<mgrwt>
<rscale>  0 0.17479602E+03</rscale>
<asrwt>0</asrwt>
<pdfrwt beam="1">  1        2 0.86253629E-02 0.17479602E+03</pdfrwt>
<pdfrwt beam="2">  1       -2 0.20960372E-01 0.17479602E+03</pdfrwt>
<totfact> 0.14269275E+04</totfact>
</mgrwt>
</event>
<event>
 4    1  0.1171488E-003  0.3520289E+03  0.7818608E-02  0.1061785E+00
          2   -1    0    0  501    0  0.00000000000E+00  0.00000000000E+00  0.17587501636E+04  0.17587501636E+04  0.25500000000E-02 0.  1.
         -2   -1    0    0    0  501 -0.00000000000E+00 -0.00000000000E+00 -0.17615402797E+02  0.17615402982E+02  0.25500000000E-02 0. -1.
    5000001    1    1    2    0    0  0.16121274379E+02  0.14963365164E+03  0.62325973054E+03  0.64578000658E+03  0.77000000000E+02 0.  0.
   -5000001    1    1    2    0    0 -0.16121274379E+02 -0.14963365164E+03  0.11178750302E+04  0.11305855600E+04  0.77000000000E+02 0.  0.
<mgrwt>
<rscale>  0 0.35202893E+03</rscale>
<asrwt>0</asrwt>
<pdfrwt beam="1">  1        2 0.27057700E+00 0.35202893E+03</pdfrwt>
<pdfrwt beam="2">  1       -2 0.27100615E-02 0.35202893E+03</pdfrwt>
<totfact> 0.49067871E+03</totfact>
</mgrwt>
</event>
<event>
 4    1  0.1171488E-003  0.2277992E+03  0.7818608E-02  0.1128198E+00
          2   -1    0    0  501    0  0.00000000000E+00  0.00000000000E+00  0.84768827660E+02  0.84768827698E+02  0.25500000000E-02 0.  1.
         -2   -1    0    0    0  501 -0.00000000000E+00 -0.00000000000E+00 -0.15304110944E+03  0.15304110946E+03  0.25500000000E-02 0. -1.
    5000001    1    1    2    0    0  0.73817772109E+02  0.29032935587E+01  0.74467532723E+01  0.10696703570E+03  0.77000000000E+02 0.  0.
   -5000001    1    1    2    0    0 -0.73817772109E+02 -0.29032935587E+01 -0.75719035054E+02  0.13084290146E+03  0.77000000000E+02 0.  0.
<mgrwt>
<rscale>  0 0.22779917E+03</rscale>
<asrwt>0</asrwt>
<pdfrwt beam="1">  1        2 0.13041358E-01 0.22779917E+03</pdfrwt>
<pdfrwt beam="2">  1       -2 0.23544786E-01 0.22779917E+03</pdfrwt>
<totfact> 0.71524004E+03</totfact>
</mgrwt>
</event>
<event>
 4    1  0.1171488E-003  0.3933335E+03  0.7818608E-02  0.1046113E+00
         -2   -1    0    0    0  501 -0.00000000000E+00  0.00000000000E+00  0.93326798382E+02  0.93326798417E+02  0.25500000000E-02 0. -1.
          2   -1    0    0  501    0  0.00000000000E+00 -0.00000000000E+00 -0.41443420042E+03  0.41443420043E+03  0.25500000000E-02 0.  1.
    5000001    1    1    2    0    0 -0.97764654946E+01 -0.12156850766E+03  0.12035382299E+02  0.14473538530E+03  0.77000000000E+02 0.  0.
   -5000001    1    1    2    0    0  0.97764654946E+01  0.12156850766E+03 -0.33314278433E+03  0.36302561354E+03  0.77000000000E+02 0.  0.
<mgrwt>
<rscale>  0 0.39333353E+03</rscale>
<asrwt>0</asrwt>
<pdfrwt beam="1">  1        2 0.63759107E-01 0.39333353E+03</pdfrwt>
<pdfrwt beam="2">  1       -2 0.14357969E-01 0.39333353E+03</pdfrwt>
<totfact> 0.28430368E+03</totfact>
</mgrwt>
</event>
<event>
 4    1  0.1171488E-003  0.2604969E+03  0.7818608E-02  0.1106845E+00
          2   -1    0    0  501    0  0.00000000000E+00  0.00000000000E+00  0.11201842061E+03  0.11201842064E+03  0.25500000000E-02 0.  1.
         -2   -1    0    0    0  501 -0.00000000000E+00 -0.00000000000E+00 -0.15144523473E+03  0.15144523476E+03  0.25500000000E-02 0. -1.
    5000001    1    1    2    0    0  0.76617257652E+02 -0.68058322313E+02  0.36476321603E+01  0.12823589445E+03  0.77000000000E+02 0.  0.
   -5000001    1    1    2    0    0 -0.76617257652E+02  0.68058322313E+02 -0.43074446285E+02  0.13522776094E+03  0.77000000000E+02 0.  0.
<mgrwt>
<rscale>  0 0.26049688E+03</rscale>
<asrwt>0</asrwt>
<pdfrwt beam="1">  1        2 0.17233603E-01 0.26049688E+03</pdfrwt>
<pdfrwt beam="2">  1       -2 0.23299267E-01 0.26049688E+03</pdfrwt>
<totfact> 0.52692480E+03</totfact>
</mgrwt>
</event>
<event>
 4    1  0.1171488E-003  0.1793727E+03  0.7818608E-02  0.1168412E+00
          2   -1    0    0  501    0  0.00000000000E+00  0.00000000000E+00  0.24743625434E+04  0.24743625434E+04  0.25500000000E-02 0.  1.
         -2   -1    0    0    0  501 -0.00000000000E+00 -0.00000000000E+00 -0.32507912438E+01  0.32507922439E+01  0.25500000000E-02 0. -1.
    5000001    1    1    2    0    0  0.18375884240E+02  0.27815614045E+02  0.79805075733E+03  0.80244962009E+03  0.77000000000E+02 0.  0.
   -5000001    1    1    2    0    0 -0.18375884240E+02 -0.27815614045E+02  0.16730609948E+04  0.16751637155E+04  0.77000000000E+02 0.  0.
<mgrwt>
<rscale>  0 0.17937265E+03</rscale>
<asrwt>0</asrwt>
<pdfrwt beam="1">  1        2 0.38066920E+00 0.17937265E+03</pdfrwt>
<pdfrwt beam="2">  1       -2 0.50012438E-03 0.17937265E+03</pdfrwt>
<totfact> 0.23734563E+04</totfact>
</mgrwt>
</event>
<event>
 4    1  0.1171488E-003  0.1859895E+03  0.7818608E-02  0.1162129E+00
          2   -1    0    0  501    0  0.00000000000E+00  0.00000000000E+00  0.42148221457E+03  0.42148221458E+03  0.25500000000E-02 0.  1.
         -2   -1    0    0    0  501 -0.00000000000E+00 -0.00000000000E+00 -0.20518112599E+02  0.20518112757E+02  0.25500000000E-02 0. -1.
    5000001    1    1    2    0    0  0.23529913033E+02  0.40686623741E+02  0.25414850768E+03  0.26968411543E+03  0.77000000000E+02 0.  0.
   -5000001    1    1    2    0    0 -0.23529913033E+02 -0.40686623741E+02  0.14681559430E+03  0.17231621191E+03  0.77000000000E+02 0.  0.
<mgrwt>
<rscale>  0 0.18598946E+03</rscale>
<asrwt>0</asrwt>
<pdfrwt beam="1">  1        2 0.64843423E-01 0.18598946E+03</pdfrwt>
<pdfrwt beam="2">  1       -2 0.31566325E-02 0.18598946E+03</pdfrwt>
<totfact> 0.28416576E+04</totfact>
</mgrwt>
</event>
<event>
 4    1  0.1171488E-003  0.2491465E+03  0.7818608E-02  0.1113845E+00
         -2   -1    0    0    0  501 -0.00000000000E+00  0.00000000000E+00  0.97168135547E+01  0.97168138893E+01  0.25500000000E-02 0. -1.
          2   -1    0    0  501    0  0.00000000000E+00 -0.00000000000E+00 -0.15970767735E+04  0.15970767735E+04  0.25500000000E-02 0.  1.
    5000001    1    1    2    0    0 -0.48932387482E+02 -0.63091150327E+02 -0.42802586429E+03  0.44216514143E+03  0.77000000000E+02 0.  0.
   -5000001    1    1    2    0    0  0.48932387482E+02  0.63091150327E+02 -0.11593340957E+04  0.11646284460E+04  0.77000000000E+02 0.  0.
<mgrwt>
<rscale>  0 0.24914652E+03</rscale>
<asrwt>0</asrwt>
<pdfrwt beam="1">  1        2 0.24570391E+00 0.24914652E+03</pdfrwt>
<pdfrwt beam="2">  1       -2 0.14948957E-02 0.24914652E+03</pdfrwt>
<totfact> 0.14313552E+04</totfact>
</mgrwt>
</event>
<event>
 4    1  0.1171488E-003  0.1829138E+03  0.7818608E-02  0.1165012E+00
         -2   -1    0    0    0  501 -0.00000000000E+00  0.00000000000E+00  0.22240718846E+02  0.22240718993E+02  0.25500000000E-02 0. -1.
          2   -1    0    0  501    0  0.00000000000E+00 -0.00000000000E+00 -0.37608355961E+03  0.37608355962E+03  0.25500000000E-02 0.  1.
    5000001    1    1    2    0    0  0.44563274115E+02  0.93524122256E+01 -0.13548770129E+03  0.16235538247E+03  0.77000000000E+02 0.  0.
   -5000001    1    1    2    0    0 -0.44563274115E+02 -0.93524122256E+01 -0.21835513947E+03  0.23596889614E+03  0.77000000000E+02 0.  0.
<mgrwt>
<rscale>  0 0.18291385E+03</rscale>
<asrwt>0</asrwt>
<pdfrwt beam="1">  1        2 0.57859005E-01 0.18291385E+03</pdfrwt>
<pdfrwt beam="2">  1       -2 0.34216493E-02 0.18291385E+03</pdfrwt>
<totfact> 0.28467990E+04</totfact>
</mgrwt>
</event>
<event>
 4    1  0.1171488E-003  0.2920008E+03  0.7818608E-02  0.1089309E+00
          2   -1    0    0  501    0  0.00000000000E+00  0.00000000000E+00  0.22080084626E+03  0.22080084627E+03  0.25500000000E-02 0.  1.
         -2   -1    0    0    0  501 -0.00000000000E+00 -0.00000000000E+00 -0.96540015503E+02  0.96540015537E+02  0.25500000000E-02 0. -1.
    5000001    1    1    2    0    0 -0.70222649261E+02 -0.69739710740E+02 -0.19140657832E+02  0.12684720141E+03  0.77000000000E+02 0.  0.
   -5000001    1    1    2    0    0  0.70222649261E+02  0.69739710740E+02  0.14340148858E+03  0.19049366040E+03  0.77000000000E+02 0.  0.
<mgrwt>
<rscale>  0 0.29200080E+03</rscale>
<asrwt>0</asrwt>
<pdfrwt beam="1">  1        2 0.33969361E-01 0.29200080E+03</pdfrwt>
<pdfrwt beam="2">  1       -2 0.14852310E-01 0.29200080E+03</pdfrwt>
<totfact> 0.52979814E+03</totfact>
</mgrwt>
</event>
<event>
 4    1  0.1171488E-003  0.3209639E+03  0.7818608E-02  0.1075207E+00
          2   -1    0    0  501    0  0.00000000000E+00  0.00000000000E+00  0.68228545358E+02  0.68228545406E+02  0.25500000000E-02 0. -1.
         -2   -1    0    0    0  501 -0.00000000000E+00 -0.00000000000E+00 -0.37747340599E+03  0.37747340599E+03  0.25500000000E-02 0.  1.
    5000001    1    1    2    0    0 -0.54324740152E+01 -0.13646756397E+03 -0.20217288354E+03  0.25584327747E+03  0.77000000000E+02 0.  0.
   -5000001    1    1    2    0    0  0.54324740152E+01  0.13646756397E+03 -0.10707197709E+03  0.18985867393E+03  0.77000000000E+02 0.  0.
<mgrwt>
<rscale>  0 0.32096393E+03</rscale>
<asrwt>0</asrwt>
<pdfrwt beam="1">  1        2 0.10496700E-01 0.32096393E+03</pdfrwt>
<pdfrwt beam="2">  1       -2 0.58072830E-01 0.32096393E+03</pdfrwt>
<totfact> 0.17120882E+03</totfact>
</mgrwt>
</event>
<event>
 4    1  0.1171488E-003  0.2062777E+03  0.7818608E-02  0.1144548E+00
         -2   -1    0    0    0  501 -0.00000000000E+00  0.00000000000E+00  0.11068097798E+02  0.11068098092E+02  0.25500000000E-02 0. -1.
          2   -1    0    0  501    0  0.00000000000E+00 -0.00000000000E+00 -0.96110701040E+03  0.96110701041E+03  0.25500000000E-02 0.  1.
    5000001    1    1    2    0    0 -0.62110336992E+02 -0.22383225695E+02 -0.38685797908E+03  0.39993349289E+03  0.77000000000E+02 0.  0.
   -5000001    1    1    2    0    0  0.62110336992E+02  0.22383225695E+02 -0.56318093352E+03  0.57224161561E+03  0.77000000000E+02 0.  0.
<mgrwt>
<rscale>  0 0.20627774E+03</rscale>
<asrwt>0</asrwt>
<pdfrwt beam="1">  1        2 0.14786255E+00 0.20627774E+03</pdfrwt>
<pdfrwt beam="2">  1       -2 0.17027851E-02 0.20627774E+03</pdfrwt>
<totfact> 0.26629626E+04</totfact>
</mgrwt>
</event>
<event>
 4    1  0.1171488E-003  0.2100172E+03  0.7818608E-02  0.1141552E+00
          2   -1    0    0  501    0  0.00000000000E+00  0.00000000000E+00  0.11572135720E+04  0.11572135720E+04  0.25500000000E-02 0.  1.
         -2   -1    0    0    0  501 -0.00000000000E+00 -0.00000000000E+00 -0.95287575797E+01  0.95287579209E+01  0.25500000000E-02 0. -1.
    5000001    1    1    2    0    0 -0.56785633920E+02 -0.24861174029E+02  0.37702524812E+03  0.38976880828E+03  0.77000000000E+02 0.  0.
   -5000001    1    1    2    0    0  0.56785633920E+02  0.24861174029E+02  0.77065956631E+03  0.77697352164E+03  0.77000000000E+02 0.  0.
<mgrwt>
<rscale>  0 0.21001722E+03</rscale>
<asrwt>0</asrwt>
<pdfrwt beam="1">  1        2 0.17803282E+00 0.21001722E+03</pdfrwt>
<pdfrwt beam="2">  1       -2 0.14659630E-02 0.21001722E+03</pdfrwt>
<totfact> 0.25370577E+04</totfact>
</mgrwt>
</event>
<event>
 4    1  0.1171488E-003  0.4949536E+03  0.7818608E-02  0.1015105E+00
         -2   -1    0    0    0  501 -0.00000000000E+00  0.00000000000E+00  0.55738403559E+02  0.55738403618E+02  0.25500000000E-02 0. -1.
          2   -1    0    0  501    0  0.00000000000E+00 -0.00000000000E+00 -0.10987893170E+04  0.10987893170E+04  0.25500000000E-02 0.  1.
    5000001    1    1    2    0    0  0.82448990340E+02 -0.20608574872E+03 -0.70290786912E+03  0.74113267659E+03  0.77000000000E+02 0.  0.
   -5000001    1    1    2    0    0 -0.82448990340E+02  0.20608574872E+03 -0.34014304434E+03  0.41339504406E+03  0.77000000000E+02 0.  0.
<mgrwt>
<rscale>  0 0.49495358E+03</rscale>
<asrwt>0</asrwt>
<pdfrwt beam="1">  1        2 0.16904449E+00 0.49495358E+03</pdfrwt>
<pdfrwt beam="2">  1       -2 0.85751398E-02 0.49495358E+03</pdfrwt>
<totfact> 0.19370131E+03</totfact>
</mgrwt>
</event>
<event>
 4    1  0.1171488E-003  0.1908000E+03  0.7818608E-02  0.1157742E+00
         -2   -1    0    0    0  501 -0.00000000000E+00  0.00000000000E+00  0.13874247001E+02  0.13874247235E+02  0.25500000000E-02 0. -1.
          2   -1    0    0  501    0  0.00000000000E+00 -0.00000000000E+00 -0.65597475159E+03  0.65597475160E+03  0.25500000000E-02 0.  1.
    5000001    1    1    2    0    0 -0.55073190308E+02  0.11788640090E+02 -0.31979674498E+03  0.33372291864E+03  0.77000000000E+02 0.  0.
   -5000001    1    1    2    0    0  0.55073190308E+02 -0.11788640090E+02 -0.32230375961E+03  0.33612608019E+03  0.77000000000E+02 0.  0.
<mgrwt>
<rscale>  0 0.19079996E+03</rscale>
<asrwt>0</asrwt>
<pdfrwt beam="1">  1        2 0.10091917E+00 0.19079996E+03</pdfrwt>
<pdfrwt beam="2">  1       -2 0.21345001E-02 0.19079996E+03</pdfrwt>
<totfact> 0.30834017E+04</totfact>
</mgrwt>
</event>
<event>
 4    1  0.1171488E-003  0.2273661E+03  0.7818608E-02  0.1128507E+00
          2   -1    0    0  501    0  0.00000000000E+00  0.00000000000E+00  0.84347290692E+02  0.84347290730E+02  0.25500000000E-02 0.  1.
         -2   -1    0    0    0  501 -0.00000000000E+00 -0.00000000000E+00 -0.15322176776E+03  0.15322176778E+03  0.25500000000E-02 0. -1.
    5000001    1    1    2    0    0  0.78399787196E+02  0.26009928429E+02 -0.20741889392E+02  0.11481406266E+03  0.77000000000E+02 0.  0.
   -5000001    1    1    2    0    0 -0.78399787196E+02 -0.26009928429E+02 -0.48132587673E+02  0.12275499585E+03  0.77000000000E+02 0.  0.
<mgrwt>
<rscale>  0 0.22736615E+03</rscale>
<asrwt>0</asrwt>
<pdfrwt beam="1">  1        2 0.12976506E-01 0.22736615E+03</pdfrwt>
<pdfrwt beam="2">  1       -2 0.23572580E-01 0.22736615E+03</pdfrwt>
<totfact> 0.71798661E+03</totfact>
</mgrwt>
</event>
<event>
 4    1  0.1171488E-003  0.1701290E+03  0.7818608E-02  0.1177713E+00
          2   -1    0    0  501    0  0.00000000000E+00  0.00000000000E+00  0.19358475161E+02  0.19358475329E+02  0.25500000000E-02 0.  1.
         -2   -1    0    0    0  501 -0.00000000000E+00 -0.00000000000E+00 -0.37378812456E+03  0.37378812457E+03  0.25500000000E-02 0. -1.
    5000001    1    1    2    0    0 -0.17394525644E+02 -0.30733883403E+02 -0.15934069139E+03  0.18045940553E+03  0.77000000000E+02 0.  0.
   -5000001    1    1    2    0    0  0.17394525644E+02  0.30733883403E+02 -0.19508895801E+03  0.21268719437E+03  0.77000000000E+02 0.  0.
<mgrwt>
<rscale>  0 0.17012899E+03</rscale>
<asrwt>0</asrwt>
<pdfrwt beam="1">  1        2 0.29782272E-02 0.17012899E+03</pdfrwt>
<pdfrwt beam="2">  1       -2 0.57505860E-01 0.17012899E+03</pdfrwt>
<totfact> 0.87597000E+03</totfact>
</mgrwt>
</event>
<event>
 4    1  0.1171488E-003  0.2275203E+03  0.7818608E-02  0.1128397E+00
          2   -1    0    0  501    0  0.00000000000E+00  0.00000000000E+00  0.23201515622E+02  0.23201515762E+02  0.25500000000E-02 0.  1.
         -2   -1    0    0    0  501 -0.00000000000E+00 -0.00000000000E+00 -0.55778148093E+03  0.55778148094E+03  0.25500000000E-02 0. -1.
    5000001    1    1    2    0    0  0.62658039041E+02 -0.55488791794E+02 -0.26037185291E+03  0.28412591866E+03  0.77000000000E+02 0.  0.
   -5000001    1    1    2    0    0 -0.62658039041E+02  0.55488791794E+02 -0.27420811240E+03  0.29685707803E+03  0.77000000000E+02 0.  0.
<mgrwt>
<rscale>  0 0.22752034E+03</rscale>
<asrwt>0</asrwt>
<pdfrwt beam="1">  1        2 0.35694644E-02 0.22752034E+03</pdfrwt>
<pdfrwt beam="2">  1       -2 0.85812525E-01 0.22752034E+03</pdfrwt>
<totfact> 0.29746549E+03</totfact>
</mgrwt>
</event>
<event>
 4    1  0.1171488E-003  0.2459993E+03  0.7818608E-02  0.1115860E+00
          2   -1    0    0  501    0  0.00000000000E+00  0.00000000000E+00  0.85069597475E+03  0.85069597475E+03  0.25500000000E-02 0.  1.
         -2   -1    0    0    0  501 -0.00000000000E+00 -0.00000000000E+00 -0.17784154067E+02  0.17784154250E+02  0.25500000000E-02 0. -1.
    5000001    1    1    2    0    0  0.60390380411E+02  0.74477138090E+02  0.42515121932E+03  0.44257926006E+03  0.77000000000E+02 0.  0.
   -5000001    1    1    2    0    0 -0.60390380411E+02 -0.74477138090E+02  0.40776060136E+03  0.42590086895E+03  0.77000000000E+02 0.  0.
<mgrwt>
<rscale>  0 0.24599925E+03</rscale>
<asrwt>0</asrwt>
<pdfrwt beam="1">  1        2 0.13087632E+00 0.24599925E+03</pdfrwt>
<pdfrwt beam="2">  1       -2 0.27360234E-02 0.24599925E+03</pdfrwt>
<totfact> 0.15766061E+04</totfact>
</mgrwt>
</event>
<event>
 4    1  0.1171488E-003  0.4340359E+03  0.7818608E-02  0.1032593E+00
          2   -1    0    0  501    0  0.00000000000E+00  0.00000000000E+00  0.17184938890E+04  0.17184938890E+04  0.25500000000E-02 0.  1.
         -2   -1    0    0    0  501 -0.00000000000E+00 -0.00000000000E+00 -0.27405858331E+02  0.27405858449E+02  0.25500000000E-02 0. -1.
    5000001    1    1    2    0    0 -0.71437782380E+02  0.18720760410E+03  0.97387027130E+03  0.99724738611E+03  0.77000000000E+02 0.  0.
   -5000001    1    1    2    0    0  0.71437782380E+02 -0.18720760410E+03  0.71721775937E+03  0.74865236134E+03  0.77000000000E+02 0.  0.
<mgrwt>
<rscale>  0 0.43403594E+03</rscale>
<asrwt>0</asrwt>
<pdfrwt beam="1">  1        2 0.26438375E+00 0.43403594E+03</pdfrwt>
<pdfrwt beam="2">  1       -2 0.42162848E-02 0.43403594E+03</pdfrwt>
<totfact> 0.26402257E+03</totfact>
</mgrwt>
</event>
<event>
 4    1  0.1171488E-003  0.3353178E+03  0.7818608E-02  0.1068808E+00
         -2   -1    0    0    0  501 -0.00000000000E+00  0.00000000000E+00  0.14513070855E+02  0.14513071080E+02  0.25500000000E-02 0. -1.
          2   -1    0    0  501    0  0.00000000000E+00 -0.00000000000E+00 -0.19368408479E+04  0.19368408479E+04  0.25500000000E-02 0.  1.
    5000001    1    1    2    0    0  0.28294482427E+02 -0.14617918069E+03 -0.94136240769E+03  0.95617002317E+03  0.77000000000E+02 0.  0.
   -5000001    1    1    2    0    0 -0.28294482427E+02  0.14617918069E+03 -0.98096536934E+03  0.99518389579E+03  0.77000000000E+02 0.  0.
<mgrwt>
<rscale>  0 0.33531781E+03</rscale>
<asrwt>0</asrwt>
<pdfrwt beam="1">  1        2 0.29797531E+00 0.33531781E+03</pdfrwt>
<pdfrwt beam="2">  1       -2 0.22327817E-02 0.33531781E+03</pdfrwt>
<totfact> 0.52700930E+03</totfact>
</mgrwt>
</event>
<event>
 4    1  0.1171488E-003  0.2147244E+03  0.7818608E-02  0.1137878E+00
         -2   -1    0    0    0  501 -0.00000000000E+00  0.00000000000E+00  0.86767943708E+02  0.86767943746E+02  0.25500000000E-02 0.  1.
          2   -1    0    0  501    0  0.00000000000E+00 -0.00000000000E+00 -0.13284444715E+03  0.13284444717E+03  0.25500000000E-02 0. -1.
    5000001    1    1    2    0    0  0.74615119467E+02  0.47415690329E+01 -0.25883850824E+02  0.11040322578E+03  0.77000000000E+02 0.  0.
   -5000001    1    1    2    0    0 -0.74615119467E+02 -0.47415690329E+01 -0.20192652618E+02  0.10920916514E+03  0.77000000000E+02 0.  0.
<mgrwt>
<rscale>  0 0.21472438E+03</rscale>
<asrwt>0</asrwt>
<pdfrwt beam="1">  1        2 0.20437607E-01 0.21472438E+03</pdfrwt>
<pdfrwt beam="2">  1       -2 0.13348914E-01 0.21472438E+03</pdfrwt>
<totfact> 0.10942711E+04</totfact>
</mgrwt>
</event>
<event>
 4    1  0.1171488E-003  0.1943052E+03  0.7818608E-02  0.1154635E+00
         -2   -1    0    0    0  501 -0.00000000000E+00  0.00000000000E+00  0.21514185149E+02  0.21514185300E+02  0.25500000000E-02 0. -1.
          2   -1    0    0  501    0  0.00000000000E+00 -0.00000000000E+00 -0.43871650798E+03  0.43871650798E+03  0.25500000000E-02 0.  1.
    5000001    1    1    2    0    0  0.41475726284E+02 -0.42300753162E+02 -0.20813563646E+03  0.22969334503E+03  0.77000000000E+02 0.  0.
   -5000001    1    1    2    0    0 -0.41475726284E+02  0.42300753162E+02 -0.20906668637E+03  0.23053734825E+03  0.77000000000E+02 0.  0.
<mgrwt>
<rscale>  0 0.19430521E+03</rscale>
<asrwt>0</asrwt>
<pdfrwt beam="1">  1        2 0.67494841E-01 0.19430521E+03</pdfrwt>
<pdfrwt beam="2">  1       -2 0.33098750E-02 0.19430521E+03</pdfrwt>
<totfact> 0.25449367E+04</totfact>
</mgrwt>
</event>
<event>
 4    1  0.1171488E-003  0.4284263E+03  0.7818608E-02  0.1034358E+00
         -2   -1    0    0    0  501 -0.00000000000E+00  0.00000000000E+00  0.22778298560E+02  0.22778298703E+02  0.25500000000E-02 0.  1.
          2   -1    0    0  501    0  0.00000000000E+00 -0.00000000000E+00 -0.20145175640E+04  0.20145175640E+04  0.25500000000E-02 0. -1.
    5000001    1    1    2    0    0 -0.14211066631E+03 -0.11836908969E+03 -0.63523098393E+03  0.66607363393E+03  0.77000000000E+02 0.  0.
   -5000001    1    1    2    0    0  0.14211066631E+03  0.11836908969E+03 -0.13565082815E+04  0.13712222288E+04  0.77000000000E+02 0.  0.
<mgrwt>
<rscale>  0 0.42842634E+03</rscale>
<asrwt>0</asrwt>
<pdfrwt beam="1">  1        2 0.30992564E+00 0.42842634E+03</pdfrwt>
<pdfrwt beam="2">  1       -2 0.35043552E-02 0.42842634E+03</pdfrwt>
<totfact> 0.24302585E+03</totfact>
</mgrwt>
</event>
<event>
 4    1  0.1171488E-003  0.2918391E+03  0.7818608E-02  0.1089393E+00
         -2   -1    0    0    0  501 -0.00000000000E+00  0.00000000000E+00  0.54208793607E+03  0.54208793607E+03  0.25500000000E-02 0. -1.
          2   -1    0    0  501    0  0.00000000000E+00 -0.00000000000E+00 -0.39278714869E+02  0.39278714952E+02  0.25500000000E-02 0.  1.
    5000001    1    1    2    0    0  0.36854849453E+02  0.11703094234E+03  0.28642194776E+03  0.32096892926E+03  0.77000000000E+02 0.  0.
   -5000001    1    1    2    0    0 -0.36854849453E+02 -0.11703094234E+03  0.21638727344E+03  0.26039772176E+03  0.77000000000E+02 0.  0.
<mgrwt>
<rscale>  0 0.29183912E+03</rscale>
<asrwt>0</asrwt>
<pdfrwt beam="1">  1        2 0.60428792E-02 0.29183912E+03</pdfrwt>
<pdfrwt beam="2">  1       -2 0.83398144E-01 0.29183912E+03</pdfrwt>
<totfact> 0.15900899E+03</totfact>
</mgrwt>
</event>
<event>
 4    1  0.1171488E-003  0.3980132E+03  0.7818608E-02  0.1044470E+00
         -2   -1    0    0    0  501 -0.00000000000E+00  0.00000000000E+00  0.26021688696E+02  0.26021688821E+02  0.25500000000E-02 0. -1.
          2   -1    0    0  501    0  0.00000000000E+00 -0.00000000000E+00 -0.15219468566E+04  0.15219468566E+04  0.25500000000E-02 0.  1.
    5000001    1    1    2    0    0 -0.19833855570E+02 -0.18073577202E+03 -0.84447735116E+03  0.86725417136E+03  0.77000000000E+02 0.  0.
   -5000001    1    1    2    0    0  0.19833855570E+02  0.18073577202E+03 -0.65144781670E+03  0.68071437402E+03  0.77000000000E+02 0.  0.
<mgrwt>
<rscale>  0 0.39801320E+03</rscale>
<asrwt>0</asrwt>
<pdfrwt beam="1">  1        2 0.23414560E+00 0.39801320E+03</pdfrwt>
<pdfrwt beam="2">  1       -2 0.40033379E-02 0.39801320E+03</pdfrwt>
<totfact> 0.36485933E+03</totfact>
</mgrwt>
</event>
<event>
 4    1  0.1171488E-003  0.2233752E+03  0.7818608E-02  0.1131391E+00
         -2   -1    0    0    0  501 -0.00000000000E+00  0.00000000000E+00  0.26261956208E+02  0.26261956332E+02  0.25500000000E-02 0. -1.
          2   -1    0    0  501    0  0.00000000000E+00 -0.00000000000E+00 -0.47498832413E+03  0.47498832414E+03  0.25500000000E-02 0.  1.
    5000001    1    1    2    0    0  0.70250171130E+02 -0.32770812520E+02 -0.27632048029E+03  0.29713804961E+03  0.77000000000E+02 0.  0.
   -5000001    1    1    2    0    0 -0.70250171130E+02  0.32770812520E+02 -0.17240588764E+03  0.20411223086E+03  0.77000000000E+02 0.  0.
<mgrwt>
<rscale>  0 0.22337522E+03</rscale>
<asrwt>0</asrwt>
<pdfrwt beam="1">  1        2 0.73075120E-01 0.22337522E+03</pdfrwt>
<pdfrwt beam="2">  1       -2 0.40403013E-02 0.22337522E+03</pdfrwt>
<totfact> 0.17490556E+04</totfact>
</mgrwt>
</event>
<event>
 4    1  0.1171488E-003  0.1866997E+03  0.7818608E-02  0.1161472E+00
          2   -1    0    0  501    0  0.00000000000E+00  0.00000000000E+00  0.20760601637E+03  0.20760601638E+03  0.25500000000E-02 0.  1.
         -2   -1    0    0    0  501 -0.00000000000E+00 -0.00000000000E+00 -0.41974672426E+02  0.41974672504E+02  0.25500000000E-02 0. -1.
    5000001    1    1    2    0    0 -0.41140410666E+02  0.20823076752E+02  0.48497034146E+02  0.10201517650E+03  0.77000000000E+02 0.  0.
   -5000001    1    1    2    0    0  0.41140410666E+02 -0.20823076752E+02  0.11713430979E+03  0.14756551239E+03  0.77000000000E+02 0.  0.
<mgrwt>
<rscale>  0 0.18669970E+03</rscale>
<asrwt>0</asrwt>
<pdfrwt beam="1">  1        2 0.31939387E-01 0.18669970E+03</pdfrwt>
<pdfrwt beam="2">  1       -2 0.64576419E-02 0.18669970E+03</pdfrwt>
<totfact> 0.20712121E+04</totfact>
</mgrwt>
</event>
<event>
 4    1  0.1171488E-003  0.2117508E+03  0.7818608E-02  0.1140187E+00
         -2   -1    0    0    0  501 -0.00000000000E+00  0.00000000000E+00  0.18541938537E+03  0.18541938538E+03  0.25500000000E-02 0. -1.
          2   -1    0    0  501    0  0.00000000000E+00 -0.00000000000E+00 -0.60455410855E+02  0.60455410909E+02  0.25500000000E-02 0.  1.
    5000001    1    1    2    0    0 -0.34491994543E+02 -0.62763116365E+02  0.48180548050E+02  0.11566880164E+03  0.77000000000E+02 0.  0.
   -5000001    1    1    2    0    0  0.34491994543E+02  0.62763116365E+02  0.76783426460E+02  0.13020599465E+03  0.77000000000E+02 0.  0.
<mgrwt>
<rscale>  0 0.21175085E+03</rscale>
<asrwt>0</asrwt>
<pdfrwt beam="1">  1        2 0.93008325E-02 0.21175085E+03</pdfrwt>
<pdfrwt beam="2">  1       -2 0.28526059E-01 0.21175085E+03</pdfrwt>
<totfact> 0.76740673E+03</totfact>
</mgrwt>
</event>
<event>
 4    1  0.1171488E-003  0.2110550E+03  0.7818608E-02  0.1140733E+00
         -2   -1    0    0    0  501 -0.00000000000E+00  0.00000000000E+00  0.57676315796E+02  0.57676315853E+02  0.25500000000E-02 0. -1.
          2   -1    0    0  501    0  0.00000000000E+00 -0.00000000000E+00 -0.19307838587E+03  0.19307838589E+03  0.25500000000E-02 0.  1.
    5000001    1    1    2    0    0 -0.49934177241E+02 -0.96373493191E+01 -0.68782570530E+01  0.92534377281E+02  0.77000000000E+02 0.  0.
   -5000001    1    1    2    0    0  0.49934177241E+02  0.96373493191E+01 -0.12852381302E+03  0.15822032446E+03  0.77000000000E+02 0.  0.
<mgrwt>
<rscale>  0 0.21105497E+03</rscale>
<asrwt>0</asrwt>
<pdfrwt beam="1">  1        2 0.29704367E-01 0.21105497E+03</pdfrwt>
<pdfrwt beam="2">  1       -2 0.88732795E-02 0.21105497E+03</pdfrwt>
<totfact> 0.13823232E+04</totfact>
</mgrwt>
</event>
<event>
 4    1  0.1171488E-003  0.2722746E+03  0.7818608E-02  0.1099985E+00
          2   -1    0    0  501    0  0.00000000000E+00  0.00000000000E+00  0.87330688013E+03  0.87330688013E+03  0.25500000000E-02 0.  1.
         -2   -1    0    0    0  501 -0.00000000000E+00 -0.00000000000E+00 -0.21222053057E+02  0.21222053210E+02  0.25500000000E-02 0. -1.
    5000001    1    1    2    0    0  0.87188170531E+02  0.71927007201E+01  0.19487464948E+03  0.22706527923E+03  0.77000000000E+02 0.  0.
   -5000001    1    1    2    0    0 -0.87188170531E+02 -0.71927007201E+01  0.65721017759E+03  0.66746365411E+03  0.77000000000E+02 0.  0.
<mgrwt>
<rscale>  0 0.27227460E+03</rscale>
<asrwt>0</asrwt>
<pdfrwt beam="1">  1        2 0.13435486E+00 0.27227460E+03</pdfrwt>
<pdfrwt beam="2">  1       -2 0.32649324E-02 0.27227460E+03</pdfrwt>
<totfact> 0.11761383E+04</totfact>
</mgrwt>
</event>
<event>
 4    1  0.1171488E-003  0.3173427E+03  0.7818608E-02  0.1076879E+00
         -2   -1    0    0    0  501 -0.00000000000E+00  0.00000000000E+00  0.16989845858E+03  0.16989845860E+03  0.25500000000E-02 0. -1.
          2   -1    0    0  501    0  0.00000000000E+00 -0.00000000000E+00 -0.14818615063E+03  0.14818615065E+03  0.25500000000E-02 0.  1.
    5000001    1    1    2    0    0  0.34777194165E+02 -0.74793585494E+02 -0.10095760980E+03  0.15140994895E+03  0.77000000000E+02 0.  0.
   -5000001    1    1    2    0    0 -0.34777194165E+02  0.74793585494E+02  0.12266991776E+03  0.16667466030E+03  0.77000000000E+02 0.  0.
<mgrwt>
<rscale>  0 0.31734271E+03</rscale>
<asrwt>0</asrwt>
<pdfrwt beam="1">  1        2 0.22797869E-01 0.31734271E+03</pdfrwt>
<pdfrwt beam="2">  1       -2 0.26138224E-01 0.31734271E+03</pdfrwt>
<totfact> 0.31386637E+03</totfact>
</mgrwt>
</event>
<event>
 4    1  0.1171488E-003  0.2109041E+03  0.7818608E-02  0.1140852E+00
          2   -1    0    0  501    0  0.00000000000E+00  0.00000000000E+00  0.19938979840E+03  0.19938979842E+03  0.25500000000E-02 0.  1.
         -2   -1    0    0    0  501 -0.00000000000E+00 -0.00000000000E+00 -0.55770821953E+02  0.55770822011E+02  0.25500000000E-02 0. -1.
    5000001    1    1    2    0    0 -0.44673322114E+02  0.52421879196E+02  0.97399114941E+02  0.14198361426E+03  0.77000000000E+02 0.  0.
   -5000001    1    1    2    0    0  0.44673322114E+02 -0.52421879196E+02  0.46219861505E+02  0.11317700617E+03  0.77000000000E+02 0.  0.
<mgrwt>
<rscale>  0 0.21090408E+03</rscale>
<asrwt>0</asrwt>
<pdfrwt beam="1">  1        2 0.30675353E-01 0.21090408E+03</pdfrwt>
<pdfrwt beam="2">  1       -2 0.85801266E-02 0.21090408E+03</pdfrwt>
<totfact> 0.14066290E+04</totfact>
</mgrwt>
</event>
<event>
 4    1  0.1171488E-003  0.2965870E+03  0.7818608E-02  0.1086959E+00
         -2   -1    0    0    0  501 -0.00000000000E+00  0.00000000000E+00  0.71992987042E+02  0.71992987087E+02  0.25500000000E-02 0. -1.
          2   -1    0    0  501    0  0.00000000000E+00 -0.00000000000E+00 -0.30545975163E+03  0.30545975164E+03  0.25500000000E-02 0.  1.
    5000001    1    1    2    0    0 -0.11386938217E+03  0.42354192151E+02 -0.70814603963E+02  0.16032411522E+03  0.77000000000E+02 0.  0.
   -5000001    1    1    2    0    0  0.11386938217E+03 -0.42354192151E+02 -0.16265216063E+03  0.21712862350E+03  0.77000000000E+02 0.  0.
<mgrwt>
<rscale>  0 0.29658699E+03</rscale>
<asrwt>0</asrwt>
<pdfrwt beam="1">  1        2 0.46993807E-01 0.29658699E+03</pdfrwt>
<pdfrwt beam="2">  1       -2 0.11075844E-01 0.29658699E+03</pdfrwt>
<totfact> 0.60161693E+03</totfact>
</mgrwt>
</event>
<event>
 4    1  0.1171488E-003  0.4730241E+03  0.7818608E-02  0.1021070E+00
          2   -1    0    0  501    0  0.00000000000E+00  0.00000000000E+00  0.23917575987E+03  0.23917575988E+03  0.25500000000E-02 0.  1.
         -2   -1    0    0    0  501 -0.00000000000E+00 -0.00000000000E+00 -0.23387805537E+03  0.23387805538E+03  0.25500000000E-02 0. -1.
    5000001    1    1    2    0    0 -0.43980098323E+02  0.10476505860E+03 -0.18997422132E+03  0.23436973208E+03  0.77000000000E+02 0.  0.
   -5000001    1    1    2    0    0  0.43980098323E+02 -0.10476505860E+03  0.19527192581E+03  0.23868408318E+03  0.77000000000E+02 0.  0.
<mgrwt>
<rscale>  0 0.47302415E+03</rscale>
<asrwt>0</asrwt>
<pdfrwt beam="1">  1        2 0.36796271E-01 0.47302415E+03</pdfrwt>
<pdfrwt beam="2">  1       -2 0.35981239E-01 0.47302415E+03</pdfrwt>
<totfact> 0.10278584E+03</totfact>
</mgrwt>
</event>
<event>
 4    1  0.1171488E-003  0.7376892E+03  0.7818608E-02  0.9654864E-01
         -2   -1    0    0    0  501 -0.00000000000E+00  0.00000000000E+00  0.57374402192E+02  0.57374402249E+02  0.25500000000E-02 0. -1.
          2   -1    0    0  501    0  0.00000000000E+00 -0.00000000000E+00 -0.23712028840E+04  0.23712028840E+04  0.25500000000E-02 0.  1.
    5000001    1    1    2    0    0  0.28460509074E+03  0.20961629339E+03 -0.13938180741E+04  0.14399989139E+04  0.77000000000E+02 0.  0.
   -5000001    1    1    2    0    0 -0.28460509074E+03 -0.20961629339E+03 -0.92001040768E+03  0.98857837239E+03  0.77000000000E+02 0.  0.
<mgrwt>
<rscale>  0 0.73768922E+03</rscale>
<asrwt>0</asrwt>
<pdfrwt beam="1">  1        2 0.36480037E+00 0.73768922E+03</pdfrwt>
<pdfrwt beam="2">  1       -2 0.88268329E-02 0.73768922E+03</pdfrwt>
<totfact> 0.35909446E+02</totfact>
</mgrwt>
</event>
<event>
 4    1  0.1171488E-003  0.2602490E+03  0.7818608E-02  0.1106994E+00
         -2   -1    0    0    0  501 -0.00000000000E+00  0.00000000000E+00  0.88249064284E+02  0.88249064321E+02  0.25500000000E-02 0. -1.
          2   -1    0    0  501    0  0.00000000000E+00 -0.00000000000E+00 -0.19187047438E+03  0.19187047439E+03  0.25500000000E-02 0.  1.
    5000001    1    1    2    0    0  0.57383244960E+02  0.51736621310E+02  0.24556253275E+02  0.11181021582E+03  0.77000000000E+02 0.  0.
   -5000001    1    1    2    0    0 -0.57383244960E+02 -0.51736621310E+02 -0.12817766337E+03  0.16830932289E+03  0.77000000000E+02 0.  0.
<mgrwt>
<rscale>  0 0.26024903E+03</rscale>
<asrwt>0</asrwt>
<pdfrwt beam="1">  1        2 0.29518535E-01 0.26024903E+03</pdfrwt>
<pdfrwt beam="2">  1       -2 0.13576779E-01 0.26024903E+03</pdfrwt>
<totfact> 0.71296618E+03</totfact>
</mgrwt>
</event>
