<event>
 4    1  0.6296743E-005  0.4115102E+03  0.7818608E-02  0.1039865E+00
          1   -1    0    0  501    0  0.00000000000E+00  0.00000000000E+00  0.12637555060E+03  0.12637555071E+03  0.50400000000E-02 0.  1.
         -1   -1    0    0    0  501 -0.00000000000E+00 -0.00000000000E+00 -0.33499494035E+03  0.33499494038E+03  0.50400000000E-02 0. -1.
    5000001    1    1    2    0    0  0.12399476155E+03 -0.56092895168E+02 -0.60234618732E+01  0.18624284113E+03  0.12700000000E+03 0.  0.
   -5000001    1    1    2    0    0 -0.12399476155E+03  0.56092895168E+02 -0.20259592787E+03  0.27512764995E+03  0.12700000000E+03 0.  0.
<mgrwt>
<rscale>  0 0.41151024E+03</rscale>
<asrwt>0</asrwt>
<pdfrwt beam="1">  1        1 0.18053650E-01 0.41151024E+03</pdfrwt>
<pdfrwt beam="2">  1       -1 0.47856420E-01 0.41151024E+03</pdfrwt>
<totfact> 0.13078434E+03</totfact>
</mgrwt>
</event>
<event>
 4    1  0.6296743E-005  0.4177304E+03  0.7818608E-02  0.1037808E+00
          1   -1    0    0  501    0  0.00000000000E+00  0.00000000000E+00  0.18462224513E+04  0.18462224513E+04  0.50400000000E-02 0.  1.
         -1   -1    0    0    0  501 -0.00000000000E+00 -0.00000000000E+00 -0.23629157683E+02  0.23629158220E+02  0.50400000000E-02 0. -1.
    5000001    1    1    2    0    0 -0.83640178372E+01 -0.12737934380E+03  0.43757368046E+03  0.47317563320E+03  0.12700000000E+03 0.  0.
   -5000001    1    1    2    0    0  0.83640178372E+01  0.12737934380E+03  0.13850196131E+04  0.13966759763E+04  0.12700000000E+03 0.  0.
<mgrwt>
<rscale>  0 0.41773045E+03</rscale>
<asrwt>0</asrwt>
<pdfrwt beam="1">  1        1 0.26374619E+00 0.41773045E+03</pdfrwt>
<pdfrwt beam="2">  1       -1 0.33755924E-02 0.41773045E+03</pdfrwt>
<totfact> 0.16288492E+03</totfact>
</mgrwt>
</event>
<event>
 4    1  0.6296743E-005  0.3124050E+03  0.7818608E-02  0.1079199E+00
          1   -1    0    0  501    0  0.00000000000E+00  0.00000000000E+00  0.10636866533E+04  0.10636866533E+04  0.50400000000E-02 0. -1.
         -1   -1    0    0    0  501 -0.00000000000E+00 -0.00000000000E+00 -0.22938351641E+02  0.22938352195E+02  0.50400000000E-02 0.  1.
    5000001    1    1    2    0    0 -0.70300259089E+02  0.50289293987E+02  0.61869750218E+03  0.63748469686E+03  0.12700000000E+03 0.  0.
   -5000001    1    1    2    0    0  0.70300259089E+02 -0.50289293987E+02  0.42205079948E+03  0.44914030865E+03  0.12700000000E+03 0.  0.
<mgrwt>
<rscale>  0 0.31240499E+03</rscale>
<asrwt>0</asrwt>
<pdfrwt beam="1">  1        1 0.15195529E+00 0.31240499E+03</pdfrwt>
<pdfrwt beam="2">  1       -1 0.32769062E-02 0.31240499E+03</pdfrwt>
<totfact> 0.54207679E+03</totfact>
</mgrwt>
</event>
<event>
 4    1  0.6296743E-005  0.4570137E+03  0.7818608E-02  0.1025651E+00
          1   -1    0    0  501    0  0.00000000000E+00  0.00000000000E+00  0.91070291978E+02  0.91070292117E+02  0.50400000000E-02 0.  1.
         -1   -1    0    0    0  501 -0.00000000000E+00 -0.00000000000E+00 -0.57335243973E+03  0.57335243975E+03  0.50400000000E-02 0. -1.
    5000001    1    1    2    0    0  0.96357048327E+02  0.12619263698E+03 -0.39276651768E+03  0.44227118355E+03  0.12700000000E+03 0.  0.
   -5000001    1    1    2    0    0 -0.96357048327E+02 -0.12619263698E+03 -0.89515630068E+02  0.22215154831E+03  0.12700000000E+03 0.  0.
<mgrwt>
<rscale>  0 0.45701367E+03</rscale>
<asrwt>0</asrwt>
<pdfrwt beam="1">  1        1 0.13010042E-01 0.45701367E+03</pdfrwt>
<pdfrwt beam="2">  1       -1 0.81907490E-01 0.45701367E+03</pdfrwt>
<totfact> 0.70062917E+02</totfact>
</mgrwt>
</event>
<event>
 4    1  0.6296743E-005  0.3681665E+03  0.7818608E-02  0.1055396E+00
         -1   -1    0    0    0  501 -0.00000000000E+00  0.00000000000E+00  0.11273748550E+04  0.11273748551E+04  0.50400000000E-02 0. -1.
          1   -1    0    0  501    0  0.00000000000E+00 -0.00000000000E+00 -0.30058010778E+02  0.30058011200E+02  0.50400000000E-02 0.  1.
    5000001    1    1    2    0    0  0.72920479215E+02  0.86704908586E+02  0.32808928050E+03  0.36960345432E+03  0.12700000000E+03 0.  0.
   -5000001    1    1    2    0    0 -0.72920479215E+02 -0.86704908586E+02  0.76922756376E+03  0.78782941193E+03  0.12700000000E+03 0.  0.
<mgrwt>
<rscale>  0 0.36816652E+03</rscale>
<asrwt>0</asrwt>
<pdfrwt beam="1">  1        1 0.42940021E-02 0.36816652E+03</pdfrwt>
<pdfrwt beam="2">  1       -1 0.16105353E+00 0.36816652E+03</pdfrwt>
<totfact> 0.64453341E+02</totfact>
</mgrwt>
</event>
<event>
 4    1  0.6296743E-005  0.3010523E+03  0.7818608E-02  0.1084716E+00
          1   -1    0    0  501    0  0.00000000000E+00  0.00000000000E+00  0.46660274628E+03  0.46660274631E+03  0.50400000000E-02 0. -1.
         -1   -1    0    0    0  501 -0.00000000000E+00 -0.00000000000E+00 -0.48559763247E+02  0.48559763508E+02  0.50400000000E-02 0.  1.
    5000001    1    1    2    0    0 -0.50455864506E+02  0.54217607993E+02  0.26430631357E+03  0.30244366529E+03  0.12700000000E+03 0.  0.
   -5000001    1    1    2    0    0  0.50455864506E+02 -0.54217607993E+02  0.15373666946E+03  0.21271884452E+03  0.12700000000E+03 0.  0.
<mgrwt>
<rscale>  0 0.30105228E+03</rscale>
<asrwt>0</asrwt>
<pdfrwt beam="1">  1        1 0.66657536E-01 0.30105228E+03</pdfrwt>
<pdfrwt beam="2">  1       -1 0.69371090E-02 0.30105228E+03</pdfrwt>
<totfact> 0.58397116E+03</totfact>
</mgrwt>
</event>
<event>
 4    1  0.6296743E-005  0.3064655E+03  0.7818608E-02  0.1082053E+00
         -1   -1    0    0    0  501 -0.00000000000E+00  0.00000000000E+00  0.22392738994E+02  0.22392739561E+02  0.50400000000E-02 0. -1.
          1   -1    0    0  501    0  0.00000000000E+00 -0.00000000000E+00 -0.10485664818E+04  0.10485664818E+04  0.50400000000E-02 0.  1.
    5000001    1    1    2    0    0 -0.47290546865E+02 -0.39115417374E+02 -0.30385507050E+03  0.33499748591E+03  0.12700000000E+03 0.  0.
   -5000001    1    1    2    0    0  0.47290546865E+02  0.39115417374E+02 -0.72231867231E+03  0.73596173546E+03  0.12700000000E+03 0.  0.
<mgrwt>
<rscale>  0 0.30646550E+03</rscale>
<asrwt>0</asrwt>
<pdfrwt beam="1">  1        1 0.14979518E+00 0.30646550E+03</pdfrwt>
<pdfrwt beam="2">  1       -1 0.31989634E-02 0.30646550E+03</pdfrwt>
<totfact> 0.57552973E+03</totfact>
</mgrwt>
</event>
<event>
 4    1  0.6296743E-005  0.3125468E+03  0.7818608E-02  0.1079132E+00
          1   -1    0    0  501    0  0.00000000000E+00  0.00000000000E+00  0.90993459927E+02  0.90993460067E+02  0.50400000000E-02 0. -1.
         -1   -1    0    0    0  501 -0.00000000000E+00 -0.00000000000E+00 -0.26838603673E+03  0.26838603678E+03  0.50400000000E-02 0.  1.
    5000001    1    1    2    0    0  0.39030119301E+02 -0.80774247180E+02 -0.10667744197E+03  0.18856538878E+03  0.12700000000E+03 0.  0.
   -5000001    1    1    2    0    0 -0.39030119301E+02  0.80774247180E+02 -0.70715134835E+02  0.17081410807E+03  0.12700000000E+03 0.  0.
<mgrwt>
<rscale>  0 0.31254679E+03</rscale>
<asrwt>0</asrwt>
<pdfrwt beam="1">  1        1 0.12999066E-01 0.31254679E+03</pdfrwt>
<pdfrwt beam="2">  1       -1 0.38340862E-01 0.31254679E+03</pdfrwt>
<totfact> 0.30029538E+03</totfact>
</mgrwt>
</event>
<event>
 4    1  0.6296743E-005  0.3256584E+03  0.7818608E-02  0.1073074E+00
          1   -1    0    0  501    0  0.00000000000E+00  0.00000000000E+00  0.66240177166E+02  0.66240177358E+02  0.50400000000E-02 0. -1.
         -1   -1    0    0    0  501 -0.00000000000E+00 -0.00000000000E+00 -0.40026088246E+03  0.40026088249E+03  0.50400000000E-02 0.  1.
    5000001    1    1    2    0    0  0.30759630385E+02  0.72063986215E+02 -0.26034181854E+03  0.30007704919E+03  0.12700000000E+03 0.  0.
   -5000001    1    1    2    0    0 -0.30759630385E+02 -0.72063986215E+02 -0.73678886757E+02  0.16642401066E+03  0.12700000000E+03 0.  0.
<mgrwt>
<rscale>  0 0.32565842E+03</rscale>
<asrwt>0</asrwt>
<pdfrwt beam="1">  1        1 0.94628827E-02 0.32565842E+03</pdfrwt>
<pdfrwt beam="2">  1       -1 0.57180125E-01 0.32565842E+03</pdfrwt>
<totfact> 0.22104894E+03</totfact>
</mgrwt>
</event>
<event>
 4    1  0.6296743E-005  0.4670851E+03  0.7818608E-02  0.1022746E+00
         -1   -1    0    0    0  501 -0.00000000000E+00  0.00000000000E+00  0.39192037740E+03  0.39192037743E+03  0.50400000000E-02 0. -1.
          1   -1    0    0  501    0  0.00000000000E+00 -0.00000000000E+00 -0.13916634368E+03  0.13916634378E+03  0.50400000000E-02 0.  1.
    5000001    1    1    2    0    0  0.35959044979E+02 -0.19238602385E+03  0.13817638847E+03  0.27115890068E+03  0.12700000000E+03 0.  0.
   -5000001    1    1    2    0    0 -0.35959044979E+02  0.19238602385E+03  0.11457764525E+03  0.25992782052E+03  0.12700000000E+03 0.  0.
<mgrwt>
<rscale>  0 0.46708511E+03</rscale>
<asrwt>0</asrwt>
<pdfrwt beam="1">  1        1 0.19880906E-01 0.46708511E+03</pdfrwt>
<pdfrwt beam="2">  1       -1 0.55988626E-01 0.46708511E+03</pdfrwt>
<totfact> 0.85747890E+02</totfact>
</mgrwt>
</event>
<event>
 4    1  0.6296743E-005  0.3597503E+03  0.7818608E-02  0.1058683E+00
          1   -1    0    0  501    0  0.00000000000E+00  0.00000000000E+00  0.32198239806E+03  0.32198239810E+03  0.50400000000E-02 0.  1.
         -1   -1    0    0    0  501 -0.00000000000E+00 -0.00000000000E+00 -0.10048706208E+03  0.10048706220E+03  0.50400000000E-02 0. -1.
    5000001    1    1    2    0    0  0.10082229168E+03  0.36689625820E+02  0.19138310035E+03  0.25351085626E+03  0.12700000000E+03 0.  0.
   -5000001    1    1    2    0    0 -0.10082229168E+03 -0.36689625820E+02  0.30112235629E+02  0.16895860404E+03  0.12700000000E+03 0.  0.
<mgrwt>
<rscale>  0 0.35975028E+03</rscale>
<asrwt>0</asrwt>
<pdfrwt beam="1">  1        1 0.45997485E-01 0.35975028E+03</pdfrwt>
<pdfrwt beam="2">  1       -1 0.14355295E-01 0.35975028E+03</pdfrwt>
<totfact> 0.30456338E+03</totfact>
</mgrwt>
</event>
<event>
 4    1  0.6296743E-005  0.7545520E+03  0.7818608E-02  0.9628236E-01
          1   -1    0    0  501    0  0.00000000000E+00  0.00000000000E+00  0.21722682660E+04  0.21722682660E+04  0.50400000000E-02 0.  1.
         -1   -1    0    0    0  501 -0.00000000000E+00 -0.00000000000E+00 -0.65524686235E+02  0.65524686429E+02  0.50400000000E-02 0. -1.
    5000001    1    1    2    0    0  0.12611559104E+03  0.31565759272E+03  0.13596226396E+04  0.14072126991E+04  0.12700000000E+03 0.  0.
   -5000001    1    1    2    0    0 -0.12611559104E+03 -0.31565759272E+03  0.74712094016E+03  0.83058025342E+03  0.12700000000E+03 0.  0.
<mgrwt>
<rscale>  0 0.75455204E+03</rscale>
<asrwt>0</asrwt>
<pdfrwt beam="1">  1        1 0.31032400E+00 0.75455204E+03</pdfrwt>
<pdfrwt beam="2">  1       -1 0.93606706E-02 0.75455204E+03</pdfrwt>
<totfact> 0.20921190E+02</totfact>
</mgrwt>
</event>
<event>
 4    1  0.6296743E-005  0.4661953E+03  0.7818608E-02  0.1023000E+00
         -1   -1    0    0    0  501 -0.00000000000E+00  0.00000000000E+00  0.28526966901E+03  0.28526966906E+03  0.50400000000E-02 0.  1.
          1   -1    0    0  501    0  0.00000000000E+00 -0.00000000000E+00 -0.19046719704E+03  0.19046719711E+03  0.50400000000E-02 0. -1.
    5000001    1    1    2    0    0  0.82380607928E+02 -0.11355681171E+03  0.18628899215E+03  0.26554529302E+03  0.12700000000E+03 0.  0.
   -5000001    1    1    2    0    0 -0.82380607928E+02  0.11355681171E+03 -0.91486520177E+02  0.21019157315E+03  0.12700000000E+03 0.  0.
<mgrwt>
<rscale>  0 0.46619530E+03</rscale>
<asrwt>0</asrwt>
<pdfrwt beam="1">  1        1 0.27209600E-01 0.46619530E+03</pdfrwt>
<pdfrwt beam="2">  1       -1 0.40752809E-01 0.46619530E+03</pdfrwt>
<totfact> 0.10295512E+03</totfact>
</mgrwt>
</event>
<event>
 4    1  0.6296743E-005  0.3055146E+03  0.7818608E-02  0.1082516E+00
         -1   -1    0    0    0  501 -0.00000000000E+00  0.00000000000E+00  0.15758425155E+02  0.15758425961E+02  0.50400000000E-02 0. -1.
          1   -1    0    0  501    0  0.00000000000E+00 -0.00000000000E+00 -0.14807817973E+04  0.14807817974E+04  0.50400000000E-02 0.  1.
    5000001    1    1    2    0    0 -0.36474891710E+02 -0.73377193657E+02 -0.84107115468E+03  0.85454333858E+03  0.12700000000E+03 0.  0.
   -5000001    1    1    2    0    0  0.36474891710E+02  0.73377193657E+02 -0.62395221751E+03  0.64199688474E+03  0.12700000000E+03 0.  0.
<mgrwt>
<rscale>  0 0.30551458E+03</rscale>
<asrwt>0</asrwt>
<pdfrwt beam="1">  1        1 0.21154017E+00 0.30551458E+03</pdfrwt>
<pdfrwt beam="2">  1       -1 0.22512046E-02 0.30551458E+03</pdfrwt>
<totfact> 0.50104060E+03</totfact>
</mgrwt>
</event>
<event>
 4    1  0.6296743E-005  0.5102523E+03  0.7818608E-02  0.1011137E+00
          1   -1    0    0  501    0  0.00000000000E+00  0.00000000000E+00  0.47085710827E+03  0.47085710830E+03  0.50400000000E-02 0.  1.
         -1   -1    0    0    0  501 -0.00000000000E+00 -0.00000000000E+00 -0.13823591113E+03  0.13823591122E+03  0.50400000000E-02 0. -1.
    5000001    1    1    2    0    0  0.14173985088E+03  0.14728073843E+03  0.65171915645E+02  0.24931542236E+03  0.12700000000E+03 0.  0.
   -5000001    1    1    2    0    0 -0.14173985088E+03 -0.14728073843E+03  0.26744928150E+03  0.35977759715E+03  0.12700000000E+03 0.  0.
<mgrwt>
<rscale>  0 0.51025234E+03</rscale>
<asrwt>0</asrwt>
<pdfrwt beam="1">  1        1 0.67265301E-01 0.51025234E+03</pdfrwt>
<pdfrwt beam="2">  1       -1 0.19747987E-01 0.51025234E+03</pdfrwt>
<totfact> 0.11139298E+03</totfact>
</mgrwt>
</event>
<event>
 4    1  0.6296743E-005  0.3135091E+03  0.7818608E-02  0.1078676E+00
          1   -1    0    0  501    0  0.00000000000E+00  0.00000000000E+00  0.36881706944E+03  0.36881706947E+03  0.50400000000E-02 0. -1.
         -1   -1    0    0    0  501 -0.00000000000E+00 -0.00000000000E+00 -0.66623787581E+02  0.66623787772E+02  0.50400000000E-02 0.  1.
    5000001    1    1    2    0    0 -0.84756123637E+02 -0.40731475793E+01  0.20006093324E+03  0.25170134691E+03  0.12700000000E+03 0.  0.
   -5000001    1    1    2    0    0  0.84756123637E+02  0.40731475793E+01  0.10213234861E+03  0.18373951033E+03  0.12700000000E+03 0.  0.
<mgrwt>
<rscale>  0 0.31350911E+03</rscale>
<asrwt>0</asrwt>
<pdfrwt beam="1">  1        1 0.52688152E-01 0.31350911E+03</pdfrwt>
<pdfrwt beam="2">  1       -1 0.95176841E-02 0.31350911E+03</pdfrwt>
<totfact> 0.48686363E+03</totfact>
</mgrwt>
</event>
<event>
 4    1  0.6296743E-005  0.3374655E+03  0.7818608E-02  0.1067881E+00
         -1   -1    0    0    0  501 -0.00000000000E+00  0.00000000000E+00  0.21681589805E+02  0.21681590391E+02  0.50400000000E-02 0. -1.
          1   -1    0    0  501    0  0.00000000000E+00 -0.00000000000E+00 -0.13131294680E+04  0.13131294680E+04  0.50400000000E-02 0.  1.
    5000001    1    1    2    0    0  0.83727228733E+02  0.57634290378E+02 -0.46840131850E+03  0.49584347876E+03  0.12700000000E+03 0.  0.
   -5000001    1    1    2    0    0 -0.83727228733E+02 -0.57634290378E+02 -0.82304655973E+03  0.83896757967E+03  0.12700000000E+03 0.  0.
<mgrwt>
<rscale>  0 0.33746546E+03</rscale>
<asrwt>0</asrwt>
<pdfrwt beam="1">  1        1 0.18758987E+00 0.33746546E+03</pdfrwt>
<pdfrwt beam="2">  1       -1 0.30973709E-02 0.33746546E+03</pdfrwt>
<totfact> 0.40054111E+03</totfact>
</mgrwt>
</event>
<event>
 4    1  0.6296743E-005  0.4515755E+03  0.7818608E-02  0.1027253E+00
         -1   -1    0    0    0  501 -0.00000000000E+00  0.00000000000E+00  0.85009773248E+03  0.85009773250E+03  0.50400000000E-02 0.  1.
          1   -1    0    0  501    0  0.00000000000E+00 -0.00000000000E+00 -0.59969693560E+02  0.59969693772E+02  0.50400000000E-02 0. -1.
    5000001    1    1    2    0    0 -0.12460941630E+03  0.13341514293E+03  0.47373866682E+03  0.52333969029E+03  0.12700000000E+03 0.  0.
   -5000001    1    1    2    0    0  0.12460941630E+03 -0.13341514293E+03  0.31638937210E+03  0.38672773598E+03  0.12700000000E+03 0.  0.
<mgrwt>
<rscale>  0 0.45157547E+03</rscale>
<asrwt>0</asrwt>
<pdfrwt beam="1">  1        1 0.85670999E-02 0.45157547E+03</pdfrwt>
<pdfrwt beam="2">  1       -1 0.12144252E+00 0.45157547E+03</pdfrwt>
<totfact> 0.50846586E+02</totfact>
</mgrwt>
</event>
<event>
 4    1  0.6296743E-005  0.4802920E+03  0.7818608E-02  0.1019055E+00
          1   -1    0    0  501    0  0.00000000000E+00  0.00000000000E+00  0.91366103817E+03  0.91366103819E+03  0.50400000000E-02 0.  1.
         -1   -1    0    0    0  501 -0.00000000000E+00 -0.00000000000E+00 -0.63119790505E+02  0.63119790707E+02  0.50400000000E-02 0. -1.
    5000001    1    1    2    0    0  0.19245128717E+02 -0.18493050901E+03  0.59507645216E+03  0.63625046331E+03  0.12700000000E+03 0.  0.
   -5000001    1    1    2    0    0 -0.19245128717E+02  0.18493050901E+03  0.25546479550E+03  0.34053036558E+03  0.12700000000E+03 0.  0.
<mgrwt>
<rscale>  0 0.48029197E+03</rscale>
<asrwt>0</asrwt>
<pdfrwt beam="1">  1        1 0.13052300E+00 0.48029197E+03</pdfrwt>
<pdfrwt beam="2">  1       -1 0.90171134E-02 0.48029197E+03</pdfrwt>
<totfact> 0.15039467E+03</totfact>
</mgrwt>
</event>
<event>
 4    1  0.6296743E-005  0.3581764E+03  0.7818608E-02  0.1059308E+00
          1   -1    0    0  501    0  0.00000000000E+00  0.00000000000E+00  0.44087767176E+03  0.44087767179E+03  0.50400000000E-02 0.  1.
         -1   -1    0    0    0  501 -0.00000000000E+00 -0.00000000000E+00 -0.72747141797E+02  0.72747141971E+02  0.50400000000E-02 0. -1.
    5000001    1    1    2    0    0  0.78523665457E+02 -0.96891709363E+02  0.15575980239E+03  0.23652502071E+03  0.12700000000E+03 0.  0.
   -5000001    1    1    2    0    0 -0.78523665457E+02  0.96891709363E+02  0.21237072757E+03  0.27709979305E+03  0.12700000000E+03 0.  0.
<mgrwt>
<rscale>  0 0.35817644E+03</rscale>
<asrwt>0</asrwt>
<pdfrwt beam="1">  1        1 0.62982526E-01 0.35817644E+03</pdfrwt>
<pdfrwt beam="2">  1       -1 0.10392449E-01 0.35817644E+03</pdfrwt>
<totfact> 0.33874746E+03</totfact>
</mgrwt>
</event>
<event>
 4    1  0.6296743E-005  0.3456754E+03  0.7818608E-02  0.1064404E+00
          1   -1    0    0  501    0  0.00000000000E+00  0.00000000000E+00  0.66228990925E+03  0.66228990927E+03  0.50400000000E-02 0.  1.
         -1   -1    0    0    0  501 -0.00000000000E+00 -0.00000000000E+00 -0.45105425415E+02  0.45105425697E+02  0.50400000000E-02 0. -1.
    5000001    1    1    2    0    0 -0.96506250576E+02 -0.65541989343E+02  0.28484505653E+03  0.33297885067E+03  0.12700000000E+03 0.  0.
   -5000001    1    1    2    0    0  0.96506250576E+02  0.65541989343E+02  0.33233942730E+03  0.37441648429E+03  0.12700000000E+03 0.  0.
<mgrwt>
<rscale>  0 0.34567539E+03</rscale>
<asrwt>0</asrwt>
<pdfrwt beam="1">  1        1 0.94612839E-01 0.34567539E+03</pdfrwt>
<pdfrwt beam="2">  1       -1 0.64436326E-02 0.34567539E+03</pdfrwt>
<totfact> 0.40870649E+03</totfact>
</mgrwt>
</event>
<event>
 4    1  0.6296743E-005  0.3017573E+03  0.7818608E-02  0.1084365E+00
          1   -1    0    0  501    0  0.00000000000E+00  0.00000000000E+00  0.16942342317E+03  0.16942342325E+03  0.50400000000E-02 0. -1.
         -1   -1    0    0    0  501 -0.00000000000E+00 -0.00000000000E+00 -0.13436372597E+03  0.13436372607E+03  0.50400000000E-02 0.  1.
    5000001    1    1    2    0    0  0.25762222721E+01 -0.66952184970E+02 -0.29108129499E+02  0.14651114359E+03  0.12700000000E+03 0.  0.
   -5000001    1    1    2    0    0 -0.25762222721E+01  0.66952184970E+02  0.64167826695E+02  0.15727600572E+03  0.12700000000E+03 0.  0.
<mgrwt>
<rscale>  0 0.30175727E+03</rscale>
<asrwt>0</asrwt>
<pdfrwt beam="1">  1        1 0.24203346E-01 0.30175727E+03</pdfrwt>
<pdfrwt beam="2">  1       -1 0.19194818E-01 0.30175727E+03</pdfrwt>
<totfact> 0.42919781E+03</totfact>
</mgrwt>
</event>
<event>
 4    1  0.6296743E-005  0.3193695E+03  0.7818608E-02  0.1075940E+00
         -1   -1    0    0    0  501 -0.00000000000E+00  0.00000000000E+00  0.74331863344E+02  0.74331863515E+02  0.50400000000E-02 0. -1.
          1   -1    0    0  501    0  0.00000000000E+00 -0.00000000000E+00 -0.34304554588E+03  0.34304554591E+03  0.50400000000E-02 0.  1.
    5000001    1    1    2    0    0  0.33257775075E+02  0.87313744332E+02 -0.10128361942E+03  0.18739568062E+03  0.12700000000E+03 0.  0.
   -5000001    1    1    2    0    0 -0.33257775075E+02 -0.87313744332E+02 -0.16743006311E+03  0.22998172881E+03  0.12700000000E+03 0.  0.
<mgrwt>
<rscale>  0 0.31936947E+03</rscale>
<asrwt>0</asrwt>
<pdfrwt beam="1">  1        1 0.49006506E-01 0.31936947E+03</pdfrwt>
<pdfrwt beam="2">  1       -1 0.10618838E-01 0.31936947E+03</pdfrwt>
<totfact> 0.45058756E+03</totfact>
</mgrwt>
</event>
<event>
 4    1  0.6296743E-005  0.6467836E+03  0.7818608E-02  0.9812833E-01
         -1   -1    0    0    0  501 -0.00000000000E+00  0.00000000000E+00  0.17664724190E+04  0.17664724190E+04  0.50400000000E-02 0. -1.
          1   -1    0    0  501    0  0.00000000000E+00 -0.00000000000E+00 -0.59204021683E+02  0.59204021897E+02  0.50400000000E-02 0.  1.
    5000001    1    1    2    0    0 -0.24371982323E+03  0.16979293262E+03  0.89590684839E+03  0.95236918954E+03  0.12700000000E+03 0.  0.
   -5000001    1    1    2    0    0  0.24371982323E+03 -0.16979293262E+03  0.81136154896E+03  0.87330725139E+03  0.12700000000E+03 0.  0.
<mgrwt>
<rscale>  0 0.64678365E+03</rscale>
<asrwt>0</asrwt>
<pdfrwt beam="1">  1        1 0.84577183E-02 0.64678365E+03</pdfrwt>
<pdfrwt beam="2">  1       -1 0.25235318E+00 0.64678365E+03</pdfrwt>
<totfact> 0.59250891E+01</totfact>
</mgrwt>
</event>
<event>
 4    1  0.6296743E-005  0.3142704E+03  0.7818608E-02  0.1078317E+00
          1   -1    0    0  501    0  0.00000000000E+00  0.00000000000E+00  0.20409512683E+04  0.20409512683E+04  0.50400000000E-02 0.  1.
         -1   -1    0    0    0  501 -0.00000000000E+00 -0.00000000000E+00 -0.12098021315E+02  0.12098022364E+02  0.50400000000E-02 0. -1.
    5000001    1    1    2    0    0 -0.92375704916E+02 -0.49146244268E+01  0.10291051684E+04  0.10410301975E+04  0.12700000000E+03 0.  0.
   -5000001    1    1    2    0    0  0.92375704916E+02  0.49146244268E+01  0.99974807859E+03  0.10120190932E+04  0.12700000000E+03 0.  0.
<mgrwt>
<rscale>  0 0.31427041E+03</rscale>
<asrwt>0</asrwt>
<pdfrwt beam="1">  1        1 0.29156443E+00 0.31427041E+03</pdfrwt>
<pdfrwt beam="2">  1       -1 0.17282891E-02 0.31427041E+03</pdfrwt>
<totfact> 0.33500111E+03</totfact>
</mgrwt>
</event>
<event>
 4    1  0.6296743E-005  0.2906173E+03  0.7818608E-02  0.1090027E+00
         -1   -1    0    0    0  501 -0.00000000000E+00  0.00000000000E+00  0.27908003321E+02  0.27908003776E+02  0.50400000000E-02 0. -1.
          1   -1    0    0  501    0  0.00000000000E+00 -0.00000000000E+00 -0.75657905235E+03  0.75657905236E+03  0.50400000000E-02 0.  1.
    5000001    1    1    2    0    0 -0.18766444891E+02 -0.64390142618E+02 -0.42392652917E+03  0.44759465150E+03  0.12700000000E+03 0.  0.
   -5000001    1    1    2    0    0  0.18766444891E+02  0.64390142618E+02 -0.30474451986E+03  0.33689240464E+03  0.12700000000E+03 0.  0.
<mgrwt>
<rscale>  0 0.29061735E+03</rscale>
<asrwt>0</asrwt>
<pdfrwt beam="1">  1        1 0.10808271E+00 0.29061735E+03</pdfrwt>
<pdfrwt beam="2">  1       -1 0.39868581E-02 0.29061735E+03</pdfrwt>
<totfact> 0.69260612E+03</totfact>
</mgrwt>
</event>
<event>
 4    1  0.6296743E-005  0.5388523E+03  0.7818608E-02  0.1004108E+00
          1   -1    0    0  501    0  0.00000000000E+00  0.00000000000E+00  0.31427462214E+03  0.31427462218E+03  0.50400000000E-02 0.  1.
         -1   -1    0    0    0  501 -0.00000000000E+00 -0.00000000000E+00 -0.23097772999E+03  0.23097773005E+03  0.50400000000E-02 0. -1.
    5000001    1    1    2    0    0  0.23080861059E+02  0.23623535729E+03  0.52805220614E+02  0.27433056976E+03  0.12700000000E+03 0.  0.
   -5000001    1    1    2    0    0 -0.23080861059E+02 -0.23623535729E+03  0.30491671531E+02  0.27092178246E+03  0.12700000000E+03 0.  0.
<mgrwt>
<rscale>  0 0.53885226E+03</rscale>
<asrwt>0</asrwt>
<pdfrwt beam="1">  1        1 0.44896375E-01 0.53885226E+03</pdfrwt>
<pdfrwt beam="2">  1       -1 0.32996819E-01 0.53885226E+03</pdfrwt>
<totfact> 0.78792355E+02</totfact>
</mgrwt>
</event>
<event>
 4    1  0.6296743E-005  0.6072358E+03  0.7818608E-02  0.9890507E-01
          1   -1    0    0  501    0  0.00000000000E+00  0.00000000000E+00  0.27951793488E+03  0.27951793493E+03  0.50400000000E-02 0.  1.
         -1   -1    0    0    0  501 -0.00000000000E+00 -0.00000000000E+00 -0.32979574757E+03  0.32979574761E+03  0.50400000000E-02 0. -1.
    5000001    1    1    2    0    0  0.23215265605E+03 -0.31983940208E+02  0.12074427465E+03  0.29261922016E+03  0.12700000000E+03 0.  0.
   -5000001    1    1    2    0    0 -0.23215265605E+03  0.31983940208E+02 -0.17102208734E+03  0.31669446238E+03  0.12700000000E+03 0.  0.
<mgrwt>
<rscale>  0 0.60723579E+03</rscale>
<asrwt>0</asrwt>
<pdfrwt beam="1">  1        1 0.39931134E-01 0.60723579E+03</pdfrwt>
<pdfrwt beam="2">  1       -1 0.47113678E-01 0.60723579E+03</pdfrwt>
<totfact> 0.48084059E+02</totfact>
</mgrwt>
</event>
<event>
 4    1  0.6296743E-005  0.7728750E+03  0.7818608E-02  0.9600131E-01
          1   -1    0    0  501    0  0.00000000000E+00  0.00000000000E+00  0.35500868905E+04  0.35500868905E+04  0.50400000000E-02 0.  1.
         -1   -1    0    0    0  501 -0.00000000000E+00 -0.00000000000E+00 -0.42064870603E+02  0.42064870905E+02  0.50400000000E-02 0. -1.
    5000001    1    1    2    0    0  0.19946931532E+03 -0.24318072977E+03  0.26145415090E+04  0.26364523848E+04  0.12700000000E+03 0.  0.
   -5000001    1    1    2    0    0 -0.19946931532E+03  0.24318072977E+03  0.89348051095E+03  0.95569937666E+03  0.12700000000E+03 0.  0.
<mgrwt>
<rscale>  0 0.77287501E+03</rscale>
<asrwt>0</asrwt>
<pdfrwt beam="1">  1        1 0.50715529E+00 0.77287501E+03</pdfrwt>
<pdfrwt beam="2">  1       -1 0.60092671E-02 0.77287501E+03</pdfrwt>
<totfact> 0.53541965E+01</totfact>
</mgrwt>
</event>
<event>
 4    1  0.6296743E-005  0.3289105E+03  0.7818608E-02  0.1071620E+00
          1   -1    0    0  501    0  0.00000000000E+00  0.00000000000E+00  0.26209286169E+04  0.26209286169E+04  0.50400000000E-02 0.  1.
         -1   -1    0    0    0  501 -0.00000000000E+00 -0.00000000000E+00 -0.10319060659E+02  0.10319061889E+02  0.50400000000E-02 0. -1.
    5000001    1    1    2    0    0 -0.64976944405E+01 -0.10407510611E+03  0.13575651065E+04  0.13674742652E+04  0.12700000000E+03 0.  0.
   -5000001    1    1    2    0    0  0.64976944405E+01  0.10407510611E+03  0.12530444497E+04  0.12637734135E+04  0.12700000000E+03 0.  0.
<mgrwt>
<rscale>  0 0.32891046E+03</rscale>
<asrwt>0</asrwt>
<pdfrwt beam="1">  1        1 0.37441904E+00 0.32891046E+03</pdfrwt>
<pdfrwt beam="2">  1       -1 0.14741490E-02 0.32891046E+03</pdfrwt>
<totfact> 0.18723818E+03</totfact>
</mgrwt>
</event>
<event>
 4    1  0.6296743E-005  0.4823072E+03  0.7818608E-02  0.1018503E+00
         -1   -1    0    0    0  501 -0.00000000000E+00  0.00000000000E+00  0.19807662027E+02  0.19807662668E+02  0.50400000000E-02 0. -1.
          1   -1    0    0  501    0  0.00000000000E+00 -0.00000000000E+00 -0.29359885155E+04  0.29359885156E+04  0.50400000000E-02 0.  1.
    5000001    1    1    2    0    0  0.17579363405E+03  0.97417968533E+02 -0.17056985561E+04  0.17221876282E+04  0.12700000000E+03 0.  0.
   -5000001    1    1    2    0    0 -0.17579363405E+03 -0.97417968533E+02 -0.12104822974E+04  0.12336085500E+04  0.12700000000E+03 0.  0.
<mgrwt>
<rscale>  0 0.48230724E+03</rscale>
<asrwt>0</asrwt>
<pdfrwt beam="1">  1        1 0.41942665E+00 0.48230724E+03</pdfrwt>
<pdfrwt beam="2">  1       -1 0.28296679E-02 0.48230724E+03</pdfrwt>
<totfact> 0.44620189E+02</totfact>
</mgrwt>
</event>
<event>
 4    1  0.6296743E-005  0.3641867E+03  0.7818608E-02  0.1056938E+00
          1   -1    0    0  501    0  0.00000000000E+00  0.00000000000E+00  0.11787237134E+04  0.11787237134E+04  0.50400000000E-02 0. -1.
         -1   -1    0    0    0  501 -0.00000000000E+00 -0.00000000000E+00 -0.28130416232E+02  0.28130416684E+02  0.50400000000E-02 0.  1.
    5000001    1    1    2    0    0 -0.60494137111E+02  0.10420979767E+03  0.74131165433E+03  0.76170282355E+03  0.12700000000E+03 0.  0.
   -5000001    1    1    2    0    0  0.60494137111E+02 -0.10420979767E+03  0.40928164283E+03  0.44515130654E+03  0.12700000000E+03 0.  0.
<mgrwt>
<rscale>  0 0.36418670E+03</rscale>
<asrwt>0</asrwt>
<pdfrwt beam="1">  1        1 0.16838908E+00 0.36418670E+03</pdfrwt>
<pdfrwt beam="2">  1       -1 0.40186313E-02 0.36418670E+03</pdfrwt>
<totfact> 0.33366092E+03</totfact>
</mgrwt>
</event>
<event>
 4    1  0.6296743E-005  0.3655783E+03  0.7818608E-02  0.1056397E+00
         -1   -1    0    0    0  501 -0.00000000000E+00  0.00000000000E+00  0.29338717583E+02  0.29338718016E+02  0.50400000000E-02 0.  1.
          1   -1    0    0  501    0  0.00000000000E+00 -0.00000000000E+00 -0.11388319014E+04  0.11388319014E+04  0.50400000000E-02 0. -1.
    5000001    1    1    2    0    0  0.55493569770E+02  0.10651059978E+03 -0.72559840364E+03  0.74635520197E+03  0.12700000000E+03 0.  0.
   -5000001    1    1    2    0    0 -0.55493569770E+02 -0.10651059978E+03 -0.38389478018E+03  0.42181541745E+03  0.12700000000E+03 0.  0.
<mgrwt>
<rscale>  0 0.36557827E+03</rscale>
<asrwt>0</asrwt>
<pdfrwt beam="1">  1        1 0.16269024E+00 0.36557827E+03</pdfrwt>
<pdfrwt beam="2">  1       -1 0.41912461E-02 0.36557827E+03</pdfrwt>
<totfact> 0.33351822E+03</totfact>
</mgrwt>
</event>
<event>
 4    1  0.6296743E-005  0.3597811E+03  0.7818608E-02  0.1058671E+00
          1   -1    0    0  501    0  0.00000000000E+00  0.00000000000E+00  0.88881111453E+02  0.88881111596E+02  0.50400000000E-02 0.  1.
         -1   -1    0    0    0  501 -0.00000000000E+00 -0.00000000000E+00 -0.36408881162E+03  0.36408881166E+03  0.50400000000E-02 0. -1.
    5000001    1    1    2    0    0 -0.84348372030E+02  0.92908294030E+02 -0.10987636470E+03  0.20963877142E+03  0.12700000000E+03 0.  0.
   -5000001    1    1    2    0    0  0.84348372030E+02 -0.92908294030E+02 -0.16533133547E+03  0.24333115183E+03  0.12700000000E+03 0.  0.
<mgrwt>
<rscale>  0 0.35978115E+03</rscale>
<asrwt>0</asrwt>
<pdfrwt beam="1">  1        1 0.12697302E-01 0.35978115E+03</pdfrwt>
<pdfrwt beam="2">  1       -1 0.52012687E-01 0.35978115E+03</pdfrwt>
<totfact> 0.17829031E+03</totfact>
</mgrwt>
</event>
<event>
 4    1  0.6296743E-005  0.3912167E+03  0.7818608E-02  0.1046864E+00
         -1   -1    0    0    0  501 -0.00000000000E+00  0.00000000000E+00  0.33094601322E+03  0.33094601326E+03  0.50400000000E-02 0. -1.
          1   -1    0    0  501    0  0.00000000000E+00 -0.00000000000E+00 -0.11561593641E+03  0.11561593652E+03  0.50400000000E-02 0.  1.
    5000001    1    1    2    0    0  0.31715473354E+02  0.12644742700E+03  0.25838235811E+02  0.18382447463E+03  0.12700000000E+03 0.  0.
   -5000001    1    1    2    0    0 -0.31715473354E+02 -0.12644742700E+03  0.18949184099E+03  0.26273747515E+03  0.12700000000E+03 0.  0.
<mgrwt>
<rscale>  0 0.39121673E+03</rscale>
<asrwt>0</asrwt>
<pdfrwt beam="1">  1        1 0.16516563E-01 0.39121673E+03</pdfrwt>
<pdfrwt beam="2">  1       -1 0.47278001E-01 0.39121673E+03</pdfrwt>
<totfact> 0.15032001E+03</totfact>
</mgrwt>
</event>
<event>
 4    1  0.6296743E-005  0.2859617E+03  0.7818608E-02  0.1092477E+00
          1   -1    0    0  501    0  0.00000000000E+00  0.00000000000E+00  0.24727531669E+02  0.24727532183E+02  0.50400000000E-02 0.  1.
         -1   -1    0    0    0  501 -0.00000000000E+00 -0.00000000000E+00 -0.82675133165E+03  0.82675133166E+03  0.50400000000E-02 0. -1.
    5000001    1    1    2    0    0  0.33919876342E+01 -0.60718065686E+02 -0.47493377991E+03  0.49536782735E+03  0.12700000000E+03 0.  0.
   -5000001    1    1    2    0    0 -0.33919876342E+01  0.60718065686E+02 -0.32709002007E+03  0.35611103649E+03  0.12700000000E+03 0.  0.
<mgrwt>
<rscale>  0 0.28596168E+03</rscale>
<asrwt>0</asrwt>
<pdfrwt beam="1">  1        1 0.35325051E-02 0.28596168E+03</pdfrwt>
<pdfrwt beam="2">  1       -1 0.11810732E+00 0.28596168E+03</pdfrwt>
<totfact> 0.18609010E+03</totfact>
</mgrwt>
</event>
<event>
 4    1  0.6296743E-005  0.6113979E+03  0.7818608E-02  0.9882037E-01
         -1   -1    0    0    0  501 -0.00000000000E+00  0.00000000000E+00  0.48372727828E+02  0.48372728091E+02  0.50400000000E-02 0. -1.
          1   -1    0    0  501    0  0.00000000000E+00 -0.00000000000E+00 -0.19319120884E+04  0.19319120884E+04  0.50400000000E-02 0.  1.
    5000001    1    1    2    0    0 -0.18872049273E+03  0.16432870109E+03 -0.13345179000E+04  0.13637031832E+04  0.12700000000E+03 0.  0.
   -5000001    1    1    2    0    0  0.18872049273E+03 -0.16432870109E+03 -0.54902146052E+03  0.61658163328E+03  0.12700000000E+03 0.  0.
<mgrwt>
<rscale>  0 0.61139793E+03</rscale>
<asrwt>0</asrwt>
<pdfrwt beam="1">  1        1 0.27598739E+00 0.61139793E+03</pdfrwt>
<pdfrwt beam="2">  1       -1 0.69103909E-02 0.61139793E+03</pdfrwt>
<totfact> 0.47900020E+02</totfact>
</mgrwt>
</event>
<event>
 4    1  0.6296743E-005  0.4309692E+03  0.7818608E-02  0.1033554E+00
          1   -1    0    0  501    0  0.00000000000E+00  0.00000000000E+00  0.13276107174E+04  0.13276107174E+04  0.50400000000E-02 0. -1.
         -1   -1    0    0    0  501 -0.00000000000E+00 -0.00000000000E+00 -0.34975317081E+02  0.34975317444E+02  0.50400000000E-02 0.  1.
    5000001    1    1    2    0    0 -0.10893018959E+03 -0.13389959918E+03  0.57493674226E+03  0.61357652046E+03  0.12700000000E+03 0.  0.
   -5000001    1    1    2    0    0  0.10893018959E+03  0.13389959918E+03  0.71769865804E+03  0.74900951437E+03  0.12700000000E+03 0.  0.
<mgrwt>
<rscale>  0 0.43096917E+03</rscale>
<asrwt>0</asrwt>
<pdfrwt beam="1">  1        1 0.18965868E+00 0.43096917E+03</pdfrwt>
<pdfrwt beam="2">  1       -1 0.49964737E-02 0.43096917E+03</pdfrwt>
<totfact> 0.19116833E+03</totfact>
</mgrwt>
</event>
<event>
 4    1  0.6296743E-005  0.3841216E+03  0.7818608E-02  0.1049421E+00
          1   -1    0    0  501    0  0.00000000000E+00  0.00000000000E+00  0.64569850833E+03  0.64569850835E+03  0.50400000000E-02 0.  1.
         -1   -1    0    0    0  501 -0.00000000000E+00 -0.00000000000E+00 -0.57127813108E+02  0.57127813330E+02  0.50400000000E-02 0. -1.
    5000001    1    1    2    0    0 -0.14361529801E+03 -0.53072204266E+01  0.31301839413E+03  0.36710085191E+03  0.12700000000E+03 0.  0.
   -5000001    1    1    2    0    0  0.14361529801E+03  0.53072204266E+01  0.27555230109E+03  0.33572546976E+03  0.12700000000E+03 0.  0.
<mgrwt>
<rscale>  0 0.38412156E+03</rscale>
<asrwt>0</asrwt>
<pdfrwt beam="1">  1        1 0.92242640E-01 0.38412156E+03</pdfrwt>
<pdfrwt beam="2">  1       -1 0.81611166E-02 0.38412156E+03</pdfrwt>
<totfact> 0.29533139E+03</totfact>
</mgrwt>
</event>
<event>
 4    1  0.6296743E-005  0.5170339E+03  0.7818608E-02  0.1009426E+00
         -1   -1    0    0    0  501 -0.00000000000E+00  0.00000000000E+00  0.12146130925E+03  0.12146130935E+03  0.50400000000E-02 0. -1.
          1   -1    0    0  501    0  0.00000000000E+00 -0.00000000000E+00 -0.55022465876E+03  0.55022465878E+03  0.50400000000E-02 0.  1.
    5000001    1    1    2    0    0  0.17257304989E+03  0.12239795177E+03 -0.31450023378E+03  0.39975256496E+03  0.12700000000E+03 0.  0.
   -5000001    1    1    2    0    0 -0.17257304989E+03 -0.12239795177E+03 -0.11426311573E+03  0.27193340317E+03  0.12700000000E+03 0.  0.
<mgrwt>
<rscale>  0 0.51703388E+03</rscale>
<asrwt>0</asrwt>
<pdfrwt beam="1">  1        1 0.78603521E-01 0.51703388E+03</pdfrwt>
<pdfrwt beam="2">  1       -1 0.17351616E-01 0.51703388E+03</pdfrwt>
<totfact> 0.11170244E+03</totfact>
</mgrwt>
</event>
<event>
 4    1  0.6296743E-005  0.3193314E+03  0.7818608E-02  0.1075957E+00
         -1   -1    0    0    0  501 -0.00000000000E+00  0.00000000000E+00  0.33134897759E+02  0.33134898142E+02  0.50400000000E-02 0. -1.
          1   -1    0    0  501    0  0.00000000000E+00 -0.00000000000E+00 -0.76937405353E+03  0.76937405355E+03  0.50400000000E-02 0.  1.
    5000001    1    1    2    0    0  0.91134000925E+02  0.28501830560E+02 -0.32867362310E+03  0.36506589952E+03  0.12700000000E+03 0.  0.
   -5000001    1    1    2    0    0 -0.91134000925E+02 -0.28501830560E+02 -0.40756553267E+03  0.43744305217E+03  0.12700000000E+03 0.  0.
<mgrwt>
<rscale>  0 0.31933137E+03</rscale>
<asrwt>0</asrwt>
<pdfrwt beam="1">  1        1 0.10991057E+00 0.31933137E+03</pdfrwt>
<pdfrwt beam="2">  1       -1 0.47335573E-02 0.31933137E+03</pdfrwt>
<totfact> 0.52392030E+03</totfact>
</mgrwt>
</event>
<event>
 4    1  0.6296743E-005  0.4647904E+03  0.7818608E-02  0.1023401E+00
         -1   -1    0    0    0  501 -0.00000000000E+00  0.00000000000E+00  0.36911370903E+02  0.36911371247E+02  0.50400000000E-02 0. -1.
          1   -1    0    0  501    0  0.00000000000E+00 -0.00000000000E+00 -0.14631677518E+04  0.14631677518E+04  0.50400000000E-02 0.  1.
    5000001    1    1    2    0    0  0.13251642699E+03 -0.34094515804E+02 -0.26644085746E+03  0.32533485819E+03  0.12700000000E+03 0.  0.
   -5000001    1    1    2    0    0 -0.13251642699E+03  0.34094515804E+02 -0.11598155235E+04  0.11747442649E+04  0.12700000000E+03 0.  0.
<mgrwt>
<rscale>  0 0.46479040E+03</rscale>
<asrwt>0</asrwt>
<pdfrwt beam="1">  1        1 0.20902393E+00 0.46479040E+03</pdfrwt>
<pdfrwt beam="2">  1       -1 0.52730540E-02 0.46479040E+03</pdfrwt>
<totfact> 0.14379940E+03</totfact>
</mgrwt>
</event>
<event>
 4    1  0.6296743E-005  0.6763210E+03  0.7818608E-02  0.9758606E-01
         -1   -1    0    0    0  501 -0.00000000000E+00  0.00000000000E+00  0.19060089576E+03  0.19060089582E+03  0.50400000000E-02 0. -1.
          1   -1    0    0  501    0  0.00000000000E+00 -0.00000000000E+00 -0.59995795474E+03  0.59995795476E+03  0.50400000000E-02 0.  1.
    5000001    1    1    2    0    0  0.44825259676E+02  0.29588708370E+03 -0.95868994347E+02  0.33893706537E+03  0.12700000000E+03 0.  0.
   -5000001    1    1    2    0    0 -0.44825259676E+02 -0.29588708370E+03 -0.31348806464E+03  0.45162178521E+03  0.12700000000E+03 0.  0.
<mgrwt>
<rscale>  0 0.67632100E+03</rscale>
<asrwt>0</asrwt>
<pdfrwt beam="1">  1        1 0.85708278E-01 0.67632100E+03</pdfrwt>
<pdfrwt beam="2">  1       -1 0.27228700E-01 0.67632100E+03</pdfrwt>
<totfact> 0.46455399E+02</totfact>
</mgrwt>
</event>
<event>
 4    1  0.6296743E-005  0.5546265E+03  0.7818608E-02  0.1000429E+00
          1   -1    0    0  501    0  0.00000000000E+00  0.00000000000E+00  0.47781523193E+02  0.47781523459E+02  0.50400000000E-02 0. -1.
         -1   -1    0    0    0  501 -0.00000000000E+00 -0.00000000000E+00 -0.16094641888E+04  0.16094641888E+04  0.50400000000E-02 0.  1.
    5000001    1    1    2    0    0 -0.19906432958E+03 -0.14513393214E+03 -0.75358866160E+03  0.80294167688E+03  0.12700000000E+03 0.  0.
   -5000001    1    1    2    0    0  0.19906432958E+03  0.14513393214E+03 -0.80809400397E+03  0.85430403535E+03  0.12700000000E+03 0.  0.
<mgrwt>
<rscale>  0 0.55462654E+03</rscale>
<asrwt>0</asrwt>
<pdfrwt beam="1">  1        1 0.68259329E-02 0.55462654E+03</pdfrwt>
<pdfrwt beam="2">  1       -1 0.22992342E+00 0.55462654E+03</pdfrwt>
<totfact> 0.11232361E+02</totfact>
</mgrwt>
</event>
<event>
 4    1  0.6296743E-005  0.5670786E+03  0.7818608E-02  0.9976164E-01
         -1   -1    0    0    0  501 -0.00000000000E+00  0.00000000000E+00  0.81121965992E+02  0.81121966149E+02  0.50400000000E-02 0.  1.
          1   -1    0    0  501    0  0.00000000000E+00 -0.00000000000E+00 -0.99103292990E+03  0.99103292991E+03  0.50400000000E-02 0. -1.
    5000001    1    1    2    0    0  0.48425431212E+02 -0.23594143732E+03 -0.30545962873E+03  0.40920406770E+03  0.12700000000E+03 0.  0.
   -5000001    1    1    2    0    0 -0.48425431212E+02  0.23594143732E+03 -0.60445133517E+03  0.66295082836E+03  0.12700000000E+03 0.  0.
<mgrwt>
<rscale>  0 0.56707862E+03</rscale>
<asrwt>0</asrwt>
<pdfrwt beam="1">  1        1 0.14157613E+00 0.56707862E+03</pdfrwt>
<pdfrwt beam="2">  1       -1 0.11588853E-01 0.56707862E+03</pdfrwt>
<totfact> 0.88403685E+02</totfact>
</mgrwt>
</event>
<event>
 4    1  0.6296743E-005  0.4285205E+03  0.7818608E-02  0.1034328E+00
         -1   -1    0    0    0  501 -0.00000000000E+00  0.00000000000E+00  0.40257041529E+02  0.40257041845E+02  0.50400000000E-02 0.  1.
          1   -1    0    0  501    0  0.00000000000E+00 -0.00000000000E+00 -0.11403581810E+04  0.11403581810E+04  0.50400000000E-02 0. -1.
    5000001    1    1    2    0    0  0.14723172400E+03 -0.44657762671E+01 -0.79772321874E+03  0.82108979864E+03  0.12700000000E+03 0.  0.
   -5000001    1    1    2    0    0 -0.14723172400E+03  0.44657762671E+01 -0.30237792068E+03  0.35952542417E+03  0.12700000000E+03 0.  0.
<mgrwt>
<rscale>  0 0.42852046E+03</rscale>
<asrwt>0</asrwt>
<pdfrwt beam="1">  1        1 0.16290829E+00 0.42852046E+03</pdfrwt>
<pdfrwt beam="2">  1       -1 0.57510067E-02 0.42852046E+03</pdfrwt>
<totfact> 0.20617279E+03</totfact>
</mgrwt>
</event>
<event>
 4    1  0.6296743E-005  0.2728717E+03  0.7818608E-02  0.1099647E+00
         -1   -1    0    0    0  501 -0.00000000000E+00  0.00000000000E+00  0.78495193170E+03  0.78495193172E+03  0.50400000000E-02 0.  1.
          1   -1    0    0  501    0  0.00000000000E+00 -0.00000000000E+00 -0.23714501242E+02  0.23714501777E+02  0.50400000000E-02 0. -1.
    5000001    1    1    2    0    0  0.33643771543E+02 -0.12386233751E+02  0.48329680868E+03  0.50098914901E+03  0.12700000000E+03 0.  0.
   -5000001    1    1    2    0    0 -0.33643771543E+02  0.12386233751E+02  0.27794062178E+03  0.30767728448E+03  0.12700000000E+03 0.  0.
<mgrwt>
<rscale>  0 0.27287172E+03</rscale>
<asrwt>0</asrwt>
<pdfrwt beam="1">  1        1 0.33877866E-02 0.27287172E+03</pdfrwt>
<pdfrwt beam="2">  1       -1 0.11213597E+00 0.27287172E+03</pdfrwt>
<totfact> 0.22256538E+03</totfact>
</mgrwt>
</event>
<event>
 4    1  0.6296743E-005  0.3823399E+03  0.7818608E-02  0.1050072E+00
          1   -1    0    0  501    0  0.00000000000E+00  0.00000000000E+00  0.38617565942E+03  0.38617565945E+03  0.50400000000E-02 0.  1.
         -1   -1    0    0    0  501 -0.00000000000E+00 -0.00000000000E+00 -0.94635552849E+02  0.94635552983E+02  0.50400000000E-02 0. -1.
    5000001    1    1    2    0    0 -0.88413574247E+02  0.10862383355E+03  0.18135780077E+03  0.26198425377E+03  0.12700000000E+03 0.  0.
   -5000001    1    1    2    0    0  0.88413574247E+02 -0.10862383355E+03  0.11018230580E+03  0.21882695866E+03  0.12700000000E+03 0.  0.
<mgrwt>
<rscale>  0 0.38233989E+03</rscale>
<asrwt>0</asrwt>
<pdfrwt beam="1">  1        1 0.55167952E-01 0.38233989E+03</pdfrwt>
<pdfrwt beam="2">  1       -1 0.13519364E-01 0.38233989E+03</pdfrwt>
<totfact> 0.26595559E+03</totfact>
</mgrwt>
</event>
<event>
 4    1  0.6296743E-005  0.4711698E+03  0.7818608E-02  0.1021591E+00
          1   -1    0    0  501    0  0.00000000000E+00  0.00000000000E+00  0.39073245207E+03  0.39073245210E+03  0.50400000000E-02 0.  1.
         -1   -1    0    0    0  501 -0.00000000000E+00 -0.00000000000E+00 -0.14204153320E+03  0.14204153329E+03  0.50400000000E-02 0. -1.
    5000001    1    1    2    0    0  0.86045892120E+02  0.99650817626E+01  0.32620220276E+03  0.36061069797E+03  0.12700000000E+03 0.  0.
   -5000001    1    1    2    0    0 -0.86045892120E+02 -0.99650817626E+01 -0.77511283895E+02  0.17216328742E+03  0.12700000000E+03 0.  0.
<mgrwt>
<rscale>  0 0.47116976E+03</rscale>
<asrwt>0</asrwt>
<pdfrwt beam="1">  1        1 0.55818922E-01 0.47116976E+03</pdfrwt>
<pdfrwt beam="2">  1       -1 0.20291647E-01 0.47116976E+03</pdfrwt>
<totfact> 0.13598340E+03</totfact>
</mgrwt>
</event>
<event>
 4    1  0.6296743E-005  0.4224827E+03  0.7818608E-02  0.1036261E+00
         -1   -1    0    0    0  501 -0.00000000000E+00  0.00000000000E+00  0.47039082827E+03  0.47039082829E+03  0.50400000000E-02 0. -1.
          1   -1    0    0  501    0  0.00000000000E+00 -0.00000000000E+00 -0.94863454426E+02  0.94863454560E+02  0.50400000000E-02 0.  1.
    5000001    1    1    2    0    0  0.16821027929E+03 -0.12337239545E+02  0.19693546303E+03  0.28872042209E+03  0.12700000000E+03 0.  0.
   -5000001    1    1    2    0    0 -0.16821027929E+03  0.12337239545E+02  0.17859191081E+03  0.27653386076E+03  0.12700000000E+03 0.  0.
<mgrwt>
<rscale>  0 0.42248266E+03</rscale>
<asrwt>0</asrwt>
<pdfrwt beam="1">  1        1 0.13551922E-01 0.42248266E+03</pdfrwt>
<pdfrwt beam="2">  1       -1 0.67198691E-01 0.42248266E+03</pdfrwt>
<totfact> 0.99638380E+02</totfact>
</mgrwt>
</event>
<event>
 4    1  0.6296743E-005  0.1144408E+04  0.7818608E-02  0.9162958E-01
         -1   -1    0    0    0  501 -0.00000000000E+00  0.00000000000E+00  0.58647682504E+03  0.58647682506E+03  0.50400000000E-02 0. -1.
          1   -1    0    0  501    0  0.00000000000E+00 -0.00000000000E+00 -0.55827844825E+03  0.55827844827E+03  0.50400000000E-02 0.  1.
    5000001    1    1    2    0    0 -0.36163979719E+03  0.73993649344E+02 -0.40439362625E+03  0.56206904203E+03  0.12700000000E+03 0.  0.
   -5000001    1    1    2    0    0  0.36163979719E+03 -0.73993649344E+02  0.43259200304E+03  0.58268623130E+03  0.12700000000E+03 0.  0.
<mgrwt>
<rscale>  0 0.11444079E+04</rscale>
<asrwt>0</asrwt>
<pdfrwt beam="1">  1        1 0.79754064E-01 0.11444079E+04</pdfrwt>
<pdfrwt beam="2">  1       -1 0.83782403E-01 0.11444079E+04</pdfrwt>
<totfact> 0.59248534E+01</totfact>
</mgrwt>
</event>
<event>
 4    1  0.6296743E-005  0.2952617E+03  0.7818608E-02  0.1087634E+00
          1   -1    0    0  501    0  0.00000000000E+00  0.00000000000E+00  0.12337477928E+04  0.12337477928E+04  0.50400000000E-02 0.  1.
         -1   -1    0    0    0  501 -0.00000000000E+00 -0.00000000000E+00 -0.17665575498E+02  0.17665576217E+02  0.50400000000E-02 0. -1.
    5000001    1    1    2    0    0 -0.46917470754E+02 -0.55417124116E+02  0.52396001258E+03  0.54399944990E+03  0.12700000000E+03 0.  0.
   -5000001    1    1    2    0    0  0.46917470754E+02  0.55417124116E+02  0.69212220470E+03  0.70741391911E+03  0.12700000000E+03 0.  0.
<mgrwt>
<rscale>  0 0.29526168E+03</rscale>
<asrwt>0</asrwt>
<pdfrwt beam="1">  1        1 0.17624968E+00 0.29526168E+03</pdfrwt>
<pdfrwt beam="2">  1       -1 0.25236538E-02 0.29526168E+03</pdfrwt>
<totfact> 0.61037669E+03</totfact>
</mgrwt>
</event>
<event>
 4    1  0.6296743E-005  0.3953862E+03  0.7818608E-02  0.1045389E+00
          1   -1    0    0  501    0  0.00000000000E+00  0.00000000000E+00  0.37518450092E+02  0.37518450430E+02  0.50400000000E-02 0. -1.
         -1   -1    0    0    0  501 -0.00000000000E+00 -0.00000000000E+00 -0.10416891172E+04  0.10416891172E+04  0.50400000000E-02 0.  1.
    5000001    1    1    2    0    0 -0.45298706192E+02  0.10302706862E+03 -0.77892485764E+03  0.79719475883E+03  0.12700000000E+03 0.  0.
   -5000001    1    1    2    0    0  0.45298706192E+02 -0.10302706862E+03 -0.22524580944E+03  0.28201280879E+03  0.12700000000E+03 0.  0.
<mgrwt>
<rscale>  0 0.39538620E+03</rscale>
<asrwt>0</asrwt>
<pdfrwt beam="1">  1        1 0.53597792E-02 0.39538620E+03</pdfrwt>
<pdfrwt beam="2">  1       -1 0.14881271E+00 0.39538620E+03</pdfrwt>
<totfact> 0.58398773E+02</totfact>
</mgrwt>
</event>
<event>
 4    1  0.6296743E-005  0.2812418E+03  0.7818608E-02  0.1095013E+00
          1   -1    0    0  501    0  0.00000000000E+00  0.00000000000E+00  0.20146718709E+03  0.20146718715E+03  0.50400000000E-02 0. -1.
         -1   -1    0    0    0  501 -0.00000000000E+00 -0.00000000000E+00 -0.98151130285E+02  0.98151130414E+02  0.50400000000E-02 0.  1.
    5000001    1    1    2    0    0 -0.46967447502E+02 -0.37936600749E+02  0.52003822010E+02  0.14992839726E+03  0.12700000000E+03 0.  0.
   -5000001    1    1    2    0    0  0.46967447502E+02  0.37936600749E+02  0.51312234792E+02  0.14968992030E+03  0.12700000000E+03 0.  0.
<mgrwt>
<rscale>  0 0.28124176E+03</rscale>
<asrwt>0</asrwt>
<pdfrwt beam="1">  1        1 0.28781027E-01 0.28124176E+03</pdfrwt>
<pdfrwt beam="2">  1       -1 0.14021590E-01 0.28124176E+03</pdfrwt>
<totfact> 0.56802747E+03</totfact>
</mgrwt>
</event>
<event>
 4    1  0.6296743E-005  0.3859836E+03  0.7818608E-02  0.1048744E+00
          1   -1    0    0  501    0  0.00000000000E+00  0.00000000000E+00  0.78382413896E+03  0.78382413897E+03  0.50400000000E-02 0. -1.
         -1   -1    0    0    0  501 -0.00000000000E+00 -0.00000000000E+00 -0.47518091435E+02  0.47518091702E+02  0.50400000000E-02 0.  1.
    5000001    1    1    2    0    0 -0.63071952387E+02  0.69044245454E+02  0.12858722553E+03  0.20349165481E+03  0.12700000000E+03 0.  0.
   -5000001    1    1    2    0    0  0.63071952387E+02 -0.69044245454E+02  0.60771882199E+03  0.62785057587E+03  0.12700000000E+03 0.  0.
<mgrwt>
<rscale>  0 0.38598356E+03</rscale>
<asrwt>0</asrwt>
<pdfrwt beam="1">  1        1 0.11197488E+00 0.38598356E+03</pdfrwt>
<pdfrwt beam="2">  1       -1 0.67882988E-02 0.38598356E+03</pdfrwt>
<totfact> 0.29589838E+03</totfact>
</mgrwt>
</event>
<event>
 4    1  0.6296743E-005  0.4277306E+03  0.7818608E-02  0.1034579E+00
         -1   -1    0    0    0  501 -0.00000000000E+00  0.00000000000E+00  0.16881009189E+02  0.16881009941E+02  0.50400000000E-02 0. -1.
          1   -1    0    0  501    0  0.00000000000E+00 -0.00000000000E+00 -0.27094574506E+04  0.27094574506E+04  0.50400000000E-02 0.  1.
    5000001    1    1    2    0    0  0.13804096222E+03 -0.89004010061E+02 -0.10192626455E+04  0.10401934251E+04  0.12700000000E+03 0.  0.
   -5000001    1    1    2    0    0 -0.13804096222E+03  0.89004010061E+02 -0.16733137959E+04  0.16861450355E+04  0.12700000000E+03 0.  0.
<mgrwt>
<rscale>  0 0.42773065E+03</rscale>
<asrwt>0</asrwt>
<pdfrwt beam="1">  1        1 0.38706507E+00 0.42773065E+03</pdfrwt>
<pdfrwt beam="2">  1       -1 0.24115745E-02 0.42773065E+03</pdfrwt>
<totfact> 0.79206773E+02</totfact>
</mgrwt>
</event>
<event>
 4    1  0.6296743E-005  0.8968832E+03  0.7818608E-02  0.9429486E-01
         -1   -1    0    0    0  501 -0.00000000000E+00  0.00000000000E+00  0.15735052428E+03  0.15735052436E+03  0.50400000000E-02 0.  1.
          1   -1    0    0  501    0  0.00000000000E+00 -0.00000000000E+00 -0.12780373888E+04  0.12780373888E+04  0.50400000000E-02 0. -1.
    5000001    1    1    2    0    0 -0.24443857758E+03 -0.30932466851E+03 -0.83540534429E+03  0.93245002977E+03  0.12700000000E+03 0.  0.
   -5000001    1    1    2    0    0  0.24443857758E+03  0.30932466851E+03 -0.28528152022E+03  0.50293788338E+03  0.12700000000E+03 0.  0.
<mgrwt>
<rscale>  0 0.89688317E+03</rscale>
<asrwt>0</asrwt>
<pdfrwt beam="1">  1        1 0.18257676E+00 0.89688317E+03</pdfrwt>
<pdfrwt beam="2">  1       -1 0.22478647E-01 0.89688317E+03</pdfrwt>
<totfact> 0.18457550E+02</totfact>
</mgrwt>
</event>
<event>
 4    1  0.6296743E-005  0.2851330E+03  0.7818608E-02  0.1092918E+00
         -1   -1    0    0    0  501 -0.00000000000E+00  0.00000000000E+00  0.22313248569E+02  0.22313249138E+02  0.50400000000E-02 0.  1.
          1   -1    0    0  501    0  0.00000000000E+00 -0.00000000000E+00 -0.91090308493E+03  0.91090308494E+03  0.50400000000E-02 0. -1.
    5000001    1    1    2    0    0 -0.19243185330E+02  0.60048297844E+02 -0.39573770891E+03  0.42037296834E+03  0.12700000000E+03 0.  0.
   -5000001    1    1    2    0    0  0.19243185330E+02 -0.60048297844E+02 -0.49285212745E+03  0.51284336574E+03  0.12700000000E+03 0.  0.
<mgrwt>
<rscale>  0 0.28513300E+03</rscale>
<asrwt>0</asrwt>
<pdfrwt beam="1">  1        1 0.13012899E+00 0.28513300E+03</pdfrwt>
<pdfrwt beam="2">  1       -1 0.31876076E-02 0.28513300E+03</pdfrwt>
<totfact> 0.72770624E+03</totfact>
</mgrwt>
</event>
<event>
 4    1  0.6296743E-005  0.3249197E+03  0.7818608E-02  0.1073407E+00
         -1   -1    0    0    0  501 -0.00000000000E+00  0.00000000000E+00  0.23768848497E+03  0.23768848502E+03  0.50400000000E-02 0. -1.
          1   -1    0    0  501    0  0.00000000000E+00 -0.00000000000E+00 -0.11104117331E+03  0.11104117343E+03  0.50400000000E-02 0.  1.
    5000001    1    1    2    0    0 -0.59225340522E+02 -0.55277884337E+02 -0.19695226788E+01  0.15065246256E+03  0.12700000000E+03 0.  0.
   -5000001    1    1    2    0    0  0.59225340522E+02  0.55277884337E+02  0.12861683433E+03  0.19807719589E+03  0.12700000000E+03 0.  0.
<mgrwt>
<rscale>  0 0.32491973E+03</rscale>
<asrwt>0</asrwt>
<pdfrwt beam="1">  1        1 0.15863025E-01 0.32491973E+03</pdfrwt>
<pdfrwt beam="2">  1       -1 0.33955497E-01 0.32491973E+03</pdfrwt>
<totfact> 0.28582576E+03</totfact>
</mgrwt>
</event>
<event>
 4    1  0.6296743E-005  0.6350003E+03  0.7818608E-02  0.9835339E-01
          1   -1    0    0  501    0  0.00000000000E+00  0.00000000000E+00  0.78238819312E+03  0.78238819314E+03  0.50400000000E-02 0.  1.
         -1   -1    0    0    0  501 -0.00000000000E+00 -0.00000000000E+00 -0.12884439718E+03  0.12884439728E+03  0.50400000000E-02 0. -1.
    5000001    1    1    2    0    0 -0.81963746093E+02  0.24462520295E+03  0.51992778127E+03  0.59414934429E+03  0.12700000000E+03 0.  0.
   -5000001    1    1    2    0    0  0.81963746093E+02 -0.24462520295E+03  0.13361601468E+03  0.31708324612E+03  0.12700000000E+03 0.  0.
<mgrwt>
<rscale>  0 0.63500027E+03</rscale>
<asrwt>0</asrwt>
<pdfrwt beam="1">  1        1 0.11176974E+00 0.63500027E+03</pdfrwt>
<pdfrwt beam="2">  1       -1 0.18406343E-01 0.63500027E+03</pdfrwt>
<totfact> 0.60978926E+02</totfact>
</mgrwt>
</event>
<event>
 4    1  0.6296743E-005  0.3317357E+03  0.7818608E-02  0.1070371E+00
         -1   -1    0    0    0  501 -0.00000000000E+00  0.00000000000E+00  0.42758286313E+03  0.42758286316E+03  0.50400000000E-02 0.  1.
          1   -1    0    0  501    0  0.00000000000E+00 -0.00000000000E+00 -0.64343412926E+02  0.64343413123E+02  0.50400000000E-02 0. -1.
    5000001    1    1    2    0    0  0.79678334128E+02 -0.70331069414E+02  0.16770550057E+03  0.23568884398E+03  0.12700000000E+03 0.  0.
   -5000001    1    1    2    0    0 -0.79678334128E+02  0.70331069414E+02  0.19553394964E+03  0.25623743231E+03  0.12700000000E+03 0.  0.
<mgrwt>
<rscale>  0 0.33173568E+03</rscale>
<asrwt>0</asrwt>
<pdfrwt beam="1">  1        1 0.91919161E-02 0.33173568E+03</pdfrwt>
<pdfrwt beam="2">  1       -1 0.61083267E-01 0.33173568E+03</pdfrwt>
<totfact> 0.20253420E+03</totfact>
</mgrwt>
</event>
<event>
 4    1  0.6296743E-005  0.4048854E+03  0.7818608E-02  0.1042101E+00
          1   -1    0    0  501    0  0.00000000000E+00  0.00000000000E+00  0.70450792406E+03  0.70450792408E+03  0.50400000000E-02 0. -1.
         -1   -1    0    0    0  501 -0.00000000000E+00 -0.00000000000E+00 -0.58172570602E+02  0.58172570821E+02  0.50400000000E-02 0.  1.
    5000001    1    1    2    0    0  0.94018002430E+02 -0.11600912074E+03  0.41841143962E+03  0.46205479511E+03  0.12700000000E+03 0.  0.
   -5000001    1    1    2    0    0 -0.94018002430E+02  0.11600912074E+03  0.22792391383E+03  0.30062569979E+03  0.12700000000E+03 0.  0.
<mgrwt>
<rscale>  0 0.40488535E+03</rscale>
<asrwt>0</asrwt>
<pdfrwt beam="1">  1        1 0.10064398E+00 0.40488535E+03</pdfrwt>
<pdfrwt beam="2">  1       -1 0.83103676E-02 0.40488535E+03</pdfrwt>
<totfact> 0.25374155E+03</totfact>
</mgrwt>
</event>
<event>
 4    1  0.6296743E-005  0.4180141E+03  0.7818608E-02  0.1037715E+00
          1   -1    0    0  501    0  0.00000000000E+00  0.00000000000E+00  0.28246550726E+04  0.28246550726E+04  0.50400000000E-02 0. -1.
         -1   -1    0    0    0  501 -0.00000000000E+00 -0.00000000000E+00 -0.15465234148E+02  0.15465234969E+02  0.50400000000E-02 0.  1.
    5000001    1    1    2    0    0 -0.10241075221E+03 -0.12400458765E+03  0.16838944980E+04  0.16963180068E+04  0.12700000000E+03 0.  0.
   -5000001    1    1    2    0    0  0.10241075221E+03  0.12400458765E+03  0.11252953404E+04  0.11438023007E+04  0.12700000000E+03 0.  0.
<mgrwt>
<rscale>  0 0.41801413E+03</rscale>
<asrwt>0</asrwt>
<pdfrwt beam="1">  1        1 0.40352228E+00 0.41801413E+03</pdfrwt>
<pdfrwt beam="2">  1       -1 0.22093185E-02 0.41801413E+03</pdfrwt>
<totfact> 0.76425203E+02</totfact>
</mgrwt>
</event>
<event>
 4    1  0.6296743E-005  0.8477076E+03  0.7818608E-02  0.9493419E-01
          1   -1    0    0  501    0  0.00000000000E+00  0.00000000000E+00  0.12666298503E+04  0.12666298503E+04  0.50400000000E-02 0.  1.
         -1   -1    0    0    0  501 -0.00000000000E+00 -0.00000000000E+00 -0.14183467474E+03  0.14183467483E+03  0.50400000000E-02 0. -1.
    5000001    1    1    2    0    0 -0.32450835114E+03  0.20902348593E+03  0.76265150503E+03  0.86415438769E+03  0.12700000000E+03 0.  0.
   -5000001    1    1    2    0    0  0.32450835114E+03 -0.20902348593E+03  0.36214367054E+03  0.54431013746E+03  0.12700000000E+03 0.  0.
<mgrwt>
<rscale>  0 0.84770757E+03</rscale>
<asrwt>0</asrwt>
<pdfrwt beam="1">  1        1 0.18094714E+00 0.84770757E+03</pdfrwt>
<pdfrwt beam="2">  1       -1 0.20262095E-01 0.84770757E+03</pdfrwt>
<totfact> 0.22438006E+02</totfact>
</mgrwt>
</event>
<event>
 4    1  0.6296743E-005  0.2673244E+03  0.7818608E-02  0.1102821E+00
         -1   -1    0    0    0  501 -0.00000000000E+00  0.00000000000E+00  0.38379887693E+02  0.38379888024E+02  0.50400000000E-02 0. -1.
          1   -1    0    0  501    0  0.00000000000E+00 -0.00000000000E+00 -0.46549326743E+03  0.46549326746E+03  0.50400000000E-02 0.  1.
    5000001    1    1    2    0    0 -0.35268525269E+02 -0.14965404262E+01 -0.17181314764E+03  0.21655222513E+03  0.12700000000E+03 0.  0.
   -5000001    1    1    2    0    0  0.35268525269E+02  0.14965404262E+01 -0.25530023210E+03  0.28732093035E+03  0.12700000000E+03 0.  0.
<mgrwt>
<rscale>  0 0.26732437E+03</rscale>
<asrwt>0</asrwt>
<pdfrwt beam="1">  1        1 0.66499035E-01 0.26732437E+03</pdfrwt>
<pdfrwt beam="2">  1       -1 0.54828414E-02 0.26732437E+03</pdfrwt>
<totfact> 0.83259507E+03</totfact>
</mgrwt>
</event>
<event>
 4    1  0.6296743E-005  0.3118188E+03  0.7818608E-02  0.1079477E+00
         -1   -1    0    0    0  501 -0.00000000000E+00  0.00000000000E+00  0.25109134238E+02  0.25109134744E+02  0.50400000000E-02 0. -1.
          1   -1    0    0  501    0  0.00000000000E+00 -0.00000000000E+00 -0.96808370511E+03  0.96808370513E+03  0.50400000000E-02 0.  1.
    5000001    1    1    2    0    0  0.85330993405E+02  0.29889072084E+01 -0.37654857142E+03  0.40645804044E+03  0.12700000000E+03 0.  0.
   -5000001    1    1    2    0    0 -0.85330993405E+02 -0.29889072084E+01 -0.56642599946E+03  0.58673479943E+03  0.12700000000E+03 0.  0.
<mgrwt>
<rscale>  0 0.31181882E+03</rscale>
<asrwt>0</asrwt>
<pdfrwt beam="1">  1        1 0.13829765E+00 0.31181882E+03</pdfrwt>
<pdfrwt beam="2">  1       -1 0.35870198E-02 0.31181882E+03</pdfrwt>
<totfact> 0.55495924E+03</totfact>
</mgrwt>
</event>
<event>
 4    1  0.6296743E-005  0.6820874E+03  0.7818608E-02  0.9748365E-01
         -1   -1    0    0    0  501 -0.00000000000E+00  0.00000000000E+00  0.60372742965E+03  0.60372742967E+03  0.50400000000E-02 0. -1.
          1   -1    0    0  501    0  0.00000000000E+00 -0.00000000000E+00 -0.19265450383E+03  0.19265450389E+03  0.50400000000E-02 0.  1.
    5000001    1    1    2    0    0 -0.19478955160E+03 -0.28018743932E+02  0.49497456309E+03  0.54759185305E+03  0.12700000000E+03 0.  0.
   -5000001    1    1    2    0    0  0.19478955160E+03  0.28018743932E+02 -0.83901637273E+02  0.24879008051E+03  0.12700000000E+03 0.  0.
<mgrwt>
<rscale>  0 0.68208741E+03</rscale>
<asrwt>0</asrwt>
<pdfrwt beam="1">  1        1 0.27522072E-01 0.68208741E+03</pdfrwt>
<pdfrwt beam="2">  1       -1 0.86246775E-01 0.68208741E+03</pdfrwt>
<totfact> 0.23151514E+02</totfact>
</mgrwt>
</event>
<event>
 4    1  0.6296743E-005  0.8723864E+03  0.7818608E-02  0.9460774E-01
         -1   -1    0    0    0  501 -0.00000000000E+00  0.00000000000E+00  0.14770623575E+03  0.14770623584E+03  0.50400000000E-02 0.  1.
          1   -1    0    0  501    0  0.00000000000E+00 -0.00000000000E+00 -0.12881276962E+04  0.12881276963E+04  0.50400000000E-02 0. -1.
    5000001    1    1    2    0    0  0.38214584619E+03 -0.65960779801E+02 -0.31656939719E+03  0.51646050718E+03  0.12700000000E+03 0.  0.
   -5000001    1    1    2    0    0 -0.38214584619E+03  0.65960779801E+02 -0.82385206331E+03  0.91937342492E+03  0.12700000000E+03 0.  0.
<mgrwt>
<rscale>  0 0.87238637E+03</rscale>
<asrwt>0</asrwt>
<pdfrwt beam="1">  1        1 0.18401824E+00 0.87238637E+03</pdfrwt>
<pdfrwt beam="2">  1       -1 0.21100892E-01 0.87238637E+03</pdfrwt>
<totfact> 0.20242591E+02</totfact>
</mgrwt>
</event>
<event>
 4    1  0.6296743E-005  0.4064501E+03  0.7818608E-02  0.1041569E+00
          1   -1    0    0  501    0  0.00000000000E+00  0.00000000000E+00  0.90249145125E+03  0.90249145127E+03  0.50400000000E-02 0.  1.
         -1   -1    0    0    0  501 -0.00000000000E+00 -0.00000000000E+00 -0.45762678032E+02  0.45762678309E+02  0.50400000000E-02 0. -1.
    5000001    1    1    2    0    0 -0.79429886580E+02  0.13693411803E+03  0.40374402926E+03  0.45188306090E+03  0.12700000000E+03 0.  0.
   -5000001    1    1    2    0    0  0.79429886580E+02 -0.13693411803E+03  0.45298474396E+03  0.49637106868E+03  0.12700000000E+03 0.  0.
<mgrwt>
<rscale>  0 0.40645012E+03</rscale>
<asrwt>0</asrwt>
<pdfrwt beam="1">  1        1 0.12892734E+00 0.40645012E+03</pdfrwt>
<pdfrwt beam="2">  1       -1 0.65375259E-02 0.40645012E+03</pdfrwt>
<totfact> 0.25214954E+03</totfact>
</mgrwt>
</event>
<event>
 4    1  0.6296743E-005  0.4240423E+03  0.7818608E-02  0.1035759E+00
          1   -1    0    0  501    0  0.00000000000E+00  0.00000000000E+00  0.52420332810E+03  0.52420332813E+03  0.50400000000E-02 0.  1.
         -1   -1    0    0    0  501 -0.00000000000E+00 -0.00000000000E+00 -0.85754830680E+02  0.85754830828E+02  0.50400000000E-02 0. -1.
    5000001    1    1    2    0    0 -0.23546761402E+02  0.15049688307E+03  0.11138745197E+03  0.22746412078E+03  0.12700000000E+03 0.  0.
   -5000001    1    1    2    0    0  0.23546761402E+02 -0.15049688307E+03  0.32706104546E+03  0.38249403818E+03  0.12700000000E+03 0.  0.
<mgrwt>
<rscale>  0 0.42404230E+03</rscale>
<asrwt>0</asrwt>
<pdfrwt beam="1">  1        1 0.74886191E-01 0.42404230E+03</pdfrwt>
<pdfrwt beam="2">  1       -1 0.12250690E-01 0.42404230E+03</pdfrwt>
<totfact> 0.20862235E+03</totfact>
</mgrwt>
</event>
<event>
 4    1  0.6296743E-005  0.4237175E+03  0.7818608E-02  0.1035863E+00
         -1   -1    0    0    0  501 -0.00000000000E+00  0.00000000000E+00  0.15209590365E+03  0.15209590374E+03  0.50400000000E-02 0. -1.
          1   -1    0    0  501    0  0.00000000000E+00 -0.00000000000E+00 -0.29510412992E+03  0.29510412996E+03  0.50400000000E-02 0.  1.
    5000001    1    1    2    0    0 -0.13802773323E+03 -0.79813309218E+02 -0.10569610088E+02  0.20411402727E+03  0.12700000000E+03 0.  0.
   -5000001    1    1    2    0    0  0.13802773323E+03  0.79813309218E+02 -0.13243861618E+03  0.24308600644E+03  0.12700000000E+03 0.  0.
<mgrwt>
<rscale>  0 0.42371750E+03</rscale>
<asrwt>0</asrwt>
<pdfrwt beam="1">  1        1 0.42157733E-01 0.42371750E+03</pdfrwt>
<pdfrwt beam="2">  1       -1 0.21727986E-01 0.42371750E+03</pdfrwt>
<totfact> 0.17394898E+03</totfact>
</mgrwt>
</event>
<event>
 4    1  0.6296743E-005  0.3840857E+03  0.7818608E-02  0.1049434E+00
         -1   -1    0    0    0  501 -0.00000000000E+00  0.00000000000E+00  0.67791491571E+02  0.67791491759E+02  0.50400000000E-02 0.  1.
          1   -1    0    0  501    0  0.00000000000E+00 -0.00000000000E+00 -0.54402785299E+03  0.54402785301E+03  0.50400000000E-02 0. -1.
    5000001    1    1    2    0    0 -0.13654815194E+03 -0.43204432100E+02 -0.21346957139E+03  0.28672334865E+03  0.12700000000E+03 0.  0.
   -5000001    1    1    2    0    0  0.13654815194E+03  0.43204432100E+02 -0.26276679003E+03  0.32509599612E+03  0.12700000000E+03 0.  0.
<mgrwt>
<rscale>  0 0.38408572E+03</rscale>
<asrwt>0</asrwt>
<pdfrwt beam="1">  1        1 0.77718263E-01 0.38408572E+03</pdfrwt>
<pdfrwt beam="2">  1       -1 0.96844991E-02 0.38408572E+03</pdfrwt>
<totfact> 0.28672238E+03</totfact>
</mgrwt>
</event>
<event>
 4    1  0.6296743E-005  0.7551424E+03  0.7818608E-02  0.9627317E-01
          1   -1    0    0  501    0  0.00000000000E+00  0.00000000000E+00  0.86111555169E+03  0.86111555170E+03  0.50400000000E-02 0.  1.
         -1   -1    0    0    0  501 -0.00000000000E+00 -0.00000000000E+00 -0.16555268973E+03  0.16555268980E+03  0.50400000000E-02 0. -1.
    5000001    1    1    2    0    0 -0.31503689036E+03  0.16436283516E+03  0.36538309610E+03  0.52525916535E+03  0.12700000000E+03 0.  0.
   -5000001    1    1    2    0    0  0.31503689036E+03 -0.16436283516E+03  0.33017976586E+03  0.50140907616E+03  0.12700000000E+03 0.  0.
<mgrwt>
<rscale>  0 0.75514236E+03</rscale>
<asrwt>0</asrwt>
<pdfrwt beam="1">  1        1 0.12301650E+00 0.75514236E+03</pdfrwt>
<pdfrwt beam="2">  1       -1 0.23650385E-01 0.75514236E+03</pdfrwt>
<totfact> 0.34377705E+02</totfact>
</mgrwt>
</event>
<event>
 4    1  0.6296743E-005  0.5128797E+03  0.7818608E-02  0.1010471E+00
         -1   -1    0    0    0  501 -0.00000000000E+00  0.00000000000E+00  0.88063134444E+03  0.88063134445E+03  0.50400000000E-02 0. -1.
          1   -1    0    0  501    0  0.00000000000E+00 -0.00000000000E+00 -0.74675283208E+02  0.74675283378E+02  0.50400000000E-02 0.  1.
    5000001    1    1    2    0    0 -0.51494683733E+02 -0.21620246736E+03  0.37429192318E+03  0.45345193031E+03  0.12700000000E+03 0.  0.
   -5000001    1    1    2    0    0  0.51494683733E+02  0.21620246736E+03  0.43166413805E+03  0.50185469752E+03  0.12700000000E+03 0.  0.
<mgrwt>
<rscale>  0 0.51287969E+03</rscale>
<asrwt>0</asrwt>
<pdfrwt beam="1">  1        1 0.10667898E-01 0.51287969E+03</pdfrwt>
<pdfrwt beam="2">  1       -1 0.12580447E+00 0.51287969E+03</pdfrwt>
<totfact> 0.34476181E+02</totfact>
</mgrwt>
</event>
<event>
 4    1  0.6296743E-005  0.8261070E+03  0.7818608E-02  0.9522979E-01
         -1   -1    0    0    0  501 -0.00000000000E+00  0.00000000000E+00  0.15583934519E+03  0.15583934527E+03  0.50400000000E-02 0. -1.
          1   -1    0    0  501    0  0.00000000000E+00 -0.00000000000E+00 -0.10948017007E+04  0.10948017007E+04  0.50400000000E-02 0.  1.
    5000001    1    1    2    0    0 -0.42125975885E+02  0.38091334180E+03 -0.60158645914E+03  0.72450316743E+03  0.12700000000E+03 0.  0.
   -5000001    1    1    2    0    0  0.42125975885E+02 -0.38091334180E+03 -0.33737589640E+03  0.52613787858E+03  0.12700000000E+03 0.  0.
<mgrwt>
<rscale>  0 0.82610697E+03</rscale>
<asrwt>0</asrwt>
<pdfrwt beam="1">  1        1 0.15640024E+00 0.82610697E+03</pdfrwt>
<pdfrwt beam="2">  1       -1 0.22262764E-01 0.82610697E+03</pdfrwt>
<totfact> 0.25264558E+02</totfact>
</mgrwt>
</event>
<event>
 4    1  0.6296743E-005  0.3912508E+03  0.7818608E-02  0.1046852E+00
         -1   -1    0    0    0  501 -0.00000000000E+00  0.00000000000E+00  0.33709315313E+02  0.33709315690E+02  0.50400000000E-02 0. -1.
          1   -1    0    0  501    0  0.00000000000E+00 -0.00000000000E+00 -0.11352737509E+04  0.11352737509E+04  0.50400000000E-02 0.  1.
    5000001    1    1    2    0    0 -0.13746626896E+03  0.53119711821E+02 -0.61213223407E+03  0.64230331688E+03  0.12700000000E+03 0.  0.
   -5000001    1    1    2    0    0  0.13746626896E+03 -0.53119711821E+02 -0.48943220152E+03  0.52667974973E+03  0.12700000000E+03 0.  0.
<mgrwt>
<rscale>  0 0.39125082E+03</rscale>
<asrwt>0</asrwt>
<pdfrwt beam="1">  1        1 0.16218194E+00 0.39125082E+03</pdfrwt>
<pdfrwt beam="2">  1       -1 0.48156172E-02 0.39125082E+03</pdfrwt>
<totfact> 0.27215406E+03</totfact>
</mgrwt>
</event>
<event>
 4    1  0.6296743E-005  0.3871314E+03  0.7818608E-02  0.1048329E+00
          1   -1    0    0  501    0  0.00000000000E+00  0.00000000000E+00  0.78987583417E+02  0.78987583578E+02  0.50400000000E-02 0.  1.
         -1   -1    0    0    0  501 -0.00000000000E+00 -0.00000000000E+00 -0.47434903443E+03  0.47434903446E+03  0.50400000000E-02 0. -1.
    5000001    1    1    2    0    0 -0.12137011997E+03  0.53375064377E+01 -0.81742386699E+02  0.19382985524E+03  0.12700000000E+03 0.  0.
   -5000001    1    1    2    0    0  0.12137011997E+03 -0.53375064377E+01 -0.31361906431E+03  0.35950676280E+03  0.12700000000E+03 0.  0.
<mgrwt>
<rscale>  0 0.38713142E+03</rscale>
<asrwt>0</asrwt>
<pdfrwt beam="1">  1        1 0.11283941E-01 0.38713142E+03</pdfrwt>
<pdfrwt beam="2">  1       -1 0.67764146E-01 0.38713142E+03</pdfrwt>
<totfact> 0.12527906E+03</totfact>
</mgrwt>
</event>
<event>
 4    1  0.6296743E-005  0.4498002E+03  0.7818608E-02  0.1027782E+00
         -1   -1    0    0    0  501 -0.00000000000E+00  0.00000000000E+00  0.45815695512E+02  0.45815695790E+02  0.50400000000E-02 0. -1.
          1   -1    0    0  501    0  0.00000000000E+00 -0.00000000000E+00 -0.11039895041E+04  0.11039895041E+04  0.50400000000E-02 0.  1.
    5000001    1    1    2    0    0 -0.53566800334E+02  0.17555993663E+03 -0.59957446584E+03  0.63977279837E+03  0.12700000000E+03 0.  0.
   -5000001    1    1    2    0    0  0.53566800334E+02 -0.17555993663E+03 -0.45859934278E+03  0.51003240156E+03  0.12700000000E+03 0.  0.
<mgrwt>
<rscale>  0 0.44980017E+03</rscale>
<asrwt>0</asrwt>
<pdfrwt beam="1">  1        1 0.15771277E+00 0.44980017E+03</pdfrwt>
<pdfrwt beam="2">  1       -1 0.65451000E-02 0.44980017E+03</pdfrwt>
<totfact> 0.17926169E+03</totfact>
</mgrwt>
</event>
<event>
 4    1  0.6296743E-005  0.3996561E+03  0.7818608E-02  0.1043899E+00
         -1   -1    0    0    0  501 -0.00000000000E+00  0.00000000000E+00  0.83744027272E+02  0.83744027424E+02  0.50400000000E-02 0.  1.
          1   -1    0    0  501    0  0.00000000000E+00 -0.00000000000E+00 -0.47682498819E+03  0.47682498821E+03  0.50400000000E-02 0. -1.
    5000001    1    1    2    0    0  0.10287835717E+02 -0.14229737907E+03 -0.11418024936E+03  0.22253204938E+03  0.12700000000E+03 0.  0.
   -5000001    1    1    2    0    0 -0.10287835717E+02  0.14229737907E+03 -0.27890071155E+03  0.33803696626E+03  0.12700000000E+03 0.  0.
<mgrwt>
<rscale>  0 0.39965608E+03</rscale>
<asrwt>0</asrwt>
<pdfrwt beam="1">  1        1 0.68117854E-01 0.39965608E+03</pdfrwt>
<pdfrwt beam="2">  1       -1 0.11963433E-01 0.39965608E+03</pdfrwt>
<totfact> 0.24554596E+03</totfact>
</mgrwt>
</event>
<event>
 4    1  0.6296743E-005  0.5472832E+03  0.7818608E-02  0.1002125E+00
         -1   -1    0    0    0  501 -0.00000000000E+00  0.00000000000E+00  0.92292186991E+02  0.92292187129E+02  0.50400000000E-02 0. -1.
          1   -1    0    0  501    0  0.00000000000E+00 -0.00000000000E+00 -0.81133335785E+03  0.81133335787E+03  0.50400000000E-02 0.  1.
    5000001    1    1    2    0    0 -0.42848167540E+02  0.23723169055E+03 -0.31788475574E+03  0.41868192987E+03  0.12700000000E+03 0.  0.
   -5000001    1    1    2    0    0  0.42848167540E+02 -0.23723169055E+03 -0.40115641512E+03  0.48494361513E+03  0.12700000000E+03 0.  0.
<mgrwt>
<rscale>  0 0.54728322E+03</rscale>
<asrwt>0</asrwt>
<pdfrwt beam="1">  1        1 0.11590476E+00 0.54728322E+03</pdfrwt>
<pdfrwt beam="2">  1       -1 0.13184599E-01 0.54728322E+03</pdfrwt>
<totfact> 0.99393229E+02</totfact>
</mgrwt>
</event>
<event>
 4    1  0.6296743E-005  0.4925406E+03  0.7818608E-02  0.1015744E+00
         -1   -1    0    0    0  501 -0.00000000000E+00  0.00000000000E+00  0.10805131374E+03  0.10805131386E+03  0.50400000000E-02 0. -1.
          1   -1    0    0  501    0  0.00000000000E+00 -0.00000000000E+00 -0.56129869774E+03  0.56129869776E+03  0.50400000000E-02 0.  1.
    5000001    1    1    2    0    0 -0.14278901317E+03  0.14970046080E+03 -0.28300280801E+03  0.37285187352E+03  0.12700000000E+03 0.  0.
   -5000001    1    1    2    0    0  0.14278901317E+03 -0.14970046080E+03 -0.17024457599E+03  0.29649813810E+03  0.12700000000E+03 0.  0.
<mgrwt>
<rscale>  0 0.49254060E+03</rscale>
<asrwt>0</asrwt>
<pdfrwt beam="1">  1        1 0.80185527E-01 0.49254060E+03</pdfrwt>
<pdfrwt beam="2">  1       -1 0.15435902E-01 0.49254060E+03</pdfrwt>
<totfact> 0.13146394E+03</totfact>
</mgrwt>
</event>
<event>
 4    1  0.6296743E-005  0.1068846E+04  0.7818608E-02  0.9236100E-01
          1   -1    0    0  501    0  0.00000000000E+00  0.00000000000E+00  0.11016062133E+04  0.11016062133E+04  0.50400000000E-02 0. -1.
         -1   -1    0    0    0  501 -0.00000000000E+00 -0.00000000000E+00 -0.25926491839E+03  0.25926491844E+03  0.50400000000E-02 0.  1.
    5000001    1    1    2    0    0 -0.36659590402E+03  0.18730419361E+02  0.88852134327E+03  0.96971261872E+03  0.12700000000E+03 0.  0.
   -5000001    1    1    2    0    0  0.36659590402E+03 -0.18730419361E+02 -0.46180048356E+02  0.39115851304E+03  0.12700000000E+03 0.  0.
<mgrwt>
<rscale>  0 0.10688458E+04</rscale>
<asrwt>0</asrwt>
<pdfrwt beam="1">  1        1 0.15737231E+00 0.10688458E+04</pdfrwt>
<pdfrwt beam="2">  1       -1 0.37037846E-01 0.10688458E+04</pdfrwt>
<totfact> 0.10149748E+02</totfact>
</mgrwt>
</event>
<event>
 4    1  0.6296743E-005  0.4444236E+03  0.7818608E-02  0.1029398E+00
          1   -1    0    0  501    0  0.00000000000E+00  0.00000000000E+00  0.25180060932E+04  0.25180060932E+04  0.50400000000E-02 0.  1.
         -1   -1    0    0    0  501 -0.00000000000E+00 -0.00000000000E+00 -0.19609991818E+02  0.19609992466E+02  0.50400000000E-02 0. -1.
    5000001    1    1    2    0    0 -0.13206427322E+03  0.10916587434E+03  0.89303001741E+03  0.91814474479E+03  0.12700000000E+03 0.  0.
   -5000001    1    1    2    0    0  0.13206427322E+03 -0.10916587434E+03  0.16053660840E+04  0.16194713409E+04  0.12700000000E+03 0.  0.
<mgrwt>
<rscale>  0 0.44442358E+03</rscale>
<asrwt>0</asrwt>
<pdfrwt beam="1">  1        1 0.35971503E+00 0.44442358E+03</pdfrwt>
<pdfrwt beam="2">  1       -1 0.28014284E-02 0.44442358E+03</pdfrwt>
<totfact> 0.83239090E+02</totfact>
</mgrwt>
</event>
<event>
 4    1  0.6296743E-005  0.5628608E+03  0.7818608E-02  0.9985602E-01
          1   -1    0    0  501    0  0.00000000000E+00  0.00000000000E+00  0.41039796755E+04  0.41039796755E+04  0.50400000000E-02 0.  1.
         -1   -1    0    0    0  501 -0.00000000000E+00 -0.00000000000E+00 -0.19299088249E+02  0.19299088907E+02  0.50400000000E-02 0. -1.
    5000001    1    1    2    0    0  0.82297240632E+02 -0.71933576420E+02  0.36987431594E+04  0.37025365946E+04  0.12700000000E+03 0.  0.
   -5000001    1    1    2    0    0 -0.82297240632E+02  0.71933576420E+02  0.38593742788E+03  0.42074216983E+03  0.12700000000E+03 0.  0.
<mgrwt>
<rscale>  0 0.56286079E+03</rscale>
<asrwt>0</asrwt>
<pdfrwt beam="1">  1        1 0.58628260E+00 0.56286079E+03</pdfrwt>
<pdfrwt beam="2">  1       -1 0.27570136E-02 0.56286079E+03</pdfrwt>
<totfact> 0.71672466E+01</totfact>
</mgrwt>
</event>
<event>
 4    1  0.6296743E-005  0.3132460E+03  0.7818608E-02  0.1078800E+00
          1   -1    0    0  501    0  0.00000000000E+00  0.00000000000E+00  0.24053420871E+03  0.24053420876E+03  0.50400000000E-02 0. -1.
         -1   -1    0    0    0  501 -0.00000000000E+00 -0.00000000000E+00 -0.10198448898E+03  0.10198448911E+03  0.50400000000E-02 0.  1.
    5000001    1    1    2    0    0 -0.73891956123E+01 -0.65566589284E+02 -0.29621896456E+00  0.14311766344E+03  0.12700000000E+03 0.  0.
   -5000001    1    1    2    0    0  0.73891956123E+01  0.65566589284E+02  0.13884593869E+03  0.19940103443E+03  0.12700000000E+03 0.  0.
<mgrwt>
<rscale>  0 0.31324596E+03</rscale>
<asrwt>0</asrwt>
<pdfrwt beam="1">  1        1 0.34362030E-01 0.31324596E+03</pdfrwt>
<pdfrwt beam="2">  1       -1 0.14569213E-01 0.31324596E+03</pdfrwt>
<totfact> 0.42873196E+03</totfact>
</mgrwt>
</event>
<event>
 4    1  0.6296743E-005  0.3328478E+03  0.7818608E-02  0.1069884E+00
          1   -1    0    0  501    0  0.00000000000E+00  0.00000000000E+00  0.36887334205E+03  0.36887334209E+03  0.50400000000E-02 0.  1.
         -1   -1    0    0    0  501 -0.00000000000E+00 -0.00000000000E+00 -0.75085152828E+02  0.75085152997E+02  0.50400000000E-02 0. -1.
    5000001    1    1    2    0    0  0.10216332505E+03  0.19685416689E+02  0.11053559725E+03  0.19791912205E+03  0.12700000000E+03 0.  0.
   -5000001    1    1    2    0    0 -0.10216332505E+03 -0.19685416689E+02  0.18325259198E+03  0.24603937303E+03  0.12700000000E+03 0.  0.
<mgrwt>
<rscale>  0 0.33284778E+03</rscale>
<asrwt>0</asrwt>
<pdfrwt beam="1">  1        1 0.52696190E-01 0.33284778E+03</pdfrwt>
<pdfrwt beam="2">  1       -1 0.10726451E-01 0.33284778E+03</pdfrwt>
<totfact> 0.40490057E+03</totfact>
</mgrwt>
</event>
<event>
 4    1  0.6296743E-005  0.5351462E+03  0.7818608E-02  0.1004992E+00
          1   -1    0    0  501    0  0.00000000000E+00  0.00000000000E+00  0.37924563333E+03  0.37924563337E+03  0.50400000000E-02 0.  1.
         -1   -1    0    0    0  501 -0.00000000000E+00 -0.00000000000E+00 -0.18878362201E+03  0.18878362208E+03  0.50400000000E-02 0. -1.
    5000001    1    1    2    0    0 -0.18116575076E+03 -0.14877567334E+03  0.71233523224E+02  0.27596819573E+03  0.12700000000E+03 0.  0.
   -5000001    1    1    2    0    0  0.18116575076E+03  0.14877567334E+03  0.11922848810E+03  0.29206105971E+03  0.12700000000E+03 0.  0.
<mgrwt>
<rscale>  0 0.53514620E+03</rscale>
<asrwt>0</asrwt>
<pdfrwt beam="1">  1        1 0.54177947E-01 0.53514620E+03</pdfrwt>
<pdfrwt beam="2">  1       -1 0.26969089E-01 0.53514620E+03</pdfrwt>
<totfact> 0.87656133E+02</totfact>
</mgrwt>
</event>
<event>
 4    1  0.6296743E-005  0.3015353E+03  0.7818608E-02  0.1084476E+00
          1   -1    0    0  501    0  0.00000000000E+00  0.00000000000E+00  0.11905351631E+04  0.11905351631E+04  0.50400000000E-02 0.  1.
         -1   -1    0    0    0  501 -0.00000000000E+00 -0.00000000000E+00 -0.19093002616E+02  0.19093003281E+02  0.50400000000E-02 0. -1.
    5000001    1    1    2    0    0 -0.29368706252E+02 -0.70501105901E+02  0.69696257659E+03  0.71254386532E+03  0.12700000000E+03 0.  0.
   -5000001    1    1    2    0    0  0.29368706252E+02  0.70501105901E+02  0.47447958392E+03  0.49708430110E+03  0.12700000000E+03 0.  0.
<mgrwt>
<rscale>  0 0.30153535E+03</rscale>
<asrwt>0</asrwt>
<pdfrwt beam="1">  1        1 0.17007644E+00 0.30153535E+03</pdfrwt>
<pdfrwt beam="2">  1       -1 0.27275720E-02 0.30153535E+03</pdfrwt>
<totfact> 0.58181512E+03</totfact>
</mgrwt>
</event>
<event>
 4    1  0.6296743E-005  0.4200196E+03  0.7818608E-02  0.1037060E+00
          1   -1    0    0  501    0  0.00000000000E+00  0.00000000000E+00  0.56764435830E+02  0.56764436054E+02  0.50400000000E-02 0.  1.
         -1   -1    0    0    0  501 -0.00000000000E+00 -0.00000000000E+00 -0.77696737062E+03  0.77696737064E+03  0.50400000000E-02 0. -1.
    5000001    1    1    2    0    0  0.13798273857E+03  0.84869453017E+01 -0.54698370431E+03  0.57830047308E+03  0.12700000000E+03 0.  0.
   -5000001    1    1    2    0    0 -0.13798273857E+03 -0.84869453017E+01 -0.17321923048E+03  0.25543133361E+03  0.12700000000E+03 0.  0.
<mgrwt>
<rscale>  0 0.42001959E+03</rscale>
<asrwt>0</asrwt>
<pdfrwt beam="1">  1        1 0.81092056E-02 0.42001959E+03</pdfrwt>
<pdfrwt beam="2">  1       -1 0.11099533E+00 0.42001959E+03</pdfrwt>
<totfact> 0.67941454E+02</totfact>
</mgrwt>
</event>
<event>
 4    1  0.6296743E-005  0.5128103E+03  0.7818608E-02  0.1010488E+00
         -1   -1    0    0    0  501 -0.00000000000E+00  0.00000000000E+00  0.19605822166E+03  0.19605822173E+03  0.50400000000E-02 0. -1.
          1   -1    0    0  501    0  0.00000000000E+00 -0.00000000000E+00 -0.33532693548E+03  0.33532693551E+03  0.50400000000E-02 0.  1.
    5000001    1    1    2    0    0 -0.17892401358E+03  0.12506809315E+03 -0.23773239687E+02  0.25367301292E+03  0.12700000000E+03 0.  0.
   -5000001    1    1    2    0    0  0.17892401358E+03 -0.12506809315E+03 -0.11549547413E+03  0.27771214432E+03  0.12700000000E+03 0.  0.
<mgrwt>
<rscale>  0 0.51281031E+03</rscale>
<asrwt>0</asrwt>
<pdfrwt beam="1">  1        1 0.47903848E-01 0.51281031E+03</pdfrwt>
<pdfrwt beam="2">  1       -1 0.28008317E-01 0.51281031E+03</pdfrwt>
<totfact> 0.96340905E+02</totfact>
</mgrwt>
</event>
<event>
 4    1  0.6296743E-005  0.4200575E+03  0.7818608E-02  0.1037048E+00
          1   -1    0    0  501    0  0.00000000000E+00  0.00000000000E+00  0.52183123045E+02  0.52183123288E+02  0.50400000000E-02 0.  1.
         -1   -1    0    0    0  501 -0.00000000000E+00 -0.00000000000E+00 -0.84533223713E+03  0.84533223715E+03  0.50400000000E-02 0. -1.
    5000001    1    1    2    0    0 -0.33068241756E+01 -0.15212474476E+03 -0.24807818432E+03  0.31752898859E+03  0.12700000000E+03 0.  0.
   -5000001    1    1    2    0    0  0.33068241756E+01  0.15212474476E+03 -0.54507092976E+03  0.57998637185E+03  0.12700000000E+03 0.  0.
<mgrwt>
<rscale>  0 0.42005750E+03</rscale>
<asrwt>0</asrwt>
<pdfrwt beam="1">  1        1 0.74547324E-02 0.42005750E+03</pdfrwt>
<pdfrwt beam="2">  1       -1 0.12076174E+00 0.42005750E+03</pdfrwt>
<totfact> 0.62474165E+02</totfact>
</mgrwt>
</event>
<event>
 4    1  0.6296743E-005  0.3664773E+03  0.7818608E-02  0.1056048E+00
          1   -1    0    0  501    0  0.00000000000E+00  0.00000000000E+00  0.40116214260E+03  0.40116214263E+03  0.50400000000E-02 0.  1.
         -1   -1    0    0    0  501 -0.00000000000E+00 -0.00000000000E+00 -0.83697814696E+02  0.83697814848E+02  0.50400000000E-02 0. -1.
    5000001    1    1    2    0    0 -0.12433445873E+03 -0.34718667972E+02  0.19575218282E+03  0.26666900947E+03  0.12700000000E+03 0.  0.
   -5000001    1    1    2    0    0  0.12433445873E+03  0.34718667972E+02  0.12171214509E+03  0.21819094802E+03  0.12700000000E+03 0.  0.
<mgrwt>
<rscale>  0 0.36647726E+03</rscale>
<asrwt>0</asrwt>
<pdfrwt beam="1">  1        1 0.57308878E-01 0.36647726E+03</pdfrwt>
<pdfrwt beam="2">  1       -1 0.11956831E-01 0.36647726E+03</pdfrwt>
<totfact> 0.30732992E+03</totfact>
</mgrwt>
</event>
<event>
 4    1  0.6296743E-005  0.8794807E+03  0.7818608E-02  0.9451601E-01
          1   -1    0    0  501    0  0.00000000000E+00  0.00000000000E+00  0.36522951564E+03  0.36522951567E+03  0.50400000000E-02 0.  1.
         -1   -1    0    0    0  501 -0.00000000000E+00 -0.00000000000E+00 -0.52945220962E+03  0.52945220964E+03  0.50400000000E-02 0. -1.
    5000001    1    1    2    0    0 -0.31085604594E+03 -0.21650882268E+03 -0.26895689605E+03  0.48163717000E+03  0.12700000000E+03 0.  0.
   -5000001    1    1    2    0    0  0.31085604594E+03  0.21650882268E+03  0.10473420207E+03  0.41304455531E+03  0.12700000000E+03 0.  0.
<mgrwt>
<rscale>  0 0.87948070E+03</rscale>
<asrwt>0</asrwt>
<pdfrwt beam="1">  1        1 0.52175646E-01 0.87948070E+03</pdfrwt>
<pdfrwt beam="2">  1       -1 0.75636029E-01 0.87948070E+03</pdfrwt>
<totfact> 0.13229030E+02</totfact>
</mgrwt>
</event>
<event>
 4    1  0.6296743E-005  0.3997289E+03  0.7818608E-02  0.1043874E+00
         -1   -1    0    0    0  501 -0.00000000000E+00  0.00000000000E+00  0.20941541681E+03  0.20941541687E+03  0.50400000000E-02 0.  1.
          1   -1    0    0  501    0  0.00000000000E+00 -0.00000000000E+00 -0.19074906932E+03  0.19074906939E+03  0.50400000000E-02 0. -1.
    5000001    1    1    2    0    0  0.17915746446E+02  0.11327818894E+03  0.11271174061E+03  0.20490451076E+03  0.12700000000E+03 0.  0.
   -5000001    1    1    2    0    0 -0.17915746446E+02 -0.11327818894E+03 -0.94045393128E+02  0.19525997549E+03  0.12700000000E+03 0.  0.
<mgrwt>
<rscale>  0 0.39972889E+03</rscale>
<asrwt>0</asrwt>
<pdfrwt beam="1">  1        1 0.27249867E-01 0.39972889E+03</pdfrwt>
<pdfrwt beam="2">  1       -1 0.29916488E-01 0.39972889E+03</pdfrwt>
<totfact> 0.17687556E+03</totfact>
</mgrwt>
</event>
<event>
 4    1  0.6296743E-005  0.3681144E+03  0.7818608E-02  0.1055416E+00
         -1   -1    0    0    0  501 -0.00000000000E+00  0.00000000000E+00  0.20996959810E+03  0.20996959816E+03  0.50400000000E-02 0. -1.
          1   -1    0    0  501    0  0.00000000000E+00 -0.00000000000E+00 -0.16134262710E+03  0.16134262718E+03  0.50400000000E-02 0.  1.
    5000001    1    1    2    0    0  0.12566773423E+03  0.41944292324E+02  0.10179496281E+02  0.18380512841E+03  0.12700000000E+03 0.  0.
   -5000001    1    1    2    0    0 -0.12566773423E+03 -0.41944292324E+02  0.38447474723E+02  0.18750709693E+03  0.12700000000E+03 0.  0.
<mgrwt>
<rscale>  0 0.36811437E+03</rscale>
<asrwt>0</asrwt>
<pdfrwt beam="1">  1        1 0.23048947E-01 0.36811437E+03</pdfrwt>
<pdfrwt beam="2">  1       -1 0.29995657E-01 0.36811437E+03</pdfrwt>
<totfact> 0.21815796E+03</totfact>
</mgrwt>
</event>
<event>
 4    1  0.6296743E-005  0.6696821E+03  0.7818608E-02  0.9770532E-01
          1   -1    0    0  501    0  0.00000000000E+00  0.00000000000E+00  0.32820357975E+03  0.32820357978E+03  0.50400000000E-02 0.  1.
         -1   -1    0    0    0  501 -0.00000000000E+00 -0.00000000000E+00 -0.34161275874E+03  0.34161275877E+03  0.50400000000E-02 0. -1.
    5000001    1    1    2    0    0 -0.10959684931E+03 -0.13117206961E+03 -0.26515907269E+03  0.34008221809E+03  0.12700000000E+03 0.  0.
   -5000001    1    1    2    0    0  0.10959684931E+03  0.13117206961E+03  0.25174989370E+03  0.32973412047E+03  0.12700000000E+03 0.  0.
<mgrwt>
<rscale>  0 0.66968210E+03</rscale>
<asrwt>0</asrwt>
<pdfrwt beam="1">  1        1 0.46886226E-01 0.66968210E+03</pdfrwt>
<pdfrwt beam="2">  1       -1 0.48801823E-01 0.66968210E+03</pdfrwt>
<totfact> 0.36527766E+02</totfact>
</mgrwt>
</event>
<event>
 4    1  0.6296743E-005  0.4904951E+03  0.7818608E-02  0.1016290E+00
          1   -1    0    0  501    0  0.00000000000E+00  0.00000000000E+00  0.38483622089E+03  0.38483622092E+03  0.50400000000E-02 0. -1.
         -1   -1    0    0    0  501 -0.00000000000E+00 -0.00000000000E+00 -0.15629081551E+03  0.15629081559E+03  0.50400000000E-02 0.  1.
    5000001    1    1    2    0    0 -0.81871910225E+02 -0.18943892535E+03  0.72593953933E+02  0.25296046780E+03  0.12700000000E+03 0.  0.
   -5000001    1    1    2    0    0  0.81871910225E+02  0.18943892535E+03  0.15595145144E+03  0.28816656872E+03  0.12700000000E+03 0.  0.
<mgrwt>
<rscale>  0 0.49049512E+03</rscale>
<asrwt>0</asrwt>
<pdfrwt beam="1">  1        1 0.54976603E-01 0.49049512E+03</pdfrwt>
<pdfrwt beam="2">  1       -1 0.22327259E-01 0.49049512E+03</pdfrwt>
<totfact> 0.11833953E+03</totfact>
</mgrwt>
</event>
<event>
 4    1  0.6296743E-005  0.3263281E+03  0.7818608E-02  0.1072773E+00
         -1   -1    0    0    0  501 -0.00000000000E+00  0.00000000000E+00  0.11790473310E+02  0.11790474388E+02  0.50400000000E-02 0.  1.
          1   -1    0    0  501    0  0.00000000000E+00 -0.00000000000E+00 -0.22579672296E+04  0.22579672296E+04  0.50400000000E-02 0. -1.
    5000001    1    1    2    0    0 -0.68949201751E+02 -0.26996036522E+02 -0.16154399717E+04  0.16221153105E+04  0.12700000000E+03 0.  0.
   -5000001    1    1    2    0    0  0.68949201751E+02  0.26996036522E+02 -0.63073678465E+03  0.64764239355E+03  0.12700000000E+03 0.  0.
<mgrwt>
<rscale>  0 0.32632808E+03</rscale>
<asrwt>0</asrwt>
<pdfrwt beam="1">  1        1 0.32256647E+00 0.32632808E+03</pdfrwt>
<pdfrwt beam="2">  1       -1 0.16843549E-02 0.32632808E+03</pdfrwt>
<totfact> 0.25690471E+03</totfact>
</mgrwt>
</event>
<event>
 4    1  0.6296743E-005  0.6328172E+03  0.7818608E-02  0.9839567E-01
          1   -1    0    0  501    0  0.00000000000E+00  0.00000000000E+00  0.17414942649E+04  0.17414942649E+04  0.50400000000E-02 0.  1.
         -1   -1    0    0    0  501 -0.00000000000E+00 -0.00000000000E+00 -0.57487643288E+02  0.57487643509E+02  0.50400000000E-02 0. -1.
    5000001    1    1    2    0    0 -0.93883160041E+02 -0.17906118368E+03  0.25176185792E+03  0.34697260461E+03  0.12700000000E+03 0.  0.
   -5000001    1    1    2    0    0  0.93883160041E+02  0.17906118368E+03  0.14322447637E+04  0.14520093038E+04  0.12700000000E+03 0.  0.
<mgrwt>
<rscale>  0 0.63281720E+03</rscale>
<asrwt>0</asrwt>
<pdfrwt beam="1">  1        1 0.24878490E+00 0.63281720E+03</pdfrwt>
<pdfrwt beam="2">  1       -1 0.82125204E-02 0.63281720E+03</pdfrwt>
<totfact> 0.48022208E+02</totfact>
</mgrwt>
</event>
<event>
 4    1  0.6296743E-005  0.3610299E+03  0.7818608E-02  0.1058177E+00
          1   -1    0    0  501    0  0.00000000000E+00  0.00000000000E+00  0.86452112921E+03  0.86452112922E+03  0.50400000000E-02 0. -1.
         -1   -1    0    0    0  501 -0.00000000000E+00 -0.00000000000E+00 -0.37692140292E+02  0.37692140629E+02  0.50400000000E-02 0.  1.
    5000001    1    1    2    0    0  0.48853502529E+02 -0.86265244043E+01  0.11777577878E+03  0.18016996337E+03  0.12700000000E+03 0.  0.
   -5000001    1    1    2    0    0 -0.48853502529E+02  0.86265244043E+01  0.70905321014E+03  0.72204330648E+03  0.12700000000E+03 0.  0.
<mgrwt>
<rscale>  0 0.36102993E+03</rscale>
<asrwt>0</asrwt>
<pdfrwt beam="1">  1        1 0.12350299E+00 0.36102993E+03</pdfrwt>
<pdfrwt beam="2">  1       -1 0.53845927E-02 0.36102993E+03</pdfrwt>
<totfact> 0.36219033E+03</totfact>
</mgrwt>
</event>
<event>
 4    1  0.6296743E-005  0.3106038E+03  0.7818608E-02  0.1080057E+00
         -1   -1    0    0    0  501 -0.00000000000E+00  0.00000000000E+00  0.31103935198E+02  0.31103935606E+02  0.50400000000E-02 0.  1.
          1   -1    0    0  501    0  0.00000000000E+00 -0.00000000000E+00 -0.77542204557E+03  0.77542204558E+03  0.50400000000E-02 0. -1.
    5000001    1    1    2    0    0 -0.40101320523E+02 -0.68616377788E+02 -0.47837886986E+03  0.50129000223E+03  0.12700000000E+03 0.  0.
   -5000001    1    1    2    0    0  0.40101320523E+02  0.68616377788E+02 -0.26593924051E+03  0.30523597896E+03  0.12700000000E+03 0.  0.
<mgrwt>
<rscale>  0 0.31060378E+03</rscale>
<asrwt>0</asrwt>
<pdfrwt beam="1">  1        1 0.11077457E+00 0.31060378E+03</pdfrwt>
<pdfrwt beam="2">  1       -1 0.44434198E-02 0.31060378E+03</pdfrwt>
<totfact> 0.56906099E+03</totfact>
</mgrwt>
</event>
<event>
 4    1  0.6296743E-005  0.4148051E+03  0.7818608E-02  0.1038770E+00
          1   -1    0    0  501    0  0.00000000000E+00  0.00000000000E+00  0.39148575119E+02  0.39148575443E+02  0.50400000000E-02 0.  1.
         -1   -1    0    0    0  501 -0.00000000000E+00 -0.00000000000E+00 -0.10987836268E+04  0.10987836268E+04  0.50400000000E-02 0. -1.
    5000001    1    1    2    0    0 -0.14872072349E+03  0.18532572878E+02 -0.34732138913E+03  0.39902688782E+03  0.12700000000E+03 0.  0.
   -5000001    1    1    2    0    0  0.14872072349E+03 -0.18532572878E+02 -0.71231366258E+03  0.73890531447E+03  0.12700000000E+03 0.  0.
<mgrwt>
<rscale>  0 0.41480508E+03</rscale>
<asrwt>0</asrwt>
<pdfrwt beam="1">  1        1 0.55926543E-02 0.41480508E+03</pdfrwt>
<pdfrwt beam="2">  1       -1 0.15696907E+00 0.41480508E+03</pdfrwt>
<totfact> 0.47696905E+02</totfact>
</mgrwt>
</event>
<event>
 4    1  0.6296743E-005  0.3373275E+03  0.7818608E-02  0.1067940E+00
          1   -1    0    0  501    0  0.00000000000E+00  0.00000000000E+00  0.10248028201E+04  0.10248028201E+04  0.50400000000E-02 0.  1.
         -1   -1    0    0    0  501 -0.00000000000E+00 -0.00000000000E+00 -0.27758954151E+02  0.27758954608E+02  0.50400000000E-02 0. -1.
    5000001    1    1    2    0    0 -0.84433155521E+02 -0.59425180361E+02  0.62558143079E+03  0.64663856702E+03  0.12700000000E+03 0.  0.
   -5000001    1    1    2    0    0  0.84433155521E+02  0.59425180361E+02  0.37146243515E+03  0.40592320768E+03  0.12700000000E+03 0.  0.
<mgrwt>
<rscale>  0 0.33732747E+03</rscale>
<asrwt>0</asrwt>
<pdfrwt beam="1">  1        1 0.14640038E+00 0.33732747E+03</pdfrwt>
<pdfrwt beam="2">  1       -1 0.39655656E-02 0.33732747E+03</pdfrwt>
<totfact> 0.43523358E+03</totfact>
</mgrwt>
</event>
<event>
 4    1  0.6296743E-005  0.4506153E+03  0.7818608E-02  0.1027539E+00
          1   -1    0    0  501    0  0.00000000000E+00  0.00000000000E+00  0.53522595953E+02  0.53522596190E+02  0.50400000000E-02 0. -1.
         -1   -1    0    0    0  501 -0.00000000000E+00 -0.00000000000E+00 -0.94845066216E+03  0.94845066217E+03  0.50400000000E-02 0.  1.
    5000001    1    1    2    0    0 -0.11813658828E+03  0.94260444082E+02 -0.68893618771E+03  0.71666125578E+03  0.12700000000E+03 0.  0.
   -5000001    1    1    2    0    0  0.11813658828E+03 -0.94260444082E+02 -0.20599187850E+03  0.28531200258E+03  0.12700000000E+03 0.  0.
<mgrwt>
<rscale>  0 0.45061532E+03</rscale>
<asrwt>0</asrwt>
<pdfrwt beam="1">  1        1 0.76460857E-02 0.45061532E+03</pdfrwt>
<pdfrwt beam="2">  1       -1 0.13549294E+00 0.45061532E+03</pdfrwt>
<totfact> 0.45355826E+02</totfact>
</mgrwt>
</event>
<event>
 4    1  0.6296743E-005  0.3877465E+03  0.7818608E-02  0.1048107E+00
          1   -1    0    0  501    0  0.00000000000E+00  0.00000000000E+00  0.76607246776E+03  0.76607246778E+03  0.50400000000E-02 0.  1.
         -1   -1    0    0    0  501 -0.00000000000E+00 -0.00000000000E+00 -0.49064338577E+02  0.49064338836E+02  0.50400000000E-02 0. -1.
    5000001    1    1    2    0    0  0.96417386951E+02 -0.96370886009E+02  0.24580001996E+03  0.30843201843E+03  0.12700000000E+03 0.  0.
   -5000001    1    1    2    0    0 -0.96417386951E+02  0.96370886009E+02  0.47120810922E+03  0.50670478819E+03  0.12700000000E+03 0.  0.
<mgrwt>
<rscale>  0 0.38774651E+03</rscale>
<asrwt>0</asrwt>
<pdfrwt beam="1">  1        1 0.10943892E+00 0.38774651E+03</pdfrwt>
<pdfrwt beam="2">  1       -1 0.70091913E-02 0.38774651E+03</pdfrwt>
<totfact> 0.29155266E+03</totfact>
</mgrwt>
</event>
<event>
 4    1  0.6296743E-005  0.5276845E+03  0.7818608E-02  0.1006795E+00
         -1   -1    0    0    0  501 -0.00000000000E+00  0.00000000000E+00  0.15758846694E+03  0.15758846702E+03  0.50400000000E-02 0.  1.
          1   -1    0    0  501    0  0.00000000000E+00 -0.00000000000E+00 -0.44173748082E+03  0.44173748085E+03  0.50400000000E-02 0. -1.
    5000001    1    1    2    0    0 -0.19164192445E+03 -0.11130350182E+03 -0.67005328982E+02  0.26407160172E+03  0.12700000000E+03 0.  0.
   -5000001    1    1    2    0    0  0.19164192445E+03  0.11130350182E+03 -0.21714368489E+03  0.33525434615E+03  0.12700000000E+03 0.  0.
<mgrwt>
<rscale>  0 0.52768450E+03</rscale>
<asrwt>0</asrwt>
<pdfrwt beam="1">  1        1 0.63105354E-01 0.52768450E+03</pdfrwt>
<pdfrwt beam="2">  1       -1 0.22512638E-01 0.52768450E+03</pdfrwt>
<totfact> 0.97466538E+02</totfact>
</mgrwt>
</event>
<event>
 4    1  0.6296743E-005  0.3059273E+03  0.7818608E-02  0.1082315E+00
         -1   -1    0    0    0  501 -0.00000000000E+00  0.00000000000E+00  0.28693698940E+02  0.28693699383E+02  0.50400000000E-02 0. -1.
          1   -1    0    0  501    0  0.00000000000E+00 -0.00000000000E+00 -0.81543595668E+03  0.81543595670E+03  0.50400000000E-02 0.  1.
    5000001    1    1    2    0    0  0.38541743566E+02  0.75847626153E+02 -0.40862098142E+03  0.43627793303E+03  0.12700000000E+03 0.  0.
   -5000001    1    1    2    0    0 -0.38541743566E+02 -0.75847626153E+02 -0.37812127632E+03  0.40785172305E+03  0.12700000000E+03 0.  0.
<mgrwt>
<rscale>  0 0.30592727E+03</rscale>
<asrwt>0</asrwt>
<pdfrwt beam="1">  1        1 0.11649084E+00 0.30592727E+03</pdfrwt>
<pdfrwt beam="2">  1       -1 0.40991004E-02 0.30592727E+03</pdfrwt>
<totfact> 0.59525345E+03</totfact>
</mgrwt>
</event>
<event>
 4    1  0.6296743E-005  0.4654978E+03  0.7818608E-02  0.1023199E+00
          1   -1    0    0  501    0  0.00000000000E+00  0.00000000000E+00  0.87301914889E+02  0.87301915034E+02  0.50400000000E-02 0. -1.
         -1   -1    0    0    0  501 -0.00000000000E+00 -0.00000000000E+00 -0.62051377944E+03  0.62051377946E+03  0.50400000000E-02 0.  1.
    5000001    1    1    2    0    0  0.78454532074E+01 -0.13642522365E+03 -0.54982642493E+02  0.19448774706E+03  0.12700000000E+03 0.  0.
   -5000001    1    1    2    0    0 -0.78454532074E+01  0.13642522365E+03 -0.47822922206E+03  0.51332794743E+03  0.12700000000E+03 0.  0.
<mgrwt>
<rscale>  0 0.46549776E+03</rscale>
<asrwt>0</asrwt>
<pdfrwt beam="1">  1        1 0.12471702E-01 0.46549776E+03</pdfrwt>
<pdfrwt beam="2">  1       -1 0.88644823E-01 0.46549776E+03</pdfrwt>
<totfact> 0.62615115E+02</totfact>
</mgrwt>
</event>
<event>
 4    1  0.6296743E-005  0.2728425E+03  0.7818608E-02  0.1099664E+00
         -1   -1    0    0    0  501 -0.00000000000E+00  0.00000000000E+00  0.27063178182E+02  0.27063178651E+02  0.50400000000E-02 0. -1.
          1   -1    0    0  501    0  0.00000000000E+00 -0.00000000000E+00 -0.68767830922E+03  0.68767830924E+03  0.50400000000E-02 0.  1.
    5000001    1    1    2    0    0  0.57117205511E+01 -0.36829246202E+02 -0.24371191467E+03  0.27733285864E+03  0.12700000000E+03 0.  0.
   -5000001    1    1    2    0    0 -0.57117205511E+01  0.36829246202E+02 -0.41690321637E+03  0.43740862926E+03  0.12700000000E+03 0.  0.
<mgrwt>
<rscale>  0 0.27284252E+03</rscale>
<asrwt>0</asrwt>
<pdfrwt beam="1">  1        1 0.98239748E-01 0.27284252E+03</pdfrwt>
<pdfrwt beam="2">  1       -1 0.38661688E-02 0.27284252E+03</pdfrwt>
<totfact> 0.83020119E+03</totfact>
</mgrwt>
</event>
<event>
 4    1  0.6296743E-005  0.4187069E+03  0.7818608E-02  0.1037488E+00
         -1   -1    0    0    0  501 -0.00000000000E+00  0.00000000000E+00  0.11599365878E+03  0.11599365889E+03  0.50400000000E-02 0.  1.
          1   -1    0    0  501    0  0.00000000000E+00 -0.00000000000E+00 -0.37785572367E+03  0.37785572371E+03  0.50400000000E-02 0. -1.
    5000001    1    1    2    0    0  0.38564299356E+02 -0.15751175634E+03 -0.17510518616E+03  0.27034789585E+03  0.12700000000E+03 0.  0.
   -5000001    1    1    2    0    0 -0.38564299356E+02  0.15751175634E+03 -0.86756878732E+02  0.22350148675E+03  0.12700000000E+03 0.  0.
<mgrwt>
<rscale>  0 0.41870690E+03</rscale>
<asrwt>0</asrwt>
<pdfrwt beam="1">  1        1 0.53979389E-01 0.41870690E+03</pdfrwt>
<pdfrwt beam="2">  1       -1 0.16570523E-01 0.41870690E+03</pdfrwt>
<totfact> 0.19759692E+03</totfact>
</mgrwt>
</event>
<event>
 4    1  0.6296743E-005  0.3289572E+03  0.7818608E-02  0.1071599E+00
         -1   -1    0    0    0  501 -0.00000000000E+00  0.00000000000E+00  0.18110322676E+02  0.18110323377E+02  0.50400000000E-02 0.  1.
          1   -1    0    0  501    0  0.00000000000E+00 -0.00000000000E+00 -0.14938001687E+04  0.14938001687E+04  0.50400000000E-02 0. -1.
    5000001    1    1    2    0    0  0.45936122856E+01 -0.86800313725E+02 -0.10046074705E+04  0.10163269973E+04  0.12700000000E+03 0.  0.
   -5000001    1    1    2    0    0 -0.45936122856E+01  0.86800313725E+02 -0.47108237555E+03  0.49558349478E+03  0.12700000000E+03 0.  0.
<mgrwt>
<rscale>  0 0.32895716E+03</rscale>
<asrwt>0</asrwt>
<pdfrwt beam="1">  1        1 0.21339995E+00 0.32895716E+03</pdfrwt>
<pdfrwt beam="2">  1       -1 0.25871899E-02 0.32895716E+03</pdfrwt>
<totfact> 0.40073985E+03</totfact>
</mgrwt>
</event>
<event>
 4    1  0.6296743E-005  0.3583655E+03  0.7818608E-02  0.1059233E+00
          1   -1    0    0  501    0  0.00000000000E+00  0.00000000000E+00  0.29251018120E+04  0.29251018120E+04  0.50400000000E-02 0.  1.
         -1   -1    0    0    0  501 -0.00000000000E+00 -0.00000000000E+00 -0.10976182059E+02  0.10976183216E+02  0.50400000000E-02 0. -1.
    5000001    1    1    2    0    0 -0.11602854244E+03  0.31235716892E+02  0.17784904319E+04  0.17870633758E+04  0.12700000000E+03 0.  0.
   -5000001    1    1    2    0    0  0.11602854244E+03 -0.31235716892E+02  0.11356351980E+04  0.11490146194E+04  0.12700000000E+03 0.  0.
<mgrwt>
<rscale>  0 0.35836547E+03</rscale>
<asrwt>0</asrwt>
<pdfrwt beam="1">  1        1 0.41787270E+00 0.35836547E+03</pdfrwt>
<pdfrwt beam="2">  1       -1 0.15680223E-02 0.35836547E+03</pdfrwt>
<totfact> 0.11011537E+03</totfact>
</mgrwt>
</event>
<event>
 4    1  0.6296743E-005  0.4999544E+03  0.7818608E-02  0.1013791E+00
          1   -1    0    0  501    0  0.00000000000E+00  0.00000000000E+00  0.46127406461E+03  0.46127406464E+03  0.50400000000E-02 0.  1.
         -1   -1    0    0    0  501 -0.00000000000E+00 -0.00000000000E+00 -0.13546957509E+03  0.13546957519E+03  0.50400000000E-02 0. -1.
    5000001    1    1    2    0    0  0.19195790970E+02  0.70180259556E+02 -0.78976569892E+02  0.16631309574E+03  0.12700000000E+03 0.  0.
   -5000001    1    1    2    0    0 -0.19195790970E+02 -0.70180259556E+02  0.40478105941E+03  0.43043054409E+03  0.12700000000E+03 0.  0.
<mgrwt>
<rscale>  0 0.49995440E+03</rscale>
<asrwt>0</asrwt>
<pdfrwt beam="1">  1        1 0.65896293E-01 0.49995440E+03</pdfrwt>
<pdfrwt beam="2">  1       -1 0.19352797E-01 0.49995440E+03</pdfrwt>
<totfact> 0.11835605E+03</totfact>
</mgrwt>
</event>
<event>
 4    1  0.6296743E-005  0.4003280E+03  0.7818608E-02  0.1043666E+00
          1   -1    0    0  501    0  0.00000000000E+00  0.00000000000E+00  0.37503272820E+03  0.37503272824E+03  0.50400000000E-02 0.  1.
         -1   -1    0    0    0  501 -0.00000000000E+00 -0.00000000000E+00 -0.10683234211E+03  0.10683234222E+03  0.50400000000E-02 0. -1.
    5000001    1    1    2    0    0 -0.44905376972E+02 -0.11337774912E+03  0.19493971198E+02  0.17714407071E+03  0.12700000000E+03 0.  0.
   -5000001    1    1    2    0    0  0.44905376972E+02  0.11337774912E+03  0.24870641490E+03  0.30472099975E+03  0.12700000000E+03 0.  0.
<mgrwt>
<rscale>  0 0.40032799E+03</rscale>
<asrwt>0</asrwt>
<pdfrwt beam="1">  1        1 0.53576105E-01 0.40032799E+03</pdfrwt>
<pdfrwt beam="2">  1       -1 0.15261763E-01 0.40032799E+03</pdfrwt>
<totfact> 0.22768607E+03</totfact>
</mgrwt>
</event>
<event>
 4    1  0.6296743E-005  0.2811917E+03  0.7818608E-02  0.1095040E+00
         -1   -1    0    0    0  501 -0.00000000000E+00  0.00000000000E+00  0.86592153834E+02  0.86592153981E+02  0.50400000000E-02 0. -1.
          1   -1    0    0  501    0  0.00000000000E+00 -0.00000000000E+00 -0.22827922607E+03  0.22827922612E+03  0.50400000000E-02 0.  1.
    5000001    1    1    2    0    0 -0.42121866429E+02  0.23778365918E+02 -0.30492349259E+02  0.13927830298E+03  0.12700000000E+03 0.  0.
   -5000001    1    1    2    0    0  0.42121866429E+02 -0.23778365918E+02 -0.11119472297E+03  0.17559307713E+03  0.12700000000E+03 0.  0.
<mgrwt>
<rscale>  0 0.28119168E+03</rscale>
<asrwt>0</asrwt>
<pdfrwt beam="1">  1        1 0.32611318E-01 0.28119168E+03</pdfrwt>
<pdfrwt beam="2">  1       -1 0.12370308E-01 0.28119168E+03</pdfrwt>
<totfact> 0.59086315E+03</totfact>
</mgrwt>
</event>
<event>
 4    1  0.6296743E-005  0.4154523E+03  0.7818608E-02  0.1038557E+00
          1   -1    0    0  501    0  0.00000000000E+00  0.00000000000E+00  0.98555385775E+02  0.98555385904E+02  0.50400000000E-02 0. -1.
         -1   -1    0    0    0  501 -0.00000000000E+00 -0.00000000000E+00 -0.43782653174E+03  0.43782653177E+03  0.50400000000E-02 0.  1.
    5000001    1    1    2    0    0 -0.97025262670E+02 -0.81164968444E+02 -0.30516513579E+03  0.35391582869E+03  0.12700000000E+03 0.  0.
   -5000001    1    1    2    0    0  0.97025262670E+02  0.81164968444E+02 -0.34106010180E+02  0.18246608898E+03  0.12700000000E+03 0.  0.
<mgrwt>
<rscale>  0 0.41545235E+03</rscale>
<asrwt>0</asrwt>
<pdfrwt beam="1">  1        1 0.14079341E-01 0.41545235E+03</pdfrwt>
<pdfrwt beam="2">  1       -1 0.62546646E-01 0.41545235E+03</pdfrwt>
<totfact> 0.10914378E+03</totfact>
</mgrwt>
</event>
<event>
 4    1  0.6296743E-005  0.3087327E+03  0.7818608E-02  0.1080955E+00
          1   -1    0    0  501    0  0.00000000000E+00  0.00000000000E+00  0.54731041698E+03  0.54731041701E+03  0.50400000000E-02 0.  1.
         -1   -1    0    0    0  501 -0.00000000000E+00 -0.00000000000E+00 -0.43538317954E+02  0.43538318246E+02  0.50400000000E-02 0. -1.
    5000001    1    1    2    0    0 -0.38101273465E+02  0.71874081507E+02  0.31484890248E+03  0.34910803775E+03  0.12700000000E+03 0.  0.
   -5000001    1    1    2    0    0  0.38101273465E+02 -0.71874081507E+02  0.18892319655E+03  0.24174069750E+03  0.12700000000E+03 0.  0.
<mgrwt>
<rscale>  0 0.30873273E+03</rscale>
<asrwt>0</asrwt>
<pdfrwt beam="1">  1        1 0.78187202E-01 0.30873273E+03</pdfrwt>
<pdfrwt beam="2">  1       -1 0.62197598E-02 0.30873273E+03</pdfrwt>
<totfact> 0.55889127E+03</totfact>
</mgrwt>
</event>
<event>
 4    1  0.6296743E-005  0.4909779E+03  0.7818608E-02  0.1016161E+00
          1   -1    0    0  501    0  0.00000000000E+00  0.00000000000E+00  0.11106663783E+04  0.11106663783E+04  0.50400000000E-02 0.  1.
         -1   -1    0    0    0  501 -0.00000000000E+00 -0.00000000000E+00 -0.54260055951E+02  0.54260056185E+02  0.50400000000E-02 0. -1.
    5000001    1    1    2    0    0  0.16666416928E+03  0.43857214293E+02  0.81327300387E+03  0.84097703857E+03  0.12700000000E+03 0.  0.
   -5000001    1    1    2    0    0 -0.16666416928E+03 -0.43857214293E+02  0.24313331845E+03  0.32394939590E+03  0.12700000000E+03 0.  0.
<mgrwt>
<rscale>  0 0.49097788E+03</rscale>
<asrwt>0</asrwt>
<pdfrwt beam="1">  1        1 0.15866663E+00 0.49097788E+03</pdfrwt>
<pdfrwt beam="2">  1       -1 0.77514366E-02 0.49097788E+03</pdfrwt>
<totfact> 0.13651578E+03</totfact>
</mgrwt>
</event>
<event>
 4    1  0.6296743E-005  0.2993320E+03  0.7818608E-02  0.1085575E+00
          1   -1    0    0  501    0  0.00000000000E+00  0.00000000000E+00  0.32069827599E+04  0.32069827599E+04  0.50400000000E-02 0. -1.
         -1   -1    0    0    0  501 -0.00000000000E+00 -0.00000000000E+00 -0.69847290175E+01  0.69847308358E+01  0.50400000000E-02 0.  1.
    5000001    1    1    2    0    0 -0.75090268375E+02 -0.23758235396E+02  0.15115193551E+04  0.15188886605E+04  0.12700000000E+03 0.  0.
   -5000001    1    1    2    0    0  0.75090268375E+02  0.23758235396E+02  0.16884786757E+04  0.16950788302E+04  0.12700000000E+03 0.  0.
<mgrwt>
<rscale>  0 0.29933198E+03</rscale>
<asrwt>0</asrwt>
<pdfrwt beam="1">  1        1 0.45813942E+00 0.29933198E+03</pdfrwt>
<pdfrwt beam="2">  1       -1 0.99782069E-03 0.29933198E+03</pdfrwt>
<totfact> 0.14121463E+03</totfact>
</mgrwt>
</event>
<event>
 4    1  0.6296743E-005  0.3080400E+03  0.7818608E-02  0.1081289E+00
          1   -1    0    0  501    0  0.00000000000E+00  0.00000000000E+00  0.26096253655E+04  0.26096253655E+04  0.50400000000E-02 0.  1.
         -1   -1    0    0    0  501 -0.00000000000E+00 -0.00000000000E+00 -0.90902521910E+01  0.90902535882E+01  0.50400000000E-02 0. -1.
    5000001    1    1    2    0    0  0.80064111378E+02  0.34389619917E+02  0.12960455778E+04  0.13051651419E+04  0.12700000000E+03 0.  0.
   -5000001    1    1    2    0    0 -0.80064111378E+02 -0.34389619917E+02  0.13044895355E+04  0.13135504772E+04  0.12700000000E+03 0.  0.
<mgrwt>
<rscale>  0 0.30803996E+03</rscale>
<asrwt>0</asrwt>
<pdfrwt beam="1">  1        1 0.37280309E+00 0.30803996E+03</pdfrwt>
<pdfrwt beam="2">  1       -1 0.12986094E-02 0.30803996E+03</pdfrwt>
<totfact> 0.22924527E+03</totfact>
</mgrwt>
</event>
<event>
 4    1  0.6296743E-005  0.5419414E+03  0.7818608E-02  0.1003377E+00
          1   -1    0    0  501    0  0.00000000000E+00  0.00000000000E+00  0.15462510856E+03  0.15462510864E+03  0.50400000000E-02 0.  1.
         -1   -1    0    0    0  501 -0.00000000000E+00 -0.00000000000E+00 -0.47485897859E+03  0.47485897862E+03  0.50400000000E-02 0. -1.
    5000001    1    1    2    0    0  0.23871682565E+03 -0.16310088486E+02 -0.15237904190E+03  0.31080558915E+03  0.12700000000E+03 0.  0.
   -5000001    1    1    2    0    0 -0.23871682565E+03  0.16310088486E+02 -0.16785482813E+03  0.31867849812E+03  0.12700000000E+03 0.  0.
<mgrwt>
<rscale>  0 0.54194140E+03</rscale>
<asrwt>0</asrwt>
<pdfrwt beam="1">  1        1 0.22089301E-01 0.54194140E+03</pdfrwt>
<pdfrwt beam="2">  1       -1 0.67836996E-01 0.54194140E+03</pdfrwt>
<totfact> 0.51156167E+02</totfact>
</mgrwt>
</event>
<event>
 4    1  0.6296743E-005  0.2865771E+03  0.7818608E-02  0.1092150E+00
          1   -1    0    0  501    0  0.00000000000E+00  0.00000000000E+00  0.14253556905E+03  0.14253556914E+03  0.50400000000E-02 0.  1.
         -1   -1    0    0    0  501 -0.00000000000E+00 -0.00000000000E+00 -0.14404554958E+03  0.14404554967E+03  0.50400000000E-02 0. -1.
    5000001    1    1    2    0    0  0.71939072151E+01  0.60762812886E+02  0.24911348823E+02  0.14315532484E+03  0.12700000000E+03 0.  0.
   -5000001    1    1    2    0    0 -0.71939072151E+01 -0.60762812886E+02 -0.26421329355E+02  0.14342579397E+03  0.12700000000E+03 0.  0.
<mgrwt>
<rscale>  0 0.28657714E+03</rscale>
<asrwt>0</asrwt>
<pdfrwt beam="1">  1        1 0.20362224E-01 0.28657714E+03</pdfrwt>
<pdfrwt beam="2">  1       -1 0.20577936E-01 0.28657714E+03</pdfrwt>
<totfact> 0.47768998E+03</totfact>
</mgrwt>
</event>
<event>
 4    1  0.6296743E-005  0.2826478E+03  0.7818608E-02  0.1094251E+00
          1   -1    0    0  501    0  0.00000000000E+00  0.00000000000E+00  0.59189950170E+03  0.59189950172E+03  0.50400000000E-02 0. -1.
         -1   -1    0    0    0  501 -0.00000000000E+00 -0.00000000000E+00 -0.33742966893E+02  0.33742967270E+02  0.50400000000E-02 0.  1.
    5000001    1    1    2    0    0  0.31061996982E+02  0.53071948816E+02  0.29650264844E+03  0.32836610656E+03  0.12700000000E+03 0.  0.
   -5000001    1    1    2    0    0 -0.31061996982E+02 -0.53071948816E+02  0.26165388637E+03  0.29727636243E+03  0.12700000000E+03 0.  0.
<mgrwt>
<rscale>  0 0.28264780E+03</rscale>
<asrwt>0</asrwt>
<pdfrwt beam="1">  1        1 0.84557068E-01 0.28264780E+03</pdfrwt>
<pdfrwt beam="2">  1       -1 0.48204241E-02 0.28264780E+03</pdfrwt>
<totfact> 0.73631620E+03</totfact>
</mgrwt>
</event>
<event>
 4    1  0.6296743E-005  0.4071657E+03  0.7818608E-02  0.1041326E+00
         -1   -1    0    0    0  501 -0.00000000000E+00  0.00000000000E+00  0.75816055216E+03  0.75816055217E+03  0.50400000000E-02 0.  1.
          1   -1    0    0  501    0  0.00000000000E+00 -0.00000000000E+00 -0.54666493998E+02  0.54666494230E+02  0.50400000000E-02 0. -1.
    5000001    1    1    2    0    0  0.10613502295E+03 -0.56781637952E+02  0.14401439984E+03  0.22662291338E+03  0.12700000000E+03 0.  0.
   -5000001    1    1    2    0    0 -0.10613502295E+03  0.56781637952E+02  0.55947965832E+03  0.58620413303E+03  0.12700000000E+03 0.  0.
<mgrwt>
<rscale>  0 0.40716571E+03</rscale>
<asrwt>0</asrwt>
<pdfrwt beam="1">  1        1 0.78094990E-02 0.40716571E+03</pdfrwt>
<pdfrwt beam="2">  1       -1 0.10830865E+00 0.40716571E+03</pdfrwt>
<totfact> 0.75758886E+02</totfact>
</mgrwt>
</event>
<event>
 4    1  0.6296743E-005  0.2897468E+03  0.7818608E-02  0.1090481E+00
          1   -1    0    0  501    0  0.00000000000E+00  0.00000000000E+00  0.11058073266E+04  0.11058073266E+04  0.50400000000E-02 0.  1.
         -1   -1    0    0    0  501 -0.00000000000E+00 -0.00000000000E+00 -0.18980070411E+02  0.18980071080E+02  0.50400000000E-02 0. -1.
    5000001    1    1    2    0    0 -0.20792663665E+02  0.28214235618E+02  0.30949740589E+03  0.33637185109E+03  0.12700000000E+03 0.  0.
   -5000001    1    1    2    0    0  0.20792663665E+02 -0.28214235618E+02  0.77732985031E+03  0.78841554661E+03  0.12700000000E+03 0.  0.
<mgrwt>
<rscale>  0 0.28974679E+03</rscale>
<asrwt>0</asrwt>
<pdfrwt beam="1">  1        1 0.15797245E+00 0.28974679E+03</pdfrwt>
<pdfrwt beam="2">  1       -1 0.27114391E-02 0.28974679E+03</pdfrwt>
<totfact> 0.66959865E+03</totfact>
</mgrwt>
</event>
<event>
 4    1  0.6296743E-005  0.3550759E+03  0.7818608E-02  0.1060551E+00
          1   -1    0    0  501    0  0.00000000000E+00  0.00000000000E+00  0.18219859708E+03  0.18219859714E+03  0.50400000000E-02 0.  1.
         -1   -1    0    0    0  501 -0.00000000000E+00 -0.00000000000E+00 -0.17299648302E+03  0.17299648309E+03  0.50400000000E-02 0. -1.
    5000001    1    1    2    0    0 -0.79275743664E+02  0.38917185087E+02 -0.82557559479E+02  0.17533950341E+03  0.12700000000E+03 0.  0.
   -5000001    1    1    2    0    0  0.79275743664E+02 -0.38917185087E+02  0.91759673536E+02  0.17985557683E+03  0.12700000000E+03 0.  0.
<mgrwt>
<rscale>  0 0.35507586E+03</rscale>
<asrwt>0</asrwt>
<pdfrwt beam="1">  1        1 0.26028371E-01 0.35507586E+03</pdfrwt>
<pdfrwt beam="2">  1       -1 0.24713783E-01 0.35507586E+03</pdfrwt>
<totfact> 0.25886853E+03</totfact>
</mgrwt>
</event>
<event>
 4    1  0.6296743E-005  0.4630187E+03  0.7818608E-02  0.1023909E+00
          1   -1    0    0  501    0  0.00000000000E+00  0.00000000000E+00  0.26086857048E+03  0.26086857053E+03  0.50400000000E-02 0.  1.
         -1   -1    0    0    0  501 -0.00000000000E+00 -0.00000000000E+00 -0.20545429646E+03  0.20545429652E+03  0.50400000000E-02 0. -1.
    5000001    1    1    2    0    0 -0.13034578833E+03 -0.12144569006E+03  0.10393403477E+03  0.24221966013E+03  0.12700000000E+03 0.  0.
   -5000001    1    1    2    0    0  0.13034578833E+03  0.12144569006E+03 -0.48519760743E+02  0.22410320692E+03  0.12700000000E+03 0.  0.
<mgrwt>
<rscale>  0 0.46301865E+03</rscale>
<asrwt>0</asrwt>
<pdfrwt beam="1">  1        1 0.37266939E-01 0.46301865E+03</pdfrwt>
<pdfrwt beam="2">  1       -1 0.29350614E-01 0.46301865E+03</pdfrwt>
<totfact> 0.12260260E+03</totfact>
</mgrwt>
</event>
<event>
 4    1  0.6296743E-005  0.4613437E+03  0.7818608E-02  0.1024392E+00
          1   -1    0    0  501    0  0.00000000000E+00  0.00000000000E+00  0.32994548613E+03  0.32994548617E+03  0.50400000000E-02 0. -1.
         -1   -1    0    0    0  501 -0.00000000000E+00 -0.00000000000E+00 -0.16126759016E+03  0.16126759024E+03  0.50400000000E-02 0.  1.
    5000001    1    1    2    0    0 -0.78552766340E+02 -0.14841087768E+03 -0.16019547936E+02  0.21114438574E+03  0.12700000000E+03 0.  0.
   -5000001    1    1    2    0    0  0.78552766340E+02  0.14841087768E+03  0.18469744390E+03  0.28006869068E+03  0.12700000000E+03 0.  0.
<mgrwt>
<rscale>  0 0.46134375E+03</rscale>
<asrwt>0</asrwt>
<pdfrwt beam="1">  1        1 0.47135068E-01 0.46134375E+03</pdfrwt>
<pdfrwt beam="2">  1       -1 0.23038228E-01 0.46134375E+03</pdfrwt>
<totfact> 0.13689924E+03</totfact>
</mgrwt>
</event>
<event>
 4    1  0.6296743E-005  0.6454236E+03  0.7818608E-02  0.9815405E-01
         -1   -1    0    0    0  501 -0.00000000000E+00  0.00000000000E+00  0.78029893333E+02  0.78029893495E+02  0.50400000000E-02 0. -1.
          1   -1    0    0  501    0  0.00000000000E+00 -0.00000000000E+00 -0.13346539536E+04  0.13346539536E+04  0.50400000000E-02 0.  1.
    5000001    1    1    2    0    0  0.69360088587E+02  0.26933725857E+03 -0.40232191940E+03  0.50531703669E+03  0.12700000000E+03 0.  0.
   -5000001    1    1    2    0    0 -0.69360088587E+02 -0.26933725857E+03 -0.85430214085E+03  0.90736681039E+03  0.12700000000E+03 0.  0.
<mgrwt>
<rscale>  0 0.64542360E+03</rscale>
<asrwt>0</asrwt>
<pdfrwt beam="1">  1        1 0.19066484E+00 0.64542360E+03</pdfrwt>
<pdfrwt beam="2">  1       -1 0.11147128E-01 0.64542360E+03</pdfrwt>
<totfact> 0.54035082E+02</totfact>
</mgrwt>
</event>
<event>
 4    1  0.6296743E-005  0.3600438E+03  0.7818608E-02  0.1058567E+00
          1   -1    0    0  501    0  0.00000000000E+00  0.00000000000E+00  0.53439474382E+03  0.53439474385E+03  0.50400000000E-02 0.  1.
         -1   -1    0    0    0  501 -0.00000000000E+00 -0.00000000000E+00 -0.60644102058E+02  0.60644102268E+02  0.50400000000E-02 0. -1.
    5000001    1    1    2    0    0  0.11453454790E+03 -0.58282034604E+01  0.14446145427E+03  0.22394249795E+03  0.12700000000E+03 0.  0.
   -5000001    1    1    2    0    0 -0.11453454790E+03  0.58282034604E+01  0.32928918749E+03  0.37109634816E+03  0.12700000000E+03 0.  0.
<mgrwt>
<rscale>  0 0.36004383E+03</rscale>
<asrwt>0</asrwt>
<pdfrwt beam="1">  1        1 0.76342105E-01 0.36004383E+03</pdfrwt>
<pdfrwt beam="2">  1       -1 0.86634433E-02 0.36004383E+03</pdfrwt>
<totfact> 0.34875104E+03</totfact>
</mgrwt>
</event>
<event>
 4    1  0.6296743E-005  0.4410288E+03  0.7818608E-02  0.1030432E+00
          1   -1    0    0  501    0  0.00000000000E+00  0.00000000000E+00  0.44279208554E+02  0.44279208840E+02  0.50400000000E-02 0. -1.
         -1   -1    0    0    0  501 -0.00000000000E+00 -0.00000000000E+00 -0.10981814514E+04  0.10981814514E+04  0.50400000000E-02 0.  1.
    5000001    1    1    2    0    0 -0.16426173840E+03 -0.70168065100E+02 -0.58998625483E+03  0.62937926320E+03  0.12700000000E+03 0.  0.
   -5000001    1    1    2    0    0  0.16426173840E+03  0.70168065100E+02 -0.46391598803E+03  0.51308139706E+03  0.12700000000E+03 0.  0.
<mgrwt>
<rscale>  0 0.44102882E+03</rscale>
<asrwt>0</asrwt>
<pdfrwt beam="1">  1        1 0.63256019E-02 0.44102882E+03</pdfrwt>
<pdfrwt beam="2">  1       -1 0.15688305E+00 0.44102882E+03</pdfrwt>
<totfact> 0.40195128E+02</totfact>
</mgrwt>
</event>
<event>
 4    1  0.6296743E-005  0.3522148E+03  0.7818608E-02  0.1061710E+00
          1   -1    0    0  501    0  0.00000000000E+00  0.00000000000E+00  0.61235894379E+02  0.61235894586E+02  0.50400000000E-02 0. -1.
         -1   -1    0    0    0  501 -0.00000000000E+00 -0.00000000000E+00 -0.50646478794E+03  0.50646478797E+03  0.50400000000E-02 0.  1.
    5000001    1    1    2    0    0 -0.20434722180E+02 -0.10691227961E+03 -0.13378950397E+03  0.21418787261E+03  0.12700000000E+03 0.  0.
   -5000001    1    1    2    0    0  0.20434722180E+02  0.10691227961E+03 -0.31143938959E+03  0.35351280994E+03  0.12700000000E+03 0.  0.
<mgrwt>
<rscale>  0 0.35221485E+03</rscale>
<asrwt>0</asrwt>
<pdfrwt beam="1">  1        1 0.87479852E-02 0.35221485E+03</pdfrwt>
<pdfrwt beam="2">  1       -1 0.72352110E-01 0.35221485E+03</pdfrwt>
<totfact> 0.15496059E+03</totfact>
</mgrwt>
</event>
<event>
 4    1  0.6296743E-005  0.4050640E+03  0.7818608E-02  0.1042040E+00
          1   -1    0    0  501    0  0.00000000000E+00  0.00000000000E+00  0.15524331683E+03  0.15524331691E+03  0.50400000000E-02 0.  1.
         -1   -1    0    0    0  501 -0.00000000000E+00 -0.00000000000E+00 -0.26422531512E+03  0.26422531517E+03  0.50400000000E-02 0. -1.
    5000001    1    1    2    0    0 -0.15012588005E+03 -0.28265137649E+02 -0.13674687626E+02  0.19912984445E+03  0.12700000000E+03 0.  0.
   -5000001    1    1    2    0    0  0.15012588005E+03  0.28265137649E+02 -0.95307310671E+02  0.22033878763E+03  0.12700000000E+03 0.  0.
<mgrwt>
<rscale>  0 0.40506402E+03</rscale>
<asrwt>0</asrwt>
<pdfrwt beam="1">  1        1 0.22177617E-01 0.40506402E+03</pdfrwt>
<pdfrwt beam="2">  1       -1 0.37746473E-01 0.40506402E+03</pdfrwt>
<totfact> 0.15374661E+03</totfact>
</mgrwt>
</event>
<event>
 4    1  0.6296743E-005  0.3124192E+03  0.7818608E-02  0.1079192E+00
         -1   -1    0    0    0  501 -0.00000000000E+00  0.00000000000E+00  0.24911575962E+02  0.24911576472E+02  0.50400000000E-02 0. -1.
          1   -1    0    0  501    0  0.00000000000E+00 -0.00000000000E+00 -0.97952218799E+03  0.97952218800E+03  0.50400000000E-02 0.  1.
    5000001    1    1    2    0    0  0.19780067995E+02  0.26278742298E+02 -0.20467967629E+03  0.24311436254E+03  0.12700000000E+03 0.  0.
   -5000001    1    1    2    0    0 -0.19780067995E+02 -0.26278742298E+02 -0.74993093574E+03  0.76131940193E+03  0.12700000000E+03 0.  0.
<mgrwt>
<rscale>  0 0.31241922E+03</rscale>
<asrwt>0</asrwt>
<pdfrwt beam="1">  1        1 0.13993172E+00 0.31241922E+03</pdfrwt>
<pdfrwt beam="2">  1       -1 0.35587972E-02 0.31241922E+03</pdfrwt>
<totfact> 0.55082373E+03</totfact>
</mgrwt>
</event>
<event>
 4    1  0.6296743E-005  0.6189744E+03  0.7818608E-02  0.9866804E-01
         -1   -1    0    0    0  501 -0.00000000000E+00  0.00000000000E+00  0.17904036385E+03  0.17904036392E+03  0.50400000000E-02 0.  1.
          1   -1    0    0  501    0  0.00000000000E+00 -0.00000000000E+00 -0.53497609467E+03  0.53497609469E+03  0.50400000000E-02 0. -1.
    5000001    1    1    2    0    0  0.27866340592E+03 -0.44417282174E+02 -0.18397583626E+03  0.36000319038E+03  0.12700000000E+03 0.  0.
   -5000001    1    1    2    0    0 -0.27866340592E+03  0.44417282174E+02 -0.17195989456E+03  0.35401326824E+03  0.12700000000E+03 0.  0.
<mgrwt>
<rscale>  0 0.61897436E+03</rscale>
<asrwt>0</asrwt>
<pdfrwt beam="1">  1        1 0.76425156E-01 0.61897436E+03</pdfrwt>
<pdfrwt beam="2">  1       -1 0.25577195E-01 0.61897436E+03</pdfrwt>
<totfact> 0.60700807E+02</totfact>
</mgrwt>
</event>
<event>
 4    1  0.6296743E-005  0.3086226E+03  0.7818608E-02  0.1081008E+00
         -1   -1    0    0    0  501 -0.00000000000E+00  0.00000000000E+00  0.31066808730E+03  0.31066808734E+03  0.50400000000E-02 0.  1.
          1   -1    0    0  501    0  0.00000000000E+00 -0.00000000000E+00 -0.76647623057E+02  0.76647623223E+02  0.50400000000E-02 0. -1.
    5000001    1    1    2    0    0  0.31451775580E+02 -0.56114243789E+02  0.42289282733E+02  0.14851062581E+03  0.12700000000E+03 0.  0.
   -5000001    1    1    2    0    0 -0.31451775580E+02  0.56114243789E+02  0.19173118151E+03  0.23880508476E+03  0.12700000000E+03 0.  0.
<mgrwt>
<rscale>  0 0.30862256E+03</rscale>
<asrwt>0</asrwt>
<pdfrwt beam="1">  1        1 0.10949660E-01 0.30862256E+03</pdfrwt>
<pdfrwt beam="2">  1       -1 0.44381156E-01 0.30862256E+03</pdfrwt>
<totfact> 0.29051523E+03</totfact>
</mgrwt>
</event>
<event>
 4    1  0.6296743E-005  0.4777981E+03  0.7818608E-02  0.1019742E+00
          1   -1    0    0  501    0  0.00000000000E+00  0.00000000000E+00  0.22467766079E+03  0.22467766085E+03  0.50400000000E-02 0. -1.
         -1   -1    0    0    0  501 -0.00000000000E+00 -0.00000000000E+00 -0.25402055975E+03  0.25402055980E+03  0.50400000000E-02 0.  1.
    5000001    1    1    2    0    0  0.50358376746E+02 -0.19597712014E+03 -0.13805263684E+02  0.23929601549E+03  0.12700000000E+03 0.  0.
   -5000001    1    1    2    0    0 -0.50358376746E+02  0.19597712014E+03 -0.15537635277E+02  0.23940220516E+03  0.12700000000E+03 0.  0.
<mgrwt>
<rscale>  0 0.47779805E+03</rscale>
<asrwt>0</asrwt>
<pdfrwt beam="1">  1        1 0.32096809E-01 0.47779805E+03</pdfrwt>
<pdfrwt beam="2">  1       -1 0.36288651E-01 0.47779805E+03</pdfrwt>
<totfact> 0.10247675E+03</totfact>
</mgrwt>
</event>
<event>
 4    1  0.6296743E-005  0.4354810E+03  0.7818608E-02  0.1032142E+00
          1   -1    0    0  501    0  0.00000000000E+00  0.00000000000E+00  0.78403186671E+03  0.78403186673E+03  0.50400000000E-02 0.  1.
         -1   -1    0    0    0  501 -0.00000000000E+00 -0.00000000000E+00 -0.60470656458E+02  0.60470656668E+02  0.50400000000E-02 0. -1.
    5000001    1    1    2    0    0  0.99387932083E+01  0.17532082051E+03  0.32083772129E+03  0.38717181343E+03  0.12700000000E+03 0.  0.
   -5000001    1    1    2    0    0 -0.99387932083E+01 -0.17532082051E+03  0.40272348897E+03  0.45733070997E+03  0.12700000000E+03 0.  0.
<mgrwt>
<rscale>  0 0.43548098E+03</rscale>
<asrwt>0</asrwt>
<pdfrwt beam="1">  1        1 0.11200454E+00 0.43548098E+03</pdfrwt>
<pdfrwt beam="2">  1       -1 0.86386665E-02 0.43548098E+03</pdfrwt>
<totfact> 0.20411773E+03</totfact>
</mgrwt>
</event>
<event>
 4    1  0.6296743E-005  0.4528724E+03  0.7818608E-02  0.1026869E+00
         -1   -1    0    0    0  501 -0.00000000000E+00  0.00000000000E+00  0.51925752188E+02  0.51925752433E+02  0.50400000000E-02 0. -1.
          1   -1    0    0  501    0  0.00000000000E+00 -0.00000000000E+00 -0.98743606261E+03  0.98743606262E+03  0.50400000000E-02 0.  1.
    5000001    1    1    2    0    0  0.15731510126E+03  0.39331965536E+02 -0.25185859735E+03  0.32535641635E+03  0.12700000000E+03 0.  0.
   -5000001    1    1    2    0    0 -0.15731510126E+03 -0.39331965536E+02 -0.68365171307E+03  0.71400539871E+03  0.12700000000E+03 0.  0.
<mgrwt>
<rscale>  0 0.45287243E+03</rscale>
<asrwt>0</asrwt>
<pdfrwt beam="1">  1        1 0.14106228E+00 0.45287243E+03</pdfrwt>
<pdfrwt beam="2">  1       -1 0.74179652E-02 0.45287243E+03</pdfrwt>
<totfact> 0.17924800E+03</totfact>
</mgrwt>
</event>
<event>
 4    1  0.6296743E-005  0.4155766E+03  0.7818608E-02  0.1038516E+00
         -1   -1    0    0    0  501 -0.00000000000E+00  0.00000000000E+00  0.38497739837E+02  0.38497740167E+02  0.50400000000E-02 0. -1.
          1   -1    0    0  501    0  0.00000000000E+00 -0.00000000000E+00 -0.11215197205E+04  0.11215197205E+04  0.50400000000E-02 0.  1.
    5000001    1    1    2    0    0  0.12965339646E+03  0.85034270855E+02 -0.38846626741E+03  0.43712226133E+03  0.12700000000E+03 0.  0.
   -5000001    1    1    2    0    0 -0.12965339646E+03 -0.85034270855E+02 -0.69455571325E+03  0.72289519934E+03  0.12700000000E+03 0.  0.
<mgrwt>
<rscale>  0 0.41557659E+03</rscale>
<asrwt>0</asrwt>
<pdfrwt beam="1">  1        1 0.16021708E+00 0.41557659E+03</pdfrwt>
<pdfrwt beam="2">  1       -1 0.54996778E-02 0.41557659E+03</pdfrwt>
<totfact> 0.22744085E+03</totfact>
</mgrwt>
</event>
<event>
 4    1  0.6296743E-005  0.4530298E+03  0.7818608E-02  0.1026822E+00
          1   -1    0    0  501    0  0.00000000000E+00  0.00000000000E+00  0.16597614182E+03  0.16597614189E+03  0.50400000000E-02 0.  1.
         -1   -1    0    0    0  501 -0.00000000000E+00 -0.00000000000E+00 -0.30913483673E+03  0.30913483677E+03  0.50400000000E-02 0. -1.
    5000001    1    1    2    0    0 -0.11518609122E+03 -0.12102757461E+03 -0.16096567009E+03  0.26448904774E+03  0.12700000000E+03 0.  0.
   -5000001    1    1    2    0    0  0.11518609122E+03  0.12102757461E+03  0.17806975174E+02  0.21062193093E+03  0.12700000000E+03 0.  0.
<mgrwt>
<rscale>  0 0.45302983E+03</rscale>
<asrwt>0</asrwt>
<pdfrwt beam="1">  1        1 0.23710877E-01 0.45302983E+03</pdfrwt>
<pdfrwt beam="2">  1       -1 0.44162120E-01 0.45302983E+03</pdfrwt>
<totfact> 0.10628608E+03</totfact>
</mgrwt>
</event>
<event>
 4    1  0.6296743E-005  0.3032602E+03  0.7818608E-02  0.1083622E+00
          1   -1    0    0  501    0  0.00000000000E+00  0.00000000000E+00  0.24870847609E+04  0.24870847609E+04  0.50400000000E-02 0.  1.
         -1   -1    0    0    0  501 -0.00000000000E+00 -0.00000000000E+00 -0.92444332347E+01  0.92444346086E+01  0.50400000000E-02 0. -1.
    5000001    1    1    2    0    0 -0.19744815291E+02  0.65884935209E+02  0.85883505606E+03  0.87089456075E+03  0.12700000000E+03 0.  0.
   -5000001    1    1    2    0    0  0.19744815291E+02 -0.65884935209E+02  0.16190052716E+04  0.16254346347E+04  0.12700000000E+03 0.  0.
<mgrwt>
<rscale>  0 0.30326022E+03</rscale>
<asrwt>0</asrwt>
<pdfrwt beam="1">  1        1 0.35529772E+00 0.30326022E+03</pdfrwt>
<pdfrwt beam="2">  1       -1 0.13206338E-02 0.30326022E+03</pdfrwt>
<totfact> 0.26605147E+03</totfact>
</mgrwt>
</event>
<event>
 4    1  0.6296743E-005  0.2795387E+03  0.7818608E-02  0.1095941E+00
         -1   -1    0    0    0  501 -0.00000000000E+00  0.00000000000E+00  0.14977267711E+02  0.14977268559E+02  0.50400000000E-02 0.  1.
          1   -1    0    0  501    0  0.00000000000E+00 -0.00000000000E+00 -0.13043416355E+04  0.13043416355E+04  0.50400000000E-02 0. -1.
    5000001    1    1    2    0    0  0.56613688819E+02 -0.80117435557E+01 -0.69995961785E+03  0.71368183696E+03  0.12700000000E+03 0.  0.
   -5000001    1    1    2    0    0 -0.56613688819E+02  0.80117435557E+01 -0.58940474998E+03  0.60563706714E+03  0.12700000000E+03 0.  0.
<mgrwt>
<rscale>  0 0.27953872E+03</rscale>
<asrwt>0</asrwt>
<pdfrwt beam="1">  1        1 0.18633445E+00 0.27953872E+03</pdfrwt>
<pdfrwt beam="2">  1       -1 0.21396106E-02 0.27953872E+03</pdfrwt>
<totfact> 0.69860190E+03</totfact>
</mgrwt>
</event>
<event>
 4    1  0.6296743E-005  0.6243946E+03  0.7818608E-02  0.9856049E-01
         -1   -1    0    0    0  501 -0.00000000000E+00  0.00000000000E+00  0.24901414025E+03  0.24901414030E+03  0.50400000000E-02 0. -1.
          1   -1    0    0  501    0  0.00000000000E+00 -0.00000000000E+00 -0.39141208019E+03  0.39141208023E+03  0.50400000000E-02 0.  1.
    5000001    1    1    2    0    0  0.27584389733E+03 -0.39360293819E+02 -0.13358040217E+03  0.33408354085E+03  0.12700000000E+03 0.  0.
   -5000001    1    1    2    0    0 -0.27584389733E+03  0.39360293819E+02 -0.88175377793E+01  0.30634267968E+03  0.12700000000E+03 0.  0.
<mgrwt>
<rscale>  0 0.62439456E+03</rscale>
<asrwt>0</asrwt>
<pdfrwt beam="1">  1        1 0.55916011E-01 0.62439456E+03</pdfrwt>
<pdfrwt beam="2">  1       -1 0.35573449E-01 0.62439456E+03</pdfrwt>
<totfact> 0.51841756E+02</totfact>
</mgrwt>
</event>
<event>
 4    1  0.6296743E-005  0.4859022E+03  0.7818608E-02  0.1017526E+00
          1   -1    0    0  501    0  0.00000000000E+00  0.00000000000E+00  0.61772328994E+03  0.61772328996E+03  0.50400000000E-02 0. -1.
         -1   -1    0    0    0  501 -0.00000000000E+00 -0.00000000000E+00 -0.95552865992E+02  0.95552866125E+02  0.50400000000E-02 0.  1.
    5000001    1    1    2    0    0  0.14699727966E+03 -0.14491446517E+03  0.28598958720E+03  0.37486990601E+03  0.12700000000E+03 0.  0.
   -5000001    1    1    2    0    0 -0.14699727966E+03  0.14491446517E+03  0.23618083675E+03  0.33840625008E+03  0.12700000000E+03 0.  0.
<mgrwt>
<rscale>  0 0.48590217E+03</rscale>
<asrwt>0</asrwt>
<pdfrwt beam="1">  1        1 0.88246187E-01 0.48590217E+03</pdfrwt>
<pdfrwt beam="2">  1       -1 0.13650409E-01 0.48590217E+03</pdfrwt>
<totfact> 0.14029226E+03</totfact>
</mgrwt>
</event>
<event>
 4    1  0.6296743E-005  0.3470023E+03  0.7818608E-02  0.1063852E+00
          1   -1    0    0  501    0  0.00000000000E+00  0.00000000000E+00  0.11706815598E+04  0.11706815598E+04  0.50400000000E-02 0.  1.
         -1   -1    0    0    0  501 -0.00000000000E+00 -0.00000000000E+00 -0.25713778130E+02  0.25713778624E+02  0.50400000000E-02 0. -1.
    5000001    1    1    2    0    0  0.58485598311E+02  0.10266592924E+03  0.58481331853E+03  0.60999711128E+03  0.12700000000E+03 0.  0.
   -5000001    1    1    2    0    0 -0.58485598311E+02 -0.10266592924E+03  0.56015446314E+03  0.58639822716E+03  0.12700000000E+03 0.  0.
<mgrwt>
<rscale>  0 0.34700228E+03</rscale>
<asrwt>0</asrwt>
<pdfrwt beam="1">  1        1 0.16724023E+00 0.34700228E+03</pdfrwt>
<pdfrwt beam="2">  1       -1 0.36733967E-02 0.34700228E+03</pdfrwt>
<totfact> 0.38636553E+03</totfact>
</mgrwt>
</event>
<event>
 4    1  0.6296743E-005  0.4440703E+03  0.7818608E-02  0.1029505E+00
         -1   -1    0    0    0  501 -0.00000000000E+00  0.00000000000E+00  0.88852454994E+03  0.88852454995E+03  0.50400000000E-02 0. -1.
          1   -1    0    0  501    0  0.00000000000E+00 -0.00000000000E+00 -0.55484811656E+02  0.55484811885E+02  0.50400000000E-02 0.  1.
    5000001    1    1    2    0    0  0.26572488642E+02 -0.11139433552E+03  0.71757412248E+03  0.73766958484E+03  0.12700000000E+03 0.  0.
   -5000001    1    1    2    0    0 -0.26572488642E+02  0.11139433552E+03  0.11546561580E+03  0.20633977700E+03  0.12700000000E+03 0.  0.
<mgrwt>
<rscale>  0 0.44407034E+03</rscale>
<asrwt>0</asrwt>
<pdfrwt beam="1">  1        1 0.79264015E-02 0.44407034E+03</pdfrwt>
<pdfrwt beam="2">  1       -1 0.12693208E+00 0.44407034E+03</pdfrwt>
<totfact> 0.50802564E+02</totfact>
</mgrwt>
</event>
<event>
 4    1  0.6296743E-005  0.2810799E+03  0.7818608E-02  0.1095101E+00
          1   -1    0    0  501    0  0.00000000000E+00  0.00000000000E+00  0.33278422942E+03  0.33278422945E+03  0.50400000000E-02 0.  1.
         -1   -1    0    0    0  501 -0.00000000000E+00 -0.00000000000E+00 -0.59352219749E+02  0.59352219963E+02  0.50400000000E-02 0. -1.
    5000001    1    1    2    0    0 -0.11429273984E+01 -0.47317801407E+02  0.84848763886E+02  0.15990182409E+03  0.12700000000E+03 0.  0.
   -5000001    1    1    2    0    0  0.11429273984E+01  0.47317801407E+02  0.18858324578E+03  0.23223462533E+03  0.12700000000E+03 0.  0.
<mgrwt>
<rscale>  0 0.28107994E+03</rscale>
<asrwt>0</asrwt>
<pdfrwt beam="1">  1        1 0.47540604E-01 0.28107994E+03</pdfrwt>
<pdfrwt beam="2">  1       -1 0.84788886E-02 0.28107994E+03</pdfrwt>
<totfact> 0.66030943E+03</totfact>
</mgrwt>
</event>
<event>
 4    1  0.6296743E-005  0.3118705E+03  0.7818608E-02  0.1079453E+00
         -1   -1    0    0    0  501 -0.00000000000E+00  0.00000000000E+00  0.25148679226E+02  0.25148679731E+02  0.50400000000E-02 0. -1.
          1   -1    0    0  501    0  0.00000000000E+00 -0.00000000000E+00 -0.96688181623E+03  0.96688181624E+03  0.50400000000E-02 0.  1.
    5000001    1    1    2    0    0 -0.47646514218E+02  0.61895524778E+02 -0.32560139076E+03  0.35811522164E+03  0.12700000000E+03 0.  0.
   -5000001    1    1    2    0    0  0.47646514218E+02 -0.61895524778E+02 -0.61613174624E+03  0.63391527433E+03  0.12700000000E+03 0.  0.
<mgrwt>
<rscale>  0 0.31187049E+03</rscale>
<asrwt>0</asrwt>
<pdfrwt beam="1">  1        1 0.13812595E+00 0.31187049E+03</pdfrwt>
<pdfrwt beam="2">  1       -1 0.35926691E-02 0.31187049E+03</pdfrwt>
<totfact> 0.55478875E+03</totfact>
</mgrwt>
</event>
<event>
 4    1  0.6296743E-005  0.4863995E+03  0.7818608E-02  0.1017391E+00
          1   -1    0    0  501    0  0.00000000000E+00  0.00000000000E+00  0.49613728973E+03  0.49613728976E+03  0.50400000000E-02 0.  1.
         -1   -1    0    0    0  501 -0.00000000000E+00 -0.00000000000E+00 -0.11921323178E+03  0.11921323188E+03  0.50400000000E-02 0. -1.
    5000001    1    1    2    0    0  0.14447753350E+02 -0.14738340910E+03  0.37217164842E+03  0.42020392995E+03  0.12700000000E+03 0.  0.
   -5000001    1    1    2    0    0 -0.14447753350E+02  0.14738340910E+03  0.47524095342E+01  0.19514659169E+03  0.12700000000E+03 0.  0.
<mgrwt>
<rscale>  0 0.48639955E+03</rscale>
<asrwt>0</asrwt>
<pdfrwt beam="1">  1        1 0.70876758E-01 0.48639955E+03</pdfrwt>
<pdfrwt beam="2">  1       -1 0.17030461E-01 0.48639955E+03</pdfrwt>
<totfact> 0.13244530E+03</totfact>
</mgrwt>
</event>
<event>
 4    1  0.6296743E-005  0.4396461E+03  0.7818608E-02  0.1030855E+00
          1   -1    0    0  501    0  0.00000000000E+00  0.00000000000E+00  0.11956418183E+03  0.11956418194E+03  0.50400000000E-02 0.  1.
         -1   -1    0    0    0  501 -0.00000000000E+00 -0.00000000000E+00 -0.40415253188E+03  0.40415253191E+03  0.50400000000E-02 0. -1.
    5000001    1    1    2    0    0 -0.16082827664E+03  0.18142116108E+02 -0.23455284327E+03  0.31199183840E+03  0.12700000000E+03 0.  0.
   -5000001    1    1    2    0    0  0.16082827664E+03 -0.18142116108E+02 -0.50035506775E+02  0.21172487545E+03  0.12700000000E+03 0.  0.
<mgrwt>
<rscale>  0 0.43964607E+03</rscale>
<asrwt>0</asrwt>
<pdfrwt beam="1">  1        1 0.17080598E-01 0.43964607E+03</pdfrwt>
<pdfrwt beam="2">  1       -1 0.57736075E-01 0.43964607E+03</pdfrwt>
<totfact> 0.98696883E+02</totfact>
</mgrwt>
</event>
<event>
 4    1  0.6296743E-005  0.5227612E+03  0.7818608E-02  0.1008003E+00
          1   -1    0    0  501    0  0.00000000000E+00  0.00000000000E+00  0.66945365366E+03  0.66945365368E+03  0.50400000000E-02 0.  1.
         -1   -1    0    0    0  501 -0.00000000000E+00 -0.00000000000E+00 -0.10205309325E+03  0.10205309338E+03  0.50400000000E-02 0. -1.
    5000001    1    1    2    0    0 -0.62617425630E+02  0.10051760295E+03  0.57202056530E+03  0.59779700369E+03  0.12700000000E+03 0.  0.
   -5000001    1    1    2    0    0  0.62617425630E+02 -0.10051760295E+03 -0.46200048910E+01  0.17370974337E+03  0.12700000000E+03 0.  0.
<mgrwt>
<rscale>  0 0.52276119E+03</rscale>
<asrwt>0</asrwt>
<pdfrwt beam="1">  1        1 0.95636233E-01 0.52276119E+03</pdfrwt>
<pdfrwt beam="2">  1       -1 0.14579014E-01 0.52276119E+03</pdfrwt>
<totfact> 0.11257448E+03</totfact>
</mgrwt>
</event>
<event>
 4    1  0.6296743E-005  0.3500482E+03  0.7818608E-02  0.1062595E+00
         -1   -1    0    0    0  501 -0.00000000000E+00  0.00000000000E+00  0.52616156587E+03  0.52616156589E+03  0.50400000000E-02 0. -1.
          1   -1    0    0  501    0  0.00000000000E+00 -0.00000000000E+00 -0.58220592451E+02  0.58220592669E+02  0.50400000000E-02 0.  1.
    5000001    1    1    2    0    0 -0.35036519296E+02  0.64848155951E+02  0.39297555183E+03  0.41951355801E+03  0.12700000000E+03 0.  0.
   -5000001    1    1    2    0    0  0.35036519296E+02 -0.64848155951E+02  0.74965421582E+02  0.16486860055E+03  0.12700000000E+03 0.  0.
<mgrwt>
<rscale>  0 0.35004821E+03</rscale>
<asrwt>0</asrwt>
<pdfrwt beam="1">  1        1 0.83172270E-02 0.35004821E+03</pdfrwt>
<pdfrwt beam="2">  1       -1 0.75165943E-01 0.35004821E+03</pdfrwt>
<totfact> 0.15358549E+03</totfact>
</mgrwt>
</event>
<event>
 4    1  0.6296743E-005  0.6460278E+03  0.7818608E-02  0.9814261E-01
         -1   -1    0    0    0  501 -0.00000000000E+00  0.00000000000E+00  0.22185145918E+03  0.22185145923E+03  0.50400000000E-02 0. -1.
          1   -1    0    0  501    0  0.00000000000E+00 -0.00000000000E+00 -0.47030564483E+03  0.47030564485E+03  0.50400000000E-02 0.  1.
    5000001    1    1    2    0    0 -0.38652467228E+02  0.29269429307E+03 -0.15886232219E+03  0.35851108746E+03  0.12700000000E+03 0.  0.
   -5000001    1    1    2    0    0  0.38652467228E+02 -0.29269429307E+03 -0.89591863458E+02  0.33364601663E+03  0.12700000000E+03 0.  0.
<mgrwt>
<rscale>  0 0.64602784E+03</rscale>
<asrwt>0</asrwt>
<pdfrwt beam="1">  1        1 0.67186520E-01 0.64602784E+03</pdfrwt>
<pdfrwt beam="2">  1       -1 0.31693066E-01 0.64602784E+03</pdfrwt>
<totfact> 0.49850545E+02</totfact>
</mgrwt>
</event>
<event>
 4    1  0.6296743E-005  0.3884748E+03  0.7818608E-02  0.1047845E+00
          1   -1    0    0  501    0  0.00000000000E+00  0.00000000000E+00  0.20610803035E+03  0.20610803041E+03  0.50400000000E-02 0.  1.
         -1   -1    0    0    0  501 -0.00000000000E+00 -0.00000000000E+00 -0.18305044524E+03  0.18305044531E+03  0.50400000000E-02 0. -1.
    5000001    1    1    2    0    0  0.98121180352E+02  0.98171361431E+02 -0.36865486346E+02  0.19171188362E+03  0.12700000000E+03 0.  0.
   -5000001    1    1    2    0    0 -0.98121180352E+02 -0.98171361431E+02  0.59923071452E+02  0.19744659210E+03  0.12700000000E+03 0.  0.
<mgrwt>
<rscale>  0 0.38847480E+03</rscale>
<asrwt>0</asrwt>
<pdfrwt beam="1">  1        1 0.29444004E-01 0.38847480E+03</pdfrwt>
<pdfrwt beam="2">  1       -1 0.26150064E-01 0.38847480E+03</pdfrwt>
<totfact> 0.20136432E+03</totfact>
</mgrwt>
</event>
<event>
 4    1  0.6296743E-005  0.3162597E+03  0.7818608E-02  0.1077384E+00
         -1   -1    0    0    0  501 -0.00000000000E+00  0.00000000000E+00  0.59729786704E+02  0.59729786916E+02  0.50400000000E-02 0.  1.
          1   -1    0    0  501    0  0.00000000000E+00 -0.00000000000E+00 -0.41863606700E+03  0.41863606703E+03  0.50400000000E-02 0. -1.
    5000001    1    1    2    0    0 -0.53239895176E+02 -0.64529612545E+02 -0.11391340329E+03  0.19001005443E+03  0.12700000000E+03 0.  0.
   -5000001    1    1    2    0    0  0.53239895176E+02  0.64529612545E+02 -0.24499287700E+03  0.28835579952E+03  0.12700000000E+03 0.  0.
<mgrwt>
<rscale>  0 0.31625966E+03</rscale>
<asrwt>0</asrwt>
<pdfrwt beam="1">  1        1 0.59805151E-01 0.31625966E+03</pdfrwt>
<pdfrwt beam="2">  1       -1 0.85328269E-02 0.31625966E+03</pdfrwt>
<totfact> 0.49016530E+03</totfact>
</mgrwt>
</event>
<event>
 4    1  0.6296743E-005  0.5959153E+03  0.7818608E-02  0.9913917E-01
         -1   -1    0    0    0  501 -0.00000000000E+00  0.00000000000E+00  0.32037778202E+02  0.32037778599E+02  0.50400000000E-02 0. -1.
          1   -1    0    0  501    0  0.00000000000E+00 -0.00000000000E+00 -0.27710643735E+04  0.27710643735E+04  0.50400000000E-02 0.  1.
    5000001    1    1    2    0    0  0.25032854413E+03 -0.98065298154E+02 -0.14598180631E+04  0.14897915828E+04  0.12700000000E+03 0.  0.
   -5000001    1    1    2    0    0 -0.25032854413E+03  0.98065298154E+02 -0.12792085322E+04  0.13133105694E+04  0.12700000000E+03 0.  0.
<mgrwt>
<rscale>  0 0.59591525E+03</rscale>
<asrwt>0</asrwt>
<pdfrwt beam="1">  1        1 0.39586619E+00 0.59591525E+03</pdfrwt>
<pdfrwt beam="2">  1       -1 0.45768272E-02 0.59591525E+03</pdfrwt>
<totfact> 0.27163275E+02</totfact>
</mgrwt>
</event>
<event>
 4    1  0.6296743E-005  0.4092109E+03  0.7818608E-02  0.1040636E+00
         -1   -1    0    0    0  501 -0.00000000000E+00  0.00000000000E+00  0.26616120516E+02  0.26616120993E+02  0.50400000000E-02 0.  1.
          1   -1    0    0  501    0  0.00000000000E+00 -0.00000000000E+00 -0.15728586571E+04  0.15728586571E+04  0.50400000000E-02 0. -1.
    5000001    1    1    2    0    0 -0.53647617976E+02 -0.63944763495E+02 -0.13085876194E+04  0.13173828438E+04  0.12700000000E+03 0.  0.
   -5000001    1    1    2    0    0  0.53647617976E+02  0.63944763495E+02 -0.23765491718E+03  0.28209193422E+03  0.12700000000E+03 0.  0.
<mgrwt>
<rscale>  0 0.40921093E+03</rscale>
<asrwt>0</asrwt>
<pdfrwt beam="1">  1        1 0.22469403E+00 0.40921093E+03</pdfrwt>
<pdfrwt beam="2">  1       -1 0.38023040E-02 0.40921093E+03</pdfrwt>
<totfact> 0.20128493E+03</totfact>
</mgrwt>
</event>
<event>
 4    1  0.6296743E-005  0.5212352E+03  0.7818608E-02  0.1008380E+00
         -1   -1    0    0    0  501 -0.00000000000E+00  0.00000000000E+00  0.52951457826E+02  0.52951458066E+02  0.50400000000E-02 0. -1.
          1   -1    0    0  501    0  0.00000000000E+00 -0.00000000000E+00 -0.12827130844E+04  0.12827130844E+04  0.50400000000E-02 0.  1.
    5000001    1    1    2    0    0 -0.14774436052E+03  0.11486423210E+03 -0.28303632206E+03  0.36229925129E+03  0.12700000000E+03 0.  0.
   -5000001    1    1    2    0    0  0.14774436052E+03 -0.11486423210E+03 -0.94672530448E+03  0.97336529115E+03  0.12700000000E+03 0.  0.
<mgrwt>
<rscale>  0 0.52123518E+03</rscale>
<asrwt>0</asrwt>
<pdfrwt beam="1">  1        1 0.18324471E+00 0.52123518E+03</pdfrwt>
<pdfrwt beam="2">  1       -1 0.75644948E-02 0.52123518E+03</pdfrwt>
<totfact> 0.10809565E+03</totfact>
</mgrwt>
</event>
<event>
 4    1  0.6296743E-005  0.4290353E+03  0.7818608E-02  0.1034165E+00
          1   -1    0    0  501    0  0.00000000000E+00  0.00000000000E+00  0.73277839099E+02  0.73277839272E+02  0.50400000000E-02 0.  1.
         -1   -1    0    0    0  501 -0.00000000000E+00 -0.00000000000E+00 -0.62799109388E+03  0.62799109390E+03  0.50400000000E-02 0. -1.
    5000001    1    1    2    0    0  0.12417839619E+03 -0.11782423034E+03 -0.31692452364E+03  0.38193321016E+03  0.12700000000E+03 0.  0.
   -5000001    1    1    2    0    0 -0.12417839619E+03  0.11782423034E+03 -0.23778873114E+03  0.31933572301E+03  0.12700000000E+03 0.  0.
<mgrwt>
<rscale>  0 0.42903534E+03</rscale>
<asrwt>0</asrwt>
<pdfrwt beam="1">  1        1 0.10468263E-01 0.42903534E+03</pdfrwt>
<pdfrwt beam="2">  1       -1 0.89713010E-01 0.42903534E+03</pdfrwt>
<totfact> 0.77363775E+02</totfact>
</mgrwt>
</event>
<event>
 4    1  0.6296743E-005  0.4020825E+03  0.7818608E-02  0.1043061E+00
         -1   -1    0    0    0  501 -0.00000000000E+00  0.00000000000E+00  0.80550811954E+03  0.80550811955E+03  0.50400000000E-02 0. -1.
          1   -1    0    0  501    0  0.00000000000E+00 -0.00000000000E+00 -0.50176508271E+02  0.50176508525E+02  0.50400000000E-02 0.  1.
    5000001    1    1    2    0    0 -0.99352949325E+02 -0.10995926851E+02  0.63212370651E+03  0.65245789081E+03  0.12700000000E+03 0.  0.
   -5000001    1    1    2    0    0  0.99352949325E+02  0.10995926851E+02  0.12320790476E+03  0.20322673727E+03  0.12700000000E+03 0.  0.
<mgrwt>
<rscale>  0 0.40208250E+03</rscale>
<asrwt>0</asrwt>
<pdfrwt beam="1">  1        1 0.71680725E-02 0.40208250E+03</pdfrwt>
<pdfrwt beam="2">  1       -1 0.11507259E+00 0.40208250E+03</pdfrwt>
<totfact> 0.74017694E+02</totfact>
</mgrwt>
</event>
<event>
 4    1  0.6296743E-005  0.4083644E+03  0.7818608E-02  0.1040921E+00
         -1   -1    0    0    0  501 -0.00000000000E+00  0.00000000000E+00  0.11623128487E+03  0.11623128498E+03  0.50400000000E-02 0.  1.
          1   -1    0    0  501    0  0.00000000000E+00 -0.00000000000E+00 -0.35868458815E+03  0.35868458818E+03  0.50400000000E-02 0. -1.
    5000001    1    1    2    0    0  0.21207846412E+02  0.15157089093E+03 -0.17499896641E+03  0.26490969399E+03  0.12700000000E+03 0.  0.
   -5000001    1    1    2    0    0 -0.21207846412E+02 -0.15157089093E+03 -0.67454336864E+02  0.21000617917E+03  0.12700000000E+03 0.  0.
<mgrwt>
<rscale>  0 0.40836440E+03</rscale>
<asrwt>0</asrwt>
<pdfrwt beam="1">  1        1 0.51240655E-01 0.40836440E+03</pdfrwt>
<pdfrwt beam="2">  1       -1 0.16604469E-01 0.40836440E+03</pdfrwt>
<totfact> 0.21051477E+03</totfact>
</mgrwt>
</event>
<event>
 4    1  0.6296743E-005  0.3011058E+03  0.7818608E-02  0.1084689E+00
         -1   -1    0    0    0  501 -0.00000000000E+00  0.00000000000E+00  0.83383606511E+02  0.83383606664E+02  0.50400000000E-02 0. -1.
          1   -1    0    0  501    0  0.00000000000E+00 -0.00000000000E+00 -0.27183009946E+03  0.27183009951E+03  0.50400000000E-02 0.  1.
    5000001    1    1    2    0    0 -0.13624154621E+02  0.49540422240E+02 -0.16786984594E+03  0.21667753968E+03  0.12700000000E+03 0.  0.
   -5000001    1    1    2    0    0  0.13624154621E+02 -0.49540422240E+02 -0.20576647011E+02  0.13853616649E+03  0.12700000000E+03 0.  0.
<mgrwt>
<rscale>  0 0.30110579E+03</rscale>
<asrwt>0</asrwt>
<pdfrwt beam="1">  1        1 0.38832871E-01 0.30110579E+03</pdfrwt>
<pdfrwt beam="2">  1       -1 0.11911944E-01 0.30110579E+03</pdfrwt>
<totfact> 0.50422798E+03</totfact>
</mgrwt>
</event>
<event>
 4    1  0.6296743E-005  0.5044242E+03  0.7818608E-02  0.1012631E+00
         -1   -1    0    0    0  501 -0.00000000000E+00  0.00000000000E+00  0.93983839120E+03  0.93983839121E+03  0.50400000000E-02 0. -1.
          1   -1    0    0  501    0  0.00000000000E+00 -0.00000000000E+00 -0.67682843430E+02  0.67682843618E+02  0.50400000000E-02 0.  1.
    5000001    1    1    2    0    0  0.14355138045E+02  0.20741600315E+03  0.56635871116E+03  0.61653763718E+03  0.12700000000E+03 0.  0.
   -5000001    1    1    2    0    0 -0.14355138045E+02 -0.20741600315E+03  0.30579683661E+03  0.39098359765E+03  0.12700000000E+03 0.  0.
<mgrwt>
<rscale>  0 0.50442417E+03</rscale>
<asrwt>0</asrwt>
<pdfrwt beam="1">  1        1 0.96689777E-02 0.50442417E+03</pdfrwt>
<pdfrwt beam="2">  1       -1 0.13426263E+00 0.50442417E+03</pdfrwt>
<totfact> 0.33537023E+02</totfact>
</mgrwt>
</event>
<event>
 4    1  0.6296743E-005  0.3634572E+03  0.7818608E-02  0.1057223E+00
          1   -1    0    0  501    0  0.00000000000E+00  0.00000000000E+00  0.24208571934E+03  0.24208571939E+03  0.50400000000E-02 0.  1.
         -1   -1    0    0    0  501 -0.00000000000E+00 -0.00000000000E+00 -0.13641981095E+03  0.13641981104E+03  0.50400000000E-02 0. -1.
    5000001    1    1    2    0    0  0.12407635620E+03  0.17128707418E+01  0.93144972947E+02  0.20050651381E+03  0.12700000000E+03 0.  0.
   -5000001    1    1    2    0    0 -0.12407635620E+03 -0.17128707418E+01  0.12520935443E+02  0.17799901663E+03  0.12700000000E+03 0.  0.
<mgrwt>
<rscale>  0 0.36345722E+03</rscale>
<asrwt>0</asrwt>
<pdfrwt beam="1">  1        1 0.34583674E-01 0.36345722E+03</pdfrwt>
<pdfrwt beam="2">  1       -1 0.19488545E-01 0.36345722E+03</pdfrwt>
<totfact> 0.26705210E+03</totfact>
</mgrwt>
</event>
<event>
 4    1  0.6296743E-005  0.9656785E+03  0.7818608E-02  0.9347010E-01
         -1   -1    0    0    0  501 -0.00000000000E+00  0.00000000000E+00  0.13821439375E+03  0.13821439384E+03  0.50400000000E-02 0. -1.
          1   -1    0    0  501    0  0.00000000000E+00 -0.00000000000E+00 -0.16867543994E+04  0.16867543994E+04  0.50400000000E-02 0.  1.
    5000001    1    1    2    0    0 -0.35196488086E+03 -0.16764044005E+03 -0.12561662248E+04  0.13213875960E+04  0.12700000000E+03 0.  0.
   -5000001    1    1    2    0    0  0.35196488086E+03  0.16764044005E+03 -0.29237378085E+03  0.50358119726E+03  0.12700000000E+03 0.  0.
<mgrwt>
<rscale>  0 0.96567849E+03</rscale>
<asrwt>0</asrwt>
<pdfrwt beam="1">  1        1 0.24096490E+00 0.96567849E+03</pdfrwt>
<pdfrwt beam="2">  1       -1 0.19744914E-01 0.96567849E+03</pdfrwt>
<totfact> 0.12361826E+02</totfact>
</mgrwt>
</event>
<event>
 4    1  0.6296743E-005  0.3368571E+03  0.7818608E-02  0.1068142E+00
         -1   -1    0    0    0  501 -0.00000000000E+00  0.00000000000E+00  0.72936494528E+02  0.72936494702E+02  0.50400000000E-02 0.  1.
          1   -1    0    0  501    0  0.00000000000E+00 -0.00000000000E+00 -0.38894345286E+03  0.38894345289E+03  0.50400000000E-02 0. -1.
    5000001    1    1    2    0    0  0.95147332798E+02  0.60263362146E+01 -0.81050097285E+02  0.17829035290E+03  0.12700000000E+03 0.  0.
   -5000001    1    1    2    0    0 -0.95147332798E+02 -0.60263362146E+01 -0.23495686105E+03  0.28358959470E+03  0.12700000000E+03 0.  0.
<mgrwt>
<rscale>  0 0.33685707E+03</rscale>
<asrwt>0</asrwt>
<pdfrwt beam="1">  1        1 0.55563349E-01 0.33685707E+03</pdfrwt>
<pdfrwt beam="2">  1       -1 0.10419499E-01 0.33685707E+03</pdfrwt>
<totfact> 0.39603520E+03</totfact>
</mgrwt>
</event>
<event>
 4    1  0.6296743E-005  0.6533674E+03  0.7818608E-02  0.9800481E-01
         -1   -1    0    0    0  501 -0.00000000000E+00  0.00000000000E+00  0.24601259234E+03  0.24601259239E+03  0.50400000000E-02 0. -1.
          1   -1    0    0  501    0  0.00000000000E+00 -0.00000000000E+00 -0.43380797907E+03  0.43380797910E+03  0.50400000000E-02 0.  1.
    5000001    1    1    2    0    0 -0.14085822399E+03  0.23328282842E+03  0.39070374396E+02  0.30317884402E+03  0.12700000000E+03 0.  0.
   -5000001    1    1    2    0    0  0.14085822399E+03 -0.23328282842E+03 -0.22686576112E+03  0.37664172747E+03  0.12700000000E+03 0.  0.
<mgrwt>
<rscale>  0 0.65336736E+03</rscale>
<asrwt>0</asrwt>
<pdfrwt beam="1">  1        1 0.61972568E-01 0.65336736E+03</pdfrwt>
<pdfrwt beam="2">  1       -1 0.35144656E-01 0.65336736E+03</pdfrwt>
<totfact> 0.46238988E+02</totfact>
</mgrwt>
</event>
<event>
 4    1  0.6296743E-005  0.3294638E+03  0.7818608E-02  0.1071374E+00
         -1   -1    0    0    0  501 -0.00000000000E+00  0.00000000000E+00  0.10452647241E+02  0.10452648456E+02  0.50400000000E-02 0.  1.
          1   -1    0    0  501    0  0.00000000000E+00 -0.00000000000E+00 -0.25961457112E+04  0.25961457112E+04  0.50400000000E-02 0. -1.
    5000001    1    1    2    0    0 -0.25734639396E+02  0.79050492072E+02 -0.17992127101E+04  0.18056042280E+04  0.12700000000E+03 0.  0.
   -5000001    1    1    2    0    0  0.25734639396E+02 -0.79050492072E+02 -0.78648035391E+03  0.80099413172E+03  0.12700000000E+03 0.  0.
<mgrwt>
<rscale>  0 0.32946379E+03</rscale>
<asrwt>0</asrwt>
<pdfrwt beam="1">  1        1 0.37087755E+00 0.32946379E+03</pdfrwt>
<pdfrwt beam="2">  1       -1 0.14932371E-02 0.32946379E+03</pdfrwt>
<totfact> 0.19033039E+03</totfact>
</mgrwt>
</event>
<event>
 4    1  0.6296743E-005  0.3986935E+03  0.7818608E-02  0.1044233E+00
          1   -1    0    0  501    0  0.00000000000E+00  0.00000000000E+00  0.95532528181E+02  0.95532528314E+02  0.50400000000E-02 0.  1.
         -1   -1    0    0    0  501 -0.00000000000E+00 -0.00000000000E+00 -0.41597479586E+03  0.41597479589E+03  0.50400000000E-02 0. -1.
    5000001    1    1    2    0    0 -0.12712520430E+03 -0.80692363461E+02 -0.19951506201E+03  0.28036999671E+03  0.12700000000E+03 0.  0.
   -5000001    1    1    2    0    0  0.12712520430E+03  0.80692363461E+02 -0.12092720567E+03  0.23113732749E+03  0.12700000000E+03 0.  0.
<mgrwt>
<rscale>  0 0.39869349E+03</rscale>
<asrwt>0</asrwt>
<pdfrwt beam="1">  1        1 0.13647504E-01 0.39869349E+03</pdfrwt>
<pdfrwt beam="2">  1       -1 0.59424970E-01 0.39869349E+03</pdfrwt>
<totfact> 0.12570679E+03</totfact>
</mgrwt>
</event>
<event>
 4    1  0.6296743E-005  0.6434311E+03  0.7818608E-02  0.9819184E-01
          1   -1    0    0  501    0  0.00000000000E+00  0.00000000000E+00  0.73240083957E+03  0.73240083958E+03  0.50400000000E-02 0.  1.
         -1   -1    0    0    0  501 -0.00000000000E+00 -0.00000000000E+00 -0.14131729332E+03  0.14131729341E+03  0.50400000000E-02 0. -1.
    5000001    1    1    2    0    0  0.31712484164E+02 -0.24918655601E+03  0.50709740657E+03  0.57997965576E+03  0.12700000000E+03 0.  0.
   -5000001    1    1    2    0    0 -0.31712484164E+02  0.24918655601E+03  0.83986139670E+02  0.29373847723E+03  0.12700000000E+03 0.  0.
<mgrwt>
<rscale>  0 0.64343113E+03</rscale>
<asrwt>0</asrwt>
<pdfrwt beam="1">  1        1 0.10462869E+00 0.64343113E+03</pdfrwt>
<pdfrwt beam="2">  1       -1 0.20188185E-01 0.64343113E+03</pdfrwt>
<totfact> 0.57787332E+02</totfact>
</mgrwt>
</event>
<event>
 4    1  0.6296743E-005  0.2943119E+03  0.7818608E-02  0.1088119E+00
         -1   -1    0    0    0  501 -0.00000000000E+00  0.00000000000E+00  0.46993495520E+03  0.46993495523E+03  0.50400000000E-02 0. -1.
          1   -1    0    0  501    0  0.00000000000E+00 -0.00000000000E+00 -0.46080587187E+02  0.46080587463E+02  0.50400000000E-02 0.  1.
    5000001    1    1    2    0    0 -0.58811937111E+01  0.73691438982E+02  0.22560536984E+03  0.26924301202E+03  0.12700000000E+03 0.  0.
   -5000001    1    1    2    0    0  0.58811937111E+01 -0.73691438982E+02  0.19824899818E+03  0.24677253068E+03  0.12700000000E+03 0.  0.
<mgrwt>
<rscale>  0 0.29431193E+03</rscale>
<asrwt>0</asrwt>
<pdfrwt beam="1">  1        1 0.65829411E-02 0.29431193E+03</pdfrwt>
<pdfrwt beam="2">  1       -1 0.67133564E-01 0.29431193E+03</pdfrwt>
<totfact> 0.26494679E+03</totfact>
</mgrwt>
</event>
<event>
 4    1  0.6296743E-005  0.4440825E+03  0.7818608E-02  0.1029502E+00
          1   -1    0    0  501    0  0.00000000000E+00  0.00000000000E+00  0.30558067177E+03  0.30558067181E+03  0.50400000000E-02 0. -1.
         -1   -1    0    0    0  501 -0.00000000000E+00 -0.00000000000E+00 -0.16133975371E+03  0.16133975379E+03  0.50400000000E-02 0.  1.
    5000001    1    1    2    0    0 -0.19403457239E+01  0.17158753639E+03  0.79294434736E+01  0.21363034349E+03  0.12700000000E+03 0.  0.
   -5000001    1    1    2    0    0  0.19403457239E+01 -0.17158753639E+03  0.13631147459E+03  0.25329008210E+03  0.12700000000E+03 0.  0.
<mgrwt>
<rscale>  0 0.44408247E+03</rscale>
<asrwt>0</asrwt>
<pdfrwt beam="1">  1        1 0.43654381E-01 0.44408247E+03</pdfrwt>
<pdfrwt beam="2">  1       -1 0.23048537E-01 0.44408247E+03</pdfrwt>
<totfact> 0.15086762E+03</totfact>
</mgrwt>
</event>
<event>
 4    1  0.6296743E-005  0.4114774E+03  0.7818608E-02  0.1039876E+00
         -1   -1    0    0    0  501 -0.00000000000E+00  0.00000000000E+00  0.24572008720E+02  0.24572009236E+02  0.50400000000E-02 0. -1.
          1   -1    0    0  501    0  0.00000000000E+00 -0.00000000000E+00 -0.17226275193E+04  0.17226275194E+04  0.50400000000E-02 0.  1.
    5000001    1    1    2    0    0 -0.97260102625E+02  0.12937583209E+03 -0.84335409476E+03  0.86808568854E+03  0.12700000000E+03 0.  0.
   -5000001    1    1    2    0    0  0.97260102625E+02 -0.12937583209E+03 -0.85470141586E+03  0.87911384005E+03  0.12700000000E+03 0.  0.
<mgrwt>
<rscale>  0 0.41147743E+03</rscale>
<asrwt>0</asrwt>
<pdfrwt beam="1">  1        1 0.24608957E+00 0.41147743E+03</pdfrwt>
<pdfrwt beam="2">  1       -1 0.35102881E-02 0.41147743E+03</pdfrwt>
<totfact> 0.18308051E+03</totfact>
</mgrwt>
</event>
<event>
 4    1  0.6296743E-005  0.6468827E+03  0.7818608E-02  0.9812646E-01
         -1   -1    0    0    0  501 -0.00000000000E+00  0.00000000000E+00  0.40285950798E+03  0.40285950801E+03  0.50400000000E-02 0. -1.
          1   -1    0    0  501    0  0.00000000000E+00 -0.00000000000E+00 -0.25967934338E+03  0.25967934343E+03  0.50400000000E-02 0.  1.
    5000001    1    1    2    0    0  0.19489398395E+03 -0.21631153743E+03  0.91981867721E+01  0.31778601738E+03  0.12700000000E+03 0.  0.
   -5000001    1    1    2    0    0 -0.19489398395E+03  0.21631153743E+03  0.13398197783E+03  0.34475283405E+03  0.12700000000E+03 0.  0.
<mgrwt>
<rscale>  0 0.64688266E+03</rscale>
<asrwt>0</asrwt>
<pdfrwt beam="1">  1        1 0.37097050E-01 0.64688266E+03</pdfrwt>
<pdfrwt beam="2">  1       -1 0.57551357E-01 0.64688266E+03</pdfrwt>
<totfact> 0.36080694E+02</totfact>
</mgrwt>
</event>
<event>
 4    1  0.6296743E-005  0.3060575E+03  0.7818608E-02  0.1082251E+00
          1   -1    0    0  501    0  0.00000000000E+00  0.00000000000E+00  0.15522716535E+03  0.15522716543E+03  0.50400000000E-02 0.  1.
         -1   -1    0    0    0  501 -0.00000000000E+00 -0.00000000000E+00 -0.15086146591E+03  0.15086146600E+03  0.50400000000E-02 0. -1.
    5000001    1    1    2    0    0 -0.51425433033E+02  0.14915586775E+01  0.70321989274E+02  0.15401617475E+03  0.12700000000E+03 0.  0.
   -5000001    1    1    2    0    0  0.51425433033E+02 -0.14915586775E+01 -0.65956289841E+02  0.15207245668E+03  0.12700000000E+03 0.  0.
<mgrwt>
<rscale>  0 0.30605750E+03</rscale>
<asrwt>0</asrwt>
<pdfrwt beam="1">  1        1 0.22175309E-01 0.30605750E+03</pdfrwt>
<pdfrwt beam="2">  1       -1 0.21551638E-01 0.30605750E+03</pdfrwt>
<totfact> 0.39757584E+03</totfact>
</mgrwt>
</event>
<event>
 4    1  0.6296743E-005  0.4002855E+03  0.7818608E-02  0.1043681E+00
         -1   -1    0    0    0  501 -0.00000000000E+00  0.00000000000E+00  0.97498261356E+02  0.97498261486E+02  0.50400000000E-02 0. -1.
          1   -1    0    0  501    0  0.00000000000E+00 -0.00000000000E+00 -0.41084956188E+03  0.41084956191E+03  0.50400000000E-02 0.  1.
    5000001    1    1    2    0    0  0.29481408577E+02 -0.14997869191E+03 -0.12647944789E+03  0.23556063384E+03  0.12700000000E+03 0.  0.
   -5000001    1    1    2    0    0 -0.29481408577E+02  0.14997869191E+03 -0.18687185264E+03  0.27278718956E+03  0.12700000000E+03 0.  0.
<mgrwt>
<rscale>  0 0.40028549E+03</rscale>
<asrwt>0</asrwt>
<pdfrwt beam="1">  1        1 0.58692793E-01 0.40028549E+03</pdfrwt>
<pdfrwt beam="2">  1       -1 0.13928323E-01 0.40028549E+03</pdfrwt>
<totfact> 0.23431263E+03</totfact>
</mgrwt>
</event>
<event>
 4    1  0.6296743E-005  0.4171231E+03  0.7818608E-02  0.1038007E+00
          1   -1    0    0  501    0  0.00000000000E+00  0.00000000000E+00  0.75830480357E+03  0.75830480358E+03  0.50400000000E-02 0.  1.
         -1   -1    0    0    0  501 -0.00000000000E+00 -0.00000000000E+00 -0.57362048606E+02  0.57362048828E+02  0.50400000000E-02 0. -1.
    5000001    1    1    2    0    0 -0.15233459127E+03  0.64449461732E+02  0.35645274164E+03  0.41297350743E+03  0.12700000000E+03 0.  0.
   -5000001    1    1    2    0    0  0.15233459127E+03 -0.64449461732E+02  0.34449001332E+03  0.40269334498E+03  0.12700000000E+03 0.  0.
<mgrwt>
<rscale>  0 0.41712309E+03</rscale>
<asrwt>0</asrwt>
<pdfrwt beam="1">  1        1 0.10832925E+00 0.41712309E+03</pdfrwt>
<pdfrwt beam="2">  1       -1 0.81945787E-02 0.41712309E+03</pdfrwt>
<totfact> 0.23282475E+03</totfact>
</mgrwt>
</event>
<event>
 4    1  0.6296743E-005  0.3348843E+03  0.7818608E-02  0.1068996E+00
          1   -1    0    0  501    0  0.00000000000E+00  0.00000000000E+00  0.17826729440E+04  0.17826729440E+04  0.50400000000E-02 0.  1.
         -1   -1    0    0    0  501 -0.00000000000E+00 -0.00000000000E+00 -0.15727438101E+02  0.15727438908E+02  0.50400000000E-02 0. -1.
    5000001    1    1    2    0    0 -0.47090359606E+02  0.98234891080E+02  0.84938846822E+03  0.86571205706E+03  0.12700000000E+03 0.  0.
   -5000001    1    1    2    0    0  0.47090359606E+02 -0.98234891080E+02  0.91755703771E+03  0.93268832588E+03  0.12700000000E+03 0.  0.
<mgrwt>
<rscale>  0 0.33488433E+03</rscale>
<asrwt>0</asrwt>
<pdfrwt beam="1">  1        1 0.25466750E+00 0.33488433E+03</pdfrwt>
<pdfrwt beam="2">  1       -1 0.22467775E-02 0.33488433E+03</pdfrwt>
<totfact> 0.32696238E+03</totfact>
</mgrwt>
</event>
<event>
 4    1  0.6296743E-005  0.3375278E+03  0.7818608E-02  0.1067854E+00
          1   -1    0    0  501    0  0.00000000000E+00  0.00000000000E+00  0.18944904342E+04  0.18944904342E+04  0.50400000000E-02 0.  1.
         -1   -1    0    0    0  501 -0.00000000000E+00 -0.00000000000E+00 -0.15033723760E+02  0.15033724605E+02  0.50400000000E-02 0. -1.
    5000001    1    1    2    0    0  0.82746536988E+01 -0.10731303833E+03  0.78297811912E+03  0.80048003917E+03  0.12700000000E+03 0.  0.
   -5000001    1    1    2    0    0 -0.82746536988E+01  0.10731303833E+03  0.10964785913E+04  0.11090441196E+04  0.12700000000E+03 0.  0.
<mgrwt>
<rscale>  0 0.33752776E+03</rscale>
<asrwt>0</asrwt>
<pdfrwt beam="1">  1        1 0.27064142E+00 0.33752776E+03</pdfrwt>
<pdfrwt beam="2">  1       -1 0.21476754E-02 0.33752776E+03</pdfrwt>
<totfact> 0.29864637E+03</totfact>
</mgrwt>
</event>
<event>
 4    1  0.6296743E-005  0.4533870E+03  0.7818608E-02  0.1026717E+00
         -1   -1    0    0    0  501 -0.00000000000E+00  0.00000000000E+00  0.81977440439E+02  0.81977440594E+02  0.50400000000E-02 0. -1.
          1   -1    0    0  501    0  0.00000000000E+00 -0.00000000000E+00 -0.62687912082E+03  0.62687912084E+03  0.50400000000E-02 0.  1.
    5000001    1    1    2    0    0 -0.17486612523E+03  0.34949474403E+02 -0.18046731286E+03  0.28372007071E+03  0.12700000000E+03 0.  0.
   -5000001    1    1    2    0    0  0.17486612523E+03 -0.34949474403E+02 -0.36443436752E+03  0.42513649072E+03  0.12700000000E+03 0.  0.
<mgrwt>
<rscale>  0 0.45338701E+03</rscale>
<asrwt>0</asrwt>
<pdfrwt beam="1">  1        1 0.89554158E-01 0.45338701E+03</pdfrwt>
<pdfrwt beam="2">  1       -1 0.11711063E-01 0.45338701E+03</pdfrwt>
<totfact> 0.17535286E+03</totfact>
</mgrwt>
</event>
<event>
 4    1  0.6296743E-005  0.2961622E+03  0.7818608E-02  0.1087175E+00
         -1   -1    0    0    0  501 -0.00000000000E+00  0.00000000000E+00  0.14472069025E+03  0.14472069034E+03  0.50400000000E-02 0. -1.
          1   -1    0    0  501    0  0.00000000000E+00 -0.00000000000E+00 -0.15151955496E+03  0.15151955505E+03  0.50400000000E-02 0.  1.
    5000001    1    1    2    0    0  0.13846764779E+02  0.42800753387E+02  0.58060854483E+02  0.14670957777E+03  0.12700000000E+03 0.  0.
   -5000001    1    1    2    0    0 -0.13846764779E+02 -0.42800753387E+02 -0.64859719194E+02  0.14953066762E+03  0.12700000000E+03 0.  0.
<mgrwt>
<rscale>  0 0.29616222E+03</rscale>
<asrwt>0</asrwt>
<pdfrwt beam="1">  1        1 0.21645651E-01 0.29616222E+03</pdfrwt>
<pdfrwt beam="2">  1       -1 0.20674384E-01 0.29616222E+03</pdfrwt>
<totfact> 0.43861431E+03</totfact>
</mgrwt>
</event>
<event>
 4    1  0.6296743E-005  0.2597002E+03  0.7818608E-02  0.1107323E+00
          1   -1    0    0  501    0  0.00000000000E+00  0.00000000000E+00  0.28442829068E+04  0.28442829068E+04  0.50400000000E-02 0.  1.
         -1   -1    0    0    0  501 -0.00000000000E+00 -0.00000000000E+00 -0.59280487358E+01  0.59280508783E+01  0.50400000000E-02 0. -1.
    5000001    1    1    2    0    0 -0.21523624533E+02 -0.11265751306E-01  0.12392461912E+04  0.12459227058E+04  0.12700000000E+03 0.  0.
   -5000001    1    1    2    0    0  0.21523624533E+02  0.11265751306E-01  0.15991086669E+04  0.16042882519E+04  0.12700000000E+03 0.  0.
<mgrwt>
<rscale>  0 0.25970022E+03</rscale>
<asrwt>0</asrwt>
<pdfrwt beam="1">  1        1 0.40632646E+00 0.25970022E+03</pdfrwt>
<pdfrwt beam="2">  1       -1 0.84686356E-03 0.25970022E+03</pdfrwt>
<totfact> 0.30544870E+03</totfact>
</mgrwt>
</event>
<event>
 4    1  0.6296743E-005  0.5863896E+03  0.7818608E-02  0.9934053E-01
          1   -1    0    0  501    0  0.00000000000E+00  0.00000000000E+00  0.55629451950E+03  0.55629451953E+03  0.50400000000E-02 0.  1.
         -1   -1    0    0    0  501 -0.00000000000E+00 -0.00000000000E+00 -0.15452818037E+03  0.15452818045E+03  0.50400000000E-02 0. -1.
    5000001    1    1    2    0    0  0.25501654132E+03  0.68594567212E+02  0.21273109795E+03  0.36210795495E+03  0.12700000000E+03 0.  0.
   -5000001    1    1    2    0    0 -0.25501654132E+03 -0.68594567212E+02  0.18903524118E+03  0.34871474504E+03  0.12700000000E+03 0.  0.
<mgrwt>
<rscale>  0 0.58638956E+03</rscale>
<asrwt>0</asrwt>
<pdfrwt beam="1">  1        1 0.79470646E-01 0.58638956E+03</pdfrwt>
<pdfrwt beam="2">  1       -1 0.22075454E-01 0.58638956E+03</pdfrwt>
<totfact> 0.73830728E+02</totfact>
</mgrwt>
</event>
<event>
 4    1  0.6296743E-005  0.4817068E+03  0.7818608E-02  0.1018667E+00
          1   -1    0    0  501    0  0.00000000000E+00  0.00000000000E+00  0.30689754077E+03  0.30689754081E+03  0.50400000000E-02 0. -1.
         -1   -1    0    0    0  501 -0.00000000000E+00 -0.00000000000E+00 -0.18902191652E+03  0.18902191658E+03  0.50400000000E-02 0.  1.
    5000001    1    1    2    0    0 -0.28713216116E+02 -0.17627159792E+03 -0.43936641474E+02  0.22350739020E+03  0.12700000000E+03 0.  0.
   -5000001    1    1    2    0    0  0.28713216116E+02  0.17627159792E+03  0.16181226573E+03  0.27241206719E+03  0.12700000000E+03 0.  0.
<mgrwt>
<rscale>  0 0.48170680E+03</rscale>
<asrwt>0</asrwt>
<pdfrwt beam="1">  1        1 0.43842506E-01 0.48170680E+03</pdfrwt>
<pdfrwt beam="2">  1       -1 0.27003131E-01 0.48170680E+03</pdfrwt>
<totfact> 0.11490442E+03</totfact>
</mgrwt>
</event>
<event>
 4    1  0.6296743E-005  0.4029932E+03  0.7818608E-02  0.1042748E+00
         -1   -1    0    0    0  501 -0.00000000000E+00  0.00000000000E+00  0.10562516576E+03  0.10562516588E+03  0.50400000000E-02 0. -1.
          1   -1    0    0  501    0  0.00000000000E+00 -0.00000000000E+00 -0.38438648931E+03  0.38438648934E+03  0.50400000000E-02 0.  1.
    5000001    1    1    2    0    0  0.12980198659E+03  0.86414595795E+02 -0.15456025400E+03  0.25364130225E+03  0.12700000000E+03 0.  0.
   -5000001    1    1    2    0    0 -0.12980198659E+03 -0.86414595795E+02 -0.12420106954E+03  0.23637035297E+03  0.12700000000E+03 0.  0.
<mgrwt>
<rscale>  0 0.40299323E+03</rscale>
<asrwt>0</asrwt>
<pdfrwt beam="1">  1        1 0.54912355E-01 0.40299323E+03</pdfrwt>
<pdfrwt beam="2">  1       -1 0.15089310E-01 0.40299323E+03</pdfrwt>
<totfact> 0.22466493E+03</totfact>
</mgrwt>
</event>
<event>
 4    1  0.6296743E-005  0.6630070E+03  0.7818608E-02  0.9782674E-01
         -1   -1    0    0    0  501 -0.00000000000E+00  0.00000000000E+00  0.16043352305E+03  0.16043352313E+03  0.50400000000E-02 0.  1.
          1   -1    0    0  501    0  0.00000000000E+00 -0.00000000000E+00 -0.68498504029E+03  0.68498504031E+03  0.50400000000E-02 0. -1.
    5000001    1    1    2    0    0 -0.92758614487E+02  0.23486172101E+03 -0.48313941524E+03  0.55974715999E+03  0.12700000000E+03 0.  0.
   -5000001    1    1    2    0    0  0.92758614487E+02 -0.23486172101E+03 -0.41412101997E+02  0.28567140345E+03  0.12700000000E+03 0.  0.
<mgrwt>
<rscale>  0 0.66300698E+03</rscale>
<asrwt>0</asrwt>
<pdfrwt beam="1">  1        1 0.97855004E-01 0.66300698E+03</pdfrwt>
<pdfrwt beam="2">  1       -1 0.22919075E-01 0.66300698E+03</pdfrwt>
<totfact> 0.51542906E+02</totfact>
</mgrwt>
</event>
<event>
 4    1  0.6296743E-005  0.4335500E+03  0.7818608E-02  0.1032744E+00
         -1   -1    0    0    0  501 -0.00000000000E+00  0.00000000000E+00  0.37936055698E+02  0.37936056033E+02  0.50400000000E-02 0. -1.
          1   -1    0    0  501    0  0.00000000000E+00 -0.00000000000E+00 -0.12387002774E+04  0.12387002774E+04  0.50400000000E-02 0.  1.
    5000001    1    1    2    0    0 -0.36035989696E+02  0.16383657672E+03 -0.75399339262E+03  0.78280013575E+03  0.12700000000E+03 0.  0.
   -5000001    1    1    2    0    0  0.36035989696E+02 -0.16383657672E+03 -0.44677082907E+03  0.49383619767E+03  0.12700000000E+03 0.  0.
<mgrwt>
<rscale>  0 0.43355001E+03</rscale>
<asrwt>0</asrwt>
<pdfrwt beam="1">  1        1 0.17695716E+00 0.43355001E+03</pdfrwt>
<pdfrwt beam="2">  1       -1 0.54194373E-02 0.43355001E+03</pdfrwt>
<totfact> 0.19348376E+03</totfact>
</mgrwt>
</event>
<event>
 4    1  0.6296743E-005  0.4105930E+03  0.7818608E-02  0.1040172E+00
          1   -1    0    0  501    0  0.00000000000E+00  0.00000000000E+00  0.16925779962E+03  0.16925779969E+03  0.50400000000E-02 0.  1.
         -1   -1    0    0    0  501 -0.00000000000E+00 -0.00000000000E+00 -0.24900868309E+03  0.24900868314E+03  0.50400000000E-02 0. -1.
    5000001    1    1    2    0    0  0.15900174709E+03  0.23062946965E+02 -0.54432596040E+02  0.21190885449E+03  0.12700000000E+03 0.  0.
   -5000001    1    1    2    0    0 -0.15900174709E+03 -0.23062946965E+02 -0.25318287436E+02  0.20635762835E+03  0.12700000000E+03 0.  0.
<mgrwt>
<rscale>  0 0.41059304E+03</rscale>
<asrwt>0</asrwt>
<pdfrwt beam="1">  1        1 0.24179686E-01 0.41059304E+03</pdfrwt>
<pdfrwt beam="2">  1       -1 0.35572669E-01 0.41059304E+03</pdfrwt>
<totfact> 0.15269940E+03</totfact>
</mgrwt>
</event>
<event>
 4    1  0.6296743E-005  0.1091195E+04  0.7818608E-02  0.9213817E-01
          1   -1    0    0  501    0  0.00000000000E+00  0.00000000000E+00  0.97740137870E+03  0.97740137871E+03  0.50400000000E-02 0.  1.
         -1   -1    0    0    0  501 -0.00000000000E+00 -0.00000000000E+00 -0.30455897334E+03  0.30455897339E+03  0.50400000000E-02 0. -1.
    5000001    1    1    2    0    0 -0.92483894985E+02  0.51068708354E+03  0.20669610291E+03  0.57289339940E+03  0.12700000000E+03 0.  0.
   -5000001    1    1    2    0    0  0.92483894985E+02 -0.51068708354E+03  0.46614630245E+03  0.70906695270E+03  0.12700000000E+03 0.  0.
<mgrwt>
<rscale>  0 0.10911945E+04</rscale>
<asrwt>0</asrwt>
<pdfrwt beam="1">  1        1 0.13962877E+00 0.10911945E+04</pdfrwt>
<pdfrwt beam="2">  1       -1 0.43508425E-01 0.10911945E+04</pdfrwt>
<totfact> 0.93240837E+01</totfact>
</mgrwt>
</event>
<event>
 4    1  0.6296743E-005  0.6483840E+03  0.7818608E-02  0.9809816E-01
         -1   -1    0    0    0  501 -0.00000000000E+00  0.00000000000E+00  0.39053091931E+03  0.39053091934E+03  0.50400000000E-02 0. -1.
          1   -1    0    0  501    0  0.00000000000E+00 -0.00000000000E+00 -0.26912197969E+03  0.26912197973E+03  0.50400000000E-02 0.  1.
    5000001    1    1    2    0    0 -0.17473967844E+03  0.65120200075E+02  0.29755275249E+03  0.37341831261E+03  0.12700000000E+03 0.  0.
   -5000001    1    1    2    0    0  0.17473967844E+03 -0.65120200075E+02 -0.17614381287E+03  0.28623458647E+03  0.12700000000E+03 0.  0.
<mgrwt>
<rscale>  0 0.64838400E+03</rscale>
<asrwt>0</asrwt>
<pdfrwt beam="1">  1        1 0.38445997E-01 0.64838400E+03</pdfrwt>
<pdfrwt beam="2">  1       -1 0.55790132E-01 0.64838400E+03</pdfrwt>
<totfact> 0.36594566E+02</totfact>
</mgrwt>
</event>
<event>
 4    1  0.6296743E-005  0.3116473E+03  0.7818608E-02  0.1079559E+00
          1   -1    0    0  501    0  0.00000000000E+00  0.00000000000E+00  0.11783011361E+03  0.11783011372E+03  0.50400000000E-02 0.  1.
         -1   -1    0    0    0  501 -0.00000000000E+00 -0.00000000000E+00 -0.20606795751E+03  0.20606795757E+03  0.50400000000E-02 0. -1.
    5000001    1    1    2    0    0  0.23688946948E+02 -0.86160076937E+02 -0.30676592574E+02  0.15828701272E+03  0.12700000000E+03 0.  0.
   -5000001    1    1    2    0    0 -0.23688946948E+02  0.86160076937E+02 -0.57561251321E+02  0.16561105856E+03  0.12700000000E+03 0.  0.
<mgrwt>
<rscale>  0 0.31164731E+03</rscale>
<asrwt>0</asrwt>
<pdfrwt beam="1">  1        1 0.16832873E-01 0.31164731E+03</pdfrwt>
<pdfrwt beam="2">  1       -1 0.29438279E-01 0.31164731E+03</pdfrwt>
<totfact> 0.33768854E+03</totfact>
</mgrwt>
</event>
<event>
 4    1  0.6296743E-005  0.5872020E+03  0.7818608E-02  0.9932319E-01
         -1   -1    0    0    0  501 -0.00000000000E+00  0.00000000000E+00  0.52985712362E+02  0.52985712602E+02  0.50400000000E-02 0.  1.
          1   -1    0    0  501    0  0.00000000000E+00 -0.00000000000E+00 -0.16268828273E+04  0.16268828273E+04  0.50400000000E-02 0. -1.
    5000001    1    1    2    0    0 -0.21535538903E+03 -0.71839713406E+02 -0.11764134755E+04  0.12048305081E+04  0.12700000000E+03 0.  0.
   -5000001    1    1    2    0    0  0.21535538903E+03  0.71839713406E+02 -0.39748363945E+03  0.47503803178E+03  0.12700000000E+03 0.  0.
<mgrwt>
<rscale>  0 0.58720200E+03</rscale>
<asrwt>0</asrwt>
<pdfrwt beam="1">  1        1 0.23241180E+00 0.58720200E+03</pdfrwt>
<pdfrwt beam="2">  1       -1 0.75693885E-02 0.58720200E+03</pdfrwt>
<totfact> 0.64536423E+02</totfact>
</mgrwt>
</event>
<event>
 4    1  0.6296743E-005  0.5906942E+03  0.7818608E-02  0.9924903E-01
         -1   -1    0    0    0  501 -0.00000000000E+00  0.00000000000E+00  0.29624453773E+03  0.29624453778E+03  0.50400000000E-02 0. -1.
          1   -1    0    0  501    0  0.00000000000E+00 -0.00000000000E+00 -0.29445239684E+03  0.29445239689E+03  0.50400000000E-02 0.  1.
    5000001    1    1    2    0    0 -0.15634348265E+03  0.11324856337E+03 -0.18304061422E+03  0.29479041390E+03  0.12700000000E+03 0.  0.
   -5000001    1    1    2    0    0  0.15634348265E+03 -0.11324856337E+03  0.18483275511E+03  0.29590652077E+03  0.12700000000E+03 0.  0.
<mgrwt>
<rscale>  0 0.59069422E+03</rscale>
<asrwt>0</asrwt>
<pdfrwt beam="1">  1        1 0.42064628E-01 0.59069422E+03</pdfrwt>
<pdfrwt beam="2">  1       -1 0.42320649E-01 0.59069422E+03</pdfrwt>
<totfact> 0.54841514E+02</totfact>
</mgrwt>
</event>
<event>
 4    1  0.6296743E-005  0.5720917E+03  0.7818608E-02  0.9965061E-01
          1   -1    0    0  501    0  0.00000000000E+00  0.00000000000E+00  0.90481053298E+03  0.90481053299E+03  0.50400000000E-02 0.  1.
         -1   -1    0    0    0  501 -0.00000000000E+00 -0.00000000000E+00 -0.90430222668E+02  0.90430222809E+02  0.50400000000E-02 0. -1.
    5000001    1    1    2    0    0 -0.60185060067E+02 -0.23757420169E+03  0.53771599339E+03  0.60442636633E+03  0.12700000000E+03 0.  0.
   -5000001    1    1    2    0    0  0.60185060067E+02  0.23757420169E+03  0.27666431691E+03  0.39081438947E+03  0.12700000000E+03 0.  0.
<mgrwt>
<rscale>  0 0.57209166E+03</rscale>
<asrwt>0</asrwt>
<pdfrwt beam="1">  1        1 0.12925865E+00 0.57209166E+03</pdfrwt>
<pdfrwt beam="2">  1       -1 0.12918603E-01 0.57209166E+03</pdfrwt>
<totfact> 0.86405762E+02</totfact>
</mgrwt>
</event>
<event>
 4    1  0.6296743E-005  0.6997437E+03  0.7818608E-02  0.9717671E-01
         -1   -1    0    0    0  501 -0.00000000000E+00  0.00000000000E+00  0.84618382801E+02  0.84618382951E+02  0.50400000000E-02 0. -1.
          1   -1    0    0  501    0  0.00000000000E+00 -0.00000000000E+00 -0.14466159057E+04  0.14466159057E+04  0.50400000000E-02 0.  1.
    5000001    1    1    2    0    0 -0.26441182168E+03 -0.15990784769E+03 -0.90838155013E+03  0.96786888152E+03  0.12700000000E+03 0.  0.
   -5000001    1    1    2    0    0  0.26441182168E+03  0.15990784769E+03 -0.45361597272E+03  0.56336540709E+03  0.12700000000E+03 0.  0.
<mgrwt>
<rscale>  0 0.69974366E+03</rscale>
<asrwt>0</asrwt>
<pdfrwt beam="1">  1        1 0.20665940E+00 0.69974366E+03</pdfrwt>
<pdfrwt beam="2">  1       -1 0.12088341E-01 0.69974366E+03</pdfrwt>
<totfact> 0.39977196E+02</totfact>
</mgrwt>
</event>
<event>
 4    1  0.6296743E-005  0.5487588E+03  0.7818608E-02  0.1001782E+00
         -1   -1    0    0    0  501 -0.00000000000E+00  0.00000000000E+00  0.25804134814E+03  0.25804134819E+03  0.50400000000E-02 0. -1.
          1   -1    0    0  501    0  0.00000000000E+00 -0.00000000000E+00 -0.29175189613E+03  0.29175189618E+03  0.50400000000E-02 0.  1.
    5000001    1    1    2    0    0 -0.21404661855E+03  0.31342402566E+02  0.94515199303E+02  0.26806794663E+03  0.12700000000E+03 0.  0.
   -5000001    1    1    2    0    0  0.21404661855E+03 -0.31342402566E+02 -0.12822574729E+03  0.28172529773E+03  0.12700000000E+03 0.  0.
<mgrwt>
<rscale>  0 0.54875879E+03</rscale>
<asrwt>0</asrwt>
<pdfrwt beam="1">  1        1 0.41678842E-01 0.54875879E+03</pdfrwt>
<pdfrwt beam="2">  1       -1 0.36863050E-01 0.54875879E+03</pdfrwt>
<totfact> 0.71254453E+02</totfact>
</mgrwt>
</event>
<event>
 4    1  0.6296743E-005  0.3433914E+03  0.7818608E-02  0.1065361E+00
         -1   -1    0    0    0  501 -0.00000000000E+00  0.00000000000E+00  0.77792911472E+02  0.77792911635E+02  0.50400000000E-02 0. -1.
          1   -1    0    0  501    0  0.00000000000E+00 -0.00000000000E+00 -0.37894738349E+03  0.37894738352E+03  0.50400000000E-02 0.  1.
    5000001    1    1    2    0    0 -0.73094233674E+02 -0.89388722368E+02 -0.15611103794E+03  0.23201889330E+03  0.12700000000E+03 0.  0.
   -5000001    1    1    2    0    0  0.73094233674E+02  0.89388722368E+02 -0.14504343408E+03  0.22472140186E+03  0.12700000000E+03 0.  0.
<mgrwt>
<rscale>  0 0.34339144E+03</rscale>
<asrwt>0</asrwt>
<pdfrwt beam="1">  1        1 0.54135340E-01 0.34339144E+03</pdfrwt>
<pdfrwt beam="2">  1       -1 0.11113273E-01 0.34339144E+03</pdfrwt>
<totfact> 0.37040992E+03</totfact>
</mgrwt>
</event>
<event>
 4    1  0.6296743E-005  0.3551551E+03  0.7818608E-02  0.1060519E+00
         -1   -1    0    0    0  501 -0.00000000000E+00  0.00000000000E+00  0.19439348633E+03  0.19439348640E+03  0.50400000000E-02 0. -1.
          1   -1    0    0  501    0  0.00000000000E+00 -0.00000000000E+00 -0.16221625264E+03  0.16221625272E+03  0.50400000000E-02 0.  1.
    5000001    1    1    2    0    0 -0.15425972137E+01  0.94502860317E+02  0.96864446366E+02  0.18559334898E+03  0.12700000000E+03 0.  0.
   -5000001    1    1    2    0    0  0.15425972137E+01 -0.94502860317E+02 -0.64687212674E+02  0.17101639014E+03  0.12700000000E+03 0.  0.
<mgrwt>
<rscale>  0 0.35515508E+03</rscale>
<asrwt>0</asrwt>
<pdfrwt beam="1">  1        1 0.23173750E-01 0.35515508E+03</pdfrwt>
<pdfrwt beam="2">  1       -1 0.27770498E-01 0.35515508E+03</pdfrwt>
<totfact> 0.24693970E+03</totfact>
</mgrwt>
</event>
<event>
 4    1  0.6296743E-005  0.5556055E+03  0.7818608E-02  0.1000205E+00
         -1   -1    0    0    0  501 -0.00000000000E+00  0.00000000000E+00  0.25874011332E+03  0.25874011337E+03  0.50400000000E-02 0. -1.
          1   -1    0    0  501    0  0.00000000000E+00 -0.00000000000E+00 -0.29826983806E+03  0.29826983811E+03  0.50400000000E-02 0.  1.
    5000001    1    1    2    0    0  0.21510854678E+03 -0.49647507581E+02 -0.13099038065E+03  0.28639839687E+03  0.12700000000E+03 0.  0.
   -5000001    1    1    2    0    0 -0.21510854678E+03  0.49647507581E+02  0.91460655912E+02  0.27061155461E+03  0.12700000000E+03 0.  0.
<mgrwt>
<rscale>  0 0.55560551E+03</rscale>
<asrwt>0</asrwt>
<pdfrwt beam="1">  1        1 0.42609976E-01 0.55560551E+03</pdfrwt>
<pdfrwt beam="2">  1       -1 0.36962874E-01 0.55560551E+03</pdfrwt>
<totfact> 0.68921138E+02</totfact>
</mgrwt>
</event>
<event>
 4    1  0.6296743E-005  0.3784712E+03  0.7818608E-02  0.1051500E+00
         -1   -1    0    0    0  501 -0.00000000000E+00  0.00000000000E+00  0.19067228101E+03  0.19067228107E+03  0.50400000000E-02 0. -1.
          1   -1    0    0  501    0  0.00000000000E+00 -0.00000000000E+00 -0.18780974206E+03  0.18780974213E+03  0.50400000000E-02 0.  1.
    5000001    1    1    2    0    0  0.11301197915E+03  0.74125364991E+02 -0.36184095858E+02  0.18895651870E+03  0.12700000000E+03 0.  0.
   -5000001    1    1    2    0    0 -0.11301197915E+03 -0.74125364991E+02  0.39046634803E+02  0.18952550450E+03  0.12700000000E+03 0.  0.
<mgrwt>
<rscale>  0 0.37847120E+03</rscale>
<asrwt>0</asrwt>
<pdfrwt beam="1">  1        1 0.26829963E-01 0.37847120E+03</pdfrwt>
<pdfrwt beam="2">  1       -1 0.27238897E-01 0.37847120E+03</pdfrwt>
<totfact> 0.21159421E+03</totfact>
</mgrwt>
</event>
<event>
 4    1  0.6296743E-005  0.3601077E+03  0.7818608E-02  0.1058541E+00
          1   -1    0    0  501    0  0.00000000000E+00  0.00000000000E+00  0.58862120403E+02  0.58862120619E+02  0.50400000000E-02 0.  1.
         -1   -1    0    0    0  501 -0.00000000000E+00 -0.00000000000E+00 -0.55076834847E+03  0.55076834849E+03  0.50400000000E-02 0. -1.
    5000001    1    1    2    0    0  0.11823954998E+03 -0.46115254626E+02 -0.26886596953E+03  0.32330344486E+03  0.12700000000E+03 0.  0.
   -5000001    1    1    2    0    0 -0.11823954998E+03  0.46115254626E+02 -0.22304025854E+03  0.28632702425E+03  0.12700000000E+03 0.  0.
<mgrwt>
<rscale>  0 0.36010772E+03</rscale>
<asrwt>0</asrwt>
<pdfrwt beam="1">  1        1 0.84088747E-02 0.36010772E+03</pdfrwt>
<pdfrwt beam="2">  1       -1 0.78681190E-01 0.36010772E+03</pdfrwt>
<totfact> 0.13772181E+03</totfact>
</mgrwt>
</event>
<event>
 4    1  0.6296743E-005  0.4317703E+03  0.7818608E-02  0.1033302E+00
          1   -1    0    0  501    0  0.00000000000E+00  0.00000000000E+00  0.23222068443E+03  0.23222068449E+03  0.50400000000E-02 0.  1.
         -1   -1    0    0    0  501 -0.00000000000E+00 -0.00000000000E+00 -0.20069877809E+03  0.20069877815E+03  0.50400000000E-02 0. -1.
    5000001    1    1    2    0    0 -0.17335135059E+03 -0.15309801906E+02  0.18558484919E+01  0.21544726723E+03  0.12700000000E+03 0.  0.
   -5000001    1    1    2    0    0  0.17335135059E+03  0.15309801906E+02  0.29666057854E+02  0.21747219540E+03  0.12700000000E+03 0.  0.
<mgrwt>
<rscale>  0 0.43177034E+03</rscale>
<asrwt>0</asrwt>
<pdfrwt beam="1">  1        1 0.33174384E-01 0.43177034E+03</pdfrwt>
<pdfrwt beam="2">  1       -1 0.28671254E-01 0.43177034E+03</pdfrwt>
<totfact> 0.14802422E+03</totfact>
</mgrwt>
</event>
<event>
 4    1  0.6296743E-005  0.3483954E+03  0.7818608E-02  0.1063276E+00
          1   -1    0    0  501    0  0.00000000000E+00  0.00000000000E+00  0.62375695006E+03  0.62375695008E+03  0.50400000000E-02 0.  1.
         -1   -1    0    0    0  501 -0.00000000000E+00 -0.00000000000E+00 -0.48648496604E+02  0.48648496865E+02  0.50400000000E-02 0. -1.
    5000001    1    1    2    0    0 -0.85174988662E+02 -0.83295091085E+02  0.29680761135E+03  0.34411714436E+03  0.12700000000E+03 0.  0.
   -5000001    1    1    2    0    0  0.85174988662E+02  0.83295091085E+02  0.27830084211E+03  0.32828830258E+03  0.12700000000E+03 0.  0.
<mgrwt>
<rscale>  0 0.34839540E+03</rscale>
<asrwt>0</asrwt>
<pdfrwt beam="1">  1        1 0.89108128E-01 0.34839540E+03</pdfrwt>
<pdfrwt beam="2">  1       -1 0.69497858E-02 0.34839540E+03</pdfrwt>
<totfact> 0.39610164E+03</totfact>
</mgrwt>
</event>
<event>
 4    1  0.6296743E-005  0.2986495E+03  0.7818608E-02  0.1085918E+00
         -1   -1    0    0    0  501 -0.00000000000E+00  0.00000000000E+00  0.95660627283E+01  0.95660640560E+01  0.50400000000E-02 0.  1.
          1   -1    0    0  501    0  0.00000000000E+00 -0.00000000000E+00 -0.23309360006E+04  0.23309360006E+04  0.50400000000E-02 0. -1.
    5000001    1    1    2    0    0  0.78148842914E+02 -0.22598726647E+00 -0.10991816946E+04  0.11092505085E+04  0.12700000000E+03 0.  0.
   -5000001    1    1    2    0    0 -0.78148842914E+02  0.22598726647E+00 -0.12221882432E+04  0.12312515562E+04  0.12700000000E+03 0.  0.
<mgrwt>
<rscale>  0 0.29864950E+03</rscale>
<asrwt>0</asrwt>
<pdfrwt beam="1">  1        1 0.33299049E+00 0.29864950E+03</pdfrwt>
<pdfrwt beam="2">  1       -1 0.13665820E-02 0.29864950E+03</pdfrwt>
<totfact> 0.31514835E+03</totfact>
</mgrwt>
</event>
<event>
 4    1  0.6296743E-005  0.4089139E+03  0.7818608E-02  0.1040736E+00
          1   -1    0    0  501    0  0.00000000000E+00  0.00000000000E+00  0.42799354079E+02  0.42799354376E+02  0.50400000000E-02 0. -1.
         -1   -1    0    0    0  501 -0.00000000000E+00 -0.00000000000E+00 -0.97671198900E+03  0.97671198901E+03  0.50400000000E-02 0.  1.
    5000001    1    1    2    0    0 -0.32358511166E+02 -0.82149075730E+02 -0.13359065668E+03  0.20437956708E+03  0.12700000000E+03 0.  0.
   -5000001    1    1    2    0    0  0.32358511166E+02  0.82149075730E+02 -0.80032197824E+03  0.81513177631E+03  0.12700000000E+03 0.  0.
<mgrwt>
<rscale>  0 0.40891389E+03</rscale>
<asrwt>0</asrwt>
<pdfrwt beam="1">  1        1 0.61141941E-02 0.40891389E+03</pdfrwt>
<pdfrwt beam="2">  1       -1 0.13953027E+00 0.40891389E+03</pdfrwt>
<totfact> 0.57448980E+02</totfact>
</mgrwt>
</event>
<event>
 4    1  0.6296743E-005  0.3782936E+03  0.7818608E-02  0.1051566E+00
         -1   -1    0    0    0  501 -0.00000000000E+00  0.00000000000E+00  0.97033116342E+02  0.97033116473E+02  0.50400000000E-02 0. -1.
          1   -1    0    0  501    0  0.00000000000E+00 -0.00000000000E+00 -0.36870410010E+03  0.36870410014E+03  0.50400000000E-02 0.  1.
    5000001    1    1    2    0    0 -0.13841113871E+03 -0.69956586921E+01 -0.10998347123E+03  0.21778876578E+03  0.12700000000E+03 0.  0.
   -5000001    1    1    2    0    0  0.13841113871E+03  0.69956586921E+01 -0.16168751253E+03  0.24794845083E+03  0.12700000000E+03 0.  0.
<mgrwt>
<rscale>  0 0.37829358E+03</rscale>
<asrwt>0</asrwt>
<pdfrwt beam="1">  1        1 0.52672014E-01 0.37829358E+03</pdfrwt>
<pdfrwt beam="2">  1       -1 0.13861874E-01 0.37829358E+03</pdfrwt>
<totfact> 0.27117569E+03</totfact>
</mgrwt>
</event>
<event>
 4    1  0.6296743E-005  0.7042215E+03  0.7818608E-02  0.9710040E-01
         -1   -1    0    0    0  501 -0.00000000000E+00  0.00000000000E+00  0.72587930175E+03  0.72587930177E+03  0.50400000000E-02 0. -1.
          1   -1    0    0  501    0  0.00000000000E+00 -0.00000000000E+00 -0.17080245705E+03  0.17080245712E+03  0.50400000000E-02 0.  1.
    5000001    1    1    2    0    0  0.26984796575E+03  0.18496215789E+03  0.31408984048E+03  0.47096746423E+03  0.12700000000E+03 0.  0.
   -5000001    1    1    2    0    0 -0.26984796575E+03 -0.18496215789E+03  0.24098700422E+03  0.42571429466E+03  0.12700000000E+03 0.  0.
<mgrwt>
<rscale>  0 0.70422147E+03</rscale>
<asrwt>0</asrwt>
<pdfrwt beam="1">  1        1 0.24400350E-01 0.70422147E+03</pdfrwt>
<pdfrwt beam="2">  1       -1 0.10369705E+00 0.70422147E+03</pdfrwt>
<totfact> 0.17933208E+02</totfact>
</mgrwt>
</event>
<event>
 4    1  0.6296743E-005  0.5897211E+03  0.7818608E-02  0.9926964E-01
          1   -1    0    0  501    0  0.00000000000E+00  0.00000000000E+00  0.25980992918E+04  0.25980992918E+04  0.50400000000E-02 0.  1.
         -1   -1    0    0    0  501 -0.00000000000E+00 -0.00000000000E+00 -0.33463985668E+02  0.33463986048E+02  0.50400000000E-02 0. -1.
    5000001    1    1    2    0    0  0.96009084427E+02 -0.23266444620E+03  0.89681118636E+03  0.94007967364E+03  0.12700000000E+03 0.  0.
   -5000001    1    1    2    0    0 -0.96009084427E+02  0.23266444620E+03  0.16678241197E+04  0.16914836042E+04  0.12700000000E+03 0.  0.
<mgrwt>
<rscale>  0 0.58972115E+03</rscale>
<asrwt>0</asrwt>
<pdfrwt beam="1">  1        1 0.37115712E+00 0.58972115E+03</pdfrwt>
<pdfrwt beam="2">  1       -1 0.47805684E-02 0.58972115E+03</pdfrwt>
<totfact> 0.32687823E+02</totfact>
</mgrwt>
</event>
<event>
 4    1  0.6296743E-005  0.3364014E+03  0.7818608E-02  0.1068339E+00
          1   -1    0    0  501    0  0.00000000000E+00  0.00000000000E+00  0.21722090645E+03  0.21722090651E+03  0.50400000000E-02 0. -1.
         -1   -1    0    0    0  501 -0.00000000000E+00 -0.00000000000E+00 -0.13024286142E+03  0.13024286152E+03  0.50400000000E-02 0.  1.
    5000001    1    1    2    0    0  0.64998040417E+02  0.79797365437E+02  0.25614045152E+01  0.16348677494E+03  0.12700000000E+03 0.  0.
   -5000001    1    1    2    0    0 -0.64998040417E+02 -0.79797365437E+02  0.84416640508E+02  0.18397699308E+03  0.12700000000E+03 0.  0.
<mgrwt>
<rscale>  0 0.33640138E+03</rscale>
<asrwt>0</asrwt>
<pdfrwt beam="1">  1        1 0.31031558E-01 0.33640138E+03</pdfrwt>
<pdfrwt beam="2">  1       -1 0.18606123E-01 0.33640138E+03</pdfrwt>
<totfact> 0.32994447E+03</totfact>
</mgrwt>
</event>
<event>
 4    1  0.6296743E-005  0.3894779E+03  0.7818608E-02  0.1047485E+00
         -1   -1    0    0    0  501 -0.00000000000E+00  0.00000000000E+00  0.34244353912E+02  0.34244354283E+02  0.50400000000E-02 0.  1.
          1   -1    0    0  501    0  0.00000000000E+00 -0.00000000000E+00 -0.11074307954E+04  0.11074307954E+04  0.50400000000E-02 0. -1.
    5000001    1    1    2    0    0  0.11346877588E+02 -0.66623158971E+02 -0.15185727126E+03  0.20918180556E+03  0.12700000000E+03 0.  0.
   -5000001    1    1    2    0    0 -0.11346877588E+02  0.66623158971E+02 -0.92132917025E+03  0.93249334416E+03  0.12700000000E+03 0.  0.
<mgrwt>
<rscale>  0 0.38947787E+03</rscale>
<asrwt>0</asrwt>
<pdfrwt beam="1">  1        1 0.15820438E+00 0.38947787E+03</pdfrwt>
<pdfrwt beam="2">  1       -1 0.48920513E-02 0.38947787E+03</pdfrwt>
<totfact> 0.27781729E+03</totfact>
</mgrwt>
</event>
<event>
 4    1  0.6296743E-005  0.4526556E+03  0.7818608E-02  0.1026933E+00
         -1   -1    0    0    0  501 -0.00000000000E+00  0.00000000000E+00  0.16741629542E+03  0.16741629549E+03  0.50400000000E-02 0.  1.
          1   -1    0    0  501    0  0.00000000000E+00 -0.00000000000E+00 -0.30596946648E+03  0.30596946652E+03  0.50400000000E-02 0. -1.
    5000001    1    1    2    0    0  0.12276793765E+03  0.10568244261E+03 -0.16768450048E+03  0.26549545550E+03  0.12700000000E+03 0.  0.
   -5000001    1    1    2    0    0 -0.12276793765E+03 -0.10568244261E+03  0.29131329415E+02  0.20789030652E+03  0.12700000000E+03 0.  0.
<mgrwt>
<rscale>  0 0.45265561E+03</rscale>
<asrwt>0</asrwt>
<pdfrwt beam="1">  1        1 0.43709924E-01 0.45265561E+03</pdfrwt>
<pdfrwt beam="2">  1       -1 0.23916614E-01 0.45265561E+03</pdfrwt>
<totfact> 0.14159662E+03</totfact>
</mgrwt>
</event>
<event>
 4    1  0.6296743E-005  0.3379710E+03  0.7818608E-02  0.1067663E+00
         -1   -1    0    0    0  501 -0.00000000000E+00  0.00000000000E+00  0.12205427918E+03  0.12205427928E+03  0.50400000000E-02 0.  1.
          1   -1    0    0  501    0  0.00000000000E+00 -0.00000000000E+00 -0.23396234782E+03  0.23396234788E+03  0.50400000000E-02 0. -1.
    5000001    1    1    2    0    0 -0.95351865301E+02  0.16133302161E+02 -0.11436607043E+03  0.19636919239E+03  0.12700000000E+03 0.  0.
   -5000001    1    1    2    0    0  0.95351865301E+02 -0.16133302161E+02  0.24580017802E+01  0.15964743477E+03  0.12700000000E+03 0.  0.
<mgrwt>
<rscale>  0 0.33797104E+03</rscale>
<asrwt>0</asrwt>
<pdfrwt beam="1">  1        1 0.33423193E-01 0.33797104E+03</pdfrwt>
<pdfrwt beam="2">  1       -1 0.17436326E-01 0.33797104E+03</pdfrwt>
<totfact> 0.33364220E+03</totfact>
</mgrwt>
</event>
<event>
 4    1  0.6296743E-005  0.4615190E+03  0.7818608E-02  0.1024342E+00
         -1   -1    0    0    0  501 -0.00000000000E+00  0.00000000000E+00  0.12577371563E+03  0.12577371573E+03  0.50400000000E-02 0. -1.
          1   -1    0    0  501    0  0.00000000000E+00 -0.00000000000E+00 -0.42337899895E+03  0.42337899898E+03  0.50400000000E-02 0.  1.
    5000001    1    1    2    0    0 -0.23335383838E+02 -0.18795034127E+03 -0.10671584297E+03  0.25176803225E+03  0.12700000000E+03 0.  0.
   -5000001    1    1    2    0    0  0.23335383838E+02  0.18795034127E+03 -0.19088944034E+03  0.29738468245E+03  0.12700000000E+03 0.  0.
<mgrwt>
<rscale>  0 0.46151901E+03</rscale>
<asrwt>0</asrwt>
<pdfrwt beam="1">  1        1 0.60482713E-01 0.46151901E+03</pdfrwt>
<pdfrwt beam="2">  1       -1 0.17967674E-01 0.46151901E+03</pdfrwt>
<totfact> 0.14959469E+03</totfact>
</mgrwt>
</event>
<event>
 4    1  0.6296743E-005  0.3664385E+03  0.7818608E-02  0.1056063E+00
          1   -1    0    0  501    0  0.00000000000E+00  0.00000000000E+00  0.37110324005E+02  0.37110324348E+02  0.50400000000E-02 0.  1.
         -1   -1    0    0    0  501 -0.00000000000E+00 -0.00000000000E+00 -0.90458110102E+03  0.90458110103E+03  0.50400000000E-02 0. -1.
    5000001    1    1    2    0    0 -0.43456431804E+02 -0.62136061711E+02 -0.71159941434E+03  0.72680951983E+03  0.12700000000E+03 0.  0.
   -5000001    1    1    2    0    0  0.43456431804E+02  0.62136061711E+02 -0.15587136267E+03  0.21488190555E+03  0.12700000000E+03 0.  0.
<mgrwt>
<rscale>  0 0.36643852E+03</rscale>
<asrwt>0</asrwt>
<pdfrwt beam="1">  1        1 0.53014754E-02 0.36643852E+03</pdfrwt>
<pdfrwt beam="2">  1       -1 0.12922586E+00 0.36643852E+03</pdfrwt>
<totfact> 0.85023408E+02</totfact>
</mgrwt>
</event>
<event>
 4    1  0.6296743E-005  0.4736490E+03  0.7818608E-02  0.1020895E+00
          1   -1    0    0  501    0  0.00000000000E+00  0.00000000000E+00  0.20230170636E+03  0.20230170642E+03  0.50400000000E-02 0.  1.
         -1   -1    0    0    0  501 -0.00000000000E+00 -0.00000000000E+00 -0.27723866632E+03  0.27723866637E+03  0.50400000000E-02 0. -1.
    5000001    1    1    2    0    0  0.11306975964E+03  0.15190722164E+03 -0.10226674312E+03  0.24989610097E+03  0.12700000000E+03 0.  0.
   -5000001    1    1    2    0    0 -0.11306975964E+03 -0.15190722164E+03  0.27329783160E+02  0.22964427182E+03  0.12700000000E+03 0.  0.
<mgrwt>
<rscale>  0 0.47364905E+03</rscale>
<asrwt>0</asrwt>
<pdfrwt beam="1">  1        1 0.28900244E-01 0.47364905E+03</pdfrwt>
<pdfrwt beam="2">  1       -1 0.39605524E-01 0.47364905E+03</pdfrwt>
<totfact> 0.10030181E+03</totfact>
</mgrwt>
</event>
<event>
 4    1  0.6296743E-005  0.3062355E+03  0.7818608E-02  0.1082164E+00
          1   -1    0    0  501    0  0.00000000000E+00  0.00000000000E+00  0.17317742920E+04  0.17317742920E+04  0.50400000000E-02 0.  1.
         -1   -1    0    0    0  501 -0.00000000000E+00 -0.00000000000E+00 -0.13538162465E+02  0.13538163403E+02  0.50400000000E-02 0. -1.
    5000001    1    1    2    0    0 -0.50265480314E+01 -0.37116667880E+02  0.12973725490E+04  0.13041117452E+04  0.12700000000E+03 0.  0.
   -5000001    1    1    2    0    0  0.50265480314E+01  0.37116667880E+02  0.42086358054E+03  0.44120071016E+03  0.12700000000E+03 0.  0.
<mgrwt>
<rscale>  0 0.30623548E+03</rscale>
<asrwt>0</asrwt>
<pdfrwt beam="1">  1        1 0.24739631E+00 0.30623548E+03</pdfrwt>
<pdfrwt beam="2">  1       -1 0.19340234E-02 0.30623548E+03</pdfrwt>
<totfact> 0.43784213E+03</totfact>
</mgrwt>
</event>
<event>
 4    1  0.6296743E-005  0.2701592E+03  0.7818608E-02  0.1101189E+00
         -1   -1    0    0    0  501 -0.00000000000E+00  0.00000000000E+00  0.42435172436E+02  0.42435172736E+02  0.50400000000E-02 0. -1.
          1   -1    0    0  501    0  0.00000000000E+00 -0.00000000000E+00 -0.42998540103E+03  0.42998540106E+03  0.50400000000E-02 0.  1.
    5000001    1    1    2    0    0  0.27817662547E+02  0.35442169169E+02 -0.21013573814E+03  0.24963172504E+03  0.12700000000E+03 0.  0.
   -5000001    1    1    2    0    0 -0.27817662547E+02 -0.35442169169E+02 -0.17741449046E+03  0.22278884875E+03  0.12700000000E+03 0.  0.
<mgrwt>
<rscale>  0 0.27015925E+03</rscale>
<asrwt>0</asrwt>
<pdfrwt beam="1">  1        1 0.61426483E-01 0.27015925E+03</pdfrwt>
<pdfrwt beam="2">  1       -1 0.60621678E-02 0.27015925E+03</pdfrwt>
<totfact> 0.79312370E+03</totfact>
</mgrwt>
</event>
<event>
 4    1  0.6296743E-005  0.4030045E+03  0.7818608E-02  0.1042744E+00
          1   -1    0    0  501    0  0.00000000000E+00  0.00000000000E+00  0.54486755059E+03  0.54486755061E+03  0.50400000000E-02 0.  1.
         -1   -1    0    0    0  501 -0.00000000000E+00 -0.00000000000E+00 -0.74519315794E+02  0.74519315964E+02  0.50400000000E-02 0. -1.
    5000001    1    1    2    0    0  0.14879763836E+03 -0.88384906051E+01  0.30816260322E+03  0.36511922179E+03  0.12700000000E+03 0.  0.
   -5000001    1    1    2    0    0 -0.14879763836E+03  0.88384906051E+01  0.16218563157E+03  0.25426764479E+03  0.12700000000E+03 0.  0.
<mgrwt>
<rscale>  0 0.40300450E+03</rscale>
<asrwt>0</asrwt>
<pdfrwt beam="1">  1        1 0.77838224E-01 0.40300450E+03</pdfrwt>
<pdfrwt beam="2">  1       -1 0.10645616E-01 0.40300450E+03</pdfrwt>
<totfact> 0.24695431E+03</totfact>
</mgrwt>
</event>
<event>
 4    1  0.6296743E-005  0.5646437E+03  0.7818608E-02  0.9981602E-01
         -1   -1    0    0    0  501 -0.00000000000E+00  0.00000000000E+00  0.69624569740E+02  0.69624569923E+02  0.50400000000E-02 0. -1.
          1   -1    0    0  501    0  0.00000000000E+00 -0.00000000000E+00 -0.11447917765E+04  0.11447917765E+04  0.50400000000E-02 0.  1.
    5000001    1    1    2    0    0 -0.12087621837E+01 -0.22621290165E+03 -0.77711070783E+03  0.81927027909E+03  0.12700000000E+03 0.  0.
   -5000001    1    1    2    0    0  0.12087621837E+01  0.22621290165E+03 -0.29805649892E+03  0.39514606733E+03  0.12700000000E+03 0.  0.
<mgrwt>
<rscale>  0 0.56464373E+03</rscale>
<asrwt>0</asrwt>
<pdfrwt beam="1">  1        1 0.16354167E+00 0.56464373E+03</pdfrwt>
<pdfrwt beam="2">  1       -1 0.99463678E-02 0.56464373E+03</pdfrwt>
<totfact> 0.87346957E+02</totfact>
</mgrwt>
</event>
<event>
 4    1  0.6296743E-005  0.2832767E+03  0.7818608E-02  0.1093913E+00
         -1   -1    0    0    0  501 -0.00000000000E+00  0.00000000000E+00  0.93078032298E+02  0.93078032434E+02  0.50400000000E-02 0. -1.
          1   -1    0    0  501    0  0.00000000000E+00 -0.00000000000E+00 -0.21553331494E+03  0.21553331500E+03  0.50400000000E-02 0.  1.
    5000001    1    1    2    0    0 -0.59214928115E+02  0.11007675596E+02 -0.80248812108E+02  0.16185316950E+03  0.12700000000E+03 0.  0.
   -5000001    1    1    2    0    0  0.59214928115E+02 -0.11007675596E+02 -0.42206470531E+02  0.14675817793E+03  0.12700000000E+03 0.  0.
<mgrwt>
<rscale>  0 0.28327666E+03</rscale>
<asrwt>0</asrwt>
<pdfrwt beam="1">  1        1 0.30790473E-01 0.28327666E+03</pdfrwt>
<pdfrwt beam="2">  1       -1 0.13296862E-01 0.28327666E+03</pdfrwt>
<totfact> 0.56727692E+03</totfact>
</mgrwt>
</event>
<event>
 4    1  0.6296743E-005  0.4483069E+03  0.7818608E-02  0.1028228E+00
          1   -1    0    0  501    0  0.00000000000E+00  0.00000000000E+00  0.22580258181E+03  0.22580258187E+03  0.50400000000E-02 0.  1.
         -1   -1    0    0    0  501 -0.00000000000E+00 -0.00000000000E+00 -0.22251635394E+03  0.22251635400E+03  0.50400000000E-02 0. -1.
    5000001    1    1    2    0    0 -0.18046970573E+03 -0.27151051343E+02  0.30091601589E+02  0.22436799852E+03  0.12700000000E+03 0.  0.
   -5000001    1    1    2    0    0  0.18046970573E+03  0.27151051343E+02 -0.26805373718E+02  0.22395093734E+03  0.12700000000E+03 0.  0.
<mgrwt>
<rscale>  0 0.44830689E+03</rscale>
<asrwt>0</asrwt>
<pdfrwt beam="1">  1        1 0.32257512E-01 0.44830689E+03</pdfrwt>
<pdfrwt beam="2">  1       -1 0.31788051E-01 0.44830689E+03</pdfrwt>
<totfact> 0.12843687E+03</totfact>
</mgrwt>
</event>
<event>
 4    1  0.6296743E-005  0.2968298E+03  0.7818608E-02  0.1086836E+00
         -1   -1    0    0    0  501 -0.00000000000E+00  0.00000000000E+00  0.42802140876E+02  0.42802141172E+02  0.50400000000E-02 0.  1.
          1   -1    0    0  501    0  0.00000000000E+00 -0.00000000000E+00 -0.51462350239E+03  0.51462350241E+03  0.50400000000E-02 0. -1.
    5000001    1    1    2    0    0 -0.43711398285E+02 -0.51057657190E+02 -0.30568322326E+03  0.33777034163E+03  0.12700000000E+03 0.  0.
   -5000001    1    1    2    0    0  0.43711398285E+02  0.51057657190E+02 -0.16613813825E+03  0.21965530196E+03  0.12700000000E+03 0.  0.
<mgrwt>
<rscale>  0 0.29682984E+03</rscale>
<asrwt>0</asrwt>
<pdfrwt beam="1">  1        1 0.73517639E-01 0.29682984E+03</pdfrwt>
<pdfrwt beam="2">  1       -1 0.61145919E-02 0.29682984E+03</pdfrwt>
<totfact> 0.62176127E+03</totfact>
</mgrwt>
</event>
<event>
 4    1  0.6296743E-005  0.3867857E+03  0.7818608E-02  0.1048454E+00
          1   -1    0    0  501    0  0.00000000000E+00  0.00000000000E+00  0.18503403380E+03  0.18503403387E+03  0.50400000000E-02 0.  1.
         -1   -1    0    0    0  501 -0.00000000000E+00 -0.00000000000E+00 -0.20212923541E+03  0.20212923548E+03  0.50400000000E-02 0. -1.
    5000001    1    1    2    0    0 -0.53644596735E+02  0.12613104035E+03 -0.58446098760E+02  0.19578490381E+03  0.12700000000E+03 0.  0.
   -5000001    1    1    2    0    0  0.53644596735E+02 -0.12613104035E+03  0.41350897142E+02  0.19137836553E+03  0.12700000000E+03 0.  0.
<mgrwt>
<rscale>  0 0.38678567E+03</rscale>
<asrwt>0</asrwt>
<pdfrwt beam="1">  1        1 0.26433433E-01 0.38678567E+03</pdfrwt>
<pdfrwt beam="2">  1       -1 0.28875605E-01 0.38678567E+03</pdfrwt>
<totfact> 0.19534163E+03</totfact>
</mgrwt>
</event>
<event>
 4    1  0.6296743E-005  0.2858092E+03  0.7818608E-02  0.1092558E+00
          1   -1    0    0  501    0  0.00000000000E+00  0.00000000000E+00  0.14681963827E+04  0.14681963827E+04  0.50400000000E-02 0. -1.
         -1   -1    0    0    0  501 -0.00000000000E+00 -0.00000000000E+00 -0.13909394263E+02  0.13909395176E+02  0.50400000000E-02 0.  1.
    5000001    1    1    2    0    0  0.24823615836E+02 -0.58592630235E+02  0.64623828084E+03  0.66166624808E+03  0.12700000000E+03 0.  0.
   -5000001    1    1    2    0    0 -0.24823615836E+02  0.58592630235E+02  0.80804870758E+03  0.82043952979E+03  0.12700000000E+03 0.  0.
<mgrwt>
<rscale>  0 0.28580919E+03</rscale>
<asrwt>0</asrwt>
<pdfrwt beam="1">  1        1 0.20974231E+00 0.28580919E+03</pdfrwt>
<pdfrwt beam="2">  1       -1 0.19870567E-02 0.28580919E+03</pdfrwt>
<totfact> 0.61228172E+03</totfact>
</mgrwt>
</event>
<event>
 4    1  0.6296743E-005  0.3104114E+03  0.7818608E-02  0.1080149E+00
         -1   -1    0    0    0  501 -0.00000000000E+00  0.00000000000E+00  0.38208026438E+02  0.38208026770E+02  0.50400000000E-02 0. -1.
          1   -1    0    0  501    0  0.00000000000E+00 -0.00000000000E+00 -0.63046444626E+03  0.63046444628E+03  0.50400000000E-02 0.  1.
    5000001    1    1    2    0    0  0.66583908957E+02  0.58716533794E+02 -0.27701153454E+03  0.31740421948E+03  0.12700000000E+03 0.  0.
   -5000001    1    1    2    0    0 -0.66583908957E+02 -0.58716533794E+02 -0.31524488528E+03  0.35126825357E+03  0.12700000000E+03 0.  0.
<mgrwt>
<rscale>  0 0.31041136E+03</rscale>
<asrwt>0</asrwt>
<pdfrwt beam="1">  1        1 0.90066343E-01 0.31041136E+03</pdfrwt>
<pdfrwt beam="2">  1       -1 0.54582899E-02 0.31041136E+03</pdfrwt>
<totfact> 0.56169837E+03</totfact>
</mgrwt>
</event>
<event>
 4    1  0.6296743E-005  0.3025737E+03  0.7818608E-02  0.1083961E+00
          1   -1    0    0  501    0  0.00000000000E+00  0.00000000000E+00  0.13990527579E+04  0.13990527579E+04  0.50400000000E-02 0. -1.
         -1   -1    0    0    0  501 -0.00000000000E+00 -0.00000000000E+00 -0.16359432567E+02  0.16359433344E+02  0.50400000000E-02 0.  1.
    5000001    1    1    2    0    0 -0.46962990335E+02  0.41786863920E+02  0.44350376297E+03  0.46559236702E+03  0.12700000000E+03 0.  0.
   -5000001    1    1    2    0    0  0.46962990335E+02 -0.41786863920E+02  0.93918956238E+03  0.94981982425E+03  0.12700000000E+03 0.  0.
<mgrwt>
<rscale>  0 0.30257369E+03</rscale>
<asrwt>0</asrwt>
<pdfrwt beam="1">  1        1 0.19986473E+00 0.30257369E+03</pdfrwt>
<pdfrwt beam="2">  1       -1 0.23370613E-02 0.30257369E+03</pdfrwt>
<totfact> 0.53412373E+03</totfact>
</mgrwt>
</event>
<event>
 4    1  0.6296743E-005  0.3814553E+03  0.7818608E-02  0.1050397E+00
          1   -1    0    0  501    0  0.00000000000E+00  0.00000000000E+00  0.35633089326E+03  0.35633089329E+03  0.50400000000E-02 0.  1.
         -1   -1    0    0    0  501 -0.00000000000E+00 -0.00000000000E+00 -0.10208780705E+03  0.10208780718E+03  0.50400000000E-02 0. -1.
    5000001    1    1    2    0    0 -0.91324304388E+02 -0.34970377131E+02  0.28975213590E+01  0.16031360354E+03  0.12700000000E+03 0.  0.
   -5000001    1    1    2    0    0  0.91324304388E+02  0.34970377131E+02  0.25134556485E+03  0.29810509693E+03  0.12700000000E+03 0.  0.
<mgrwt>
<rscale>  0 0.38145532E+03</rscale>
<asrwt>0</asrwt>
<pdfrwt beam="1">  1        1 0.50904414E-01 0.38145532E+03</pdfrwt>
<pdfrwt beam="2">  1       -1 0.14583972E-01 0.38145532E+03</pdfrwt>
<totfact> 0.26127632E+03</totfact>
</mgrwt>
</event>
<event>
 4    1  0.6296743E-005  0.1196265E+04  0.7818608E-02  0.9116132E-01
         -1   -1    0    0    0  501 -0.00000000000E+00  0.00000000000E+00  0.33343980936E+03  0.33343980940E+03  0.50400000000E-02 0. -1.
          1   -1    0    0  501    0  0.00000000000E+00 -0.00000000000E+00 -0.10729441120E+04  0.10729441121E+04  0.50400000000E-02 0.  1.
    5000001    1    1    2    0    0  0.50790258226E+03 -0.23177105054E+03 -0.16629257619E+03  0.59620891794E+03  0.12700000000E+03 0.  0.
   -5000001    1    1    2    0    0 -0.50790258226E+03  0.23177105054E+03 -0.57321172649E+03  0.81017500351E+03  0.12700000000E+03 0.  0.
<mgrwt>
<rscale>  0 0.11962647E+04</rscale>
<asrwt>0</asrwt>
<pdfrwt beam="1">  1        1 0.15327773E+00 0.11962647E+04</pdfrwt>
<pdfrwt beam="2">  1       -1 0.47634259E-01 0.11962647E+04</pdfrwt>
<totfact> 0.66389507E+01</totfact>
</mgrwt>
</event>
<event>
 4    1  0.6296743E-005  0.3359862E+03  0.7818608E-02  0.1068518E+00
         -1   -1    0    0    0  501 -0.00000000000E+00  0.00000000000E+00  0.16728200691E+02  0.16728201450E+02  0.50400000000E-02 0.  1.
          1   -1    0    0  501    0  0.00000000000E+00 -0.00000000000E+00 -0.16870718142E+04  0.16870718142E+04  0.50400000000E-02 0. -1.
    5000001    1    1    2    0    0 -0.74494360851E+02  0.80880779218E+02 -0.84151830435E+03  0.85812188341E+03  0.12700000000E+03 0.  0.
   -5000001    1    1    2    0    0  0.74494360851E+02 -0.80880779218E+02 -0.82882530919E+03  0.84567813227E+03  0.12700000000E+03 0.  0.
<mgrwt>
<rscale>  0 0.33598617E+03</rscale>
<asrwt>0</asrwt>
<pdfrwt beam="1">  1        1 0.24101015E+00 0.33598617E+03</pdfrwt>
<pdfrwt beam="2">  1       -1 0.23897441E-02 0.33598617E+03</pdfrwt>
<totfact> 0.34168492E+03</totfact>
</mgrwt>
</event>
<event>
 4    1  0.6296743E-005  0.4071379E+03  0.7818608E-02  0.1041336E+00
         -1   -1    0    0    0  501 -0.00000000000E+00  0.00000000000E+00  0.49079810571E+02  0.49079810830E+02  0.50400000000E-02 0. -1.
          1   -1    0    0  501    0  0.00000000000E+00 -0.00000000000E+00 -0.84434543009E+03  0.84434543010E+03  0.50400000000E-02 0.  1.
    5000001    1    1    2    0    0  0.15855123317E+03 -0.68534294581E+01 -0.37301526238E+03  0.42479977519E+03  0.12700000000E+03 0.  0.
   -5000001    1    1    2    0    0 -0.15855123317E+03  0.68534294581E+01 -0.42225035714E+03  0.46862546574E+03  0.12700000000E+03 0.  0.
<mgrwt>
<rscale>  0 0.40713788E+03</rscale>
<asrwt>0</asrwt>
<pdfrwt beam="1">  1        1 0.12062077E+00 0.40713788E+03</pdfrwt>
<pdfrwt beam="2">  1       -1 0.70114020E-02 0.40713788E+03</pdfrwt>
<totfact> 0.25151311E+03</totfact>
</mgrwt>
</event>
<event>
 4    1  0.6296743E-005  0.4058026E+03  0.7818608E-02  0.1041789E+00
          1   -1    0    0  501    0  0.00000000000E+00  0.00000000000E+00  0.17024473051E+04  0.17024473051E+04  0.50400000000E-02 0.  1.
         -1   -1    0    0    0  501 -0.00000000000E+00 -0.00000000000E+00 -0.24182214021E+02  0.24182214546E+02  0.50400000000E-02 0. -1.
    5000001    1    1    2    0    0  0.13850439111E+03 -0.34712879598E+02  0.54894378876E+03  0.58125444822E+03  0.12700000000E+03 0.  0.
   -5000001    1    1    2    0    0 -0.13850439111E+03  0.34712879598E+02  0.11293213023E+04  0.11453750714E+04  0.12700000000E+03 0.  0.
<mgrwt>
<rscale>  0 0.40580264E+03</rscale>
<asrwt>0</asrwt>
<pdfrwt beam="1">  1        1 0.24320686E+00 0.40580264E+03</pdfrwt>
<pdfrwt beam="2">  1       -1 0.34546007E-02 0.40580264E+03</pdfrwt>
<totfact> 0.19302470E+03</totfact>
</mgrwt>
</event>
<event>
 4    1  0.6296743E-005  0.5139186E+03  0.7818608E-02  0.1010208E+00
          1   -1    0    0  501    0  0.00000000000E+00  0.00000000000E+00  0.99645806869E+03  0.99645806870E+03  0.50400000000E-02 0.  1.
         -1   -1    0    0    0  501 -0.00000000000E+00 -0.00000000000E+00 -0.66262775025E+02  0.66262775216E+02  0.50400000000E-02 0. -1.
    5000001    1    1    2    0    0  0.15210911153E+03  0.15764353034E+03  0.37471429340E+03  0.45224823509E+03  0.12700000000E+03 0.  0.
   -5000001    1    1    2    0    0 -0.15210911153E+03 -0.15764353034E+03  0.55548100027E+03  0.61047260883E+03  0.12700000000E+03 0.  0.
<mgrwt>
<rscale>  0 0.51391858E+03</rscale>
<asrwt>0</asrwt>
<pdfrwt beam="1">  1        1 0.14235115E+00 0.51391858E+03</pdfrwt>
<pdfrwt beam="2">  1       -1 0.94661110E-02 0.51391858E+03</pdfrwt>
<totfact> 0.12070649E+03</totfact>
</mgrwt>
</event>
<event>
 4    1  0.6296743E-005  0.3364678E+03  0.7818608E-02  0.1068310E+00
         -1   -1    0    0    0  501 -0.00000000000E+00  0.00000000000E+00  0.15952881539E+03  0.15952881547E+03  0.50400000000E-02 0. -1.
          1   -1    0    0  501    0  0.00000000000E+00 -0.00000000000E+00 -0.17741400627E+03  0.17741400634E+03  0.50400000000E-02 0.  1.
    5000001    1    1    2    0    0 -0.85278488327E+01  0.46248050240E+02  0.91008332408E+02  0.16316593678E+03  0.12700000000E+03 0.  0.
   -5000001    1    1    2    0    0  0.85278488327E+01 -0.46248050240E+02 -0.10889352329E+03  0.17377688503E+03  0.12700000000E+03 0.  0.
<mgrwt>
<rscale>  0 0.33646781E+03</rscale>
<asrwt>0</asrwt>
<pdfrwt beam="1">  1        1 0.25344858E-01 0.33646781E+03</pdfrwt>
<pdfrwt beam="2">  1       -1 0.22789831E-01 0.33646781E+03</pdfrwt>
<totfact> 0.30620696E+03</totfact>
</mgrwt>
</event>
<event>
 4    1  0.6296743E-005  0.5691778E+03  0.7818608E-02  0.9971500E-01
         -1   -1    0    0    0  501 -0.00000000000E+00  0.00000000000E+00  0.10827778740E+03  0.10827778752E+03  0.50400000000E-02 0. -1.
          1   -1    0    0  501    0  0.00000000000E+00 -0.00000000000E+00 -0.74799122534E+03  0.74799122535E+03  0.50400000000E-02 0.  1.
    5000001    1    1    2    0    0  0.19117453951E+03 -0.16271586895E+03 -0.25536606078E+03  0.37995392295E+03  0.12700000000E+03 0.  0.
   -5000001    1    1    2    0    0 -0.19117453951E+03  0.16271586895E+03 -0.38434737716E+03  0.47631508993E+03  0.12700000000E+03 0.  0.
<mgrwt>
<rscale>  0 0.56917778E+03</rscale>
<asrwt>0</asrwt>
<pdfrwt beam="1">  1        1 0.10685589E+00 0.56917778E+03</pdfrwt>
<pdfrwt beam="2">  1       -1 0.15468256E-01 0.56917778E+03</pdfrwt>
<totfact> 0.86879501E+02</totfact>
</mgrwt>
</event>
<event>
 4    1  0.6296743E-005  0.6121941E+03  0.7818608E-02  0.9880425E-01
          1   -1    0    0  501    0  0.00000000000E+00  0.00000000000E+00  0.38241401621E+03  0.38241401624E+03  0.50400000000E-02 0.  1.
         -1   -1    0    0    0  501 -0.00000000000E+00 -0.00000000000E+00 -0.24501042007E+03  0.24501042012E+03  0.50400000000E-02 0. -1.
    5000001    1    1    2    0    0 -0.90448335969E+02  0.18861802040E+03 -0.11974418064E+03  0.27244325629E+03  0.12700000000E+03 0.  0.
   -5000001    1    1    2    0    0  0.90448335969E+02 -0.18861802040E+03  0.25714777678E+03  0.35498118007E+03  0.12700000000E+03 0.  0.
<mgrwt>
<rscale>  0 0.61219415E+03</rscale>
<asrwt>0</asrwt>
<pdfrwt beam="1">  1        1 0.54630573E-01 0.61219415E+03</pdfrwt>
<pdfrwt beam="2">  1       -1 0.35001489E-01 0.61219415E+03</pdfrwt>
<totfact> 0.55017871E+02</totfact>
</mgrwt>
</event>
<event>
 4    1  0.6296743E-005  0.3867123E+03  0.7818608E-02  0.1048480E+00
          1   -1    0    0  501    0  0.00000000000E+00  0.00000000000E+00  0.17298883867E+04  0.17298883867E+04  0.50400000000E-02 0. -1.
         -1   -1    0    0    0  501 -0.00000000000E+00 -0.00000000000E+00 -0.21612147650E+02  0.21612148238E+02  0.50400000000E-02 0.  1.
    5000001    1    1    2    0    0  0.10467749584E+03 -0.37041339413E+02  0.12820983078E+04  0.12931490671E+04  0.12700000000E+03 0.  0.
   -5000001    1    1    2    0    0 -0.10467749584E+03  0.37041339413E+02  0.42617793122E+03  0.45835146778E+03  0.12700000000E+03 0.  0.
<mgrwt>
<rscale>  0 0.38671232E+03</rscale>
<asrwt>0</asrwt>
<pdfrwt beam="1">  1        1 0.24712692E+00 0.38671232E+03</pdfrwt>
<pdfrwt beam="2">  1       -1 0.30874496E-02 0.38671232E+03</pdfrwt>
<totfact> 0.21970536E+03</totfact>
</mgrwt>
</event>
<event>
 4    1  0.6296743E-005  0.3283161E+03  0.7818608E-02  0.1071884E+00
         -1   -1    0    0    0  501 -0.00000000000E+00  0.00000000000E+00  0.60966366005E+03  0.60966366007E+03  0.50400000000E-02 0. -1.
          1   -1    0    0  501    0  0.00000000000E+00 -0.00000000000E+00 -0.44201198067E+02  0.44201198354E+02  0.50400000000E-02 0.  1.
    5000001    1    1    2    0    0 -0.71316249194E+02  0.75714484506E+02  0.28190112648E+03  0.32621455467E+03  0.12700000000E+03 0.  0.
   -5000001    1    1    2    0    0  0.71316249194E+02 -0.75714484506E+02  0.28356133550E+03  0.32765030376E+03  0.12700000000E+03 0.  0.
<mgrwt>
<rscale>  0 0.32831609E+03</rscale>
<asrwt>0</asrwt>
<pdfrwt beam="1">  1        1 0.63144572E-02 0.32831609E+03</pdfrwt>
<pdfrwt beam="2">  1       -1 0.87094804E-01 0.32831609E+03</pdfrwt>
<totfact> 0.16467902E+03</totfact>
</mgrwt>
</event>
<event>
 4    1  0.6296743E-005  0.5194484E+03  0.7818608E-02  0.1008824E+00
         -1   -1    0    0    0  501 -0.00000000000E+00  0.00000000000E+00  0.64671891092E+02  0.64671891288E+02  0.50400000000E-02 0.  1.
          1   -1    0    0  501    0  0.00000000000E+00 -0.00000000000E+00 -0.10430598545E+04  0.10430598545E+04  0.50400000000E-02 0. -1.
    5000001    1    1    2    0    0  0.74057399202E+02  0.13986240759E+03 -0.14347866325E+03  0.24851784290E+03  0.12700000000E+03 0.  0.
   -5000001    1    1    2    0    0 -0.74057399202E+02 -0.13986240759E+03 -0.83490930019E+03  0.85921390293E+03  0.12700000000E+03 0.  0.
<mgrwt>
<rscale>  0 0.51944837E+03</rscale>
<asrwt>0</asrwt>
<pdfrwt beam="1">  1        1 0.14900854E+00 0.51944837E+03</pdfrwt>
<pdfrwt beam="2">  1       -1 0.92388422E-02 0.51944837E+03</pdfrwt>
<totfact> 0.11593793E+03</totfact>
</mgrwt>
</event>
<event>
 4    1  0.6296743E-005  0.2979177E+03  0.7818608E-02  0.1086286E+00
          1   -1    0    0  501    0  0.00000000000E+00  0.00000000000E+00  0.33568217769E+04  0.33568217769E+04  0.50400000000E-02 0. -1.
         -1   -1    0    0    0  501 -0.00000000000E+00 -0.00000000000E+00 -0.66100426981E+01  0.66100446195E+01  0.50400000000E-02 0.  1.
    5000001    1    1    2    0    0  0.61838451302E+02  0.35707058096E+02  0.20250442871E+04  0.20302788854E+04  0.12700000000E+03 0.  0.
   -5000001    1    1    2    0    0 -0.61838451302E+02 -0.35707058096E+02  0.13251674472E+04  0.13331529361E+04  0.12700000000E+03 0.  0.
<mgrwt>
<rscale>  0 0.29791770E+03</rscale>
<asrwt>0</asrwt>
<pdfrwt beam="1">  1        1 0.47954478E+00 0.29791770E+03</pdfrwt>
<pdfrwt beam="2">  1       -1 0.94429430E-03 0.29791770E+03</pdfrwt>
<totfact> 0.12201961E+03</totfact>
</mgrwt>
</event>
<event>
 4    1  0.6296743E-005  0.3969257E+03  0.7818608E-02  0.1044849E+00
         -1   -1    0    0    0  501 -0.00000000000E+00  0.00000000000E+00  0.28964863046E+03  0.28964863050E+03  0.50400000000E-02 0. -1.
          1   -1    0    0  501    0  0.00000000000E+00 -0.00000000000E+00 -0.13598370875E+03  0.13598370884E+03  0.50400000000E-02 0.  1.
    5000001    1    1    2    0    0  0.14155520767E+03  0.25907391616E+02  0.13097599312E+03  0.23236346643E+03  0.12700000000E+03 0.  0.
   -5000001    1    1    2    0    0 -0.14155520767E+03 -0.25907391616E+02  0.22688928588E+02  0.19326887292E+03  0.12700000000E+03 0.  0.
<mgrwt>
<rscale>  0 0.39692566E+03</rscale>
<asrwt>0</asrwt>
<pdfrwt beam="1">  1        1 0.19426244E-01 0.39692566E+03</pdfrwt>
<pdfrwt beam="2">  1       -1 0.41378376E-01 0.39692566E+03</pdfrwt>
<totfact> 0.15494725E+03</totfact>
</mgrwt>
</event>
<event>
 4    1  0.6296743E-005  0.1376109E+04  0.7818608E-02  0.8971296E-01
         -1   -1    0    0    0  501 -0.00000000000E+00  0.00000000000E+00  0.39315529955E+03  0.39315529958E+03  0.50400000000E-02 0. -1.
          1   -1    0    0  501    0  0.00000000000E+00 -0.00000000000E+00 -0.12041520531E+04  0.12041520531E+04  0.50400000000E-02 0.  1.
    5000001    1    1    2    0    0  0.43618287375E+02  0.65075334613E+03 -0.61283724017E+03  0.90392530412E+03  0.12700000000E+03 0.  0.
   -5000001    1    1    2    0    0 -0.43618287375E+02 -0.65075334613E+03 -0.19815951335E+03  0.69338204853E+03  0.12700000000E+03 0.  0.
<mgrwt>
<rscale>  0 0.13761087E+04</rscale>
<asrwt>0</asrwt>
<pdfrwt beam="1">  1        1 0.17202172E+00 0.13761087E+04</pdfrwt>
<pdfrwt beam="2">  1       -1 0.56165043E-01 0.13761087E+04</pdfrwt>
<totfact> 0.38556501E+01</totfact>
</mgrwt>
</event>
<event>
 4    1  0.6296743E-005  0.2912287E+03  0.7818608E-02  0.1089709E+00
          1   -1    0    0  501    0  0.00000000000E+00  0.00000000000E+00  0.77196526657E+03  0.77196526659E+03  0.50400000000E-02 0.  1.
         -1   -1    0    0    0  501 -0.00000000000E+00 -0.00000000000E+00 -0.27466953280E+02  0.27466953743E+02  0.50400000000E-02 0. -1.
    5000001    1    1    2    0    0  0.42481175929E+02 -0.51994754298E+02  0.43758031951E+03  0.46055796682E+03  0.12700000000E+03 0.  0.
   -5000001    1    1    2    0    0 -0.42481175929E+02  0.51994754298E+02  0.30691799379E+03  0.33887425351E+03  0.12700000000E+03 0.  0.
<mgrwt>
<rscale>  0 0.29122867E+03</rscale>
<asrwt>0</asrwt>
<pdfrwt beam="1">  1        1 0.11028075E+00 0.29122867E+03</pdfrwt>
<pdfrwt beam="2">  1       -1 0.39238505E-02 0.29122867E+03</pdfrwt>
<totfact> 0.68858701E+03</totfact>
</mgrwt>
</event>
<event>
 4    1  0.6296743E-005  0.3112223E+03  0.7818608E-02  0.1079761E+00
          1   -1    0    0  501    0  0.00000000000E+00  0.00000000000E+00  0.13608393305E+04  0.13608393305E+04  0.50400000000E-02 0.  1.
         -1   -1    0    0    0  501 -0.00000000000E+00 -0.00000000000E+00 -0.17794042426E+02  0.17794043140E+02  0.50400000000E-02 0. -1.
    5000001    1    1    2    0    0 -0.70509667258E+02 -0.35336064210E+02  0.48019166239E+03  0.50292472920E+03  0.12700000000E+03 0.  0.
   -5000001    1    1    2    0    0  0.70509667258E+02  0.35336064210E+02  0.86285362568E+03  0.87570864445E+03  0.12700000000E+03 0.  0.
<mgrwt>
<rscale>  0 0.31122232E+03</rscale>
<asrwt>0</asrwt>
<pdfrwt beam="1">  1        1 0.19440567E+00 0.31122232E+03</pdfrwt>
<pdfrwt beam="2">  1       -1 0.25420055E-02 0.31122232E+03</pdfrwt>
<totfact> 0.49942463E+03</totfact>
</mgrwt>
</event>
<event>
 4    1  0.6296743E-005  0.2673698E+03  0.7818608E-02  0.1102794E+00
          1   -1    0    0  501    0  0.00000000000E+00  0.00000000000E+00  0.42566227293E+03  0.42566227296E+03  0.50400000000E-02 0. -1.
         -1   -1    0    0    0  501 -0.00000000000E+00 -0.00000000000E+00 -0.41985534060E+02  0.41985534362E+02  0.50400000000E-02 0.  1.
    5000001    1    1    2    0    0  0.23488621263E+02 -0.13982607580E+02  0.24702218089E+03  0.27909888301E+03  0.12700000000E+03 0.  0.
   -5000001    1    1    2    0    0 -0.23488621263E+02  0.13982607580E+02  0.13665455798E+03  0.18854892431E+03  0.12700000000E+03 0.  0.
<mgrwt>
<rscale>  0 0.26736984E+03</rscale>
<asrwt>0</asrwt>
<pdfrwt beam="1">  1        1 0.60808894E-01 0.26736984E+03</pdfrwt>
<pdfrwt beam="2">  1       -1 0.59979337E-02 0.26736984E+03</pdfrwt>
<totfact> 0.81613683E+03</totfact>
</mgrwt>
</event>
<event>
 4    1  0.6296743E-005  0.3641930E+03  0.7818608E-02  0.1056936E+00
         -1   -1    0    0    0  501 -0.00000000000E+00  0.00000000000E+00  0.21569094167E+02  0.21569094756E+02  0.50400000000E-02 0. -1.
          1   -1    0    0  501    0  0.00000000000E+00 -0.00000000000E+00 -0.15373450055E+04  0.15373450055E+04  0.50400000000E-02 0.  1.
    5000001    1    1    2    0    0 -0.18081565043E+02  0.70192372362E+02 -0.12223964461E+04  0.12311116861E+04  0.12700000000E+03 0.  0.
   -5000001    1    1    2    0    0  0.18081565043E+02 -0.70192372362E+02 -0.29337946521E+03  0.32780241418E+03  0.12700000000E+03 0.  0.
<mgrwt>
<rscale>  0 0.36419302E+03</rscale>
<asrwt>0</asrwt>
<pdfrwt beam="1">  1        1 0.21962064E+00 0.36419302E+03</pdfrwt>
<pdfrwt beam="2">  1       -1 0.30813002E-02 0.36419302E+03</pdfrwt>
<totfact> 0.29038025E+03</totfact>
</mgrwt>
</event>
<event>
 4    1  0.6296743E-005  0.4698194E+03  0.7818608E-02  0.1021971E+00
          1   -1    0    0  501    0  0.00000000000E+00  0.00000000000E+00  0.91730599475E+02  0.91730599613E+02  0.50400000000E-02 0.  1.
         -1   -1    0    0    0  501 -0.00000000000E+00 -0.00000000000E+00 -0.60157214277E+03  0.60157214279E+03  0.50400000000E-02 0. -1.
    5000001    1    1    2    0    0  0.43282050508E+02  0.18978271097E+03 -0.20460119243E+03  0.30964731748E+03  0.12700000000E+03 0.  0.
   -5000001    1    1    2    0    0 -0.43282050508E+02 -0.18978271097E+03 -0.30524035087E+03  0.38365542493E+03  0.12700000000E+03 0.  0.
<mgrwt>
<rscale>  0 0.46981943E+03</rscale>
<asrwt>0</asrwt>
<pdfrwt beam="1">  1        1 0.13104372E-01 0.46981943E+03</pdfrwt>
<pdfrwt beam="2">  1       -1 0.85938875E-01 0.46981943E+03</pdfrwt>
<totfact> 0.62624797E+02</totfact>
</mgrwt>
</event>
<event>
 4    1  0.6296743E-005  0.4057895E+03  0.7818608E-02  0.1041793E+00
          1   -1    0    0  501    0  0.00000000000E+00  0.00000000000E+00  0.12087890363E+04  0.12087890363E+04  0.50400000000E-02 0.  1.
         -1   -1    0    0    0  501 -0.00000000000E+00 -0.00000000000E+00 -0.34055809577E+02  0.34055809950E+02  0.50400000000E-02 0. -1.
    5000001    1    1    2    0    0  0.46365512265E+02 -0.13299170604E+03  0.36649067095E+03  0.41265114382E+03  0.12700000000E+03 0.  0.
   -5000001    1    1    2    0    0 -0.46365512265E+02  0.13299170604E+03  0.80824255574E+03  0.83019370241E+03  0.12700000000E+03 0.  0.
<mgrwt>
<rscale>  0 0.40578955E+03</rscale>
<asrwt>0</asrwt>
<pdfrwt beam="1">  1        1 0.17268415E+00 0.40578955E+03</pdfrwt>
<pdfrwt beam="2">  1       -1 0.48651157E-02 0.40578955E+03</pdfrwt>
<totfact> 0.23877915E+03</totfact>
</mgrwt>
</event>
<event>
 4    1  0.6296743E-005  0.4965637E+03  0.7818608E-02  0.1014680E+00
         -1   -1    0    0    0  501 -0.00000000000E+00  0.00000000000E+00  0.10344207186E+03  0.10344207198E+03  0.50400000000E-02 0. -1.
          1   -1    0    0  501    0  0.00000000000E+00 -0.00000000000E+00 -0.59592649434E+03  0.59592649436E+03  0.50400000000E-02 0.  1.
    5000001    1    1    2    0    0  0.17433830012E+03  0.11422074748E+03 -0.31039322190E+03  0.39485842304E+03  0.12700000000E+03 0.  0.
   -5000001    1    1    2    0    0 -0.17433830012E+03 -0.11422074748E+03 -0.18209120059E+03  0.30451014330E+03  0.12700000000E+03 0.  0.
<mgrwt>
<rscale>  0 0.49656368E+03</rscale>
<asrwt>0</asrwt>
<pdfrwt beam="1">  1        1 0.85132354E-01 0.49656368E+03</pdfrwt>
<pdfrwt beam="2">  1       -1 0.14777439E-01 0.49656368E+03</pdfrwt>
<totfact> 0.12985996E+03</totfact>
</mgrwt>
</event>
<event>
 4    1  0.6296743E-005  0.3213255E+03  0.7818608E-02  0.1075041E+00
          1   -1    0    0  501    0  0.00000000000E+00  0.00000000000E+00  0.40958932407E+02  0.40958932717E+02  0.50400000000E-02 0.  1.
         -1   -1    0    0    0  501 -0.00000000000E+00 -0.00000000000E+00 -0.63020478354E+03  0.63020478356E+03  0.50400000000E-02 0. -1.
    5000001    1    1    2    0    0  0.56891444593E+01  0.98201445513E+02 -0.28885522669E+03  0.33051812697E+03  0.12700000000E+03 0.  0.
   -5000001    1    1    2    0    0 -0.56891444593E+01 -0.98201445513E+02 -0.30039062443E+03  0.34064558931E+03  0.12700000000E+03 0.  0.
<mgrwt>
<rscale>  0 0.32132548E+03</rscale>
<asrwt>0</asrwt>
<pdfrwt beam="1">  1        1 0.58512765E-02 0.32132548E+03</pdfrwt>
<pdfrwt beam="2">  1       -1 0.90029249E-01 0.32132548E+03</pdfrwt>
<totfact> 0.17035563E+03</totfact>
</mgrwt>
</event>
<event>
 4    1  0.6296743E-005  0.5355129E+03  0.7818608E-02  0.1004904E+00
          1   -1    0    0  501    0  0.00000000000E+00  0.00000000000E+00  0.13736043518E+04  0.13736043518E+04  0.50400000000E-02 0. -1.
         -1   -1    0    0    0  501 -0.00000000000E+00 -0.00000000000E+00 -0.52193716344E+02  0.52193716587E+02  0.50400000000E-02 0.  1.
    5000001    1    1    2    0    0 -0.13910523045E+03  0.16447798433E+03  0.40586666381E+03  0.47671796826E+03  0.12700000000E+03 0.  0.
   -5000001    1    1    2    0    0  0.13910523045E+03 -0.16447798433E+03  0.91554397164E+03  0.94908010013E+03  0.12700000000E+03 0.  0.
<mgrwt>
<rscale>  0 0.53551290E+03</rscale>
<asrwt>0</asrwt>
<pdfrwt beam="1">  1        1 0.19622916E+00 0.53551290E+03</pdfrwt>
<pdfrwt beam="2">  1       -1 0.74562464E-02 0.53551290E+03</pdfrwt>
<totfact> 0.96232425E+02</totfact>
</mgrwt>
</event>
<event>
 4    1  0.6296743E-005  0.4245418E+03  0.7818608E-02  0.1035598E+00
         -1   -1    0    0    0  501 -0.00000000000E+00  0.00000000000E+00  0.36966751208E+02  0.36966751552E+02  0.50400000000E-02 0. -1.
          1   -1    0    0  501    0  0.00000000000E+00 -0.00000000000E+00 -0.12189043721E+04  0.12189043721E+04  0.50400000000E-02 0.  1.
    5000001    1    1    2    0    0 -0.11932809968E+03 -0.47904685998E+02 -0.92032308933E+03  0.93790065736E+03  0.12700000000E+03 0.  0.
   -5000001    1    1    2    0    0  0.11932809968E+03  0.47904685998E+02 -0.26161453151E+03  0.31797046625E+03  0.12700000000E+03 0.  0.
<mgrwt>
<rscale>  0 0.42454180E+03</rscale>
<asrwt>0</asrwt>
<pdfrwt beam="1">  1        1 0.17412917E+00 0.42454180E+03</pdfrwt>
<pdfrwt beam="2">  1       -1 0.52809652E-02 0.42454180E+03</pdfrwt>
<totfact> 0.20753370E+03</totfact>
</mgrwt>
</event>
<event>
 4    1  0.6296743E-005  0.3632576E+03  0.7818608E-02  0.1057301E+00
          1   -1    0    0  501    0  0.00000000000E+00  0.00000000000E+00  0.18943442462E+04  0.18943442462E+04  0.50400000000E-02 0.  1.
         -1   -1    0    0    0  501 -0.00000000000E+00 -0.00000000000E+00 -0.17414476614E+02  0.17414477343E+02  0.50400000000E-02 0. -1.
    5000001    1    1    2    0    0  0.11362491071E+03 -0.57539557070E+02  0.80547132832E+03  0.82530871903E+03  0.12700000000E+03 0.  0.
   -5000001    1    1    2    0    0 -0.11362491071E+03  0.57539557070E+02  0.10714584412E+04  0.10864500045E+04  0.12700000000E+03 0.  0.
<mgrwt>
<rscale>  0 0.36325756E+03</rscale>
<asrwt>0</asrwt>
<pdfrwt beam="1">  1        1 0.27062056E+00 0.36325756E+03</pdfrwt>
<pdfrwt beam="2">  1       -1 0.24877828E-02 0.36325756E+03</pdfrwt>
<totfact> 0.24026387E+03</totfact>
</mgrwt>
</event>
<event>
 4    1  0.6296743E-005  0.3468833E+03  0.7818608E-02  0.1063902E+00
          1   -1    0    0  501    0  0.00000000000E+00  0.00000000000E+00  0.64272325719E+03  0.64272325721E+03  0.50400000000E-02 0. -1.
         -1   -1    0    0    0  501 -0.00000000000E+00 -0.00000000000E+00 -0.46803978387E+02  0.46803978658E+02  0.50400000000E-02 0.  1.
    5000001    1    1    2    0    0 -0.38987102729E+01  0.10106478306E+03  0.17666090596E+03  0.23993200289E+03  0.12700000000E+03 0.  0.
   -5000001    1    1    2    0    0  0.38987102729E+01 -0.10106478306E+03  0.41925837284E+03  0.44959523298E+03  0.12700000000E+03 0.  0.
<mgrwt>
<rscale>  0 0.34688330E+03</rscale>
<asrwt>0</asrwt>
<pdfrwt beam="1">  1        1 0.91817608E-01 0.34688330E+03</pdfrwt>
<pdfrwt beam="2">  1       -1 0.66862826E-02 0.34688330E+03</pdfrwt>
<totfact> 0.40296906E+03</totfact>
</mgrwt>
</event>
<event>
 4    1  0.6296743E-005  0.5076494E+03  0.7818608E-02  0.1011801E+00
         -1   -1    0    0    0  501 -0.00000000000E+00  0.00000000000E+00  0.56227308592E+03  0.56227308595E+03  0.50400000000E-02 0. -1.
          1   -1    0    0  501    0  0.00000000000E+00 -0.00000000000E+00 -0.11458308216E+03  0.11458308227E+03  0.50400000000E-02 0.  1.
    5000001    1    1    2    0    0  0.16872795530E+03 -0.12868221419E+03  0.14760381561E+03  0.28800021099E+03  0.12700000000E+03 0.  0.
   -5000001    1    1    2    0    0 -0.16872795530E+03  0.12868221419E+03  0.30008618815E+03  0.38885595722E+03  0.12700000000E+03 0.  0.
<mgrwt>
<rscale>  0 0.50764942E+03</rscale>
<asrwt>0</asrwt>
<pdfrwt beam="1">  1        1 0.16369012E-01 0.50764942E+03</pdfrwt>
<pdfrwt beam="2">  1       -1 0.80324727E-01 0.50764942E+03</pdfrwt>
<totfact> 0.53661532E+02</totfact>
</mgrwt>
</event>
<event>
 4    1  0.6296743E-005  0.3743562E+03  0.7818608E-02  0.1053040E+00
         -1   -1    0    0    0  501 -0.00000000000E+00  0.00000000000E+00  0.50270492908E+03  0.50270492911E+03  0.50400000000E-02 0. -1.
          1   -1    0    0  501    0  0.00000000000E+00 -0.00000000000E+00 -0.69694238074E+02  0.69694238257E+02  0.50400000000E-02 0.  1.
    5000001    1    1    2    0    0 -0.79234087365E+02  0.28416195394E+02  0.50262396832E+02  0.16043948796E+03  0.12700000000E+03 0.  0.
   -5000001    1    1    2    0    0  0.79234087365E+02 -0.28416195394E+02  0.38274829418E+03  0.41195967941E+03  0.12700000000E+03 0.  0.
<mgrwt>
<rscale>  0 0.37435618E+03</rscale>
<asrwt>0</asrwt>
<pdfrwt beam="1">  1        1 0.99563201E-02 0.37435618E+03</pdfrwt>
<pdfrwt beam="2">  1       -1 0.71814987E-01 0.37435618E+03</pdfrwt>
<totfact> 0.13199876E+03</totfact>
</mgrwt>
</event>
<event>
 4    1  0.6296743E-005  0.3751639E+03  0.7818608E-02  0.1052736E+00
          1   -1    0    0  501    0  0.00000000000E+00  0.00000000000E+00  0.33440728240E+03  0.33440728244E+03  0.50400000000E-02 0.  1.
         -1   -1    0    0    0  501 -0.00000000000E+00 -0.00000000000E+00 -0.10522194880E+03  0.10522194892E+03  0.50400000000E-02 0. -1.
    5000001    1    1    2    0    0 -0.12240351197E+03  0.10168773960E+02  0.40739675727E+02  0.18131394013E+03  0.12700000000E+03 0.  0.
   -5000001    1    1    2    0    0  0.12240351197E+03 -0.10168773960E+02  0.18844565788E+03  0.25831529123E+03  0.12700000000E+03 0.  0.
<mgrwt>
<rscale>  0 0.37516389E+03</rscale>
<asrwt>0</asrwt>
<pdfrwt beam="1">  1        1 0.47772469E-01 0.37516389E+03</pdfrwt>
<pdfrwt beam="2">  1       -1 0.15031707E-01 0.37516389E+03</pdfrwt>
<totfact> 0.26987084E+03</totfact>
</mgrwt>
</event>
<event>
 4    1  0.6296743E-005  0.6543901E+03  0.7818608E-02  0.9798576E-01
         -1   -1    0    0    0  501 -0.00000000000E+00  0.00000000000E+00  0.45692205563E+03  0.45692205566E+03  0.50400000000E-02 0.  1.
          1   -1    0    0  501    0  0.00000000000E+00 -0.00000000000E+00 -0.23429951383E+03  0.23429951389E+03  0.50400000000E-02 0. -1.
    5000001    1    1    2    0    0 -0.73732722091E+02 -0.19797761813E+03 -0.11596395438E+03  0.27241198634E+03  0.12700000000E+03 0.  0.
   -5000001    1    1    2    0    0  0.73732722091E+02  0.19797761813E+03  0.33858649618E+03  0.41880958320E+03  0.12700000000E+03 0.  0.
<mgrwt>
<rscale>  0 0.65439015E+03</rscale>
<asrwt>0</asrwt>
<pdfrwt beam="1">  1        1 0.33471359E-01 0.65439015E+03</pdfrwt>
<pdfrwt beam="2">  1       -1 0.65274580E-01 0.65439015E+03</pdfrwt>
<totfact> 0.32120485E+02</totfact>
</mgrwt>
</event>
<event>
 4    1  0.6296743E-005  0.7583079E+03  0.7818608E-02  0.9622406E-01
         -1   -1    0    0    0  501 -0.00000000000E+00  0.00000000000E+00  0.88635492967E+02  0.88635493110E+02  0.50400000000E-02 0. -1.
          1   -1    0    0  501    0  0.00000000000E+00 -0.00000000000E+00 -0.16218978297E+04  0.16218978297E+04  0.50400000000E-02 0.  1.
    5000001    1    1    2    0    0 -0.13548710992E+01  0.34420957508E+03 -0.98236433255E+03  0.10486423361E+04  0.12700000000E+03 0.  0.
   -5000001    1    1    2    0    0  0.13548710992E+01 -0.34420957508E+03 -0.55089800419E+03  0.66189098670E+03  0.12700000000E+03 0.  0.
<mgrwt>
<rscale>  0 0.75830789E+03</rscale>
<asrwt>0</asrwt>
<pdfrwt beam="1">  1        1 0.23169967E+00 0.75830789E+03</pdfrwt>
<pdfrwt beam="2">  1       -1 0.12662214E-01 0.75830789E+03</pdfrwt>
<totfact> 0.28536919E+02</totfact>
</mgrwt>
</event>
<event>
 4    1  0.6296743E-005  0.3382951E+03  0.7818608E-02  0.1067524E+00
          1   -1    0    0  501    0  0.00000000000E+00  0.00000000000E+00  0.36016558257E+03  0.36016558261E+03  0.50400000000E-02 0.  1.
         -1   -1    0    0    0  501 -0.00000000000E+00 -0.00000000000E+00 -0.79438171042E+02  0.79438171202E+02  0.50400000000E-02 0. -1.
    5000001    1    1    2    0    0  0.91557865875E+02  0.54164271677E+02  0.96004723132E+02  0.19147458838E+03  0.12700000000E+03 0.  0.
   -5000001    1    1    2    0    0 -0.91557865875E+02 -0.54164271677E+02  0.18472268840E+03  0.24812916543E+03  0.12700000000E+03 0.  0.
<mgrwt>
<rscale>  0 0.33829511E+03</rscale>
<asrwt>0</asrwt>
<pdfrwt beam="1">  1        1 0.51452227E-01 0.33829511E+03</pdfrwt>
<pdfrwt beam="2">  1       -1 0.11348310E-01 0.33829511E+03</pdfrwt>
<totfact> 0.38237401E+03</totfact>
</mgrwt>
</event>
<event>
 4    1  0.6296743E-005  0.4086232E+03  0.7818608E-02  0.1040834E+00
          1   -1    0    0  501    0  0.00000000000E+00  0.00000000000E+00  0.12112348812E+04  0.12112348812E+04  0.50400000000E-02 0.  1.
         -1   -1    0    0    0  501 -0.00000000000E+00 -0.00000000000E+00 -0.34463368572E+02  0.34463368941E+02  0.50400000000E-02 0. -1.
    5000001    1    1    2    0    0 -0.68547489226E+01 -0.15358436107E+03  0.45276608939E+03  0.49473353965E+03  0.12700000000E+03 0.  0.
   -5000001    1    1    2    0    0  0.68547489226E+01  0.15358436107E+03  0.72400542324E+03  0.75096471050E+03  0.12700000000E+03 0.  0.
<mgrwt>
<rscale>  0 0.40862322E+03</rscale>
<asrwt>0</asrwt>
<pdfrwt beam="1">  1        1 0.17303356E+00 0.40862322E+03</pdfrwt>
<pdfrwt beam="2">  1       -1 0.49233381E-02 0.40862322E+03</pdfrwt>
<totfact> 0.23362506E+03</totfact>
</mgrwt>
</event>
<event>
 4    1  0.6296743E-005  0.2879297E+03  0.7818608E-02  0.1091435E+00
          1   -1    0    0  501    0  0.00000000000E+00  0.00000000000E+00  0.16833403009E+03  0.16833403017E+03  0.50400000000E-02 0. -1.
         -1   -1    0    0    0  501 -0.00000000000E+00 -0.00000000000E+00 -0.12312351395E+03  0.12312351406E+03  0.50400000000E-02 0.  1.
    5000001    1    1    2    0    0 -0.52526426562E+02 -0.42494212501E+02  0.16870712021E+02  0.14483923677E+03  0.12700000000E+03 0.  0.
   -5000001    1    1    2    0    0  0.52526426562E+02  0.42494212501E+02  0.28339804114E+02  0.14661830745E+03  0.12700000000E+03 0.  0.
<mgrwt>
<rscale>  0 0.28792970E+03</rscale>
<asrwt>0</asrwt>
<pdfrwt beam="1">  1        1 0.24047719E-01 0.28792970E+03</pdfrwt>
<pdfrwt beam="2">  1       -1 0.17589073E-01 0.28792970E+03</pdfrwt>
<totfact> 0.49768115E+03</totfact>
</mgrwt>
</event>
<event>
 4    1  0.6296743E-005  0.3204741E+03  0.7818608E-02  0.1075431E+00
          1   -1    0    0  501    0  0.00000000000E+00  0.00000000000E+00  0.55135211130E+02  0.55135211360E+02  0.50400000000E-02 0. -1.
         -1   -1    0    0    0  501 -0.00000000000E+00 -0.00000000000E+00 -0.46568991983E+03  0.46568991985E+03  0.50400000000E-02 0.  1.
    5000001    1    1    2    0    0  0.96752324343E+02  0.87328162973E+01 -0.18826050728E+03  0.24699856872E+03  0.12700000000E+03 0.  0.
   -5000001    1    1    2    0    0 -0.96752324343E+02 -0.87328162973E+01 -0.22229420142E+03  0.27382656250E+03  0.12700000000E+03 0.  0.
<mgrwt>
<rscale>  0 0.32047410E+03</rscale>
<asrwt>0</asrwt>
<pdfrwt beam="1">  1        1 0.78764590E-02 0.32047410E+03</pdfrwt>
<pdfrwt beam="2">  1       -1 0.66527129E-01 0.32047410E+03</pdfrwt>
<totfact> 0.21131057E+03</totfact>
</mgrwt>
</event>
<event>
 4    1  0.6296743E-005  0.5195192E+03  0.7818608E-02  0.1008806E+00
         -1   -1    0    0    0  501 -0.00000000000E+00  0.00000000000E+00  0.51418034197E+03  0.51418034199E+03  0.50400000000E-02 0.  1.
          1   -1    0    0  501    0  0.00000000000E+00 -0.00000000000E+00 -0.13122836010E+03  0.13122836020E+03  0.50400000000E-02 0. -1.
    5000001    1    1    2    0    0 -0.12526653344E+03  0.22279572751E+01 -0.43086840494E+02  0.18352695720E+03  0.12700000000E+03 0.  0.
   -5000001    1    1    2    0    0  0.12526653344E+03 -0.22279572751E+01  0.42603882236E+03  0.46188174499E+03  0.12700000000E+03 0.  0.
<mgrwt>
<rscale>  0 0.51951917E+03</rscale>
<asrwt>0</asrwt>
<pdfrwt beam="1">  1        1 0.18746909E-01 0.51951917E+03</pdfrwt>
<pdfrwt beam="2">  1       -1 0.73454334E-01 0.51951917E+03</pdfrwt>
<totfact> 0.53995028E+02</totfact>
</mgrwt>
</event>
<event>
 4    1  0.6296743E-005  0.7613161E+03  0.7818608E-02  0.9617763E-01
         -1   -1    0    0    0  501 -0.00000000000E+00  0.00000000000E+00  0.12531325963E+03  0.12531325973E+03  0.50400000000E-02 0.  1.
          1   -1    0    0  501    0  0.00000000000E+00 -0.00000000000E+00 -0.11563065708E+04  0.11563065708E+04  0.50400000000E-02 0. -1.
    5000001    1    1    2    0    0  0.17089343820E+03 -0.28853490042E+03 -0.73051835469E+03  0.81378315448E+03  0.12700000000E+03 0.  0.
   -5000001    1    1    2    0    0 -0.17089343820E+03  0.28853490042E+03 -0.30047495644E+03  0.46783667602E+03  0.12700000000E+03 0.  0.
<mgrwt>
<rscale>  0 0.76131609E+03</rscale>
<asrwt>0</asrwt>
<pdfrwt beam="1">  1        1 0.16518665E+00 0.76131609E+03</pdfrwt>
<pdfrwt beam="2">  1       -1 0.17901895E-01 0.76131609E+03</pdfrwt>
<totfact> 0.32991150E+02</totfact>
</mgrwt>
</event>
<event>
 4    1  0.6296743E-005  0.5808277E+03  0.7818608E-02  0.9946001E-01
          1   -1    0    0  501    0  0.00000000000E+00  0.00000000000E+00  0.96917702111E+03  0.96917702112E+03  0.50400000000E-02 0.  1.
         -1   -1    0    0    0  501 -0.00000000000E+00 -0.00000000000E+00 -0.87022505254E+02  0.87022505400E+02  0.50400000000E-02 0. -1.
    5000001    1    1    2    0    0 -0.24226893704E+03  0.79786088288E+02  0.54315557315E+03  0.61335718336E+03  0.12700000000E+03 0.  0.
   -5000001    1    1    2    0    0  0.24226893704E+03 -0.79786088288E+02  0.33899894271E+03  0.44284234316E+03  0.12700000000E+03 0.  0.
<mgrwt>
<rscale>  0 0.58082773E+03</rscale>
<asrwt>0</asrwt>
<pdfrwt beam="1">  1        1 0.13845386E+00 0.58082773E+03</pdfrwt>
<pdfrwt beam="2">  1       -1 0.12431786E-01 0.58082773E+03</pdfrwt>
<totfact> 0.82036675E+02</totfact>
</mgrwt>
</event>
<event>
 4    1  0.6296743E-005  0.5358165E+03  0.7818608E-02  0.1004831E+00
         -1   -1    0    0    0  501 -0.00000000000E+00  0.00000000000E+00  0.81367174251E+02  0.81367174407E+02  0.50400000000E-02 0. -1.
          1   -1    0    0  501    0  0.00000000000E+00 -0.00000000000E+00 -0.88211055674E+03  0.88211055675E+03  0.50400000000E-02 0.  1.
    5000001    1    1    2    0    0 -0.78078690532E+02 -0.18460100221E+03 -0.62403730938E+03  0.66762667369E+03  0.12700000000E+03 0.  0.
   -5000001    1    1    2    0    0  0.78078690532E+02  0.18460100221E+03 -0.17670607311E+03  0.29585105746E+03  0.12700000000E+03 0.  0.
<mgrwt>
<rscale>  0 0.53581655E+03</rscale>
<asrwt>0</asrwt>
<pdfrwt beam="1">  1        1 0.12601579E+00 0.53581655E+03</pdfrwt>
<pdfrwt beam="2">  1       -1 0.11623883E-01 0.53581655E+03</pdfrwt>
<totfact> 0.10660133E+03</totfact>
</mgrwt>
</event>
<event>
 4    1  0.6296743E-005  0.4842368E+03  0.7818608E-02  0.1017977E+00
          1   -1    0    0  501    0  0.00000000000E+00  0.00000000000E+00  0.41262347356E+03  0.41262347359E+03  0.50400000000E-02 0. -1.
         -1   -1    0    0    0  501 -0.00000000000E+00 -0.00000000000E+00 -0.14206975433E+03  0.14206975442E+03  0.50400000000E-02 0.  1.
    5000001    1    1    2    0    0 -0.13366006311E+03  0.15685136315E+03  0.12955475096E+03  0.27455563387E+03  0.12700000000E+03 0.  0.
   -5000001    1    1    2    0    0  0.13366006311E+03 -0.15685136315E+03  0.14099896827E+03  0.28013759414E+03  0.12700000000E+03 0.  0.
<mgrwt>
<rscale>  0 0.48423678E+03</rscale>
<asrwt>0</asrwt>
<pdfrwt beam="1">  1        1 0.58946211E-01 0.48423678E+03</pdfrwt>
<pdfrwt beam="2">  1       -1 0.20295679E-01 0.48423678E+03</pdfrwt>
<totfact> 0.12665088E+03</totfact>
</mgrwt>
</event>
<event>
 4    1  0.6296743E-005  0.4908464E+03  0.7818608E-02  0.1016196E+00
          1   -1    0    0  501    0  0.00000000000E+00  0.00000000000E+00  0.25993662158E+04  0.25993662158E+04  0.50400000000E-02 0.  1.
         -1   -1    0    0    0  501 -0.00000000000E+00 -0.00000000000E+00 -0.23172015703E+02  0.23172016251E+02  0.50400000000E-02 0. -1.
    5000001    1    1    2    0    0 -0.32240835120E+02 -0.20719493666E+03  0.13500244546E+04  0.13721021249E+04  0.12700000000E+03 0.  0.
   -5000001    1    1    2    0    0  0.32240835120E+02  0.20719493666E+03  0.12261697455E+04  0.12504361071E+04  0.12700000000E+03 0.  0.
<mgrwt>
<rscale>  0 0.49084643E+03</rscale>
<asrwt>0</asrwt>
<pdfrwt beam="1">  1        1 0.37133796E+00 0.49084643E+03</pdfrwt>
<pdfrwt beam="2">  1       -1 0.33102887E-02 0.49084643E+03</pdfrwt>
<totfact> 0.57461033E+02</totfact>
</mgrwt>
</event>
<event>
 4    1  0.6296743E-005  0.3729049E+03  0.7818608E-02  0.1053588E+00
          1   -1    0    0  501    0  0.00000000000E+00  0.00000000000E+00  0.54139315464E+02  0.54139315698E+02  0.50400000000E-02 0.  1.
         -1   -1    0    0    0  501 -0.00000000000E+00 -0.00000000000E+00 -0.64213062853E+03  0.64213062855E+03  0.50400000000E-02 0. -1.
    5000001    1    1    2    0    0 -0.11391268985E+03  0.75208406103E+02 -0.29070422348E+03  0.34535539782E+03  0.12700000000E+03 0.  0.
   -5000001    1    1    2    0    0  0.11391268985E+03 -0.75208406103E+02 -0.29728708959E+03  0.35091454642E+03  0.12700000000E+03 0.  0.
<mgrwt>
<rscale>  0 0.37290488E+03</rscale>
<asrwt>0</asrwt>
<pdfrwt beam="1">  1        1 0.77341883E-02 0.37290488E+03</pdfrwt>
<pdfrwt beam="2">  1       -1 0.91732942E-01 0.37290488E+03</pdfrwt>
<totfact> 0.11146712E+03</totfact>
</mgrwt>
</event>
<event>
 4    1  0.6296743E-005  0.5743673E+03  0.7818608E-02  0.9960061E-01
         -1   -1    0    0    0  501 -0.00000000000E+00  0.00000000000E+00  0.10118591534E+03  0.10118591546E+03  0.50400000000E-02 0.  1.
          1   -1    0    0  501    0  0.00000000000E+00 -0.00000000000E+00 -0.81507844947E+03  0.81507844949E+03  0.50400000000E-02 0. -1.
    5000001    1    1    2    0    0  0.58937654954E+02 -0.24197009548E+03 -0.25206745705E+03  0.37641755695E+03  0.12700000000E+03 0.  0.
   -5000001    1    1    2    0    0 -0.58937654954E+02  0.24197009548E+03 -0.46182507709E+03  0.53984680800E+03  0.12700000000E+03 0.  0.
<mgrwt>
<rscale>  0 0.57436734E+03</rscale>
<asrwt>0</asrwt>
<pdfrwt beam="1">  1        1 0.11643977E+00 0.57436734E+03</pdfrwt>
<pdfrwt beam="2">  1       -1 0.14455131E-01 0.57436734E+03</pdfrwt>
<totfact> 0.85069096E+02</totfact>
</mgrwt>
</event>
<event>
 4    1  0.6296743E-005  0.2901897E+03  0.7818608E-02  0.1090250E+00
         -1   -1    0    0    0  501 -0.00000000000E+00  0.00000000000E+00  0.35947541497E+02  0.35947541850E+02  0.50400000000E-02 0. -1.
          1   -1    0    0  501    0  0.00000000000E+00 -0.00000000000E+00 -0.58564541442E+03  0.58564541444E+03  0.50400000000E-02 0.  1.
    5000001    1    1    2    0    0  0.63731151451E+02  0.26986093611E+02 -0.25008989011E+03  0.28890112850E+03  0.12700000000E+03 0.  0.
   -5000001    1    1    2    0    0 -0.63731151451E+02 -0.26986093611E+02 -0.29960798281E+03  0.33269182779E+03  0.12700000000E+03 0.  0.
<mgrwt>
<rscale>  0 0.29018968E+03</rscale>
<asrwt>0</asrwt>
<pdfrwt beam="1">  1        1 0.83663625E-01 0.29018968E+03</pdfrwt>
<pdfrwt beam="2">  1       -1 0.51353635E-02 0.29018968E+03</pdfrwt>
<totfact> 0.67992248E+03</totfact>
</mgrwt>
</event>
<event>
 4    1  0.6296743E-005  0.4534917E+03  0.7818608E-02  0.1026686E+00
          1   -1    0    0  501    0  0.00000000000E+00  0.00000000000E+00  0.19492076760E+04  0.19492076760E+04  0.50400000000E-02 0. -1.
         -1   -1    0    0    0  501 -0.00000000000E+00 -0.00000000000E+00 -0.26376707870E+02  0.26376708351E+02  0.50400000000E-02 0.  1.
    5000001    1    1    2    0    0 -0.12057631437E+03  0.14396178474E+03  0.94143355040E+03  0.96834382988E+03  0.12700000000E+03 0.  0.
   -5000001    1    1    2    0    0  0.12057631437E+03 -0.14396178474E+03  0.98139741768E+03  0.10072405544E+04  0.12700000000E+03 0.  0.
<mgrwt>
<rscale>  0 0.45349171E+03</rscale>
<asrwt>0</asrwt>
<pdfrwt beam="1">  1        1 0.27845818E+00 0.45349171E+03</pdfrwt>
<pdfrwt beam="2">  1       -1 0.37681020E-02 0.45349171E+03</pdfrwt>
<totfact> 0.11917828E+03</totfact>
</mgrwt>
</event>
<event>
 4    1  0.6296743E-005  0.7095917E+03  0.7818608E-02  0.9700968E-01
          1   -1    0    0  501    0  0.00000000000E+00  0.00000000000E+00  0.17652676599E+03  0.17652676607E+03  0.50400000000E-02 0.  1.
         -1   -1    0    0    0  501 -0.00000000000E+00 -0.00000000000E+00 -0.71309349098E+03  0.71309349100E+03  0.50400000000E-02 0. -1.
    5000001    1    1    2    0    0  0.14771408238E+03 -0.28553507339E+03 -0.16797612709E+03  0.38431069142E+03  0.12700000000E+03 0.  0.
   -5000001    1    1    2    0    0 -0.14771408238E+03  0.28553507339E+03 -0.36859059790E+03  0.50530956564E+03  0.12700000000E+03 0.  0.
<mgrwt>
<rscale>  0 0.70959168E+03</rscale>
<asrwt>0</asrwt>
<pdfrwt beam="1">  1        1 0.25218110E-01 0.70959168E+03</pdfrwt>
<pdfrwt beam="2">  1       -1 0.10187050E+00 0.70959168E+03</pdfrwt>
<totfact> 0.17888875E+02</totfact>
</mgrwt>
</event>
<event>
 4    1  0.6296743E-005  0.2934287E+03  0.7818608E-02  0.1088572E+00
          1   -1    0    0  501    0  0.00000000000E+00  0.00000000000E+00  0.45811082379E+02  0.45811082656E+02  0.50400000000E-02 0.  1.
         -1   -1    0    0    0  501 -0.00000000000E+00 -0.00000000000E+00 -0.46986659759E+03  0.46986659762E+03  0.50400000000E-02 0. -1.
    5000001    1    1    2    0    0 -0.27268776506E+02  0.14872348450E+02 -0.32901609141E+03  0.35404146838E+03  0.12700000000E+03 0.  0.
   -5000001    1    1    2    0    0  0.27268776506E+02 -0.14872348450E+02 -0.95039423798E+02  0.16163621190E+03  0.12700000000E+03 0.  0.
<mgrwt>
<rscale>  0 0.29342868E+03</rscale>
<asrwt>0</asrwt>
<pdfrwt beam="1">  1        1 0.65444406E-02 0.29342868E+03</pdfrwt>
<pdfrwt beam="2">  1       -1 0.67123797E-01 0.29342868E+03</pdfrwt>
<totfact> 0.26715018E+03</totfact>
</mgrwt>
</event>
<event>
 4    1  0.6296743E-005  0.3689949E+03  0.7818608E-02  0.1055078E+00
          1   -1    0    0  501    0  0.00000000000E+00  0.00000000000E+00  0.14772918846E+03  0.14772918855E+03  0.50400000000E-02 0.  1.
         -1   -1    0    0    0  501 -0.00000000000E+00 -0.00000000000E+00 -0.23041689740E+03  0.23041689745E+03  0.50400000000E-02 0. -1.
    5000001    1    1    2    0    0 -0.83685758841E+02  0.58180862312E+01  0.65516567268E+02  0.16570629725E+03  0.12700000000E+03 0.  0.
   -5000001    1    1    2    0    0  0.83685758841E+02 -0.58180862312E+01 -0.14820427621E+03  0.21243978875E+03  0.12700000000E+03 0.  0.
<mgrwt>
<rscale>  0 0.36899486E+03</rscale>
<asrwt>0</asrwt>
<pdfrwt beam="1">  1        1 0.21104170E-01 0.36899486E+03</pdfrwt>
<pdfrwt beam="2">  1       -1 0.32916699E-01 0.36899486E+03</pdfrwt>
<totfact> 0.20829117E+03</totfact>
</mgrwt>
</event>
<event>
 4    1  0.6296743E-005  0.5911920E+03  0.7818608E-02  0.9923850E-01
          1   -1    0    0  501    0  0.00000000000E+00  0.00000000000E+00  0.22560790934E+03  0.22560790939E+03  0.50400000000E-02 0.  1.
         -1   -1    0    0    0  501 -0.00000000000E+00 -0.00000000000E+00 -0.38729582683E+03  0.38729582686E+03  0.50400000000E-02 0. -1.
    5000001    1    1    2    0    0  0.24956746469E+03  0.93677977809E+02 -0.95078422140E+02  0.31020701042E+03  0.12700000000E+03 0.  0.
   -5000001    1    1    2    0    0 -0.24956746469E+03 -0.93677977809E+02 -0.66609495352E+02  0.30269672583E+03  0.12700000000E+03 0.  0.
<mgrwt>
<rscale>  0 0.59119202E+03</rscale>
<asrwt>0</asrwt>
<pdfrwt beam="1">  1        1 0.32229702E-01 0.59119202E+03</pdfrwt>
<pdfrwt beam="2">  1       -1 0.55327975E-01 0.59119202E+03</pdfrwt>
<totfact> 0.46755407E+02</totfact>
</mgrwt>
</event>
<event>
 4    1  0.6296743E-005  0.4961054E+03  0.7818608E-02  0.1014800E+00
          1   -1    0    0  501    0  0.00000000000E+00  0.00000000000E+00  0.11876807256E+04  0.11876807256E+04  0.50400000000E-02 0.  1.
         -1   -1    0    0    0  501 -0.00000000000E+00 -0.00000000000E+00 -0.51806971588E+02  0.51806971833E+02  0.50400000000E-02 0. -1.
    5000001    1    1    2    0    0  0.11732605154E+03 -0.14621670473E+03  0.82096340266E+03  0.85161883236E+03  0.12700000000E+03 0.  0.
   -5000001    1    1    2    0    0 -0.11732605154E+03  0.14621670473E+03  0.31491035132E+03  0.38786886506E+03  0.12700000000E+03 0.  0.
<mgrwt>
<rscale>  0 0.49610540E+03</rscale>
<asrwt>0</asrwt>
<pdfrwt beam="1">  1        1 0.16966869E+00 0.49610540E+03</pdfrwt>
<pdfrwt beam="2">  1       -1 0.74009953E-02 0.49610540E+03</pdfrwt>
<totfact> 0.12970212E+03</totfact>
</mgrwt>
</event>
<event>
 4    1  0.6296743E-005  0.2955752E+03  0.7818608E-02  0.1087474E+00
          1   -1    0    0  501    0  0.00000000000E+00  0.00000000000E+00  0.56525615723E+03  0.56525615725E+03  0.50400000000E-02 0. -1.
         -1   -1    0    0    0  501 -0.00000000000E+00 -0.00000000000E+00 -0.38639419829E+02  0.38639420158E+02  0.50400000000E-02 0.  1.
    5000001    1    1    2    0    0  0.25208269936E+02 -0.50940757164E+02  0.36509087337E+03  0.39070546891E+03  0.12700000000E+03 0.  0.
   -5000001    1    1    2    0    0 -0.25208269936E+02  0.50940757164E+02  0.16152586403E+03  0.21319010850E+03  0.12700000000E+03 0.  0.
<mgrwt>
<rscale>  0 0.29557517E+03</rscale>
<asrwt>0</asrwt>
<pdfrwt beam="1">  1        1 0.80750879E-01 0.29557517E+03</pdfrwt>
<pdfrwt beam="2">  1       -1 0.55199172E-02 0.29557517E+03</pdfrwt>
<totfact> 0.64020116E+03</totfact>
</mgrwt>
</event>
<event>
 4    1  0.6296743E-005  0.3622175E+03  0.7818608E-02  0.1057709E+00
          1   -1    0    0  501    0  0.00000000000E+00  0.00000000000E+00  0.18631961466E+03  0.18631961473E+03  0.50400000000E-02 0. -1.
         -1   -1    0    0    0  501 -0.00000000000E+00 -0.00000000000E+00 -0.17604363880E+03  0.17604363887E+03  0.50400000000E-02 0.  1.
    5000001    1    1    2    0    0  0.68180052956E+02  0.10698398038E+03  0.29174541668E+02  0.18186326061E+03  0.12700000000E+03 0.  0.
   -5000001    1    1    2    0    0 -0.68180052956E+02 -0.10698398038E+03 -0.18898565811E+02  0.18049999299E+03  0.12700000000E+03 0.  0.
<mgrwt>
<rscale>  0 0.36221752E+03</rscale>
<asrwt>0</asrwt>
<pdfrwt beam="1">  1        1 0.26617088E-01 0.36221752E+03</pdfrwt>
<pdfrwt beam="2">  1       -1 0.25149091E-01 0.36221752E+03</pdfrwt>
<totfact> 0.24439075E+03</totfact>
</mgrwt>
</event>
<event>
 4    1  0.6296743E-005  0.4466996E+03  0.7818608E-02  0.1028711E+00
         -1   -1    0    0    0  501 -0.00000000000E+00  0.00000000000E+00  0.68672208451E+02  0.68672208636E+02  0.50400000000E-02 0. -1.
          1   -1    0    0  501    0  0.00000000000E+00 -0.00000000000E+00 -0.72642387984E+03  0.72642387985E+03  0.50400000000E-02 0.  1.
    5000001    1    1    2    0    0  0.39378468976E+02 -0.85739925668E+02 -0.48265688833E+02  0.16541032432E+03  0.12700000000E+03 0.  0.
   -5000001    1    1    2    0    0 -0.39378468976E+02  0.85739925668E+02 -0.60948598255E+03  0.62968576417E+03  0.12700000000E+03 0.  0.
<mgrwt>
<rscale>  0 0.44669960E+03</rscale>
<asrwt>0</asrwt>
<pdfrwt beam="1">  1        1 0.10377484E+00 0.44669960E+03</pdfrwt>
<pdfrwt beam="2">  1       -1 0.98103159E-02 0.44669960E+03</pdfrwt>
<totfact> 0.18753439E+03</totfact>
</mgrwt>
</event>
<event>
 4    1  0.6296743E-005  0.3526613E+03  0.7818608E-02  0.1061528E+00
         -1   -1    0    0    0  501 -0.00000000000E+00  0.00000000000E+00  0.94473425404E+01  0.94473438848E+01  0.50400000000E-02 0.  1.
          1   -1    0    0  501    0  0.00000000000E+00 -0.00000000000E+00 -0.32911360056E+04  0.32911360056E+04  0.50400000000E-02 0. -1.
    5000001    1    1    2    0    0  0.89064220856E+02 -0.53195305177E+02 -0.10342119418E+04  0.10471320435E+04  0.12700000000E+03 0.  0.
   -5000001    1    1    2    0    0 -0.89064220856E+02  0.53195305177E+02 -0.22474767212E+04  0.22534513060E+04  0.12700000000E+03 0.  0.
<mgrwt>
<rscale>  0 0.35266126E+03</rscale>
<asrwt>0</asrwt>
<pdfrwt beam="1">  1        1 0.47016155E+00 0.35266126E+03</pdfrwt>
<pdfrwt beam="2">  1       -1 0.13496226E-02 0.35266126E+03</pdfrwt>
<totfact> 0.79645389E+02</totfact>
</mgrwt>
</event>
<event>
 4    1  0.6296743E-005  0.4129631E+03  0.7818608E-02  0.1039381E+00
         -1   -1    0    0    0  501 -0.00000000000E+00  0.00000000000E+00  0.11553096940E+03  0.11553096951E+03  0.50400000000E-02 0. -1.
          1   -1    0    0  501    0  0.00000000000E+00 -0.00000000000E+00 -0.36903202285E+03  0.36903202289E+03  0.50400000000E-02 0.  1.
    5000001    1    1    2    0    0 -0.11079720549E+03 -0.19876939625E+02 -0.26476383400E+03  0.31448370589E+03  0.12700000000E+03 0.  0.
   -5000001    1    1    2    0    0  0.11079720549E+03  0.19876939625E+02  0.11262780552E+02  0.17007928651E+03  0.12700000000E+03 0.  0.
<mgrwt>
<rscale>  0 0.41296308E+03</rscale>
<asrwt>0</asrwt>
<pdfrwt beam="1">  1        1 0.52718860E-01 0.41296308E+03</pdfrwt>
<pdfrwt beam="2">  1       -1 0.16504424E-01 0.41296308E+03</pdfrwt>
<totfact> 0.20498802E+03</totfact>
</mgrwt>
</event>
<event>
 4    1  0.6296743E-005  0.3968934E+03  0.7818608E-02  0.1044861E+00
          1   -1    0    0  501    0  0.00000000000E+00  0.00000000000E+00  0.31441883217E+04  0.31441883217E+04  0.50400000000E-02 0.  1.
         -1   -1    0    0    0  501 -0.00000000000E+00 -0.00000000000E+00 -0.12525039594E+02  0.12525040608E+02  0.50400000000E-02 0. -1.
    5000001    1    1    2    0    0  0.68744575044E+02  0.11642935516E+03  0.10050933728E+04  0.10220681482E+04  0.12700000000E+03 0.  0.
   -5000001    1    1    2    0    0 -0.68744575044E+02 -0.11642935516E+03  0.21265699093E+04  0.21346452142E+04  0.12700000000E+03 0.  0.
<mgrwt>
<rscale>  0 0.39689336E+03</rscale>
<asrwt>0</asrwt>
<pdfrwt beam="1">  1        1 0.44917009E+00 0.39689336E+03</pdfrwt>
<pdfrwt beam="2">  1       -1 0.17892901E-02 0.39689336E+03</pdfrwt>
<totfact> 0.65335583E+02</totfact>
</mgrwt>
</event>
<event>
 4    1  0.6296743E-005  0.3888873E+03  0.7818608E-02  0.1047697E+00
          1   -1    0    0  501    0  0.00000000000E+00  0.00000000000E+00  0.13349749931E+04  0.13349749931E+04  0.50400000000E-02 0.  1.
         -1   -1    0    0    0  501 -0.00000000000E+00 -0.00000000000E+00 -0.28321385947E+02  0.28321386396E+02  0.50400000000E-02 0. -1.
    5000001    1    1    2    0    0  0.13648179258E+03 -0.24131462026E+02  0.82754425630E+03  0.84862718746E+03  0.12700000000E+03 0.  0.
   -5000001    1    1    2    0    0 -0.13648179258E+03  0.24131462026E+02  0.47910935086E+03  0.51466919205E+03  0.12700000000E+03 0.  0.
<mgrwt>
<rscale>  0 0.38888735E+03</rscale>
<asrwt>0</asrwt>
<pdfrwt beam="1">  1        1 0.19071075E+00 0.38888735E+03</pdfrwt>
<pdfrwt beam="2">  1       -1 0.40459116E-02 0.38888735E+03</pdfrwt>
<totfact> 0.26015032E+03</totfact>
</mgrwt>
</event>
<event>
 4    1  0.6296743E-005  0.5769064E+03  0.7818608E-02  0.9954511E-01
         -1   -1    0    0    0  501 -0.00000000000E+00  0.00000000000E+00  0.53854852374E+02  0.53854852610E+02  0.50400000000E-02 0. -1.
          1   -1    0    0  501    0  0.00000000000E+00 -0.00000000000E+00 -0.15449905997E+04  0.15449905997E+04  0.50400000000E-02 0.  1.
    5000001    1    1    2    0    0 -0.41611889248E+02 -0.18702233582E+03 -0.12285204719E+04  0.12498401711E+04  0.12700000000E+03 0.  0.
   -5000001    1    1    2    0    0  0.41611889248E+02  0.18702233582E+03 -0.26261527539E+03  0.34900528118E+03  0.12700000000E+03 0.  0.
<mgrwt>
<rscale>  0 0.57690637E+03</rscale>
<asrwt>0</asrwt>
<pdfrwt beam="1">  1        1 0.22071292E+00 0.57690637E+03</pdfrwt>
<pdfrwt beam="2">  1       -1 0.76935513E-02 0.57690637E+03</pdfrwt>
<totfact> 0.70947243E+02</totfact>
</mgrwt>
</event>
<event>
 4    1  0.6296743E-005  0.5779847E+03  0.7818608E-02  0.9952164E-01
         -1   -1    0    0    0  501 -0.00000000000E+00  0.00000000000E+00  0.20189275091E+03  0.20189275098E+03  0.50400000000E-02 0. -1.
          1   -1    0    0  501    0  0.00000000000E+00 -0.00000000000E+00 -0.41366798821E+03  0.41366798824E+03  0.50400000000E-02 0.  1.
    5000001    1    1    2    0    0 -0.24283869121E+03 -0.19129232691E+02 -0.10326814176E+02  0.27490398430E+03  0.12700000000E+03 0.  0.
   -5000001    1    1    2    0    0  0.24283869121E+03  0.19129232691E+02 -0.20144842312E+03  0.34065675492E+03  0.12700000000E+03 0.  0.
<mgrwt>
<rscale>  0 0.57798466E+03</rscale>
<asrwt>0</asrwt>
<pdfrwt beam="1">  1        1 0.59095427E-01 0.57798466E+03</pdfrwt>
<pdfrwt beam="2">  1       -1 0.28841822E-01 0.57798466E+03</pdfrwt>
<totfact> 0.69703078E+02</totfact>
</mgrwt>
</event>
<event>
 4    1  0.6296743E-005  0.6866222E+03  0.7818608E-02  0.9740388E-01
          1   -1    0    0  501    0  0.00000000000E+00  0.00000000000E+00  0.22127968097E+04  0.22127968098E+04  0.50400000000E-02 0.  1.
         -1   -1    0    0    0  501 -0.00000000000E+00 -0.00000000000E+00 -0.53264042309E+02  0.53264042547E+02  0.50400000000E-02 0. -1.
    5000001    1    1    2    0    0  0.99467411659E+02  0.30286338092E+03  0.10446046564E+04  0.10995216604E+04  0.12700000000E+03 0.  0.
   -5000001    1    1    2    0    0 -0.99467411659E+02 -0.30286338092E+03  0.11149281110E+04  0.11665391919E+04  0.12700000000E+03 0.  0.
<mgrwt>
<rscale>  0 0.68662218E+03</rscale>
<asrwt>0</asrwt>
<pdfrwt beam="1">  1        1 0.31611385E+00 0.68662218E+03</pdfrwt>
<pdfrwt beam="2">  1       -1 0.76091485E-02 0.68662218E+03</pdfrwt>
<totfact> 0.27481389E+02</totfact>
</mgrwt>
</event>
<event>
 4    1  0.6296743E-005  0.3174176E+03  0.7818608E-02  0.1076844E+00
          1   -1    0    0  501    0  0.00000000000E+00  0.00000000000E+00  0.27650781231E+02  0.27650781690E+02  0.50400000000E-02 0. -1.
         -1   -1    0    0    0  501 -0.00000000000E+00 -0.00000000000E+00 -0.91094993727E+03  0.91094993728E+03  0.50400000000E-02 0.  1.
    5000001    1    1    2    0    0 -0.62179890940E+02  0.86684264586E+01 -0.23010594989E+03  0.27022070356E+03  0.12700000000E+03 0.  0.
   -5000001    1    1    2    0    0  0.62179890940E+02 -0.86684264586E+01 -0.65319320615E+03  0.66838001542E+03  0.12700000000E+03 0.  0.
<mgrwt>
<rscale>  0 0.31741757E+03</rscale>
<asrwt>0</asrwt>
<pdfrwt beam="1">  1        1 0.39501122E-02 0.31741757E+03</pdfrwt>
<pdfrwt beam="2">  1       -1 0.13013569E+00 0.31741757E+03</pdfrwt>
<totfact> 0.12600811E+03</totfact>
</mgrwt>
</event>
<event>
 4    1  0.6296743E-005  0.5403435E+03  0.7818608E-02  0.1003754E+00
          1   -1    0    0  501    0  0.00000000000E+00  0.00000000000E+00  0.31218094615E+03  0.31218094619E+03  0.50400000000E-02 0. -1.
         -1   -1    0    0    0  501 -0.00000000000E+00 -0.00000000000E+00 -0.23381557254E+03  0.23381557259E+03  0.50400000000E-02 0.  1.
    5000001    1    1    2    0    0  0.66119454599E+02  0.20919093258E+03  0.13360081687E+03  0.28654983304E+03  0.12700000000E+03 0.  0.
   -5000001    1    1    2    0    0 -0.66119454599E+02 -0.20919093258E+03 -0.55235443255E+02  0.25944668574E+03  0.12700000000E+03 0.  0.
<mgrwt>
<rscale>  0 0.54034347E+03</rscale>
<asrwt>0</asrwt>
<pdfrwt beam="1">  1        1 0.44597278E-01 0.54034347E+03</pdfrwt>
<pdfrwt beam="2">  1       -1 0.33402225E-01 0.54034347E+03</pdfrwt>
<totfact> 0.77785165E+02</totfact>
</mgrwt>
</event>
<event>
 4    1  0.6296743E-005  0.8311285E+03  0.7818608E-02  0.9516022E-01
          1   -1    0    0  501    0  0.00000000000E+00  0.00000000000E+00  0.35197548827E+04  0.35197548827E+04  0.50400000000E-02 0.  1.
         -1   -1    0    0    0  501 -0.00000000000E+00 -0.00000000000E+00 -0.49064107728E+02  0.49064107987E+02  0.50400000000E-02 0. -1.
    5000001    1    1    2    0    0  0.14883377251E+03  0.36296404862E+03  0.19572322427E+04  0.20001953515E+04  0.12700000000E+03 0.  0.
   -5000001    1    1    2    0    0 -0.14883377251E+03 -0.36296404862E+03  0.15134585323E+04  0.15686236392E+04  0.12700000000E+03 0.  0.
<mgrwt>
<rscale>  0 0.83112847E+03</rscale>
<asrwt>0</asrwt>
<pdfrwt beam="1">  1        1 0.50282238E+00 0.83112847E+03</pdfrwt>
<pdfrwt beam="2">  1       -1 0.70091547E-02 0.83112847E+03</pdfrwt>
<totfact> 0.43934914E+01</totfact>
</mgrwt>
</event>
<event>
 4    1  0.6296743E-005  0.3075033E+03  0.7818608E-02  0.1081549E+00
         -1   -1    0    0    0  501 -0.00000000000E+00  0.00000000000E+00  0.12485286661E+03  0.12485286671E+03  0.50400000000E-02 0.  1.
          1   -1    0    0  501    0  0.00000000000E+00 -0.00000000000E+00 -0.18933939761E+03  0.18933939768E+03  0.50400000000E-02 0. -1.
    5000001    1    1    2    0    0 -0.33408484477E+02  0.40351634559E+02 -0.10278257444E+03  0.17157400402E+03  0.12700000000E+03 0.  0.
   -5000001    1    1    2    0    0  0.33408484477E+02 -0.40351634559E+02  0.38296043442E+02  0.14261826037E+03  0.12700000000E+03 0.  0.
<mgrwt>
<rscale>  0 0.30750328E+03</rscale>
<asrwt>0</asrwt>
<pdfrwt beam="1">  1        1 0.27048485E-01 0.30750328E+03</pdfrwt>
<pdfrwt beam="2">  1       -1 0.17836124E-01 0.30750328E+03</pdfrwt>
<totfact> 0.41968635E+03</totfact>
</mgrwt>
</event>
<event>
 4    1  0.6296743E-005  0.3209721E+03  0.7818608E-02  0.1075203E+00
          1   -1    0    0  501    0  0.00000000000E+00  0.00000000000E+00  0.73296250100E+03  0.73296250101E+03  0.50400000000E-02 0.  1.
         -1   -1    0    0    0  501 -0.00000000000E+00 -0.00000000000E+00 -0.35139275031E+02  0.35139275393E+02  0.50400000000E-02 0. -1.
    5000001    1    1    2    0    0  0.57305457428E+02 -0.39106383116E+02  0.51494066084E+03  0.53488887522E+03  0.12700000000E+03 0.  0.
   -5000001    1    1    2    0    0 -0.57305457428E+02  0.39106383116E+02  0.18288256513E+03  0.23321290118E+03  0.12700000000E+03 0.  0.
<mgrwt>
<rscale>  0 0.32097209E+03</rscale>
<asrwt>0</asrwt>
<pdfrwt beam="1">  1        1 0.10470893E+00 0.32097209E+03</pdfrwt>
<pdfrwt beam="2">  1       -1 0.50198965E-02 0.32097209E+03</pdfrwt>
<totfact> 0.51503908E+03</totfact>
</mgrwt>
</event>
<event>
 4    1  0.6296743E-005  0.3573017E+03  0.7818608E-02  0.1059657E+00
         -1   -1    0    0    0  501 -0.00000000000E+00  0.00000000000E+00  0.42073628572E+02  0.42073628874E+02  0.50400000000E-02 0. -1.
          1   -1    0    0  501    0  0.00000000000E+00 -0.00000000000E+00 -0.75857793284E+03  0.75857793286E+03  0.50400000000E-02 0.  1.
    5000001    1    1    2    0    0  0.50608785046E+02  0.10141883129E+03 -0.23674849099E+03  0.29159196911E+03  0.12700000000E+03 0.  0.
   -5000001    1    1    2    0    0 -0.50608785046E+02 -0.10141883129E+03 -0.47975581328E+03  0.50905959262E+03  0.12700000000E+03 0.  0.
<mgrwt>
<rscale>  0 0.35730170E+03</rscale>
<asrwt>0</asrwt>
<pdfrwt beam="1">  1        1 0.10836827E+00 0.35730170E+03</pdfrwt>
<pdfrwt beam="2">  1       -1 0.60105188E-02 0.35730170E+03</pdfrwt>
<totfact> 0.37370250E+03</totfact>
</mgrwt>
</event>
<event>
 4    1  0.6296743E-005  0.4636018E+03  0.7818608E-02  0.1023742E+00
         -1   -1    0    0    0  501 -0.00000000000E+00  0.00000000000E+00  0.27897315733E+02  0.27897316189E+02  0.50400000000E-02 0. -1.
          1   -1    0    0  501    0  0.00000000000E+00 -0.00000000000E+00 -0.19260509461E+04  0.19260509461E+04  0.50400000000E-02 0.  1.
    5000001    1    1    2    0    0  0.16950061988E+03  0.44237275998E+02 -0.59858968866E+03  0.63649509982E+03  0.12700000000E+03 0.  0.
   -5000001    1    1    2    0    0 -0.16950061988E+03 -0.44237275998E+02 -0.12995639417E+04  0.13174531625E+04  0.12700000000E+03 0.  0.
<mgrwt>
<rscale>  0 0.46360178E+03</rscale>
<asrwt>0</asrwt>
<pdfrwt beam="1">  1        1 0.27515005E+00 0.46360178E+03</pdfrwt>
<pdfrwt beam="2">  1       -1 0.39853321E-02 0.46360178E+03</pdfrwt>
<totfact> 0.11310134E+03</totfact>
</mgrwt>
</event>
<event>
 4    1  0.6296743E-005  0.3870564E+03  0.7818608E-02  0.1048356E+00
         -1   -1    0    0    0  501 -0.00000000000E+00  0.00000000000E+00  0.10810725976E+03  0.10810725988E+03  0.50400000000E-02 0. -1.
          1   -1    0    0  501    0  0.00000000000E+00 -0.00000000000E+00 -0.34644440707E+03  0.34644440711E+03  0.50400000000E-02 0.  1.
    5000001    1    1    2    0    0 -0.99001759246E+02  0.51447325301E+02 -0.22980985781E+03  0.28528888230E+03  0.12700000000E+03 0.  0.
   -5000001    1    1    2    0    0  0.99001759246E+02 -0.51447325301E+02 -0.85272895026E+01  0.16926278469E+03  0.12700000000E+03 0.  0.
<mgrwt>
<rscale>  0 0.38705636E+03</rscale>
<asrwt>0</asrwt>
<pdfrwt beam="1">  1        1 0.49492058E-01 0.38705636E+03</pdfrwt>
<pdfrwt beam="2">  1       -1 0.15443894E-01 0.38705636E+03</pdfrwt>
<totfact> 0.24714671E+03</totfact>
</mgrwt>
</event>
<event>
 4    1  0.6296743E-005  0.7453695E+03  0.7818608E-02  0.9642643E-01
          1   -1    0    0  501    0  0.00000000000E+00  0.00000000000E+00  0.94150072919E+03  0.94150072920E+03  0.50400000000E-02 0.  1.
         -1   -1    0    0    0  501 -0.00000000000E+00 -0.00000000000E+00 -0.14752395017E+03  0.14752395026E+03  0.50400000000E-02 0. -1.
    5000001    1    1    2    0    0  0.33366424033E+03 -0.99684374402E+02  0.34047550849E+03  0.50331041282E+03  0.12700000000E+03 0.  0.
   -5000001    1    1    2    0    0 -0.33366424033E+03  0.99684374402E+02  0.45350127053E+03  0.58571426664E+03  0.12700000000E+03 0.  0.
<mgrwt>
<rscale>  0 0.74536946E+03</rscale>
<asrwt>0</asrwt>
<pdfrwt beam="1">  1        1 0.13450011E+00 0.74536946E+03</pdfrwt>
<pdfrwt beam="2">  1       -1 0.21074849E-01 0.74536946E+03</pdfrwt>
<totfact> 0.36118960E+02</totfact>
</mgrwt>
</event>
<event>
 4    1  0.6296743E-005  0.4982574E+03  0.7818608E-02  0.1014235E+00
          1   -1    0    0  501    0  0.00000000000E+00  0.00000000000E+00  0.22160417367E+03  0.22160417373E+03  0.50400000000E-02 0.  1.
         -1   -1    0    0    0  501 -0.00000000000E+00 -0.00000000000E+00 -0.28007195978E+03  0.28007195982E+03  0.50400000000E-02 0. -1.
    5000001    1    1    2    0    0 -0.71812532684E+01  0.20446019044E+03  0.35083785936E+02  0.24334217043E+03  0.12700000000E+03 0.  0.
   -5000001    1    1    2    0    0  0.71812532684E+01 -0.20446019044E+03 -0.93551572043E+02  0.25833396312E+03  0.12700000000E+03 0.  0.
<mgrwt>
<rscale>  0 0.49825742E+03</rscale>
<asrwt>0</asrwt>
<pdfrwt beam="1">  1        1 0.31657739E-01 0.49825742E+03</pdfrwt>
<pdfrwt beam="2">  1       -1 0.40010280E-01 0.49825742E+03</pdfrwt>
<totfact> 0.87595331E+02</totfact>
</mgrwt>
</event>
<event>
 4    1  0.6296743E-005  0.6069636E+03  0.7818608E-02  0.9891063E-01
          1   -1    0    0  501    0  0.00000000000E+00  0.00000000000E+00  0.39710569911E+03  0.39710569915E+03  0.50400000000E-02 0. -1.
         -1   -1    0    0    0  501 -0.00000000000E+00 -0.00000000000E+00 -0.23193122332E+03  0.23193122338E+03  0.50400000000E-02 0.  1.
    5000001    1    1    2    0    0  0.18182055608E+03 -0.20117341175E+03  0.13380886561E+03  0.32796839592E+03  0.12700000000E+03 0.  0.
   -5000001    1    1    2    0    0 -0.18182055608E+03  0.20117341175E+03  0.31365610185E+02  0.30106852660E+03  0.12700000000E+03 0.  0.
<mgrwt>
<rscale>  0 0.60696363E+03</rscale>
<asrwt>0</asrwt>
<pdfrwt beam="1">  1        1 0.56729386E-01 0.60696363E+03</pdfrwt>
<pdfrwt beam="2">  1       -1 0.33133032E-01 0.60696363E+03</pdfrwt>
<totfact> 0.57712210E+02</totfact>
</mgrwt>
</event>
<event>
 4    1  0.6296743E-005  0.3834447E+03  0.7818608E-02  0.1049668E+00
         -1   -1    0    0    0  501 -0.00000000000E+00  0.00000000000E+00  0.12884390233E+04  0.12884390233E+04  0.50400000000E-02 0.  1.
          1   -1    0    0  501    0  0.00000000000E+00 -0.00000000000E+00 -0.28528672660E+02  0.28528673105E+02  0.50400000000E-02 0. -1.
    5000001    1    1    2    0    0 -0.11043928542E+03 -0.86518803707E+02  0.73559913348E+03  0.75955080432E+03  0.12700000000E+03 0.  0.
   -5000001    1    1    2    0    0  0.11043928542E+03  0.86518803707E+02  0.52431121714E+03  0.55741689208E+03  0.12700000000E+03 0.  0.
<mgrwt>
<rscale>  0 0.38344468E+03</rscale>
<asrwt>0</asrwt>
<pdfrwt beam="1">  1        1 0.40755252E-02 0.38344468E+03</pdfrwt>
<pdfrwt beam="2">  1       -1 0.18406270E+00 0.38344468E+03</pdfrwt>
<totfact> 0.47457397E+02</totfact>
</mgrwt>
</event>
<event>
 4    1  0.6296743E-005  0.3167742E+03  0.7818608E-02  0.1077144E+00
          1   -1    0    0  501    0  0.00000000000E+00  0.00000000000E+00  0.60900136445E+02  0.60900136653E+02  0.50400000000E-02 0.  1.
         -1   -1    0    0    0  501 -0.00000000000E+00 -0.00000000000E+00 -0.41192790885E+03  0.41192790888E+03  0.50400000000E-02 0. -1.
    5000001    1    1    2    0    0  0.84589692525E+02 -0.42239146010E+02 -0.18182975437E+03  0.24110292639E+03  0.12700000000E+03 0.  0.
   -5000001    1    1    2    0    0 -0.84589692525E+02  0.42239146010E+02 -0.16919801803E+03  0.23172511914E+03  0.12700000000E+03 0.  0.
<mgrwt>
<rscale>  0 0.31677415E+03</rscale>
<asrwt>0</asrwt>
<pdfrwt beam="1">  1        1 0.87000198E-02 0.31677415E+03</pdfrwt>
<pdfrwt beam="2">  1       -1 0.58846842E-01 0.31677415E+03</pdfrwt>
<totfact> 0.23436158E+03</totfact>
</mgrwt>
</event>
<event>
 4    1  0.6296743E-005  0.2826091E+03  0.7818608E-02  0.1094272E+00
          1   -1    0    0  501    0  0.00000000000E+00  0.00000000000E+00  0.28942765239E+03  0.28942765243E+03  0.50400000000E-02 0. -1.
         -1   -1    0    0    0  501 -0.00000000000E+00 -0.00000000000E+00 -0.68987799002E+02  0.68987799186E+02  0.50400000000E-02 0.  1.
    5000001    1    1    2    0    0  0.35147087071E+02 -0.46084620293E+02  0.82467054655E+02  0.16213859831E+03  0.12700000000E+03 0.  0.
   -5000001    1    1    2    0    0 -0.35147087071E+02  0.46084620293E+02  0.13797279873E+03  0.19627685332E+03  0.12700000000E+03 0.  0.
<mgrwt>
<rscale>  0 0.28260911E+03</rscale>
<asrwt>0</asrwt>
<pdfrwt beam="1">  1        1 0.41346808E-01 0.28260911E+03</pdfrwt>
<pdfrwt beam="2">  1       -1 0.98553997E-02 0.28260911E+03</pdfrwt>
<totfact> 0.62446457E+03</totfact>
</mgrwt>
</event>
<event>
 4    1  0.6296743E-005  0.3129515E+03  0.7818608E-02  0.1078940E+00
         -1   -1    0    0    0  501 -0.00000000000E+00  0.00000000000E+00  0.74366589020E+01  0.74366606099E+01  0.50400000000E-02 0.  1.
          1   -1    0    0  501    0  0.00000000000E+00 -0.00000000000E+00 -0.32924270681E+04  0.32924270681E+04  0.50400000000E-02 0. -1.
    5000001    1    1    2    0    0  0.66435744792E+02 -0.57760303206E+02 -0.19020012192E+04  0.19082682198E+04  0.12700000000E+03 0.  0.
   -5000001    1    1    2    0    0 -0.66435744792E+02  0.57760303206E+02 -0.13829891900E+04  0.13915955089E+04  0.12700000000E+03 0.  0.
<mgrwt>
<rscale>  0 0.31295150E+03</rscale>
<asrwt>0</asrwt>
<pdfrwt beam="1">  1        1 0.47034579E+00 0.31295150E+03</pdfrwt>
<pdfrwt beam="2">  1       -1 0.10623821E-02 0.31295150E+03</pdfrwt>
<totfact> 0.11321210E+03</totfact>
</mgrwt>
</event>
<event>
 4    1  0.6296743E-005  0.3402480E+03  0.7818608E-02  0.1066690E+00
          1   -1    0    0  501    0  0.00000000000E+00  0.00000000000E+00  0.92675523731E+03  0.92675523732E+03  0.50400000000E-02 0. -1.
         -1   -1    0    0    0  501 -0.00000000000E+00 -0.00000000000E+00 -0.31229582748E+02  0.31229583154E+02  0.50400000000E-02 0.  1.
    5000001    1    1    2    0    0 -0.89148575784E+02 -0.69745026852E+02  0.45102477939E+03  0.48204168799E+03  0.12700000000E+03 0.  0.
   -5000001    1    1    2    0    0  0.89148575784E+02  0.69745026852E+02  0.44450087517E+03  0.47594313249E+03  0.12700000000E+03 0.  0.
<mgrwt>
<rscale>  0 0.34024802E+03</rscale>
<asrwt>0</asrwt>
<pdfrwt beam="1">  1        1 0.13239362E+00 0.34024802E+03</pdfrwt>
<pdfrwt beam="2">  1       -1 0.44613686E-02 0.34024802E+03</pdfrwt>
<totfact> 0.43054482E+03</totfact>
</mgrwt>
</event>
<event>
 4    1  0.6296743E-005  0.3762202E+03  0.7818608E-02  0.1052340E+00
          1   -1    0    0  501    0  0.00000000000E+00  0.00000000000E+00  0.29285605694E+03  0.29285605698E+03  0.50400000000E-02 0.  1.
         -1   -1    0    0    0  501 -0.00000000000E+00 -0.00000000000E+00 -0.12082869379E+03  0.12082869389E+03  0.50400000000E-02 0. -1.
    5000001    1    1    2    0    0  0.11302080557E+03  0.54256907927E+02  0.15142630019E+03  0.23404366887E+03  0.12700000000E+03 0.  0.
   -5000001    1    1    2    0    0 -0.11302080557E+03 -0.54256907927E+02  0.20601062963E+02  0.17964108200E+03  0.12700000000E+03 0.  0.
<mgrwt>
<rscale>  0 0.37622023E+03</rscale>
<asrwt>0</asrwt>
<pdfrwt beam="1">  1        1 0.41836579E-01 0.37622023E+03</pdfrwt>
<pdfrwt beam="2">  1       -1 0.17261242E-01 0.37622023E+03</pdfrwt>
<totfact> 0.25568392E+03</totfact>
</mgrwt>
</event>
<event>
 4    1  0.6296743E-005  0.3054291E+03  0.7818608E-02  0.1082558E+00
         -1   -1    0    0    0  501 -0.00000000000E+00  0.00000000000E+00  0.71191809268E+02  0.71191809446E+02  0.50400000000E-02 0. -1.
          1   -1    0    0  501    0  0.00000000000E+00 -0.00000000000E+00 -0.32759011543E+03  0.32759011547E+03  0.50400000000E-02 0.  1.
    5000001    1    1    2    0    0  0.33763795043E+02  0.59216852552E+02 -0.62317711562E+02  0.15703224719E+03  0.12700000000E+03 0.  0.
   -5000001    1    1    2    0    0 -0.33763795043E+02 -0.59216852552E+02 -0.19408059460E+03  0.24174967773E+03  0.12700000000E+03 0.  0.
<mgrwt>
<rscale>  0 0.30542910E+03</rscale>
<asrwt>0</asrwt>
<pdfrwt beam="1">  1        1 0.46798587E-01 0.30542910E+03</pdfrwt>
<pdfrwt beam="2">  1       -1 0.10170259E-01 0.30542910E+03</pdfrwt>
<totfact> 0.51015106E+03</totfact>
</mgrwt>
</event>
<event>
 4    1  0.6296743E-005  0.2791246E+03  0.7818608E-02  0.1096168E+00
          1   -1    0    0  501    0  0.00000000000E+00  0.00000000000E+00  0.51643236223E+03  0.51643236225E+03  0.50400000000E-02 0.  1.
         -1   -1    0    0    0  501 -0.00000000000E+00 -0.00000000000E+00 -0.37715758406E+02  0.37715758743E+02  0.50400000000E-02 0. -1.
    5000001    1    1    2    0    0  0.99371100279E+01  0.28780346305E+02  0.14166214643E+03  0.19267645996E+03  0.12700000000E+03 0.  0.
   -5000001    1    1    2    0    0 -0.99371100279E+01 -0.28780346305E+02  0.33705445739E+03  0.36147166104E+03  0.12700000000E+03 0.  0.
<mgrwt>
<rscale>  0 0.27912462E+03</rscale>
<asrwt>0</asrwt>
<pdfrwt beam="1">  1        1 0.73776041E-01 0.27912462E+03</pdfrwt>
<pdfrwt beam="2">  1       -1 0.53879663E-02 0.27912462E+03</pdfrwt>
<totfact> 0.74749188E+03</totfact>
</mgrwt>
</event>
<event>
 4    1  0.6296743E-005  0.3902225E+03  0.7818608E-02  0.1047219E+00
          1   -1    0    0  501    0  0.00000000000E+00  0.00000000000E+00  0.13535381293E+04  0.13535381293E+04  0.50400000000E-02 0.  1.
         -1   -1    0    0    0  501 -0.00000000000E+00 -0.00000000000E+00 -0.28125105128E+02  0.28125105579E+02  0.50400000000E-02 0. -1.
    5000001    1    1    2    0    0  0.59295167512E+02  0.13567838399E+03  0.67635625685E+03  0.70392565442E+03  0.12700000000E+03 0.  0.
   -5000001    1    1    2    0    0 -0.59295167512E+02 -0.13567838399E+03  0.64905676733E+03  0.67773758048E+03  0.12700000000E+03 0.  0.
<mgrwt>
<rscale>  0 0.39022251E+03</rscale>
<asrwt>0</asrwt>
<pdfrwt beam="1">  1        1 0.19336256E+00 0.39022251E+03</pdfrwt>
<pdfrwt beam="2">  1       -1 0.40178728E-02 0.39022251E+03</pdfrwt>
<totfact> 0.25567420E+03</totfact>
</mgrwt>
</event>
<event>
 4    1  0.6296743E-005  0.2847764E+03  0.7818608E-02  0.1093108E+00
          1   -1    0    0  501    0  0.00000000000E+00  0.00000000000E+00  0.72414849442E+03  0.72414849444E+03  0.50400000000E-02 0.  1.
         -1   -1    0    0    0  501 -0.00000000000E+00 -0.00000000000E+00 -0.27997575238E+02  0.27997575691E+02  0.50400000000E-02 0. -1.
    5000001    1    1    2    0    0 -0.27499287382E+02 -0.53546013945E+02  0.40842027409E+03  0.43192534853E+03  0.12700000000E+03 0.  0.
   -5000001    1    1    2    0    0  0.27499287382E+02  0.53546013945E+02  0.28773064510E+03  0.32022072161E+03  0.12700000000E+03 0.  0.
<mgrwt>
<rscale>  0 0.28477642E+03</rscale>
<asrwt>0</asrwt>
<pdfrwt beam="1">  1        1 0.10344978E+00 0.28477642E+03</pdfrwt>
<pdfrwt beam="2">  1       -1 0.39996540E-02 0.28477642E+03</pdfrwt>
<totfact> 0.73419458E+03</totfact>
</mgrwt>
</event>
<event>
 4    1  0.6296743E-005  0.5603982E+03  0.7818608E-02  0.9991154E-01
          1   -1    0    0  501    0  0.00000000000E+00  0.00000000000E+00  0.65428221714E+03  0.65428221716E+03  0.50400000000E-02 0.  1.
         -1   -1    0    0    0  501 -0.00000000000E+00 -0.00000000000E+00 -0.11999645257E+03  0.11999645267E+03  0.50400000000E-02 0. -1.
    5000001    1    1    2    0    0 -0.95386590412E+02 -0.21739035295E+03  0.15989402279E+03  0.31313298407E+03  0.12700000000E+03 0.  0.
   -5000001    1    1    2    0    0  0.95386590412E+02  0.21739035295E+03  0.37439174178E+03  0.46114568576E+03  0.12700000000E+03 0.  0.
<mgrwt>
<rscale>  0 0.56039823E+03</rscale>
<asrwt>0</asrwt>
<pdfrwt beam="1">  1        1 0.93468888E-01 0.56039823E+03</pdfrwt>
<pdfrwt beam="2">  1       -1 0.17142350E-01 0.56039823E+03</pdfrwt>
<totfact> 0.89400667E+02</totfact>
</mgrwt>
</event>
<event>
 4    1  0.6296743E-005  0.3401058E+03  0.7818608E-02  0.1066751E+00
         -1   -1    0    0    0  501 -0.00000000000E+00  0.00000000000E+00  0.34309755812E+03  0.34309755816E+03  0.50400000000E-02 0. -1.
          1   -1    0    0  501    0  0.00000000000E+00 -0.00000000000E+00 -0.84285043798E+02  0.84285043949E+02  0.50400000000E-02 0.  1.
    5000001    1    1    2    0    0 -0.77993523549E+02 -0.39912270641E+02  0.39551464012E+02  0.15927742266E+03  0.12700000000E+03 0.  0.
   -5000001    1    1    2    0    0  0.77993523549E+02  0.39912270641E+02  0.21926105032E+03  0.26810517945E+03  0.12700000000E+03 0.  0.
<mgrwt>
<rscale>  0 0.34010582E+03</rscale>
<asrwt>0</asrwt>
<pdfrwt beam="1">  1        1 0.12040720E-01 0.34010582E+03</pdfrwt>
<pdfrwt beam="2">  1       -1 0.49013937E-01 0.34010582E+03</pdfrwt>
<totfact> 0.21365813E+03</totfact>
</mgrwt>
</event>
<event>
 4    1  0.6296743E-005  0.3851768E+03  0.7818608E-02  0.1049037E+00
          1   -1    0    0  501    0  0.00000000000E+00  0.00000000000E+00  0.42023342720E+02  0.42023343022E+02  0.50400000000E-02 0.  1.
         -1   -1    0    0    0  501 -0.00000000000E+00 -0.00000000000E+00 -0.88261163189E+03  0.88261163190E+03  0.50400000000E-02 0. -1.
    5000001    1    1    2    0    0  0.10212220440E+03 -0.87089749016E+02 -0.55062687015E+03  0.58080333947E+03  0.12700000000E+03 0.  0.
   -5000001    1    1    2    0    0 -0.10212220440E+03  0.87089749016E+02 -0.28996141902E+03  0.34383163545E+03  0.12700000000E+03 0.  0.
<mgrwt>
<rscale>  0 0.38517680E+03</rscale>
<asrwt>0</asrwt>
<pdfrwt beam="1">  1        1 0.60033352E-02 0.38517680E+03</pdfrwt>
<pdfrwt beam="2">  1       -1 0.12608736E+00 0.38517680E+03</pdfrwt>
<totfact> 0.75962765E+02</totfact>
</mgrwt>
</event>
<event>
 4    1  0.6296743E-005  0.4350716E+03  0.7818608E-02  0.1032270E+00
          1   -1    0    0  501    0  0.00000000000E+00  0.00000000000E+00  0.56992298164E+03  0.56992298167E+03  0.50400000000E-02 0.  1.
         -1   -1    0    0    0  501 -0.00000000000E+00 -0.00000000000E+00 -0.83031976851E+02  0.83031977004E+02  0.50400000000E-02 0. -1.
    5000001    1    1    2    0    0  0.60157745348E+02  0.16021062811E+03  0.30897444133E+03  0.37534065205E+03  0.12700000000E+03 0.  0.
   -5000001    1    1    2    0    0 -0.60157745348E+02 -0.16021062811E+03  0.17791656347E+03  0.27761430662E+03  0.12700000000E+03 0.  0.
<mgrwt>
<rscale>  0 0.43507163E+03</rscale>
<asrwt>0</asrwt>
<pdfrwt beam="1">  1        1 0.81417569E-01 0.43507163E+03</pdfrwt>
<pdfrwt beam="2">  1       -1 0.11861711E-01 0.43507163E+03</pdfrwt>
<totfact> 0.19605700E+03</totfact>
</mgrwt>
</event>
<event>
 4    1  0.6296743E-005  0.4258166E+03  0.7818608E-02  0.1035190E+00
         -1   -1    0    0    0  501 -0.00000000000E+00  0.00000000000E+00  0.82144949186E+02  0.82144949341E+02  0.50400000000E-02 0. -1.
          1   -1    0    0  501    0  0.00000000000E+00 -0.00000000000E+00 -0.55182863786E+03  0.55182863789E+03  0.50400000000E-02 0.  1.
    5000001    1    1    2    0    0 -0.13280891663E+02 -0.16556928300E+03 -0.29460667660E+03  0.36126398029E+03  0.12700000000E+03 0.  0.
   -5000001    1    1    2    0    0  0.13280891663E+02  0.16556928300E+03 -0.17507701208E+03  0.27270960694E+03  0.12700000000E+03 0.  0.
<mgrwt>
<rscale>  0 0.42581656E+03</rscale>
<asrwt>0</asrwt>
<pdfrwt beam="1">  1        1 0.78832661E-01 0.42581656E+03</pdfrwt>
<pdfrwt beam="2">  1       -1 0.11734993E-01 0.42581656E+03</pdfrwt>
<totfact> 0.20834841E+03</totfact>
</mgrwt>
</event>
<event>
 4    1  0.6296743E-005  0.4539577E+03  0.7818608E-02  0.1026548E+00
         -1   -1    0    0    0  501 -0.00000000000E+00  0.00000000000E+00  0.63938656610E+02  0.63938656809E+02  0.50400000000E-02 0. -1.
          1   -1    0    0  501    0  0.00000000000E+00 -0.00000000000E+00 -0.80576286378E+03  0.80576286380E+03  0.50400000000E-02 0.  1.
    5000001    1    1    2    0    0 -0.14927446651E+03  0.32277114071E+02 -0.16047058940E+03  0.25535169572E+03  0.12700000000E+03 0.  0.
   -5000001    1    1    2    0    0  0.14927446651E+03 -0.32277114071E+02 -0.58135361777E+03  0.61434982488E+03  0.12700000000E+03 0.  0.
<mgrwt>
<rscale>  0 0.45395769E+03</rscale>
<asrwt>0</asrwt>
<pdfrwt beam="1">  1        1 0.11510897E+00 0.45395769E+03</pdfrwt>
<pdfrwt beam="2">  1       -1 0.91340943E-02 0.45395769E+03</pdfrwt>
<totfact> 0.17955863E+03</totfact>
</mgrwt>
</event>
<event>
 4    1  0.6296743E-005  0.5664418E+03  0.7818608E-02  0.9977583E-01
         -1   -1    0    0    0  501 -0.00000000000E+00  0.00000000000E+00  0.27347838459E+03  0.27347838464E+03  0.50400000000E-02 0. -1.
          1   -1    0    0  501    0  0.00000000000E+00 -0.00000000000E+00 -0.29331051492E+03  0.29331051497E+03  0.50400000000E-02 0.  1.
    5000001    1    1    2    0    0  0.11429118481E+03 -0.16635088005E+03  0.14298461697E+03  0.27804440456E+03  0.12700000000E+03 0.  0.
   -5000001    1    1    2    0    0 -0.11429118481E+03  0.16635088005E+03 -0.16281674730E+03  0.28874449504E+03  0.12700000000E+03 0.  0.
<mgrwt>
<rscale>  0 0.56644183E+03</rscale>
<asrwt>0</asrwt>
<pdfrwt beam="1">  1        1 0.41901502E-01 0.56644183E+03</pdfrwt>
<pdfrwt beam="2">  1       -1 0.39068341E-01 0.56644183E+03</pdfrwt>
<totfact> 0.63753252E+02</totfact>
</mgrwt>
</event>
<event>
 4    1  0.6296743E-005  0.6199020E+03  0.7818608E-02  0.9864955E-01
          1   -1    0    0  501    0  0.00000000000E+00  0.00000000000E+00  0.23490099009E+03  0.23490099014E+03  0.50400000000E-02 0.  1.
         -1   -1    0    0    0  501 -0.00000000000E+00 -0.00000000000E+00 -0.40897926008E+03  0.40897926011E+03  0.50400000000E-02 0. -1.
    5000001    1    1    2    0    0  0.11455546404E+03 -0.21986797331E+03  0.54144096319E+02  0.28377008862E+03  0.12700000000E+03 0.  0.
   -5000001    1    1    2    0    0 -0.11455546404E+03  0.21986797331E+03 -0.22822236631E+03  0.36011016163E+03  0.12700000000E+03 0.  0.
<mgrwt>
<rscale>  0 0.61990203E+03</rscale>
<asrwt>0</asrwt>
<pdfrwt beam="1">  1        1 0.33557284E-01 0.61990203E+03</pdfrwt>
<pdfrwt beam="2">  1       -1 0.58425608E-01 0.61990203E+03</pdfrwt>
<totfact> 0.39906004E+02</totfact>
</mgrwt>
</event>
<event>
 4    1  0.6296743E-005  0.3503053E+03  0.7818608E-02  0.1062490E+00
         -1   -1    0    0    0  501 -0.00000000000E+00  0.00000000000E+00  0.41171477832E+02  0.41171478141E+02  0.50400000000E-02 0. -1.
          1   -1    0    0  501    0  0.00000000000E+00 -0.00000000000E+00 -0.74513839052E+03  0.74513839054E+03  0.50400000000E-02 0.  1.
    5000001    1    1    2    0    0  0.89839031206E+02  0.67282441294E+02 -0.25282539699E+03  0.30438078093E+03  0.12700000000E+03 0.  0.
   -5000001    1    1    2    0    0 -0.89839031206E+02 -0.67282441294E+02 -0.45114151570E+03  0.48192908775E+03  0.12700000000E+03 0.  0.
<mgrwt>
<rscale>  0 0.35030529E+03</rscale>
<asrwt>0</asrwt>
<pdfrwt beam="1">  1        1 0.10644833E+00 0.35030529E+03</pdfrwt>
<pdfrwt beam="2">  1       -1 0.58816402E-02 0.35030529E+03</pdfrwt>
<totfact> 0.39639364E+03</totfact>
</mgrwt>
</event>
<event>
 4    1  0.6296743E-005  0.4015869E+03  0.7818608E-02  0.1043232E+00
         -1   -1    0    0    0  501 -0.00000000000E+00  0.00000000000E+00  0.37685976453E+03  0.37685976456E+03  0.50400000000E-02 0. -1.
          1   -1    0    0  501    0  0.00000000000E+00 -0.00000000000E+00 -0.10698411977E+03  0.10698411989E+03  0.50400000000E-02 0.  1.
    5000001    1    1    2    0    0  0.10215031750E+03  0.84691326933E+02  0.23268288350E+03  0.29644161735E+03  0.12700000000E+03 0.  0.
   -5000001    1    1    2    0    0 -0.10215031750E+03 -0.84691326933E+02  0.37192761254E+02  0.18740226710E+03  0.12700000000E+03 0.  0.
<mgrwt>
<rscale>  0 0.40158690E+03</rscale>
<asrwt>0</asrwt>
<pdfrwt beam="1">  1        1 0.15283446E-01 0.40158690E+03</pdfrwt>
<pdfrwt beam="2">  1       -1 0.53837109E-01 0.40158690E+03</pdfrwt>
<totfact> 0.13066151E+03</totfact>
</mgrwt>
</event>
<event>
 4    1  0.6296743E-005  0.4978298E+03  0.7818608E-02  0.1014347E+00
          1   -1    0    0  501    0  0.00000000000E+00  0.00000000000E+00  0.70795966768E+03  0.70795966770E+03  0.50400000000E-02 0.  1.
         -1   -1    0    0    0  501 -0.00000000000E+00 -0.00000000000E+00 -0.87517188139E+02  0.87517188284E+02  0.50400000000E-02 0. -1.
    5000001    1    1    2    0    0  0.10659343314E+03  0.17025734796E+03  0.19193519056E+03  0.30547969147E+03  0.12700000000E+03 0.  0.
   -5000001    1    1    2    0    0 -0.10659343314E+03 -0.17025734796E+03  0.42850728898E+03  0.48999716451E+03  0.12700000000E+03 0.  0.
<mgrwt>
<rscale>  0 0.49782985E+03</rscale>
<asrwt>0</asrwt>
<pdfrwt beam="1">  1        1 0.10113709E+00 0.49782985E+03</pdfrwt>
<pdfrwt beam="2">  1       -1 0.12502456E-01 0.49782985E+03</pdfrwt>
<totfact> 0.13281248E+03</totfact>
</mgrwt>
</event>
<event>
 4    1  0.6296743E-005  0.2766915E+03  0.7818608E-02  0.1097510E+00
         -1   -1    0    0    0  501 -0.00000000000E+00  0.00000000000E+00  0.54786294295E+03  0.54786294298E+03  0.50400000000E-02 0. -1.
          1   -1    0    0  501    0  0.00000000000E+00 -0.00000000000E+00 -0.34934912612E+02  0.34934912976E+02  0.50400000000E-02 0.  1.
    5000001    1    1    2    0    0  0.53005922370E+02 -0.14143820319E+02  0.25842716854E+03  0.29312672498E+03  0.12700000000E+03 0.  0.
   -5000001    1    1    2    0    0 -0.53005922370E+02  0.14143820319E+02  0.25450086180E+03  0.28967113097E+03  0.12700000000E+03 0.  0.
<mgrwt>
<rscale>  0 0.27669148E+03</rscale>
<asrwt>0</asrwt>
<pdfrwt beam="1">  1        1 0.49907017E-02 0.27669148E+03</pdfrwt>
<pdfrwt beam="2">  1       -1 0.78266137E-01 0.27669148E+03</pdfrwt>
<totfact> 0.28441154E+03</totfact>
</mgrwt>
</event>
<event>
 4    1  0.6296743E-005  0.3892682E+03  0.7818608E-02  0.1047560E+00
          1   -1    0    0  501    0  0.00000000000E+00  0.00000000000E+00  0.20868472964E+03  0.20868472970E+03  0.50400000000E-02 0. -1.
         -1   -1    0    0    0  501 -0.00000000000E+00 -0.00000000000E+00 -0.18152945123E+03  0.18152945130E+03  0.50400000000E-02 0.  1.
    5000001    1    1    2    0    0  0.12164946669E+03 -0.83069780814E+02  0.20960539616E+02  0.19562087172E+03  0.12700000000E+03 0.  0.
   -5000001    1    1    2    0    0 -0.12164946669E+03  0.83069780814E+02  0.61947387988E+01  0.19459330929E+03  0.12700000000E+03 0.  0.
<mgrwt>
<rscale>  0 0.38926816E+03</rscale>
<asrwt>0</asrwt>
<pdfrwt beam="1">  1        1 0.29812104E-01 0.38926816E+03</pdfrwt>
<pdfrwt beam="2">  1       -1 0.25932779E-01 0.38926816E+03</pdfrwt>
<totfact> 0.20101026E+03</totfact>
</mgrwt>
</event>
<event>
 4    1  0.6296743E-005  0.3468849E+03  0.7818608E-02  0.1063901E+00
          1   -1    0    0  501    0  0.00000000000E+00  0.00000000000E+00  0.16908344589E+04  0.16908344589E+04  0.50400000000E-02 0.  1.
         -1   -1    0    0    0  501 -0.00000000000E+00 -0.00000000000E+00 -0.17791378907E+02  0.17791379620E+02  0.50400000000E-02 0. -1.
    5000001    1    1    2    0    0  0.67409623735E+02  0.14784626032E+02  0.36431242062E+03  0.39193772765E+03  0.12700000000E+03 0.  0.
   -5000001    1    1    2    0    0 -0.67409623735E+02 -0.14784626032E+02  0.13087306594E+04  0.13166881109E+04  0.12700000000E+03 0.  0.
<mgrwt>
<rscale>  0 0.34688486E+03</rscale>
<asrwt>0</asrwt>
<pdfrwt beam="1">  1        1 0.24154776E+00 0.34688486E+03</pdfrwt>
<pdfrwt beam="2">  1       -1 0.25416258E-02 0.34688486E+03</pdfrwt>
<totfact> 0.31026312E+03</totfact>
</mgrwt>
</event>
<event>
 4    1  0.6296743E-005  0.3186527E+03  0.7818608E-02  0.1076271E+00
         -1   -1    0    0    0  501 -0.00000000000E+00  0.00000000000E+00  0.80869625192E+02  0.80869625349E+02  0.50400000000E-02 0.  1.
          1   -1    0    0  501    0  0.00000000000E+00 -0.00000000000E+00 -0.31389898214E+03  0.31389898218E+03  0.50400000000E-02 0. -1.
    5000001    1    1    2    0    0  0.59689424024E+02 -0.41208908144E+02 -0.19481750618E+03  0.24360595675E+03  0.12700000000E+03 0.  0.
   -5000001    1    1    2    0    0 -0.59689424024E+02  0.41208908144E+02 -0.38211850767E+02  0.15116265078E+03  0.12700000000E+03 0.  0.
<mgrwt>
<rscale>  0 0.31865275E+03</rscale>
<asrwt>0</asrwt>
<pdfrwt beam="1">  1        1 0.44842711E-01 0.31865275E+03</pdfrwt>
<pdfrwt beam="2">  1       -1 0.11552804E-01 0.31865275E+03</pdfrwt>
<totfact> 0.44196192E+03</totfact>
</mgrwt>
</event>
<event>
 4    1  0.6296743E-005  0.2875116E+03  0.7818608E-02  0.1091656E+00
         -1   -1    0    0    0  501 -0.00000000000E+00  0.00000000000E+00  0.13659993698E+04  0.13659993698E+04  0.50400000000E-02 0. -1.
          1   -1    0    0  501    0  0.00000000000E+00 -0.00000000000E+00 -0.15128648025E+02  0.15128648865E+02  0.50400000000E-02 0.  1.
    5000001    1    1    2    0    0  0.58364983869E+02 -0.29075505543E+02  0.75651286565E+03  0.76986529488E+03  0.12700000000E+03 0.  0.
   -5000001    1    1    2    0    0 -0.58364983869E+02  0.29075505543E+02  0.59435785611E+03  0.61126272378E+03  0.12700000000E+03 0.  0.
<mgrwt>
<rscale>  0 0.28751156E+03</rscale>
<asrwt>0</asrwt>
<pdfrwt beam="1">  1        1 0.21612371E-02 0.28751156E+03</pdfrwt>
<pdfrwt beam="2">  1       -1 0.19514262E+00 0.28751156E+03</pdfrwt>
<totfact> 0.97650955E+02</totfact>
</mgrwt>
</event>
<event>
 4    1  0.6296743E-005  0.5292140E+03  0.7818608E-02  0.1006423E+00
          1   -1    0    0  501    0  0.00000000000E+00  0.00000000000E+00  0.57379342286E+03  0.57379342289E+03  0.50400000000E-02 0.  1.
         -1   -1    0    0    0  501 -0.00000000000E+00 -0.00000000000E+00 -0.12202452796E+03  0.12202452806E+03  0.50400000000E-02 0. -1.
    5000001    1    1    2    0    0  0.20706912816E+03  0.10194878285E+02  0.88574106608E+02  0.25875844284E+03  0.12700000000E+03 0.  0.
   -5000001    1    1    2    0    0 -0.20706912816E+03 -0.10194878285E+02  0.36319478830E+03  0.43705950811E+03  0.12700000000E+03 0.  0.
<mgrwt>
<rscale>  0 0.52921403E+03</rscale>
<asrwt>0</asrwt>
<pdfrwt beam="1">  1        1 0.81970488E-01 0.52921403E+03</pdfrwt>
<pdfrwt beam="2">  1       -1 0.17432076E-01 0.52921403E+03</pdfrwt>
<totfact> 0.10464632E+03</totfact>
</mgrwt>
</event>
<event>
 4    1  0.6296743E-005  0.2767590E+03  0.7818608E-02  0.1097472E+00
          1   -1    0    0  501    0  0.00000000000E+00  0.00000000000E+00  0.14270600595E+03  0.14270600604E+03  0.50400000000E-02 0.  1.
         -1   -1    0    0    0  501 -0.00000000000E+00 -0.00000000000E+00 -0.13418414578E+03  0.13418414587E+03  0.50400000000E-02 0. -1.
    5000001    1    1    2    0    0  0.19833719242E+02 -0.36213467154E+02 -0.32020453286E+02  0.13732844225E+03  0.12700000000E+03 0.  0.
   -5000001    1    1    2    0    0 -0.19833719242E+02  0.36213467154E+02  0.40542313460E+02  0.13956170966E+03  0.12700000000E+03 0.  0.
<mgrwt>
<rscale>  0 0.27675898E+03</rscale>
<asrwt>0</asrwt>
<pdfrwt beam="1">  1        1 0.20386572E-01 0.27675898E+03</pdfrwt>
<pdfrwt beam="2">  1       -1 0.19169164E-01 0.27675898E+03</pdfrwt>
<totfact> 0.53462799E+03</totfact>
</mgrwt>
</event>
<event>
 4    1  0.6296743E-005  0.5822463E+03  0.7818608E-02  0.9942940E-01
          1   -1    0    0  501    0  0.00000000000E+00  0.00000000000E+00  0.36437640709E+02  0.36437641058E+02  0.50400000000E-02 0.  1.
         -1   -1    0    0    0  501 -0.00000000000E+00 -0.00000000000E+00 -0.23259655130E+04  0.23259655130E+04  0.50400000000E-02 0. -1.
    5000001    1    1    2    0    0  0.16853162403E+03 -0.19901131786E+03 -0.10441206596E+04  0.10836629387E+04  0.12700000000E+03 0.  0.
   -5000001    1    1    2    0    0 -0.16853162403E+03  0.19901131786E+03 -0.12454072127E+04  0.12787402153E+04  0.12700000000E+03 0.  0.
<mgrwt>
<rscale>  0 0.58224633E+03</rscale>
<asrwt>0</asrwt>
<pdfrwt beam="1">  1        1 0.52053788E-02 0.58224633E+03</pdfrwt>
<pdfrwt beam="2">  1       -1 0.33228069E+00 0.58224633E+03</pdfrwt>
<totfact> 0.36368117E+01</totfact>
</mgrwt>
</event>
<event>
 4    1  0.6296743E-005  0.4994907E+03  0.7818608E-02  0.1013912E+00
          1   -1    0    0  501    0  0.00000000000E+00  0.00000000000E+00  0.16647946171E+04  0.16647946171E+04  0.50400000000E-02 0.  1.
         -1   -1    0    0    0  501 -0.00000000000E+00 -0.00000000000E+00 -0.37465719857E+02  0.37465720196E+02  0.50400000000E-02 0. -1.
    5000001    1    1    2    0    0  0.20155400675E+03 -0.51932879241E+02  0.99790694055E+03  0.10272625290E+04  0.12700000000E+03 0.  0.
   -5000001    1    1    2    0    0 -0.20155400675E+03  0.51932879241E+02  0.62942195668E+03  0.67499780824E+03  0.12700000000E+03 0.  0.
<mgrwt>
<rscale>  0 0.49949066E+03</rscale>
<asrwt>0</asrwt>
<pdfrwt beam="1">  1        1 0.23782784E+00 0.49949066E+03</pdfrwt>
<pdfrwt beam="2">  1       -1 0.53522450E-02 0.49949066E+03</pdfrwt>
<totfact> 0.10468666E+03</totfact>
</mgrwt>
</event>
<event>
 4    1  0.6296743E-005  0.7151476E+03  0.7818608E-02  0.9691673E-01
          1   -1    0    0  501    0  0.00000000000E+00  0.00000000000E+00  0.81364644176E+03  0.81364644177E+03  0.50400000000E-02 0. -1.
         -1   -1    0    0    0  501 -0.00000000000E+00 -0.00000000000E+00 -0.15714322072E+03  0.15714322080E+03  0.50400000000E-02 0.  1.
    5000001    1    1    2    0    0  0.58411723964E+02  0.14146384523E+03 -0.75138033537E+02  0.21259979560E+03  0.12700000000E+03 0.  0.
   -5000001    1    1    2    0    0 -0.58411723964E+02 -0.14146384523E+03  0.73164125457E+03  0.75818986698E+03  0.12700000000E+03 0.  0.
<mgrwt>
<rscale>  0 0.71514760E+03</rscale>
<asrwt>0</asrwt>
<pdfrwt beam="1">  1        1 0.11623521E+00 0.71514760E+03</pdfrwt>
<pdfrwt beam="2">  1       -1 0.22449031E-01 0.71514760E+03</pdfrwt>
<totfact> 0.41119757E+02</totfact>
</mgrwt>
</event>
<event>
 4    1  0.6296743E-005  0.3356587E+03  0.7818608E-02  0.1068660E+00
         -1   -1    0    0    0  501 -0.00000000000E+00  0.00000000000E+00  0.38346026629E+02  0.38346026960E+02  0.50400000000E-02 0. -1.
          1   -1    0    0  501    0  0.00000000000E+00 -0.00000000000E+00 -0.73453979127E+03  0.73453979129E+03  0.50400000000E-02 0.  1.
    5000001    1    1    2    0    0 -0.66139688207E+02  0.86969104595E+02 -0.37107661790E+03  0.40714240735E+03  0.12700000000E+03 0.  0.
   -5000001    1    1    2    0    0  0.66139688207E+02 -0.86969104595E+02 -0.32511714674E+03  0.36574341089E+03  0.12700000000E+03 0.  0.
<mgrwt>
<rscale>  0 0.33565865E+03</rscale>
<asrwt>0</asrwt>
<pdfrwt beam="1">  1        1 0.10493425E+00 0.33565865E+03</pdfrwt>
<pdfrwt beam="2">  1       -1 0.54780043E-02 0.33565865E+03</pdfrwt>
<totfact> 0.45048016E+03</totfact>
</mgrwt>
</event>
<event>
 4    1  0.6296743E-005  0.5733823E+03  0.7818608E-02  0.9962222E-01
         -1   -1    0    0    0  501 -0.00000000000E+00  0.00000000000E+00  0.95780711143E+02  0.95780711276E+02  0.50400000000E-02 0. -1.
          1   -1    0    0  501    0  0.00000000000E+00 -0.00000000000E+00 -0.85812499401E+03  0.85812499403E+03  0.50400000000E-02 0.  1.
    5000001    1    1    2    0    0  0.19838791422E+03  0.94497576622E+02 -0.15936823166E+03  0.29969115729E+03  0.12700000000E+03 0.  0.
   -5000001    1    1    2    0    0 -0.19838791422E+03 -0.94497576622E+02 -0.60297605121E+03  0.65421454801E+03  0.12700000000E+03 0.  0.
<mgrwt>
<rscale>  0 0.57338232E+03</rscale>
<asrwt>0</asrwt>
<pdfrwt beam="1">  1        1 0.12258928E+00 0.57338232E+03</pdfrwt>
<pdfrwt beam="2">  1       -1 0.13682959E-01 0.57338232E+03</pdfrwt>
<totfact> 0.85754839E+02</totfact>
</mgrwt>
</event>
<event>
 4    1  0.6296743E-005  0.4221680E+03  0.7818608E-02  0.1036363E+00
          1   -1    0    0  501    0  0.00000000000E+00  0.00000000000E+00  0.65599348485E+03  0.65599348487E+03  0.50400000000E-02 0.  1.
         -1   -1    0    0    0  501 -0.00000000000E+00 -0.00000000000E+00 -0.67922109849E+02  0.67922110036E+02  0.50400000000E-02 0. -1.
    5000001    1    1    2    0    0 -0.15038042691E+03 -0.74345782337E+02  0.26504191661E+03  0.33840476609E+03  0.12700000000E+03 0.  0.
   -5000001    1    1    2    0    0  0.15038042691E+03  0.74345782337E+02  0.32302945839E+03  0.38551082882E+03  0.12700000000E+03 0.  0.
<mgrwt>
<rscale>  0 0.42216803E+03</rscale>
<asrwt>0</asrwt>
<pdfrwt beam="1">  1        1 0.93713347E-01 0.42216803E+03</pdfrwt>
<pdfrwt beam="2">  1       -1 0.97031594E-02 0.42216803E+03</pdfrwt>
<totfact> 0.22096080E+03</totfact>
</mgrwt>
</event>
<event>
 4    1  0.6296743E-005  0.2916296E+03  0.7818608E-02  0.1089501E+00
         -1   -1    0    0    0  501 -0.00000000000E+00  0.00000000000E+00  0.83268208706E+01  0.83268223959E+01  0.50400000000E-02 0. -1.
          1   -1    0    0  501    0  0.00000000000E+00 -0.00000000000E+00 -0.25534295861E+04  0.25534295861E+04  0.50400000000E-02 0.  1.
    5000001    1    1    2    0    0 -0.53677941791E+01 -0.57429552171E+02 -0.89924668294E+03  0.91000030959E+03  0.12700000000E+03 0.  0.
   -5000001    1    1    2    0    0  0.53677941791E+01  0.57429552171E+02 -0.16458560823E+04  0.16517560989E+04  0.12700000000E+03 0.  0.
<mgrwt>
<rscale>  0 0.29162958E+03</rscale>
<asrwt>0</asrwt>
<pdfrwt beam="1">  1        1 0.36477515E+00 0.29162958E+03</pdfrwt>
<pdfrwt beam="2">  1       -1 0.11895476E-02 0.29162958E+03</pdfrwt>
<totfact> 0.28221887E+03</totfact>
</mgrwt>
</event>
<event>
 4    1  0.6296743E-005  0.4265279E+03  0.7818608E-02  0.1034962E+00
          1   -1    0    0  501    0  0.00000000000E+00  0.00000000000E+00  0.10146797853E+04  0.10146797853E+04  0.50400000000E-02 0.  1.
         -1   -1    0    0    0  501 -0.00000000000E+00 -0.00000000000E+00 -0.44823514403E+02  0.44823514686E+02  0.50400000000E-02 0. -1.
    5000001    1    1    2    0    0  0.39401724730E+02 -0.15672207912E+03  0.62628185477E+03  0.65914510361E+03  0.12700000000E+03 0.  0.
   -5000001    1    1    2    0    0 -0.39401724730E+02  0.15672207912E+03  0.34357441609E+03  0.40035819636E+03  0.12700000000E+03 0.  0.
<mgrwt>
<rscale>  0 0.42652791E+03</rscale>
<asrwt>0</asrwt>
<pdfrwt beam="1">  1        1 0.14495426E+00 0.42652791E+03</pdfrwt>
<pdfrwt beam="2">  1       -1 0.64033591E-02 0.42652791E+03</pdfrwt>
<totfact> 0.21468423E+03</totfact>
</mgrwt>
</event>
<event>
 4    1  0.6296743E-005  0.3153812E+03  0.7818608E-02  0.1077795E+00
         -1   -1    0    0    0  501 -0.00000000000E+00  0.00000000000E+00  0.96591367634E+02  0.96591367765E+02  0.50400000000E-02 0. -1.
          1   -1    0    0  501    0  0.00000000000E+00 -0.00000000000E+00 -0.25743830465E+03  0.25743830470E+03  0.50400000000E-02 0.  1.
    5000001    1    1    2    0    0  0.48632972886E+02 -0.79518083229E+02 -0.88283398811E+02  0.18058585248E+03  0.12700000000E+03 0.  0.
   -5000001    1    1    2    0    0 -0.48632972886E+02  0.79518083229E+02 -0.72563538203E+02  0.17344381998E+03  0.12700000000E+03 0.  0.
<mgrwt>
<rscale>  0 0.31538115E+03</rscale>
<asrwt>0</asrwt>
<pdfrwt beam="1">  1        1 0.36776900E-01 0.31538115E+03</pdfrwt>
<pdfrwt beam="2">  1       -1 0.13798767E-01 0.31538115E+03</pdfrwt>
<totfact> 0.42900728E+03</totfact>
</mgrwt>
</event>
<event>
 4    1  0.6296743E-005  0.4654834E+03  0.7818608E-02  0.1023203E+00
          1   -1    0    0  501    0  0.00000000000E+00  0.00000000000E+00  0.60142550046E+03  0.60142550048E+03  0.50400000000E-02 0.  1.
         -1   -1    0    0    0  501 -0.00000000000E+00 -0.00000000000E+00 -0.90067164464E+02  0.90067164605E+02  0.50400000000E-02 0. -1.
    5000001    1    1    2    0    0  0.80398294609E+02 -0.10941404853E+03  0.47680832367E+02  0.19193171068E+03  0.12700000000E+03 0.  0.
   -5000001    1    1    2    0    0 -0.80398294609E+02  0.10941404853E+03  0.46367750362E+03  0.49956095440E+03  0.12700000000E+03 0.  0.
<mgrwt>
<rscale>  0 0.46548336E+03</rscale>
<asrwt>0</asrwt>
<pdfrwt beam="1">  1        1 0.85917926E-01 0.46548336E+03</pdfrwt>
<pdfrwt beam="2">  1       -1 0.12866738E-01 0.46548336E+03</pdfrwt>
<totfact> 0.16004001E+03</totfact>
</mgrwt>
</event>
<event>
 4    1  0.6296743E-005  0.3012052E+03  0.7818608E-02  0.1084640E+00
         -1   -1    0    0    0  501 -0.00000000000E+00  0.00000000000E+00  0.28981507829E+02  0.28981508268E+02  0.50400000000E-02 0.  1.
          1   -1    0    0  501    0  0.00000000000E+00 -0.00000000000E+00 -0.78260744573E+03  0.78260744574E+03  0.50400000000E-02 0. -1.
    5000001    1    1    2    0    0  0.51390318385E+02 -0.61715857670E+02 -0.40407006423E+03  0.43110489295E+03  0.12700000000E+03 0.  0.
   -5000001    1    1    2    0    0 -0.51390318385E+02  0.61715857670E+02 -0.34955587366E+03  0.38048406106E+03  0.12700000000E+03 0.  0.
<mgrwt>
<rscale>  0 0.30120521E+03</rscale>
<asrwt>0</asrwt>
<pdfrwt beam="1">  1        1 0.11180105E+00 0.30120521E+03</pdfrwt>
<pdfrwt beam="2">  1       -1 0.41402159E-02 0.30120521E+03</pdfrwt>
<totfact> 0.62343104E+03</totfact>
</mgrwt>
</event>
<event>
 4    1  0.6296743E-005  0.6270947E+03  0.7818608E-02  0.9850735E-01
         -1   -1    0    0    0  501 -0.00000000000E+00  0.00000000000E+00  0.11181149599E+03  0.11181149610E+03  0.50400000000E-02 0. -1.
          1   -1    0    0  501    0  0.00000000000E+00 -0.00000000000E+00 -0.87926495904E+03  0.87926495906E+03  0.50400000000E-02 0.  1.
    5000001    1    1    2    0    0 -0.11994377481E+03  0.25967374775E+03 -0.35349280936E+03  0.47212618086E+03  0.12700000000E+03 0.  0.
   -5000001    1    1    2    0    0  0.11994377481E+03 -0.25967374775E+03 -0.41396065370E+03  0.51895027430E+03  0.12700000000E+03 0.  0.
<mgrwt>
<rscale>  0 0.62709467E+03</rscale>
<asrwt>0</asrwt>
<pdfrwt beam="1">  1        1 0.12560928E+00 0.62709467E+03</pdfrwt>
<pdfrwt beam="2">  1       -1 0.15973071E-01 0.62709467E+03</pdfrwt>
<totfact> 0.64120573E+02</totfact>
</mgrwt>
</event>
<event>
 4    1  0.6296743E-005  0.2991793E+03  0.7818608E-02  0.1085652E+00
          1   -1    0    0  501    0  0.00000000000E+00  0.00000000000E+00  0.28421229823E+03  0.28421229827E+03  0.50400000000E-02 0.  1.
         -1   -1    0    0    0  501 -0.00000000000E+00 -0.00000000000E+00 -0.78733615304E+02  0.78733615465E+02  0.50400000000E-02 0. -1.
    5000001    1    1    2    0    0  0.71917184844E+02 -0.32346436816E+02  0.10934937013E+03  0.18521516730E+03  0.12700000000E+03 0.  0.
   -5000001    1    1    2    0    0 -0.71917184844E+02  0.32346436816E+02  0.96129312797E+02  0.17773074644E+03  0.12700000000E+03 0.  0.
<mgrwt>
<rscale>  0 0.29917929E+03</rscale>
<asrwt>0</asrwt>
<pdfrwt beam="1">  1        1 0.40601757E-01 0.29917929E+03</pdfrwt>
<pdfrwt beam="2">  1       -1 0.11247659E-01 0.29917929E+03</pdfrwt>
<totfact> 0.52135671E+03</totfact>
</mgrwt>
</event>
<event>
 4    1  0.6296743E-005  0.3564983E+03  0.7818608E-02  0.1059979E+00
         -1   -1    0    0    0  501 -0.00000000000E+00  0.00000000000E+00  0.40742888058E+02  0.40742888370E+02  0.50400000000E-02 0. -1.
          1   -1    0    0  501    0  0.00000000000E+00 -0.00000000000E+00 -0.77983562017E+03  0.77983562019E+03  0.50400000000E-02 0.  1.
    5000001    1    1    2    0    0 -0.98163735704E+02  0.75115638169E+02 -0.41353840666E+03  0.44991276031E+03  0.12700000000E+03 0.  0.
   -5000001    1    1    2    0    0  0.98163735704E+02 -0.75115638169E+02 -0.32555432546E+03  0.37066574826E+03  0.12700000000E+03 0.  0.
<mgrwt>
<rscale>  0 0.35649828E+03</rscale>
<asrwt>0</asrwt>
<pdfrwt beam="1">  1        1 0.11140508E+00 0.35649828E+03</pdfrwt>
<pdfrwt beam="2">  1       -1 0.58204131E-02 0.35649828E+03</pdfrwt>
<totfact> 0.37660409E+03</totfact>
</mgrwt>
</event>
<event>
 4    1  0.6296743E-005  0.4162958E+03  0.7818608E-02  0.1038279E+00
         -1   -1    0    0    0  501 -0.00000000000E+00  0.00000000000E+00  0.71005075818E+02  0.71005075997E+02  0.50400000000E-02 0. -1.
          1   -1    0    0  501    0  0.00000000000E+00 -0.00000000000E+00 -0.61017529676E+03  0.61017529678E+03  0.50400000000E-02 0.  1.
    5000001    1    1    2    0    0  0.10455997601E+03  0.10019576615E+03 -0.14048858316E+03  0.23840726108E+03  0.12700000000E+03 0.  0.
   -5000001    1    1    2    0    0 -0.10455997601E+03 -0.10019576615E+03 -0.39868163778E+03  0.44277311169E+03  0.12700000000E+03 0.  0.
<mgrwt>
<rscale>  0 0.41629578E+03</rscale>
<asrwt>0</asrwt>
<pdfrwt beam="1">  1        1 0.87167896E-01 0.41629578E+03</pdfrwt>
<pdfrwt beam="2">  1       -1 0.10143583E-01 0.41629578E+03</pdfrwt>
<totfact> 0.22817660E+03</totfact>
</mgrwt>
</event>
<event>
 4    1  0.6296743E-005  0.4810040E+03  0.7818608E-02  0.1018860E+00
          1   -1    0    0  501    0  0.00000000000E+00  0.00000000000E+00  0.14840628376E+04  0.14840628376E+04  0.50400000000E-02 0.  1.
         -1   -1    0    0    0  501 -0.00000000000E+00 -0.00000000000E+00 -0.38974905688E+02  0.38974906014E+02  0.50400000000E-02 0. -1.
    5000001    1    1    2    0    0 -0.19024482306E+03  0.84996294435E+01  0.48885639627E+03  0.53979154548E+03  0.12700000000E+03 0.  0.
   -5000001    1    1    2    0    0  0.19024482306E+03 -0.84996294435E+01  0.95623153563E+03  0.98324619813E+03  0.12700000000E+03 0.  0.
<mgrwt>
<rscale>  0 0.48100399E+03</rscale>
<asrwt>0</asrwt>
<pdfrwt beam="1">  1        1 0.21200892E+00 0.48100399E+03</pdfrwt>
<pdfrwt beam="2">  1       -1 0.55678451E-02 0.48100399E+03</pdfrwt>
<totfact> 0.12826651E+03</totfact>
</mgrwt>
</event>
<event>
 4    1  0.6296743E-005  0.3369162E+03  0.7818608E-02  0.1068117E+00
         -1   -1    0    0    0  501 -0.00000000000E+00  0.00000000000E+00  0.25937234178E+03  0.25937234183E+03  0.50400000000E-02 0. -1.
          1   -1    0    0  501    0  0.00000000000E+00 -0.00000000000E+00 -0.10941075749E+03  0.10941075760E+03  0.50400000000E-02 0.  1.
    5000001    1    1    2    0    0  0.36107457378E+02 -0.10182984542E+03  0.48709437199E+02  0.17370859267E+03  0.12700000000E+03 0.  0.
   -5000001    1    1    2    0    0 -0.36107457378E+02  0.10182984542E+03  0.10125214710E+03  0.19507450676E+03  0.12700000000E+03 0.  0.
<mgrwt>
<rscale>  0 0.33691616E+03</rscale>
<asrwt>0</asrwt>
<pdfrwt beam="1">  1        1 0.15630109E-01 0.33691616E+03</pdfrwt>
<pdfrwt beam="2">  1       -1 0.37053191E-01 0.33691616E+03</pdfrwt>
<totfact> 0.25034262E+03</totfact>
</mgrwt>
</event>
<event>
 4    1  0.6296743E-005  0.4141030E+03  0.7818608E-02  0.1039003E+00
          1   -1    0    0  501    0  0.00000000000E+00  0.00000000000E+00  0.13856082545E+03  0.13856082554E+03  0.50400000000E-02 0.  1.
         -1   -1    0    0    0  501 -0.00000000000E+00 -0.00000000000E+00 -0.30939719292E+03  0.30939719296E+03  0.50400000000E-02 0. -1.
    5000001    1    1    2    0    0 -0.77371567045E+02  0.10493005109E+03  0.21367282439E+02  0.18325456548E+03  0.12700000000E+03 0.  0.
   -5000001    1    1    2    0    0  0.77371567045E+02 -0.10493005109E+03 -0.19220364991E+03  0.26470345303E+03  0.12700000000E+03 0.  0.
<mgrwt>
<rscale>  0 0.41410303E+03</rscale>
<asrwt>0</asrwt>
<pdfrwt beam="1">  1        1 0.19794404E-01 0.41410303E+03</pdfrwt>
<pdfrwt beam="2">  1       -1 0.44199599E-01 0.41410303E+03</pdfrwt>
<totfact> 0.13418365E+03</totfact>
</mgrwt>
</event>
<event>
 4    1  0.6296743E-005  0.4690904E+03  0.7818608E-02  0.1022177E+00
          1   -1    0    0  501    0  0.00000000000E+00  0.00000000000E+00  0.22277801791E+04  0.22277801791E+04  0.50400000000E-02 0.  1.
         -1   -1    0    0    0  501 -0.00000000000E+00 -0.00000000000E+00 -0.24693391102E+02  0.24693391616E+02  0.50400000000E-02 0. -1.
    5000001    1    1    2    0    0 -0.30993443194E+02 -0.19449074379E+03  0.10546908897E+04  0.10804115492E+04  0.12700000000E+03 0.  0.
   -5000001    1    1    2    0    0  0.30993443194E+02  0.19449074379E+03  0.11483958983E+04  0.11720620215E+04  0.12700000000E+03 0.  0.
<mgrwt>
<rscale>  0 0.46909039E+03</rscale>
<asrwt>0</asrwt>
<pdfrwt beam="1">  1        1 0.31825412E+00 0.46909039E+03</pdfrwt>
<pdfrwt beam="2">  1       -1 0.35276294E-02 0.46909039E+03</pdfrwt>
<totfact> 0.88752847E+02</totfact>
</mgrwt>
</event>
<event>
 4    1  0.6296743E-005  0.6237046E+03  0.7818608E-02  0.9857411E-01
          1   -1    0    0  501    0  0.00000000000E+00  0.00000000000E+00  0.11570928096E+03  0.11570928107E+03  0.50400000000E-02 0.  1.
         -1   -1    0    0    0  501 -0.00000000000E+00 -0.00000000000E+00 -0.84048446638E+03  0.84048446640E+03  0.50400000000E-02 0. -1.
    5000001    1    1    2    0    0 -0.91111005077E+02  0.19401269319E+03 -0.64994150377E+03  0.69605682145E+03  0.12700000000E+03 0.  0.
   -5000001    1    1    2    0    0  0.91111005077E+02 -0.19401269319E+03 -0.74833681650E+02  0.26013692601E+03  0.12700000000E+03 0.  0.
<mgrwt>
<rscale>  0 0.62370459E+03</rscale>
<asrwt>0</asrwt>
<pdfrwt beam="1">  1        1 0.16529898E-01 0.62370459E+03</pdfrwt>
<pdfrwt beam="2">  1       -1 0.12006921E+00 0.62370459E+03</pdfrwt>
<totfact> 0.21299628E+02</totfact>
</mgrwt>
</event>
<event>
 4    1  0.6296743E-005  0.4739517E+03  0.7818608E-02  0.1020811E+00
          1   -1    0    0  501    0  0.00000000000E+00  0.00000000000E+00  0.17910151314E+04  0.17910151314E+04  0.50400000000E-02 0. -1.
         -1   -1    0    0    0  501 -0.00000000000E+00 -0.00000000000E+00 -0.31355150205E+02  0.31355150610E+02  0.50400000000E-02 0.  1.
    5000001    1    1    2    0    0 -0.67580968757E+02 -0.15428409735E+03  0.46467480914E+03  0.51031602785E+03  0.12700000000E+03 0.  0.
   -5000001    1    1    2    0    0  0.67580968757E+02  0.15428409735E+03  0.12949851720E+04  0.13120542541E+04  0.12700000000E+03 0.  0.
<mgrwt>
<rscale>  0 0.47395168E+03</rscale>
<asrwt>0</asrwt>
<pdfrwt beam="1">  1        1 0.25585923E+00 0.47395168E+03</pdfrwt>
<pdfrwt beam="2">  1       -1 0.44793085E-02 0.47395168E+03</pdfrwt>
<totfact> 0.11472125E+03</totfact>
</mgrwt>
</event>
<event>
 4    1  0.6296743E-005  0.3333180E+03  0.7818608E-02  0.1069678E+00
          1   -1    0    0  501    0  0.00000000000E+00  0.00000000000E+00  0.27843465527E+03  0.27843465531E+03  0.50400000000E-02 0.  1.
         -1   -1    0    0    0  501 -0.00000000000E+00 -0.00000000000E+00 -0.99754889092E+02  0.99754889219E+02  0.50400000000E-02 0. -1.
    5000001    1    1    2    0    0 -0.47052668602E+02 -0.95096158147E+02  0.66962084457E+02  0.17852213776E+03  0.12700000000E+03 0.  0.
   -5000001    1    1    2    0    0  0.47052668602E+02  0.95096158147E+02  0.11171768172E+03  0.19966740677E+03  0.12700000000E+03 0.  0.
<mgrwt>
<rscale>  0 0.33331798E+03</rscale>
<asrwt>0</asrwt>
<pdfrwt beam="1">  1        1 0.39776380E-01 0.33331798E+03</pdfrwt>
<pdfrwt beam="2">  1       -1 0.14250698E-01 0.33331798E+03</pdfrwt>
<totfact> 0.36974265E+03</totfact>
</mgrwt>
</event>
<event>
 4    1  0.6296743E-005  0.5146761E+03  0.7818608E-02  0.1010018E+00
         -1   -1    0    0    0  501 -0.00000000000E+00  0.00000000000E+00  0.18707663136E+03  0.18707663143E+03  0.50400000000E-02 0. -1.
          1   -1    0    0  501    0  0.00000000000E+00 -0.00000000000E+00 -0.35398791039E+03  0.35398791043E+03  0.50400000000E-02 0.  1.
    5000001    1    1    2    0    0 -0.18029443308E+03  0.10559720281E+03  0.88896758032E+00  0.24451307144E+03  0.12700000000E+03 0.  0.
   -5000001    1    1    2    0    0  0.18029443308E+03 -0.10559720281E+03 -0.16780024661E+03  0.29655147042E+03  0.12700000000E+03 0.  0.
<mgrwt>
<rscale>  0 0.51467608E+03</rscale>
<asrwt>0</asrwt>
<pdfrwt beam="1">  1        1 0.50569701E-01 0.51467608E+03</pdfrwt>
<pdfrwt beam="2">  1       -1 0.26725233E-01 0.51467608E+03</pdfrwt>
<totfact> 0.97347031E+02</totfact>
</mgrwt>
</event>
<event>
 4    1  0.6296743E-005  0.3898628E+03  0.7818608E-02  0.1047347E+00
          1   -1    0    0  501    0  0.00000000000E+00  0.00000000000E+00  0.36410073959E+03  0.36410073962E+03  0.50400000000E-02 0.  1.
         -1   -1    0    0    0  501 -0.00000000000E+00 -0.00000000000E+00 -0.10436192692E+03  0.10436192704E+03  0.50400000000E-02 0. -1.
    5000001    1    1    2    0    0  0.12701977209E+03 -0.70002423031E+02  0.16458931679E+03  0.25348176450E+03  0.12700000000E+03 0.  0.
   -5000001    1    1    2    0    0 -0.12701977209E+03  0.70002423031E+02  0.95149495873E+02  0.21498090217E+03  0.12700000000E+03 0.  0.
<mgrwt>
<rscale>  0 0.38986282E+03</rscale>
<asrwt>0</asrwt>
<pdfrwt beam="1">  1        1 0.52014391E-01 0.38986282E+03</pdfrwt>
<pdfrwt beam="2">  1       -1 0.14908847E-01 0.38986282E+03</pdfrwt>
<totfact> 0.24544258E+03</totfact>
</mgrwt>
</event>
<event>
 4    1  0.6296743E-005  0.5315675E+03  0.7818608E-02  0.1005853E+00
         -1   -1    0    0    0  501 -0.00000000000E+00  0.00000000000E+00  0.14068764433E+04  0.14068764433E+04  0.50400000000E-02 0. -1.
          1   -1    0    0  501    0  0.00000000000E+00 -0.00000000000E+00 -0.50211234113E+02  0.50211234366E+02  0.50400000000E-02 0.  1.
    5000001    1    1    2    0    0 -0.21788568730E+03  0.76521681453E+02  0.58408199600E+03  0.64078898127E+03  0.12700000000E+03 0.  0.
   -5000001    1    1    2    0    0  0.21788568730E+03 -0.76521681453E+02  0.77258321320E+03  0.81629869642E+03  0.12700000000E+03 0.  0.
<mgrwt>
<rscale>  0 0.53156750E+03</rscale>
<asrwt>0</asrwt>
<pdfrwt beam="1">  1        1 0.71730332E-02 0.53156750E+03</pdfrwt>
<pdfrwt beam="2">  1       -1 0.20098236E+00 0.53156750E+03</pdfrwt>
<totfact> 0.16330699E+02</totfact>
</mgrwt>
</event>
<event>
 4    1  0.6296743E-005  0.3207697E+03  0.7818608E-02  0.1075296E+00
         -1   -1    0    0    0  501 -0.00000000000E+00  0.00000000000E+00  0.59633357996E+01  0.59633379294E+01  0.50400000000E-02 0. -1.
          1   -1    0    0  501    0  0.00000000000E+00 -0.00000000000E+00 -0.43135755516E+04  0.43135755516E+04  0.50400000000E-02 0.  1.
    5000001    1    1    2    0    0  0.86838643719E+02 -0.29481533965E+02 -0.26172053333E+04  0.26218891791E+04  0.12700000000E+03 0.  0.
   -5000001    1    1    2    0    0 -0.86838643719E+02  0.29481533965E+02 -0.16904068825E+04  0.16976497105E+04  0.12700000000E+03 0.  0.
<mgrwt>
<rscale>  0 0.32076972E+03</rscale>
<asrwt>0</asrwt>
<pdfrwt beam="1">  1        1 0.61622308E+00 0.32076972E+03</pdfrwt>
<pdfrwt beam="2">  1       -1 0.85190803E-03 0.32076972E+03</pdfrwt>
<totfact> 0.29141775E+02</totfact>
</mgrwt>
</event>
<event>
 4    1  0.6296743E-005  0.4080234E+03  0.7818608E-02  0.1041036E+00
          1   -1    0    0  501    0  0.00000000000E+00  0.00000000000E+00  0.55578833280E+02  0.55578833508E+02  0.50400000000E-02 0.  1.
         -1   -1    0    0    0  501 -0.00000000000E+00 -0.00000000000E+00 -0.74886010123E+03  0.74886010125E+03  0.50400000000E-02 0. -1.
    5000001    1    1    2    0    0 -0.62738875301E+02 -0.14070041545E+03 -0.42932828027E+03  0.47348130440E+03  0.12700000000E+03 0.  0.
   -5000001    1    1    2    0    0  0.62738875301E+02  0.14070041545E+03 -0.26395298769E+03  0.33095763036E+03  0.12700000000E+03 0.  0.
<mgrwt>
<rscale>  0 0.40802339E+03</rscale>
<asrwt>0</asrwt>
<pdfrwt beam="1">  1        1 0.79398338E-02 0.40802339E+03</pdfrwt>
<pdfrwt beam="2">  1       -1 0.10698001E+00 0.40802339E+03</pdfrwt>
<totfact> 0.76192435E+02</totfact>
</mgrwt>
</event>
<event>
 4    1  0.6296743E-005  0.4271483E+03  0.7818608E-02  0.1034765E+00
         -1   -1    0    0    0  501 -0.00000000000E+00  0.00000000000E+00  0.34487315207E+03  0.34487315211E+03  0.50400000000E-02 0. -1.
          1   -1    0    0  501    0  0.00000000000E+00 -0.00000000000E+00 -0.13226290970E+03  0.13226290980E+03  0.50400000000E-02 0.  1.
    5000001    1    1    2    0    0  0.90091433080E+02 -0.12740213993E+03  0.18636682946E+03  0.27424326190E+03  0.12700000000E+03 0.  0.
   -5000001    1    1    2    0    0 -0.90091433080E+02  0.12740213993E+03  0.26243412903E+02  0.20289280000E+03  0.12700000000E+03 0.  0.
<mgrwt>
<rscale>  0 0.42714834E+03</rscale>
<asrwt>0</asrwt>
<pdfrwt beam="1">  1        1 0.18894702E-01 0.42714834E+03</pdfrwt>
<pdfrwt beam="2">  1       -1 0.49267592E-01 0.42714834E+03</pdfrwt>
<totfact> 0.11673591E+03</totfact>
</mgrwt>
</event>
<event>
 4    1  0.6296743E-005  0.4568148E+03  0.7818608E-02  0.1025709E+00
         -1   -1    0    0    0  501 -0.00000000000E+00  0.00000000000E+00  0.57040082750E+02  0.57040082973E+02  0.50400000000E-02 0. -1.
          1   -1    0    0  501    0  0.00000000000E+00 -0.00000000000E+00 -0.91461897773E+03  0.91461897775E+03  0.50400000000E-02 0.  1.
    5000001    1    1    2    0    0  0.35229915327E+02 -0.12305056963E+03 -0.13056221934E+03  0.22261644759E+03  0.12700000000E+03 0.  0.
   -5000001    1    1    2    0    0 -0.35229915327E+02  0.12305056963E+03 -0.72701667564E+03  0.74904261313E+03  0.12700000000E+03 0.  0.
<mgrwt>
<rscale>  0 0.45681481E+03</rscale>
<asrwt>0</asrwt>
<pdfrwt beam="1">  1        1 0.13065985E+00 0.45681481E+03</pdfrwt>
<pdfrwt beam="2">  1       -1 0.81485838E-02 0.45681481E+03</pdfrwt>
<totfact> 0.17579440E+03</totfact>
</mgrwt>
</event>
<event>
 4    1  0.6296743E-005  0.2944401E+03  0.7818608E-02  0.1088053E+00
         -1   -1    0    0    0  501 -0.00000000000E+00  0.00000000000E+00  0.32113643546E+02  0.32113643941E+02  0.50400000000E-02 0. -1.
          1   -1    0    0  501    0  0.00000000000E+00 -0.00000000000E+00 -0.67490769575E+03  0.67490769577E+03  0.50400000000E-02 0.  1.
    5000001    1    1    2    0    0 -0.74305671558E+02 -0.27401751160E+00 -0.33299712795E+03  0.36405699435E+03  0.12700000000E+03 0.  0.
   -5000001    1    1    2    0    0  0.74305671558E+02  0.27401751160E+00 -0.30979692425E+03  0.34296434535E+03  0.12700000000E+03 0.  0.
<mgrwt>
<rscale>  0 0.29444011E+03</rscale>
<asrwt>0</asrwt>
<pdfrwt beam="1">  1        1 0.96415377E-01 0.29444011E+03</pdfrwt>
<pdfrwt beam="2">  1       -1 0.45876638E-02 0.29444011E+03</pdfrwt>
<totfact> 0.66207979E+03</totfact>
</mgrwt>
</event>
<event>
 4    1  0.6296743E-005  0.5081342E+03  0.7818608E-02  0.1011677E+00
          1   -1    0    0  501    0  0.00000000000E+00  0.00000000000E+00  0.26091971409E+04  0.26091971409E+04  0.50400000000E-02 0.  1.
         -1   -1    0    0    0  501 -0.00000000000E+00 -0.00000000000E+00 -0.24739447220E+02  0.24739447734E+02  0.50400000000E-02 0. -1.
    5000001    1    1    2    0    0 -0.31543398476E+02  0.19976155344E+03  0.84267975526E+03  0.87586405004E+03  0.12700000000E+03 0.  0.
   -5000001    1    1    2    0    0  0.31543398476E+02 -0.19976155344E+03  0.17417779384E+04  0.17580725386E+04  0.12700000000E+03 0.  0.
<mgrwt>
<rscale>  0 0.50813422E+03</rscale>
<asrwt>0</asrwt>
<pdfrwt beam="1">  1        1 0.37274240E+00 0.50813422E+03</pdfrwt>
<pdfrwt beam="2">  1       -1 0.35342073E-02 0.50813422E+03</pdfrwt>
<totfact> 0.51258306E+02</totfact>
</mgrwt>
</event>
<event>
 4    1  0.6296743E-005  0.3145992E+03  0.7818608E-02  0.1078162E+00
         -1   -1    0    0    0  501 -0.00000000000E+00  0.00000000000E+00  0.37826883106E+03  0.37826883109E+03  0.50400000000E-02 0. -1.
          1   -1    0    0  501    0  0.00000000000E+00 -0.00000000000E+00 -0.65411591176E+02  0.65411591370E+02  0.50400000000E-02 0.  1.
    5000001    1    1    2    0    0  0.49909058868E+02  0.63746148816E+02  0.92423816733E+02  0.17670780273E+03  0.12700000000E+03 0.  0.
   -5000001    1    1    2    0    0 -0.49909058868E+02 -0.63746148816E+02  0.22043342315E+03  0.26697261973E+03  0.12700000000E+03 0.  0.
<mgrwt>
<rscale>  0 0.31459921E+03</rscale>
<asrwt>0</asrwt>
<pdfrwt beam="1">  1        1 0.93445130E-02 0.31459921E+03</pdfrwt>
<pdfrwt beam="2">  1       -1 0.54038405E-01 0.31459921E+03</pdfrwt>
<totfact> 0.25012995E+03</totfact>
</mgrwt>
</event>
<event>
 4    1  0.6296743E-005  0.5235360E+03  0.7818608E-02  0.1007812E+00
          1   -1    0    0  501    0  0.00000000000E+00  0.00000000000E+00  0.37468727320E+02  0.37468727659E+02  0.50400000000E-02 0.  1.
         -1   -1    0    0    0  501 -0.00000000000E+00 -0.00000000000E+00 -0.18287913887E+04  0.18287913887E+04  0.50400000000E-02 0. -1.
    5000001    1    1    2    0    0  0.81655433181E+01  0.13377773624E+03 -0.15571100795E+04  0.15680191193E+04  0.12700000000E+03 0.  0.
   -5000001    1    1    2    0    0 -0.81655433181E+01 -0.13377773624E+03 -0.23421258182E+03  0.29824099700E+03  0.12700000000E+03 0.  0.
<mgrwt>
<rscale>  0 0.52353600E+03</rscale>
<asrwt>0</asrwt>
<pdfrwt beam="1">  1        1 0.53526765E-02 0.52353600E+03</pdfrwt>
<pdfrwt beam="2">  1       -1 0.26125586E+00 0.52353600E+03</pdfrwt>
<totfact> 0.99601493E+01</totfact>
</mgrwt>
</event>
<event>
 4    1  0.6296743E-005  0.6235935E+03  0.7818608E-02  0.9857631E-01
         -1   -1    0    0    0  501 -0.00000000000E+00  0.00000000000E+00  0.63629364563E+03  0.63629364565E+03  0.50400000000E-02 0. -1.
          1   -1    0    0  501    0  0.00000000000E+00 -0.00000000000E+00 -0.15278670656E+03  0.15278670664E+03  0.50400000000E-02 0.  1.
    5000001    1    1    2    0    0  0.11041994883E+03 -0.18868220340E+03  0.47264447975E+03  0.53601804375E+03  0.12700000000E+03 0.  0.
   -5000001    1    1    2    0    0 -0.11041994883E+03  0.18868220340E+03  0.10862459317E+02  0.25306230854E+03  0.12700000000E+03 0.  0.
<mgrwt>
<rscale>  0 0.62359349E+03</rscale>
<asrwt>0</asrwt>
<pdfrwt beam="1">  1        1 0.21826672E-01 0.62359349E+03</pdfrwt>
<pdfrwt beam="2">  1       -1 0.90899094E-01 0.62359349E+03</pdfrwt>
<totfact> 0.28016708E+02</totfact>
</mgrwt>
</event>
<event>
 4    1  0.6296743E-005  0.5108286E+03  0.7818608E-02  0.1010991E+00
          1   -1    0    0  501    0  0.00000000000E+00  0.00000000000E+00  0.63548438751E+03  0.63548438753E+03  0.50400000000E-02 0.  1.
         -1   -1    0    0    0  501 -0.00000000000E+00 -0.00000000000E+00 -0.10265628054E+03  0.10265628067E+03  0.50400000000E-02 0. -1.
    5000001    1    1    2    0    0  0.20383112433E+03 -0.24819870037E+02  0.38682847287E+03  0.45599168920E+03  0.12700000000E+03 0.  0.
   -5000001    1    1    2    0    0 -0.20383112433E+03  0.24819870037E+02  0.14599963409E+03  0.28214897900E+03  0.12700000000E+03 0.  0.
<mgrwt>
<rscale>  0 0.51082860E+03</rscale>
<asrwt>0</asrwt>
<pdfrwt beam="1">  1        1 0.90783483E-01 0.51082860E+03</pdfrwt>
<pdfrwt beam="2">  1       -1 0.14665183E-01 0.51082860E+03</pdfrwt>
<totfact> 0.12012219E+03</totfact>
</mgrwt>
</event>
<event>
 4    1  0.6296743E-005  0.6081991E+03  0.7818608E-02  0.9888540E-01
         -1   -1    0    0    0  501 -0.00000000000E+00  0.00000000000E+00  0.49600978322E+02  0.49600978578E+02  0.50400000000E-02 0. -1.
          1   -1    0    0  501    0  0.00000000000E+00 -0.00000000000E+00 -0.18644092544E+04  0.18644092545E+04  0.50400000000E-02 0.  1.
    5000001    1    1    2    0    0  0.23837256260E+03  0.53983119714E+02 -0.50179499004E+03  0.57241843772E+03  0.12700000000E+03 0.  0.
   -5000001    1    1    2    0    0 -0.23837256260E+03 -0.53983119714E+02 -0.13130132861E+04  0.13415917953E+04  0.12700000000E+03 0.  0.
<mgrwt>
<rscale>  0 0.60819906E+03</rscale>
<asrwt>0</asrwt>
<pdfrwt beam="1">  1        1 0.26634414E+00 0.60819906E+03</pdfrwt>
<pdfrwt beam="2">  1       -1 0.70858552E-02 0.60819906E+03</pdfrwt>
<totfact> 0.50742116E+02</totfact>
</mgrwt>
</event>
<event>
 4    1  0.6296743E-005  0.3868811E+03  0.7818608E-02  0.1048419E+00
          1   -1    0    0  501    0  0.00000000000E+00  0.00000000000E+00  0.25247344353E+04  0.25247344353E+04  0.50400000000E-02 0.  1.
         -1   -1    0    0    0  501 -0.00000000000E+00 -0.00000000000E+00 -0.14821063151E+02  0.14821064008E+02  0.50400000000E-02 0. -1.
    5000001    1    1    2    0    0 -0.11342658430E+03 -0.88286217474E+02  0.14197427723E+04  0.14326404244E+04  0.12700000000E+03 0.  0.
   -5000001    1    1    2    0    0  0.11342658430E+03  0.88286217474E+02  0.10901705998E+04  0.11069150749E+04  0.12700000000E+03 0.  0.
<mgrwt>
<rscale>  0 0.38688112E+03</rscale>
<asrwt>0</asrwt>
<pdfrwt beam="1">  1        1 0.36067620E+00 0.38688112E+03</pdfrwt>
<pdfrwt beam="2">  1       -1 0.21172957E-02 0.38688112E+03</pdfrwt>
<totfact> 0.12555178E+03</totfact>
</mgrwt>
</event>
<event>
 4    1  0.6296743E-005  0.3421405E+03  0.7818608E-02  0.1065888E+00
         -1   -1    0    0    0  501 -0.00000000000E+00  0.00000000000E+00  0.33551183949E+03  0.33551183953E+03  0.50400000000E-02 0.  1.
          1   -1    0    0  501    0  0.00000000000E+00 -0.00000000000E+00 -0.87225048358E+02  0.87225048504E+02  0.50400000000E-02 0. -1.
    5000001    1    1    2    0    0 -0.61627906823E+02 -0.94898030263E+02  0.10161672292E+03  0.19813781422E+03  0.12700000000E+03 0.  0.
   -5000001    1    1    2    0    0  0.61627906823E+02  0.94898030263E+02  0.14667006821E+03  0.22459907381E+03  0.12700000000E+03 0.  0.
<mgrwt>
<rscale>  0 0.34214054E+03</rscale>
<asrwt>0</asrwt>
<pdfrwt beam="1">  1        1 0.12460721E-01 0.34214054E+03</pdfrwt>
<pdfrwt beam="2">  1       -1 0.47930263E-01 0.34214054E+03</pdfrwt>
<totfact> 0.21270999E+03</totfact>
</mgrwt>
</event>
<event>
 4    1  0.6296743E-005  0.4140826E+03  0.7818608E-02  0.1039010E+00
          1   -1    0    0  501    0  0.00000000000E+00  0.00000000000E+00  0.93079970876E+03  0.93079970878E+03  0.50400000000E-02 0.  1.
         -1   -1    0    0    0  501 -0.00000000000E+00 -0.00000000000E+00 -0.46052978640E+02  0.46052978915E+02  0.50400000000E-02 0. -1.
    5000001    1    1    2    0    0 -0.14561557855E+03 -0.10837156064E+02  0.61598216923E+03  0.64566583731E+03  0.12700000000E+03 0.  0.
   -5000001    1    1    2    0    0  0.14561557855E+03  0.10837156064E+02  0.26876456090E+03  0.33118685038E+03  0.12700000000E+03 0.  0.
<mgrwt>
<rscale>  0 0.41408260E+03</rscale>
<asrwt>0</asrwt>
<pdfrwt beam="1">  1        1 0.13297138E+00 0.41408260E+03</pdfrwt>
<pdfrwt beam="2">  1       -1 0.65789971E-02 0.41408260E+03</pdfrwt>
<totfact> 0.23763211E+03</totfact>
</mgrwt>
</event>
<event>
 4    1  0.6296743E-005  0.3683471E+03  0.7818608E-02  0.1055327E+00
          1   -1    0    0  501    0  0.00000000000E+00  0.00000000000E+00  0.43680511673E+02  0.43680511964E+02  0.50400000000E-02 0. -1.
         -1   -1    0    0    0  501 -0.00000000000E+00 -0.00000000000E+00 -0.77654540764E+03  0.77654540766E+03  0.50400000000E-02 0.  1.
    5000001    1    1    2    0    0  0.10741941163E+03 -0.49722370643E+02 -0.22953278287E+03  0.28779427122E+03  0.12700000000E+03 0.  0.
   -5000001    1    1    2    0    0 -0.10741941163E+03  0.49722370643E+02 -0.50333211310E+03  0.53243164840E+03  0.12700000000E+03 0.  0.
<mgrwt>
<rscale>  0 0.36834712E+03</rscale>
<asrwt>0</asrwt>
<pdfrwt beam="1">  1        1 0.62400736E-02 0.36834712E+03</pdfrwt>
<pdfrwt beam="2">  1       -1 0.11093505E+00 0.36834712E+03</pdfrwt>
<totfact> 0.97712952E+02</totfact>
</mgrwt>
</event>
<event>
 4    1  0.6296743E-005  0.4833011E+03  0.7818608E-02  0.1018232E+00
          1   -1    0    0  501    0  0.00000000000E+00  0.00000000000E+00  0.78622494133E+02  0.78622494294E+02  0.50400000000E-02 0. -1.
         -1   -1    0    0    0  501 -0.00000000000E+00 -0.00000000000E+00 -0.74272631495E+03  0.74272631496E+03  0.50400000000E-02 0.  1.
    5000001    1    1    2    0    0 -0.14844092293E+03  0.12294054035E+03 -0.45361836988E+03  0.50896729714E+03  0.12700000000E+03 0.  0.
   -5000001    1    1    2    0    0  0.14844092293E+03 -0.12294054035E+03 -0.21048545093E+03  0.31238151212E+03  0.12700000000E+03 0.  0.
<mgrwt>
<rscale>  0 0.48330113E+03</rscale>
<asrwt>0</asrwt>
<pdfrwt beam="1">  1        1 0.11231785E-01 0.48330113E+03</pdfrwt>
<pdfrwt beam="2">  1       -1 0.10610376E+00 0.48330113E+03</pdfrwt>
<totfact> 0.48260302E+02</totfact>
</mgrwt>
</event>
<event>
 4    1  0.6296743E-005  0.7933052E+03  0.7818608E-02  0.9569758E-01
         -1   -1    0    0    0  501 -0.00000000000E+00  0.00000000000E+00  0.10214614127E+04  0.10214614127E+04  0.50400000000E-02 0.  1.
          1   -1    0    0  501    0  0.00000000000E+00 -0.00000000000E+00 -0.15402762214E+03  0.15402762223E+03  0.50400000000E-02 0. -1.
    5000001    1    1    2    0    0 -0.35120846708E+03  0.10428263838E+03  0.30990318576E+03  0.49637812256E+03  0.12700000000E+03 0.  0.
   -5000001    1    1    2    0    0  0.35120846708E+03 -0.10428263838E+03  0.55753060476E+03  0.67911091234E+03  0.12700000000E+03 0.  0.
<mgrwt>
<rscale>  0 0.79330517E+03</rscale>
<asrwt>0</asrwt>
<pdfrwt beam="1">  1        1 0.22003945E-01 0.79330517E+03</pdfrwt>
<pdfrwt beam="2">  1       -1 0.14592306E+00 0.79330517E+03</pdfrwt>
<totfact> 0.88052632E+01</totfact>
</mgrwt>
</event>
<event>
 4    1  0.6296743E-005  0.5503679E+03  0.7818608E-02  0.1001409E+00
          1   -1    0    0  501    0  0.00000000000E+00  0.00000000000E+00  0.18416175347E+03  0.18416175354E+03  0.50400000000E-02 0.  1.
         -1   -1    0    0    0  501 -0.00000000000E+00 -0.00000000000E+00 -0.41119395035E+03  0.41119395038E+03  0.50400000000E-02 0. -1.
    5000001    1    1    2    0    0 -0.19505504795E+03 -0.23148575226E+02 -0.27033081053E+03  0.35747737744E+03  0.12700000000E+03 0.  0.
   -5000001    1    1    2    0    0  0.19505504795E+03  0.23148575226E+02  0.43298613644E+02  0.23787832648E+03  0.12700000000E+03 0.  0.
<mgrwt>
<rscale>  0 0.55036787E+03</rscale>
<asrwt>0</asrwt>
<pdfrwt beam="1">  1        1 0.26308822E-01 0.55036787E+03</pdfrwt>
<pdfrwt beam="2">  1       -1 0.58741992E-01 0.55036787E+03</pdfrwt>
<totfact> 0.54178272E+02</totfact>
</mgrwt>
</event>
<event>
 4    1  0.6296743E-005  0.2755768E+03  0.7818608E-02  0.1098130E+00
          1   -1    0    0  501    0  0.00000000000E+00  0.00000000000E+00  0.75744501855E+02  0.75744502022E+02  0.50400000000E-02 0. -1.
         -1   -1    0    0    0  501 -0.00000000000E+00 -0.00000000000E+00 -0.25065368305E+03  0.25065368310E+03  0.50400000000E-02 0.  1.
    5000001    1    1    2    0    0  0.59421983189E+01  0.51696140006E+02 -0.10190438720E+03  0.17094240183E+03  0.12700000000E+03 0.  0.
   -5000001    1    1    2    0    0 -0.59421983189E+01 -0.51696140006E+02 -0.73004793986E+02  0.15545578329E+03  0.12700000000E+03 0.  0.
<mgrwt>
<rscale>  0 0.27557677E+03</rscale>
<asrwt>0</asrwt>
<pdfrwt beam="1">  1        1 0.10820643E-01 0.27557677E+03</pdfrwt>
<pdfrwt beam="2">  1       -1 0.35807669E-01 0.27557677E+03</pdfrwt>
<totfact> 0.43095241E+03</totfact>
</mgrwt>
</event>
<event>
 4    1  0.6296743E-005  0.3058380E+03  0.7818608E-02  0.1082358E+00
         -1   -1    0    0    0  501 -0.00000000000E+00  0.00000000000E+00  0.28858864164E+02  0.28858864604E+02  0.50400000000E-02 0.  1.
          1   -1    0    0  501    0  0.00000000000E+00 -0.00000000000E+00 -0.81029611683E+03  0.81029611684E+03  0.50400000000E-02 0. -1.
    5000001    1    1    2    0    0 -0.58851783980E+02 -0.27311113187E+02 -0.23929239401E+03  0.27856647180E+03  0.12700000000E+03 0.  0.
   -5000001    1    1    2    0    0  0.58851783980E+02  0.27311113187E+02 -0.54214485866E+03  0.56058850965E+03  0.12700000000E+03 0.  0.
<mgrwt>
<rscale>  0 0.30583803E+03</rscale>
<asrwt>0</asrwt>
<pdfrwt beam="1">  1        1 0.11575657E+00 0.30583803E+03</pdfrwt>
<pdfrwt beam="2">  1       -1 0.41226954E-02 0.30583803E+03</pdfrwt>
<totfact> 0.59582443E+03</totfact>
</mgrwt>
</event>
<event>
 4    1  0.6296743E-005  0.3751599E+03  0.7818608E-02  0.1052737E+00
          1   -1    0    0  501    0  0.00000000000E+00  0.00000000000E+00  0.28036342568E+03  0.28036342573E+03  0.50400000000E-02 0. -1.
         -1   -1    0    0    0  501 -0.00000000000E+00 -0.00000000000E+00 -0.12550222056E+03  0.12550222066E+03  0.50400000000E-02 0.  1.
    5000001    1    1    2    0    0 -0.24793841629E+02  0.13292175386E+03  0.10753445142E+03  0.21441918169E+03  0.12700000000E+03 0.  0.
   -5000001    1    1    2    0    0  0.24793841629E+02 -0.13292175386E+03  0.47326753695E+02  0.19144646470E+03  0.12700000000E+03 0.  0.
<mgrwt>
<rscale>  0 0.37515987E+03</rscale>
<asrwt>0</asrwt>
<pdfrwt beam="1">  1        1 0.40051918E-01 0.37515987E+03</pdfrwt>
<pdfrwt beam="2">  1       -1 0.17928889E-01 0.37515987E+03</pdfrwt>
<totfact> 0.25408247E+03</totfact>
</mgrwt>
</event>
<event>
 4    1  0.6296743E-005  0.3669156E+03  0.7818608E-02  0.1055879E+00
         -1   -1    0    0    0  501 -0.00000000000E+00  0.00000000000E+00  0.14965921688E+04  0.14965921688E+04  0.50400000000E-02 0.  1.
          1   -1    0    0  501    0  0.00000000000E+00 -0.00000000000E+00 -0.22488936504E+02  0.22488937069E+02  0.50400000000E-02 0. -1.
    5000001    1    1    2    0    0  0.28069111227E+02 -0.12909489386E+03  0.77276256821E+03  0.79419415350E+03  0.12700000000E+03 0.  0.
   -5000001    1    1    2    0    0 -0.28069111227E+02  0.12909489386E+03  0.70134066409E+03  0.72488695239E+03  0.12700000000E+03 0.  0.
<mgrwt>
<rscale>  0 0.36691561E+03</rscale>
<asrwt>0</asrwt>
<pdfrwt beam="1">  1        1 0.32127049E-02 0.36691561E+03</pdfrwt>
<pdfrwt beam="2">  1       -1 0.21379891E+00 0.36691561E+03</pdfrwt>
<totfact> 0.41838147E+02</totfact>
</mgrwt>
</event>
<event>
 4    1  0.6296743E-005  0.4696361E+03  0.7818608E-02  0.1022023E+00
         -1   -1    0    0    0  501 -0.00000000000E+00  0.00000000000E+00  0.16170686957E+03  0.16170686965E+03  0.50400000000E-02 0. -1.
          1   -1    0    0  501    0  0.00000000000E+00 -0.00000000000E+00 -0.34098441257E+03  0.34098441261E+03  0.50400000000E-02 0.  1.
    5000001    1    1    2    0    0  0.16106809380E+03  0.11314540733E+03 -0.10708662914E+03  0.25756816608E+03  0.12700000000E+03 0.  0.
   -5000001    1    1    2    0    0 -0.16106809380E+03 -0.11314540733E+03 -0.72190913866E+02  0.24512311617E+03  0.12700000000E+03 0.  0.
<mgrwt>
<rscale>  0 0.46963612E+03</rscale>
<asrwt>0</asrwt>
<pdfrwt beam="1">  1        1 0.48712059E-01 0.46963612E+03</pdfrwt>
<pdfrwt beam="2">  1       -1 0.23100981E-01 0.46963612E+03</pdfrwt>
<totfact> 0.13065360E+03</totfact>
</mgrwt>
</event>
<event>
 4    1  0.6296743E-005  0.3695195E+03  0.7818608E-02  0.1054877E+00
          1   -1    0    0  501    0  0.00000000000E+00  0.00000000000E+00  0.15275964567E+03  0.15275964575E+03  0.50400000000E-02 0.  1.
         -1   -1    0    0    0  501 -0.00000000000E+00 -0.00000000000E+00 -0.22346318374E+03  0.22346318380E+03  0.50400000000E-02 0. -1.
    5000001    1    1    2    0    0  0.84733305985E+02 -0.10387751347E+03 -0.41535316701E+02  0.18927348859E+03  0.12700000000E+03 0.  0.
   -5000001    1    1    2    0    0 -0.84733305985E+02  0.10387751347E+03 -0.29168221371E+02  0.18694934096E+03  0.12700000000E+03 0.  0.
<mgrwt>
<rscale>  0 0.36951945E+03</rscale>
<asrwt>0</asrwt>
<pdfrwt beam="1">  1        1 0.21822806E-01 0.36951945E+03</pdfrwt>
<pdfrwt beam="2">  1       -1 0.31923312E-01 0.36951945E+03</pdfrwt>
<totfact> 0.21032925E+03</totfact>
</mgrwt>
</event>
<event>
 4    1  0.6296743E-005  0.6503957E+03  0.7818608E-02  0.9806037E-01
          1   -1    0    0  501    0  0.00000000000E+00  0.00000000000E+00  0.74630543104E+03  0.74630543106E+03  0.50400000000E-02 0. -1.
         -1   -1    0    0    0  501 -0.00000000000E+00 -0.00000000000E+00 -0.14170291654E+03  0.14170291663E+03  0.50400000000E-02 0.  1.
    5000001    1    1    2    0    0  0.34331078335E+01  0.27565071035E+03  0.46169828165E+03  0.55253000246E+03  0.12700000000E+03 0.  0.
   -5000001    1    1    2    0    0 -0.34331078335E+01 -0.27565071035E+03  0.14290423285E+03  0.33547834522E+03  0.12700000000E+03 0.  0.
<mgrwt>
<rscale>  0 0.65039574E+03</rscale>
<asrwt>0</asrwt>
<pdfrwt beam="1">  1        1 0.10661506E+00 0.65039574E+03</pdfrwt>
<pdfrwt beam="2">  1       -1 0.20243274E-01 0.65039574E+03</pdfrwt>
<totfact> 0.55917978E+02</totfact>
</mgrwt>
</event>
<event>
 4    1  0.6296743E-005  0.3792340E+03  0.7818608E-02  0.1051217E+00
          1   -1    0    0  501    0  0.00000000000E+00  0.00000000000E+00  0.11357888320E+03  0.11357888331E+03  0.50400000000E-02 0.  1.
         -1   -1    0    0    0  501 -0.00000000000E+00 -0.00000000000E+00 -0.31656074013E+03  0.31656074017E+03  0.50400000000E-02 0. -1.
    5000001    1    1    2    0    0 -0.21446948606E+02 -0.12976997023E+03 -0.44491946678E+02  0.18817212891E+03  0.12700000000E+03 0.  0.
   -5000001    1    1    2    0    0  0.21446948606E+02  0.12976997023E+03 -0.15848991025E+03  0.24196749457E+03  0.12700000000E+03 0.  0.
<mgrwt>
<rscale>  0 0.37923405E+03</rscale>
<asrwt>0</asrwt>
<pdfrwt beam="1">  1        1 0.16225555E-01 0.37923405E+03</pdfrwt>
<pdfrwt beam="2">  1       -1 0.45222962E-01 0.37923405E+03</pdfrwt>
<totfact> 0.16692863E+03</totfact>
</mgrwt>
</event>
<event>
 4    1  0.6296743E-005  0.3921525E+03  0.7818608E-02  0.1046531E+00
          1   -1    0    0  501    0  0.00000000000E+00  0.00000000000E+00  0.33120394075E+04  0.33120394075E+04  0.50400000000E-02 0. -1.
         -1   -1    0    0    0  501 -0.00000000000E+00 -0.00000000000E+00 -0.11607920889E+02  0.11607921983E+02  0.50400000000E-02 0.  1.
    5000001    1    1    2    0    0  0.17748670575E+02 -0.12559731125E+03  0.23190309461E+04  0.23259671599E+04  0.12700000000E+03 0.  0.
   -5000001    1    1    2    0    0 -0.17748670575E+02  0.12559731125E+03  0.98140054056E+03  0.99768016965E+03  0.12700000000E+03 0.  0.
<mgrwt>
<rscale>  0 0.39215249E+03</rscale>
<asrwt>0</asrwt>
<pdfrwt beam="1">  1        1 0.47314927E+00 0.39215249E+03</pdfrwt>
<pdfrwt beam="2">  1       -1 0.16582717E-02 0.39215249E+03</pdfrwt>
<totfact> 0.56748556E+02</totfact>
</mgrwt>
</event>
<event>
 4    1  0.6296743E-005  0.5435575E+03  0.7818608E-02  0.1002996E+00
          1   -1    0    0  501    0  0.00000000000E+00  0.00000000000E+00  0.36863181863E+04  0.36863181863E+04  0.50400000000E-02 0. -1.
         -1   -1    0    0    0  501 -0.00000000000E+00 -0.00000000000E+00 -0.20037253876E+02  0.20037254510E+02  0.50400000000E-02 0.  1.
    5000001    1    1    2    0    0 -0.22007155576E+03 -0.24221211434E+02  0.24697506274E+04  0.24829046132E+04  0.12700000000E+03 0.  0.
   -5000001    1    1    2    0    0  0.22007155576E+03  0.24221211434E+02  0.11965303051E+04  0.12234508277E+04  0.12700000000E+03 0.  0.
<mgrwt>
<rscale>  0 0.54355752E+03</rscale>
<asrwt>0</asrwt>
<pdfrwt beam="1">  1        1 0.52661732E+00 0.54355752E+03</pdfrwt>
<pdfrwt beam="2">  1       -1 0.28624625E-02 0.54355752E+03</pdfrwt>
<totfact> 0.13716510E+02</totfact>
</mgrwt>
</event>
<event>
 4    1  0.6296743E-005  0.2816693E+03  0.7818608E-02  0.1094781E+00
         -1   -1    0    0    0  501 -0.00000000000E+00  0.00000000000E+00  0.36476397544E+03  0.36476397548E+03  0.50400000000E-02 0.  1.
          1   -1    0    0  501    0  0.00000000000E+00 -0.00000000000E+00 -0.54375970765E+02  0.54375970998E+02  0.50400000000E-02 0. -1.
    5000001    1    1    2    0    0 -0.84217121563E+01  0.56337106251E+01  0.24451128816E+03  0.27571259305E+03  0.12700000000E+03 0.  0.
   -5000001    1    1    2    0    0  0.84217121563E+01 -0.56337106251E+01  0.65876716523E+02  0.14342735343E+03  0.12700000000E+03 0.  0.
<mgrwt>
<rscale>  0 0.28166928E+03</rscale>
<asrwt>0</asrwt>
<pdfrwt beam="1">  1        1 0.77679958E-02 0.28166928E+03</pdfrwt>
<pdfrwt beam="2">  1       -1 0.52109139E-01 0.28166928E+03</pdfrwt>
<totfact> 0.34328064E+03</totfact>
</mgrwt>
</event>
<event>
 4    1  0.6296743E-005  0.2736598E+03  0.7818608E-02  0.1099203E+00
         -1   -1    0    0    0  501 -0.00000000000E+00  0.00000000000E+00  0.44687279747E+02  0.44687280032E+02  0.50400000000E-02 0. -1.
          1   -1    0    0  501    0  0.00000000000E+00 -0.00000000000E+00 -0.41896545628E+03  0.41896545631E+03  0.50400000000E-02 0.  1.
    5000001    1    1    2    0    0 -0.22134693275E+01 -0.37215882737E+02 -0.24591586378E+03  0.27927322362E+03  0.12700000000E+03 0.  0.
   -5000001    1    1    2    0    0  0.22134693275E+01  0.37215882737E+02 -0.12836231275E+03  0.18437951271E+03  0.12700000000E+03 0.  0.
<mgrwt>
<rscale>  0 0.27365984E+03</rscale>
<asrwt>0</asrwt>
<pdfrwt beam="1">  1        1 0.59852206E-01 0.27365984E+03</pdfrwt>
<pdfrwt beam="2">  1       -1 0.63838974E-02 0.27365984E+03</pdfrwt>
<totfact> 0.75870495E+03</totfact>
</mgrwt>
</event>
<event>
 4    1  0.6296743E-005  0.3634749E+03  0.7818608E-02  0.1057216E+00
         -1   -1    0    0    0  501 -0.00000000000E+00  0.00000000000E+00  0.10630948974E+02  0.10630950168E+02  0.50400000000E-02 0. -1.
          1   -1    0    0  501    0  0.00000000000E+00 -0.00000000000E+00 -0.31068249723E+04  0.31068249723E+04  0.50400000000E-02 0.  1.
    5000001    1    1    2    0    0  0.23568172674E+02 -0.12139945455E+03 -0.18918349841E+04  0.19001215470E+04  0.12700000000E+03 0.  0.
   -5000001    1    1    2    0    0 -0.23568172674E+02  0.12139945455E+03 -0.12043590393E+04  0.12173343755E+04  0.12700000000E+03 0.  0.
<mgrwt>
<rscale>  0 0.36347489E+03</rscale>
<asrwt>0</asrwt>
<pdfrwt beam="1">  1        1 0.44383156E+00 0.36347489E+03</pdfrwt>
<pdfrwt beam="2">  1       -1 0.15187091E-02 0.36347489E+03</pdfrwt>
<totfact> 0.88254999E+02</totfact>
</mgrwt>
</event>
<event>
 4    1  0.6296743E-005  0.2669827E+03  0.7818608E-02  0.1103019E+00
         -1   -1    0    0    0  501 -0.00000000000E+00  0.00000000000E+00  0.58773910938E+02  0.58773911155E+02  0.50400000000E-02 0. -1.
          1   -1    0    0  501    0  0.00000000000E+00 -0.00000000000E+00 -0.30319466677E+03  0.30319466681E+03  0.50400000000E-02 0.  1.
    5000001    1    1    2    0    0 -0.30935065474E+02  0.95220494050E+01 -0.87823657432E+02  0.15776451599E+03  0.12700000000E+03 0.  0.
   -5000001    1    1    2    0    0  0.30935065474E+02 -0.95220494050E+01 -0.15659709840E+03  0.20420406198E+03  0.12700000000E+03 0.  0.
<mgrwt>
<rscale>  0 0.26698267E+03</rscale>
<asrwt>0</asrwt>
<pdfrwt beam="1">  1        1 0.43313523E-01 0.26698267E+03</pdfrwt>
<pdfrwt beam="2">  1       -1 0.83962732E-02 0.26698267E+03</pdfrwt>
<totfact> 0.75203606E+03</totfact>
</mgrwt>
</event>
<event>
 4    1  0.6296743E-005  0.4023163E+03  0.7818608E-02  0.1042981E+00
          1   -1    0    0  501    0  0.00000000000E+00  0.00000000000E+00  0.92781152429E+03  0.92781152431E+03  0.50400000000E-02 0.  1.
         -1   -1    0    0    0  501 -0.00000000000E+00 -0.00000000000E+00 -0.43612953502E+02  0.43612953793E+02  0.50400000000E-02 0. -1.
    5000001    1    1    2    0    0  0.10967482406E+03  0.11075056121E+03  0.42657311552E+03  0.47158019119E+03  0.12700000000E+03 0.  0.
   -5000001    1    1    2    0    0 -0.10967482406E+03 -0.11075056121E+03  0.45762545527E+03  0.49984428690E+03  0.12700000000E+03 0.  0.
<mgrwt>
<rscale>  0 0.40231630E+03</rscale>
<asrwt>0</asrwt>
<pdfrwt beam="1">  1        1 0.13254451E+00 0.40231630E+03</pdfrwt>
<pdfrwt beam="2">  1       -1 0.62304218E-02 0.40231630E+03</pdfrwt>
<totfact> 0.25958809E+03</totfact>
</mgrwt>
</event>
<event>
 4    1  0.6296743E-005  0.3680985E+03  0.7818608E-02  0.1055422E+00
          1   -1    0    0  501    0  0.00000000000E+00  0.00000000000E+00  0.17806198087E+04  0.17806198087E+04  0.50400000000E-02 0.  1.
         -1   -1    0    0    0  501 -0.00000000000E+00 -0.00000000000E+00 -0.19023783268E+02  0.19023783935E+02  0.50400000000E-02 0. -1.
    5000001    1    1    2    0    0  0.11917033749E+02 -0.12520323129E+03  0.66616686942E+03  0.68972832531E+03  0.12700000000E+03 0.  0.
   -5000001    1    1    2    0    0 -0.11917033749E+02  0.12520323129E+03  0.10954291560E+04  0.11099152673E+04  0.12700000000E+03 0.  0.
<mgrwt>
<rscale>  0 0.36809850E+03</rscale>
<asrwt>0</asrwt>
<pdfrwt beam="1">  1        1 0.25437414E+00 0.36809850E+03</pdfrwt>
<pdfrwt beam="2">  1       -1 0.27176846E-02 0.36809850E+03</pdfrwt>
<totfact> 0.24732883E+03</totfact>
</mgrwt>
</event>
<event>
 4    1  0.6296743E-005  0.4907861E+03  0.7818608E-02  0.1016212E+00
          1   -1    0    0  501    0  0.00000000000E+00  0.00000000000E+00  0.78646597438E+03  0.78646597440E+03  0.50400000000E-02 0.  1.
         -1   -1    0    0    0  501 -0.00000000000E+00 -0.00000000000E+00 -0.76567527721E+02  0.76567527887E+02  0.50400000000E-02 0. -1.
    5000001    1    1    2    0    0  0.16962531571E+03  0.39539015769E+02  0.56116835319E+03  0.60114474307E+03  0.12700000000E+03 0.  0.
   -5000001    1    1    2    0    0 -0.16962531571E+03 -0.39539015769E+02  0.14873009347E+03  0.26188875921E+03  0.12700000000E+03 0.  0.
<mgrwt>
<rscale>  0 0.49078613E+03</rscale>
<asrwt>0</asrwt>
<pdfrwt beam="1">  1        1 0.11235228E+00 0.49078613E+03</pdfrwt>
<pdfrwt beam="2">  1       -1 0.10938219E-01 0.49078613E+03</pdfrwt>
<totfact> 0.14038966E+03</totfact>
</mgrwt>
</event>
<event>
 4    1  0.6296743E-005  0.3720325E+03  0.7818608E-02  0.1053919E+00
         -1   -1    0    0    0  501 -0.00000000000E+00  0.00000000000E+00  0.59685254334E+02  0.59685254547E+02  0.50400000000E-02 0.  1.
          1   -1    0    0  501    0  0.00000000000E+00 -0.00000000000E+00 -0.57974198057E+03  0.57974198059E+03  0.50400000000E-02 0. -1.
    5000001    1    1    2    0    0  0.65933800492E+02  0.74581081810E+02 -0.10097807460E+03  0.19035539225E+03  0.12700000000E+03 0.  0.
   -5000001    1    1    2    0    0 -0.65933800492E+02 -0.74581081810E+02 -0.41907865164E+03  0.44907184288E+03  0.12700000000E+03 0.  0.
<mgrwt>
<rscale>  0 0.37203251E+03</rscale>
<asrwt>0</asrwt>
<pdfrwt beam="1">  1        1 0.82820280E-01 0.37203251E+03</pdfrwt>
<pdfrwt beam="2">  1       -1 0.85264653E-02 0.37203251E+03</pdfrwt>
<totfact> 0.32032677E+03</totfact>
</mgrwt>
</event>
<event>
 4    1  0.6296743E-005  0.5925747E+03  0.7818608E-02  0.9920932E-01
         -1   -1    0    0    0  501 -0.00000000000E+00  0.00000000000E+00  0.34674319680E+03  0.34674319684E+03  0.50400000000E-02 0. -1.
          1   -1    0    0  501    0  0.00000000000E+00 -0.00000000000E+00 -0.25317353276E+03  0.25317353281E+03  0.50400000000E-02 0.  1.
    5000001    1    1    2    0    0 -0.12710648422E+03 -0.23558622929E+03  0.46258429366E+02  0.29987626123E+03  0.12700000000E+03 0.  0.
   -5000001    1    1    2    0    0  0.12710648422E+03  0.23558622929E+03  0.47311234682E+02  0.30004046842E+03  0.12700000000E+03 0.  0.
<mgrwt>
<rscale>  0 0.59257472E+03</rscale>
<asrwt>0</asrwt>
<pdfrwt beam="1">  1        1 0.36167648E-01 0.59257472E+03</pdfrwt>
<pdfrwt beam="2">  1       -1 0.49534742E-01 0.59257472E+03</pdfrwt>
<totfact> 0.49742417E+02</totfact>
</mgrwt>
</event>
<event>
 4    1  0.6296743E-005  0.4067329E+03  0.7818608E-02  0.1041473E+00
         -1   -1    0    0    0  501 -0.00000000000E+00  0.00000000000E+00  0.24979868902E+03  0.24979868907E+03  0.50400000000E-02 0. -1.
          1   -1    0    0  501    0  0.00000000000E+00 -0.00000000000E+00 -0.16556500763E+03  0.16556500771E+03  0.50400000000E-02 0.  1.
    5000001    1    1    2    0    0 -0.13081720389E+03  0.82756819618E+02  0.57652941195E+01  0.20030993646E+03  0.12700000000E+03 0.  0.
   -5000001    1    1    2    0    0  0.13081720389E+03 -0.82756819618E+02  0.78468387273E+02  0.21505376032E+03  0.12700000000E+03 0.  0.
<mgrwt>
<rscale>  0 0.40673294E+03</rscale>
<asrwt>0</asrwt>
<pdfrwt beam="1">  1        1 0.23652144E-01 0.40673294E+03</pdfrwt>
<pdfrwt beam="2">  1       -1 0.35685527E-01 0.40673294E+03</pdfrwt>
<totfact> 0.15622707E+03</totfact>
</mgrwt>
</event>
<event>
 4    1  0.6296743E-005  0.7952683E+03  0.7818608E-02  0.9566891E-01
          1   -1    0    0  501    0  0.00000000000E+00  0.00000000000E+00  0.32255868998E+03  0.32255869002E+03  0.50400000000E-02 0.  1.
         -1   -1    0    0    0  501 -0.00000000000E+00 -0.00000000000E+00 -0.49018338529E+03  0.49018338532E+03  0.50400000000E-02 0. -1.
    5000001    1    1    2    0    0 -0.35424236383E+03 -0.84536824533E+02  0.15006517198E+02  0.38599005505E+03  0.12700000000E+03 0.  0.
   -5000001    1    1    2    0    0  0.35424236383E+03  0.84536824533E+02 -0.18263121251E+03  0.42675202029E+03  0.12700000000E+03 0.  0.
<mgrwt>
<rscale>  0 0.79526828E+03</rscale>
<asrwt>0</asrwt>
<pdfrwt beam="1">  1        1 0.46079813E-01 0.79526828E+03</pdfrwt>
<pdfrwt beam="2">  1       -1 0.70026198E-01 0.79526828E+03</pdfrwt>
<totfact> 0.18320577E+02</totfact>
</mgrwt>
</event>
<event>
 4    1  0.6296743E-005  0.6674940E+03  0.7818608E-02  0.9774496E-01
         -1   -1    0    0    0  501 -0.00000000000E+00  0.00000000000E+00  0.18365620257E+03  0.18365620264E+03  0.50400000000E-02 0. -1.
          1   -1    0    0  501    0  0.00000000000E+00 -0.00000000000E+00 -0.60649758668E+03  0.60649758670E+03  0.50400000000E-02 0.  1.
    5000001    1    1    2    0    0  0.50223823015E+02 -0.21508711598E+03 -0.46661167170E+03  0.53163930632E+03  0.12700000000E+03 0.  0.
   -5000001    1    1    2    0    0 -0.50223823015E+02  0.21508711598E+03  0.43770287587E+02  0.25851448303E+03  0.12700000000E+03 0.  0.
<mgrwt>
<rscale>  0 0.66749395E+03</rscale>
<asrwt>0</asrwt>
<pdfrwt beam="1">  1        1 0.86642511E-01 0.66749395E+03</pdfrwt>
<pdfrwt beam="2">  1       -1 0.26236601E-01 0.66749395E+03</pdfrwt>
<totfact> 0.48771858E+02</totfact>
</mgrwt>
</event>
<event>
 4    1  0.6296743E-005  0.5255473E+03  0.7818608E-02  0.1007318E+00
         -1   -1    0    0    0  501 -0.00000000000E+00  0.00000000000E+00  0.37883472077E+02  0.37883472412E+02  0.50400000000E-02 0. -1.
          1   -1    0    0  501    0  0.00000000000E+00 -0.00000000000E+00 -0.18226945415E+04  0.18226945415E+04  0.50400000000E-02 0.  1.
    5000001    1    1    2    0    0  0.47073268872E+02 -0.22003032010E+03 -0.72292455351E+03  0.76770967460E+03  0.12700000000E+03 0.  0.
   -5000001    1    1    2    0    0 -0.47073268872E+02  0.22003032010E+03 -0.10618865159E+04  0.10928683393E+04  0.12700000000E+03 0.  0.
<mgrwt>
<rscale>  0 0.52554733E+03</rscale>
<asrwt>0</asrwt>
<pdfrwt beam="1">  1        1 0.26038488E+00 0.52554733E+03</pdfrwt>
<pdfrwt beam="2">  1       -1 0.54119258E-02 0.52554733E+03</pdfrwt>
<totfact> 0.81988819E+02</totfact>
</mgrwt>
</event>
<event>
 4    1  0.6296743E-005  0.3292884E+03  0.7818608E-02  0.1071452E+00
         -1   -1    0    0    0  501 -0.00000000000E+00  0.00000000000E+00  0.59271350814E+02  0.59271351029E+02  0.50400000000E-02 0. -1.
          1   -1    0    0  501    0  0.00000000000E+00 -0.00000000000E+00 -0.45734944950E+03  0.45734944953E+03  0.50400000000E-02 0.  1.
    5000001    1    1    2    0    0 -0.18588982204E+02  0.10288682964E+03 -0.20984850686E+03  0.26663954284E+03  0.12700000000E+03 0.  0.
   -5000001    1    1    2    0    0  0.18588982204E+02 -0.10288682964E+03 -0.18822959183E+03  0.24998125772E+03  0.12700000000E+03 0.  0.
<mgrwt>
<rscale>  0 0.32928844E+03</rscale>
<asrwt>0</asrwt>
<pdfrwt beam="1">  1        1 0.65335634E-01 0.32928844E+03</pdfrwt>
<pdfrwt beam="2">  1       -1 0.84673361E-02 0.32928844E+03</pdfrwt>
<totfact> 0.44287210E+03</totfact>
</mgrwt>
</event>
<event>
 4    1  0.6296743E-005  0.4943822E+03  0.7818608E-02  0.1015256E+00
         -1   -1    0    0    0  501 -0.00000000000E+00  0.00000000000E+00  0.50000449005E+03  0.50000449007E+03  0.50400000000E-02 0.  1.
          1   -1    0    0  501    0  0.00000000000E+00 -0.00000000000E+00 -0.12220578032E+03  0.12220578043E+03  0.50400000000E-02 0. -1.
    5000001    1    1    2    0    0 -0.10666661717E+03  0.16550389873E+03  0.89759144186E+02  0.25090837307E+03  0.12700000000E+03 0.  0.
   -5000001    1    1    2    0    0  0.10666661717E+03 -0.16550389873E+03  0.28803956554E+03  0.37130189742E+03  0.12700000000E+03 0.  0.
<mgrwt>
<rscale>  0 0.49438220E+03</rscale>
<asrwt>0</asrwt>
<pdfrwt beam="1">  1        1 0.17457968E-01 0.49438220E+03</pdfrwt>
<pdfrwt beam="2">  1       -1 0.71429214E-01 0.49438220E+03</pdfrwt>
<totfact> 0.62850154E+02</totfact>
</mgrwt>
</event>
<event>
 4    1  0.6296743E-005  0.6177952E+03  0.7818608E-02  0.9869159E-01
          1   -1    0    0  501    0  0.00000000000E+00  0.00000000000E+00  0.29680711558E+03  0.29680711562E+03  0.50400000000E-02 0.  1.
         -1   -1    0    0    0  501 -0.00000000000E+00 -0.00000000000E+00 -0.32148062748E+03  0.32148062752E+03  0.50400000000E-02 0. -1.
    5000001    1    1    2    0    0  0.14795236046E+03  0.23642542910E+03  0.26447890671E+02  0.30759612386E+03  0.12700000000E+03 0.  0.
   -5000001    1    1    2    0    0 -0.14795236046E+03 -0.23642542910E+03 -0.51121402572E+02  0.31069161928E+03  0.12700000000E+03 0.  0.
<mgrwt>
<rscale>  0 0.61779523E+03</rscale>
<asrwt>0</asrwt>
<pdfrwt beam="1">  1        1 0.42401016E-01 0.61779523E+03</pdfrwt>
<pdfrwt beam="2">  1       -1 0.45925804E-01 0.61779523E+03</pdfrwt>
<totfact> 0.46662110E+02</totfact>
</mgrwt>
</event>
<event>
 4    1  0.6296743E-005  0.2917164E+03  0.7818608E-02  0.1089456E+00
         -1   -1    0    0    0  501 -0.00000000000E+00  0.00000000000E+00  0.56435750735E+01  0.56435773240E+01  0.50400000000E-02 0.  1.
          1   -1    0    0  501    0  0.00000000000E+00 -0.00000000000E+00 -0.37697044311E+04  0.37697044311E+04  0.50400000000E-02 0. -1.
    5000001    1    1    2    0    0  0.54155858206E+02 -0.45597469992E+02 -0.20316349882E+04  0.20368312919E+04  0.12700000000E+03 0.  0.
   -5000001    1    1    2    0    0 -0.54155858206E+02  0.45597469992E+02 -0.17324258678E+04  0.17385167165E+04  0.12700000000E+03 0.  0.
<mgrwt>
<rscale>  0 0.29171640E+03</rscale>
<asrwt>0</asrwt>
<pdfrwt beam="1">  1        1 0.53852759E+00 0.29171640E+03</pdfrwt>
<pdfrwt beam="2">  1       -1 0.80622758E-03 0.29171640E+03</pdfrwt>
<totfact> 0.80326434E+02</totfact>
</mgrwt>
</event>
<event>
 4    1  0.6296743E-005  0.3213477E+03  0.7818608E-02  0.1075031E+00
          1   -1    0    0  501    0  0.00000000000E+00  0.00000000000E+00  0.24218309697E+03  0.24218309702E+03  0.50400000000E-02 0. -1.
         -1   -1    0    0    0  501 -0.00000000000E+00 -0.00000000000E+00 -0.10659741544E+03  0.10659741556E+03  0.50400000000E-02 0.  1.
    5000001    1    1    2    0    0  0.90458836250E+02  0.38663858296E+02  0.71120026221E+02  0.17568367347E+03  0.12700000000E+03 0.  0.
   -5000001    1    1    2    0    0 -0.90458836250E+02 -0.38663858296E+02  0.64465655309E+02  0.17309683911E+03  0.12700000000E+03 0.  0.
<mgrwt>
<rscale>  0 0.32134774E+03</rscale>
<asrwt>0</asrwt>
<pdfrwt beam="1">  1        1 0.34597585E-01 0.32134774E+03</pdfrwt>
<pdfrwt beam="2">  1       -1 0.15228202E-01 0.32134774E+03</pdfrwt>
<totfact> 0.39641182E+03</totfact>
</mgrwt>
</event>
<event>
 4    1  0.6296743E-005  0.3120892E+03  0.7818608E-02  0.1079349E+00
          1   -1    0    0  501    0  0.00000000000E+00  0.00000000000E+00  0.32314368828E+03  0.32314368832E+03  0.50400000000E-02 0. -1.
         -1   -1    0    0    0  501 -0.00000000000E+00 -0.00000000000E+00 -0.75353223137E+02  0.75353223305E+02  0.50400000000E-02 0.  1.
    5000001    1    1    2    0    0  0.75978236851E+02  0.44838635680E+02  0.15060965416E+03  0.21585982408E+03  0.12700000000E+03 0.  0.
   -5000001    1    1    2    0    0 -0.75978236851E+02 -0.44838635680E+02  0.97180810983E+02  0.18263708755E+03  0.12700000000E+03 0.  0.
<mgrwt>
<rscale>  0 0.31208921E+03</rscale>
<asrwt>0</asrwt>
<pdfrwt beam="1">  1        1 0.46163385E-01 0.31208921E+03</pdfrwt>
<pdfrwt beam="2">  1       -1 0.10764746E-01 0.31208921E+03</pdfrwt>
<totfact> 0.47546056E+03</totfact>
</mgrwt>
</event>
<event>
 4    1  0.6296743E-005  0.7661069E+03  0.7818608E-02  0.9610415E-01
          1   -1    0    0  501    0  0.00000000000E+00  0.00000000000E+00  0.31743445827E+03  0.31743445831E+03  0.50400000000E-02 0.  1.
         -1   -1    0    0    0  501 -0.00000000000E+00 -0.00000000000E+00 -0.46223702962E+03  0.46223702964E+03  0.50400000000E-02 0. -1.
    5000001    1    1    2    0    0 -0.34922369360E+02 -0.35552602386E+03 -0.16820797914E+02  0.37951319446E+03  0.12700000000E+03 0.  0.
   -5000001    1    1    2    0    0  0.34922369360E+02  0.35552602386E+03 -0.12798177343E+03  0.40015829350E+03  0.12700000000E+03 0.  0.
<mgrwt>
<rscale>  0 0.76610694E+03</rscale>
<asrwt>0</asrwt>
<pdfrwt beam="1">  1        1 0.45347780E-01 0.76610694E+03</pdfrwt>
<pdfrwt beam="2">  1       -1 0.66033861E-01 0.76610694E+03</pdfrwt>
<totfact> 0.21102528E+02</totfact>
</mgrwt>
</event>
<event>
 4    1  0.6296743E-005  0.4363285E+03  0.7818608E-02  0.1031879E+00
         -1   -1    0    0    0  501 -0.00000000000E+00  0.00000000000E+00  0.63637667434E+02  0.63637667634E+02  0.50400000000E-02 0. -1.
          1   -1    0    0  501    0  0.00000000000E+00 -0.00000000000E+00 -0.74791626073E+03  0.74791626075E+03  0.50400000000E-02 0.  1.
    5000001    1    1    2    0    0 -0.13259579820E+03 -0.54896970282E+02 -0.14820930443E+03  0.24226085315E+03  0.12700000000E+03 0.  0.
   -5000001    1    1    2    0    0  0.13259579820E+03  0.54896970282E+02 -0.53606928887E+03  0.56929307524E+03  0.12700000000E+03 0.  0.
<mgrwt>
<rscale>  0 0.43632853E+03</rscale>
<asrwt>0</asrwt>
<pdfrwt beam="1">  1        1 0.10684517E+00 0.43632853E+03</pdfrwt>
<pdfrwt beam="2">  1       -1 0.90910958E-02 0.43632853E+03</pdfrwt>
<totfact> 0.20230380E+03</totfact>
</mgrwt>
</event>
<event>
 4    1  0.6296743E-005  0.3897289E+03  0.7818608E-02  0.1047395E+00
         -1   -1    0    0    0  501 -0.00000000000E+00  0.00000000000E+00  0.44786260277E+02  0.44786260561E+02  0.50400000000E-02 0. -1.
          1   -1    0    0  501    0  0.00000000000E+00 -0.00000000000E+00 -0.84785280253E+03  0.84785280254E+03  0.50400000000E-02 0.  1.
    5000001    1    1    2    0    0 -0.13075915953E+02  0.12686640637E+03 -0.57258093919E+03  0.60020329603E+03  0.12700000000E+03 0.  0.
   -5000001    1    1    2    0    0  0.13075915953E+02 -0.12686640637E+03 -0.23048560306E+03  0.29243576707E+03  0.12700000000E+03 0.  0.
<mgrwt>
<rscale>  0 0.38972891E+03</rscale>
<asrwt>0</asrwt>
<pdfrwt beam="1">  1        1 0.12112182E+00 0.38972891E+03</pdfrwt>
<pdfrwt beam="2">  1       -1 0.63980377E-02 0.38972891E+03</pdfrwt>
<totfact> 0.28742591E+03</totfact>
</mgrwt>
</event>
<event>
 4    1  0.6296743E-005  0.3033737E+03  0.7818608E-02  0.1083566E+00
         -1   -1    0    0    0  501 -0.00000000000E+00  0.00000000000E+00  0.26386818994E+02  0.26386819475E+02  0.50400000000E-02 0. -1.
          1   -1    0    0  501    0  0.00000000000E+00 -0.00000000000E+00 -0.87198439335E+03  0.87198439337E+03  0.50400000000E-02 0.  1.
    5000001    1    1    2    0    0 -0.54431307903E+02  0.30264325614E+02 -0.26057099021E+03  0.29648766859E+03  0.12700000000E+03 0.  0.
   -5000001    1    1    2    0    0  0.54431307903E+02 -0.30264325614E+02 -0.58502658415E+03  0.60188354426E+03  0.12700000000E+03 0.  0.
<mgrwt>
<rscale>  0 0.30337366E+03</rscale>
<asrwt>0</asrwt>
<pdfrwt beam="1">  1        1 0.12456918E+00 0.30337366E+03</pdfrwt>
<pdfrwt beam="2">  1       -1 0.37695462E-02 0.30337366E+03</pdfrwt>
<totfact> 0.60851587E+03</totfact>
</mgrwt>
</event>
<event>
 4    1  0.6296743E-005  0.6539323E+03  0.7818608E-02  0.9799428E-01
         -1   -1    0    0    0  501 -0.00000000000E+00  0.00000000000E+00  0.65289725030E+03  0.65289725032E+03  0.50400000000E-02 0. -1.
          1   -1    0    0  501    0  0.00000000000E+00 -0.00000000000E+00 -0.16374225709E+03  0.16374225717E+03  0.50400000000E-02 0.  1.
    5000001    1    1    2    0    0 -0.97748480024E+01 -0.30105323457E+03  0.25334339863E+03  0.41357039948E+03  0.12700000000E+03 0.  0.
   -5000001    1    1    2    0    0  0.97748480024E+01  0.30105323457E+03  0.23581159458E+03  0.40306910801E+03  0.12700000000E+03 0.  0.
<mgrwt>
<rscale>  0 0.65393232E+03</rscale>
<asrwt>0</asrwt>
<pdfrwt beam="1">  1        1 0.23391751E-01 0.65393232E+03</pdfrwt>
<pdfrwt beam="2">  1       -1 0.93271034E-01 0.65393232E+03</pdfrwt>
<totfact> 0.24139861E+02</totfact>
</mgrwt>
</event>
<event>
 4    1  0.6296743E-005  0.4881007E+03  0.7818608E-02  0.1016932E+00
         -1   -1    0    0    0  501 -0.00000000000E+00  0.00000000000E+00  0.10439614819E+02  0.10439616036E+02  0.50400000000E-02 0. -1.
          1   -1    0    0  501    0  0.00000000000E+00 -0.00000000000E+00 -0.57052461201E+04  0.57052461201E+04  0.50400000000E-02 0.  1.
    5000001    1    1    2    0    0 -0.19273525613E+03  0.74938088241E+02 -0.25445269632E+04  0.25560729767E+04  0.12700000000E+03 0.  0.
   -5000001    1    1    2    0    0  0.19273525613E+03 -0.74938088241E+02 -0.31502795421E+04  0.31596127594E+04  0.12700000000E+03 0.  0.
<mgrwt>
<rscale>  0 0.48810071E+03</rscale>
<asrwt>0</asrwt>
<pdfrwt beam="1">  1        1 0.81503316E+00 0.48810071E+03</pdfrwt>
<pdfrwt beam="2">  1       -1 0.14913773E-02 0.48810071E+03</pdfrwt>
<totfact> 0.48311071E+00</totfact>
</mgrwt>
</event>
<event>
 4    1  0.6296743E-005  0.5187692E+03  0.7818608E-02  0.1008993E+00
         -1   -1    0    0    0  501 -0.00000000000E+00  0.00000000000E+00  0.11598785502E+04  0.11598785502E+04  0.50400000000E-02 0. -1.
          1   -1    0    0  501    0  0.00000000000E+00 -0.00000000000E+00 -0.58006384996E+02  0.58006385215E+02  0.50400000000E-02 0.  1.
    5000001    1    1    2    0    0 -0.19178447305E+03 -0.37636888617E+02  0.81812988399E+03  0.85068403451E+03  0.12700000000E+03 0.  0.
   -5000001    1    1    2    0    0  0.19178447305E+03  0.37636888617E+02  0.28374228123E+03  0.36720090094E+03  0.12700000000E+03 0.  0.
<mgrwt>
<rscale>  0 0.51876917E+03</rscale>
<asrwt>0</asrwt>
<pdfrwt beam="1">  1        1 0.82866261E-02 0.51876917E+03</pdfrwt>
<pdfrwt beam="2">  1       -1 0.16569694E+00 0.51876917E+03</pdfrwt>
<totfact> 0.23685900E+02</totfact>
</mgrwt>
</event>
<event>
 4    1  0.6296743E-005  0.3304618E+03  0.7818608E-02  0.1070933E+00
         -1   -1    0    0    0  501 -0.00000000000E+00  0.00000000000E+00  0.20607247833E+02  0.20607248449E+02  0.50400000000E-02 0. -1.
          1   -1    0    0  501    0  0.00000000000E+00 -0.00000000000E+00 -0.13248371982E+04  0.13248371982E+04  0.50400000000E-02 0.  1.
    5000001    1    1    2    0    0  0.70839193657E+02 -0.78348984804E+02 -0.63608886806E+03  0.65718703795E+03  0.12700000000E+03 0.  0.
   -5000001    1    1    2    0    0 -0.70839193657E+02  0.78348984804E+02 -0.66814108229E+03  0.68825740869E+03  0.12700000000E+03 0.  0.
<mgrwt>
<rscale>  0 0.33046179E+03</rscale>
<asrwt>0</asrwt>
<pdfrwt beam="1">  1        1 0.18926240E+00 0.33046179E+03</pdfrwt>
<pdfrwt beam="2">  1       -1 0.29438934E-02 0.33046179E+03</pdfrwt>
<totfact> 0.42434675E+03</totfact>
</mgrwt>
</event>
<event>
 4    1  0.6296743E-005  0.8401830E+03  0.7818608E-02  0.9503608E-01
          1   -1    0    0  501    0  0.00000000000E+00  0.00000000000E+00  0.89415388216E+03  0.89415388217E+03  0.50400000000E-02 0.  1.
         -1   -1    0    0    0  501 -0.00000000000E+00 -0.00000000000E+00 -0.19736746526E+03  0.19736746532E+03  0.50400000000E-02 0. -1.
    5000001    1    1    2    0    0  0.29327269377E+03  0.41058847507E+02 -0.17822028036E+01  0.32222178405E+03  0.12700000000E+03 0.  0.
   -5000001    1    1    2    0    0 -0.29327269377E+03 -0.41058847507E+02  0.69856861970E+03  0.76929956344E+03  0.12700000000E+03 0.  0.
<mgrwt>
<rscale>  0 0.84018304E+03</rscale>
<asrwt>0</asrwt>
<pdfrwt beam="1">  1        1 0.12773627E+00 0.84018304E+03</pdfrwt>
<pdfrwt beam="2">  1       -1 0.28195352E-01 0.84018304E+03</pdfrwt>
<totfact> 0.23844233E+02</totfact>
</mgrwt>
</event>
<event>
 4    1  0.6296743E-005  0.4006478E+03  0.7818608E-02  0.1043556E+00
         -1   -1    0    0    0  501 -0.00000000000E+00  0.00000000000E+00  0.51448005808E+02  0.51448006055E+02  0.50400000000E-02 0. -1.
          1   -1    0    0  501    0  0.00000000000E+00 -0.00000000000E+00 -0.78000426860E+03  0.78000426862E+03  0.50400000000E-02 0.  1.
    5000001    1    1    2    0    0 -0.49714419935E+02  0.14569500181E+03 -0.40034887272E+03  0.44733295988E+03  0.12700000000E+03 0.  0.
   -5000001    1    1    2    0    0  0.49714419935E+02 -0.14569500181E+03 -0.32820739007E+03  0.38411931479E+03  0.12700000000E+03 0.  0.
<mgrwt>
<rscale>  0 0.40064780E+03</rscale>
<asrwt>0</asrwt>
<pdfrwt beam="1">  1        1 0.11142917E+00 0.40064780E+03</pdfrwt>
<pdfrwt beam="2">  1       -1 0.73497156E-02 0.40064780E+03</pdfrwt>
<totfact> 0.26394716E+03</totfact>
</mgrwt>
</event>
<event>
 4    1  0.6296743E-005  0.2688608E+03  0.7818608E-02  0.1101933E+00
         -1   -1    0    0    0  501 -0.00000000000E+00  0.00000000000E+00  0.40668022720E+03  0.40668022724E+03  0.50400000000E-02 0. -1.
          1   -1    0    0  501    0  0.00000000000E+00 -0.00000000000E+00 -0.44436725991E+02  0.44436726277E+02  0.50400000000E-02 0.  1.
    5000001    1    1    2    0    0  0.33518225362E+02 -0.28319016590E+02  0.17418339385E+03  0.21998702877E+03  0.12700000000E+03 0.  0.
   -5000001    1    1    2    0    0 -0.33518225362E+02  0.28319016590E+02  0.18806010736E+03  0.23112992475E+03  0.12700000000E+03 0.  0.
<mgrwt>
<rscale>  0 0.26886084E+03</rscale>
<asrwt>0</asrwt>
<pdfrwt beam="1">  1        1 0.63481038E-02 0.26886084E+03</pdfrwt>
<pdfrwt beam="2">  1       -1 0.58097175E-01 0.26886084E+03</pdfrwt>
<totfact> 0.36797793E+03</totfact>
</mgrwt>
</event>
<event>
 4    1  0.6296743E-005  0.3240955E+03  0.7818608E-02  0.1073780E+00
          1   -1    0    0  501    0  0.00000000000E+00  0.00000000000E+00  0.27072320677E+02  0.27072321147E+02  0.50400000000E-02 0.  1.
         -1   -1    0    0    0  501 -0.00000000000E+00 -0.00000000000E+00 -0.96997481720E+03  0.96997481721E+03  0.50400000000E-02 0. -1.
    5000001    1    1    2    0    0  0.27791551504E+02  0.55560979094E+02 -0.22783077568E+03  0.26813290563E+03  0.12700000000E+03 0.  0.
   -5000001    1    1    2    0    0 -0.27791551504E+02 -0.55560979094E+02 -0.71507172084E+03  0.72891423273E+03  0.12700000000E+03 0.  0.
<mgrwt>
<rscale>  0 0.32409548E+03</rscale>
<asrwt>0</asrwt>
<pdfrwt beam="1">  1        1 0.38674750E-02 0.32409548E+03</pdfrwt>
<pdfrwt beam="2">  1       -1 0.13856781E+00 0.32409548E+03</pdfrwt>
<totfact> 0.11094618E+03</totfact>
</mgrwt>
</event>
<event>
 4    1  0.6296743E-005  0.4342776E+03  0.7818608E-02  0.1032517E+00
          1   -1    0    0  501    0  0.00000000000E+00  0.00000000000E+00  0.51617314490E+03  0.51617314492E+03  0.50400000000E-02 0.  1.
         -1   -1    0    0    0  501 -0.00000000000E+00 -0.00000000000E+00 -0.91343886058E+02  0.91343886197E+02  0.50400000000E-02 0. -1.
    5000001    1    1    2    0    0 -0.12777546325E+02  0.16645618438E+03  0.13390907664E+03  0.24886053889E+03  0.12700000000E+03 0.  0.
   -5000001    1    1    2    0    0  0.12777546325E+02 -0.16645618438E+03  0.29092018219E+03  0.35865649223E+03  0.12700000000E+03 0.  0.
<mgrwt>
<rscale>  0 0.43427761E+03</rscale>
<asrwt>0</asrwt>
<pdfrwt beam="1">  1        1 0.73739024E-01 0.43427761E+03</pdfrwt>
<pdfrwt beam="2">  1       -1 0.13049126E-01 0.43427761E+03</pdfrwt>
<totfact> 0.19271257E+03</totfact>
</mgrwt>
</event>
<event>
 4    1  0.6296743E-005  0.3613534E+03  0.7818608E-02  0.1058049E+00
          1   -1    0    0  501    0  0.00000000000E+00  0.00000000000E+00  0.23127736605E+03  0.23127736610E+03  0.50400000000E-02 0. -1.
         -1   -1    0    0    0  501 -0.00000000000E+00 -0.00000000000E+00 -0.14114685965E+03  0.14114685974E+03  0.50400000000E-02 0.  1.
    5000001    1    1    2    0    0  0.54070960018E+02 -0.93242965897E+02 -0.27058390039E+02  0.16875744688E+03  0.12700000000E+03 0.  0.
   -5000001    1    1    2    0    0 -0.54070960018E+02  0.93242965897E+02  0.11718889643E+03  0.20366677896E+03  0.12700000000E+03 0.  0.
<mgrwt>
<rscale>  0 0.36135342E+03</rscale>
<asrwt>0</asrwt>
<pdfrwt beam="1">  1        1 0.33039623E-01 0.36135342E+03</pdfrwt>
<pdfrwt beam="2">  1       -1 0.20163837E-01 0.36135342E+03</pdfrwt>
<totfact> 0.26761481E+03</totfact>
</mgrwt>
</event>
<event>
 4    1  0.6296743E-005  0.4410371E+03  0.7818608E-02  0.1030429E+00
          1   -1    0    0  501    0  0.00000000000E+00  0.00000000000E+00  0.19422918881E+03  0.19422918887E+03  0.50400000000E-02 0.  1.
         -1   -1    0    0    0  501 -0.00000000000E+00 -0.00000000000E+00 -0.25036627955E+03  0.25036627960E+03  0.50400000000E-02 0. -1.
    5000001    1    1    2    0    0  0.67536280996E+02 -0.16484043005E+03 -0.55967142304E+02  0.22582036588E+03  0.12700000000E+03 0.  0.
   -5000001    1    1    2    0    0 -0.67536280996E+02  0.16484043005E+03 -0.16994844197E+00  0.21877510259E+03  0.12700000000E+03 0.  0.
<mgrwt>
<rscale>  0 0.44103714E+03</rscale>
<asrwt>0</asrwt>
<pdfrwt beam="1">  1        1 0.27747027E-01 0.44103714E+03</pdfrwt>
<pdfrwt beam="2">  1       -1 0.35766611E-01 0.44103714E+03</pdfrwt>
<totfact> 0.12671849E+03</totfact>
</mgrwt>
</event>
<event>
 4    1  0.6296743E-005  0.3422482E+03  0.7818608E-02  0.1065842E+00
         -1   -1    0    0    0  501 -0.00000000000E+00  0.00000000000E+00  0.28656373699E+02  0.28656374143E+02  0.50400000000E-02 0. -1.
          1   -1    0    0  501    0  0.00000000000E+00 -0.00000000000E+00 -0.10218830655E+04  0.10218830655E+04  0.50400000000E-02 0.  1.
    5000001    1    1    2    0    0  0.20485695587E+01  0.10208463013E+03 -0.33626203730E+03  0.37366646368E+03  0.12700000000E+03 0.  0.
   -5000001    1    1    2    0    0 -0.20485695587E+01 -0.10208463013E+03 -0.65696465445E+03  0.67687297593E+03  0.12700000000E+03 0.  0.
<mgrwt>
<rscale>  0 0.34224823E+03</rscale>
<asrwt>0</asrwt>
<pdfrwt beam="1">  1        1 0.14598327E+00 0.34224823E+03</pdfrwt>
<pdfrwt beam="2">  1       -1 0.40937683E-02 0.34224823E+03</pdfrwt>
<totfact> 0.41707493E+03</totfact>
</mgrwt>
</event>
<event>
 4    1  0.6296743E-005  0.3496146E+03  0.7818608E-02  0.1062773E+00
         -1   -1    0    0    0  501 -0.00000000000E+00  0.00000000000E+00  0.17149706223E+03  0.17149706231E+03  0.50400000000E-02 0.  1.
          1   -1    0    0  501    0  0.00000000000E+00 -0.00000000000E+00 -0.17818144652E+03  0.17818144659E+03  0.50400000000E-02 0. -1.
    5000001    1    1    2    0    0  0.31313882636E+02 -0.78245547651E+02  0.82263576088E+02  0.17320283174E+03  0.12700000000E+03 0.  0.
   -5000001    1    1    2    0    0 -0.31313882636E+02  0.78245547651E+02 -0.88947960371E+02  0.17647567715E+03  0.12700000000E+03 0.  0.
<mgrwt>
<rscale>  0 0.34961461E+03</rscale>
<asrwt>0</asrwt>
<pdfrwt beam="1">  1        1 0.25454492E-01 0.34961461E+03</pdfrwt>
<pdfrwt beam="2">  1       -1 0.24499581E-01 0.34961461E+03</pdfrwt>
<totfact> 0.27020021E+03</totfact>
</mgrwt>
</event>
<event>
 4    1  0.6296743E-005  0.6607547E+03  0.7818608E-02  0.9786805E-01
         -1   -1    0    0    0  501 -0.00000000000E+00  0.00000000000E+00  0.42838735879E+02  0.42838736175E+02  0.50400000000E-02 0. -1.
          1   -1    0    0  501    0  0.00000000000E+00 -0.00000000000E+00 -0.25479089974E+04  0.25479089974E+04  0.50400000000E-02 0.  1.
    5000001    1    1    2    0    0  0.18675509775E+03 -0.16885647250E+03 -0.19274551867E+04  0.19479739401E+04  0.12700000000E+03 0.  0.
   -5000001    1    1    2    0    0 -0.18675509775E+03  0.16885647250E+03 -0.57761507490E+03  0.64277379349E+03  0.12700000000E+03 0.  0.
<mgrwt>
<rscale>  0 0.66075472E+03</rscale>
<asrwt>0</asrwt>
<pdfrwt beam="1">  1        1 0.36398690E+00 0.66075472E+03</pdfrwt>
<pdfrwt beam="2">  1       -1 0.61198211E-02 0.66075472E+03</pdfrwt>
<totfact> 0.23893759E+02</totfact>
</mgrwt>
</event>
<event>
 4    1  0.6296743E-005  0.2745002E+03  0.7818608E-02  0.1098731E+00
         -1   -1    0    0    0  501 -0.00000000000E+00  0.00000000000E+00  0.59060216705E+01  0.59060238210E+01  0.50400000000E-02 0. -1.
          1   -1    0    0  501    0  0.00000000000E+00 -0.00000000000E+00 -0.31895565422E+04  0.31895565422E+04  0.50400000000E-02 0.  1.
    5000001    1    1    2    0    0 -0.51881833221E+02 -0.36697952105E+01 -0.15703555942E+04  0.15763409797E+04  0.12700000000E+03 0.  0.
   -5000001    1    1    2    0    0  0.51881833221E+02  0.36697952105E+01 -0.16132949263E+04  0.16191215863E+04  0.12700000000E+03 0.  0.
<mgrwt>
<rscale>  0 0.27450023E+03</rscale>
<asrwt>0</asrwt>
<pdfrwt beam="1">  1        1 0.45564983E+00 0.27450023E+03</pdfrwt>
<pdfrwt beam="2">  1       -1 0.84371957E-03 0.27450023E+03</pdfrwt>
<totfact> 0.18518113E+03</totfact>
</mgrwt>
</event>
<event>
 4    1  0.6296743E-005  0.3671776E+03  0.7818608E-02  0.1055777E+00
          1   -1    0    0  501    0  0.00000000000E+00  0.00000000000E+00  0.58713036573E+03  0.58713036575E+03  0.50400000000E-02 0.  1.
         -1   -1    0    0    0  501 -0.00000000000E+00 -0.00000000000E+00 -0.57406079855E+02  0.57406080076E+02  0.50400000000E-02 0. -1.
    5000001    1    1    2    0    0 -0.11272291061E+03 -0.68063175500E+02  0.23784967727E+03  0.30006752476E+03  0.12700000000E+03 0.  0.
   -5000001    1    1    2    0    0  0.11272291061E+03  0.68063175500E+02  0.29187460860E+03  0.34446892107E+03  0.12700000000E+03 0.  0.
<mgrwt>
<rscale>  0 0.36717763E+03</rscale>
<asrwt>0</asrwt>
<pdfrwt beam="1">  1        1 0.83875766E-01 0.36717763E+03</pdfrwt>
<pdfrwt beam="2">  1       -1 0.82008686E-02 0.36717763E+03</pdfrwt>
<totfact> 0.33425924E+03</totfact>
</mgrwt>
</event>
<event>
 4    1  0.6296743E-005  0.5103897E+03  0.7818608E-02  0.1011102E+00
         -1   -1    0    0    0  501 -0.00000000000E+00  0.00000000000E+00  0.41766160766E+02  0.41766161070E+02  0.50400000000E-02 0.  1.
          1   -1    0    0  501    0  0.00000000000E+00 -0.00000000000E+00 -0.15592623758E+04  0.15592623758E+04  0.50400000000E-02 0. -1.
    5000001    1    1    2    0    0  0.17635843063E+03 -0.39544506042E+02 -0.35789846078E+03  0.42057861600E+03  0.12700000000E+03 0.  0.
   -5000001    1    1    2    0    0 -0.17635843063E+03  0.39544506042E+02 -0.11595977543E+04  0.11804499209E+04  0.12700000000E+03 0.  0.
<mgrwt>
<rscale>  0 0.51038967E+03</rscale>
<asrwt>0</asrwt>
<pdfrwt beam="1">  1        1 0.22275173E+00 0.51038967E+03</pdfrwt>
<pdfrwt beam="2">  1       -1 0.59665954E-02 0.51038967E+03</pdfrwt>
<totfact> 0.10323088E+03</totfact>
</mgrwt>
</event>
<event>
 4    1  0.6296743E-005  0.3799308E+03  0.7818608E-02  0.1050959E+00
          1   -1    0    0  501    0  0.00000000000E+00  0.00000000000E+00  0.47915826887E+03  0.47915826889E+03  0.50400000000E-02 0.  1.
         -1   -1    0    0    0  501 -0.00000000000E+00 -0.00000000000E+00 -0.75313001086E+02  0.75313001255E+02  0.50400000000E-02 0. -1.
    5000001    1    1    2    0    0 -0.10979601262E+03  0.86256010192E+02  0.17053419650E+03  0.25437408645E+03  0.12700000000E+03 0.  0.
   -5000001    1    1    2    0    0  0.10979601262E+03 -0.86256010192E+02  0.23331107128E+03  0.30009718370E+03  0.12700000000E+03 0.  0.
<mgrwt>
<rscale>  0 0.37993077E+03</rscale>
<asrwt>0</asrwt>
<pdfrwt beam="1">  1        1 0.68451183E-01 0.37993077E+03</pdfrwt>
<pdfrwt beam="2">  1       -1 0.10759000E-01 0.37993077E+03</pdfrwt>
<totfact> 0.28805933E+03</totfact>
</mgrwt>
</event>
<event>
 4    1  0.6296743E-005  0.3057729E+03  0.7818608E-02  0.1082390E+00
         -1   -1    0    0    0  501 -0.00000000000E+00  0.00000000000E+00  0.18406461944E+02  0.18406462634E+02  0.50400000000E-02 0. -1.
          1   -1    0    0  501    0  0.00000000000E+00 -0.00000000000E+00 -0.12698946281E+04  0.12698946281E+04  0.50400000000E-02 0.  1.
    5000001    1    1    2    0    0 -0.55077445007E+02 -0.47860607774E+02 -0.81041304565E+03  0.82354263235E+03  0.12700000000E+03 0.  0.
   -5000001    1    1    2    0    0  0.55077445007E+02  0.47860607774E+02 -0.44107512047E+03  0.46475845836E+03  0.12700000000E+03 0.  0.
<mgrwt>
<rscale>  0 0.30577291E+03</rscale>
<asrwt>0</asrwt>
<pdfrwt beam="1">  1        1 0.18141346E+00 0.30577291E+03</pdfrwt>
<pdfrwt beam="2">  1       -1 0.26294954E-02 0.30577291E+03</pdfrwt>
<totfact> 0.54416654E+03</totfact>
</mgrwt>
</event>
<event>
 4    1  0.6296743E-005  0.3546839E+03  0.7818608E-02  0.1060709E+00
          1   -1    0    0  501    0  0.00000000000E+00  0.00000000000E+00  0.52187836987E+03  0.52187836989E+03  0.50400000000E-02 0.  1.
         -1   -1    0    0    0  501 -0.00000000000E+00 -0.00000000000E+00 -0.60263416480E+02  0.60263416691E+02  0.50400000000E-02 0. -1.
    5000001    1    1    2    0    0  0.12360765703E+03 -0.48662939355E+01  0.23789361142E+03  0.29668991228E+03  0.12700000000E+03 0.  0.
   -5000001    1    1    2    0    0 -0.12360765703E+03  0.48662939355E+01  0.22372134196E+03  0.28545187430E+03  0.12700000000E+03 0.  0.
<mgrwt>
<rscale>  0 0.35468394E+03</rscale>
<asrwt>0</asrwt>
<pdfrwt beam="1">  1        1 0.74554058E-01 0.35468394E+03</pdfrwt>
<pdfrwt beam="2">  1       -1 0.86090589E-02 0.35468394E+03</pdfrwt>
<totfact> 0.36339896E+03</totfact>
</mgrwt>
</event>
<event>
 4    1  0.6296743E-005  0.5015349E+03  0.7818608E-02  0.1013379E+00
          1   -1    0    0  501    0  0.00000000000E+00  0.00000000000E+00  0.18434063862E+03  0.18434063868E+03  0.50400000000E-02 0.  1.
         -1   -1    0    0    0  501 -0.00000000000E+00 -0.00000000000E+00 -0.34113107856E+03  0.34113107860E+03  0.50400000000E-02 0. -1.
    5000001    1    1    2    0    0  0.17409893371E+03 -0.10144370964E+03 -0.16058709403E+03  0.28726029958E+03  0.12700000000E+03 0.  0.
   -5000001    1    1    2    0    0 -0.17409893371E+03  0.10144370964E+03  0.37966540869E+01  0.23821141771E+03  0.12700000000E+03 0.  0.
<mgrwt>
<rscale>  0 0.50153493E+03</rscale>
<asrwt>0</asrwt>
<pdfrwt beam="1">  1        1 0.26334377E-01 0.50153493E+03</pdfrwt>
<pdfrwt beam="2">  1       -1 0.48733011E-01 0.50153493E+03</pdfrwt>
<totfact> 0.77320764E+02</totfact>
</mgrwt>
</event>
<event>
 4    1  0.6296743E-005  0.4905060E+03  0.7818608E-02  0.1016287E+00
         -1   -1    0    0    0  501 -0.00000000000E+00  0.00000000000E+00  0.67252595859E+02  0.67252596047E+02  0.50400000000E-02 0. -1.
          1   -1    0    0  501    0  0.00000000000E+00 -0.00000000000E+00 -0.89437502286E+03  0.89437502288E+03  0.50400000000E-02 0.  1.
    5000001    1    1    2    0    0  0.19642896458E+03  0.55730877896E+02 -0.50818915567E+03  0.56220591140E+03  0.12700000000E+03 0.  0.
   -5000001    1    1    2    0    0 -0.19642896458E+03 -0.55730877896E+02 -0.31893327134E+03  0.39942170753E+03  0.12700000000E+03 0.  0.
<mgrwt>
<rscale>  0 0.49050603E+03</rscale>
<asrwt>0</asrwt>
<pdfrwt beam="1">  1        1 0.12776785E+00 0.49050603E+03</pdfrwt>
<pdfrwt beam="2">  1       -1 0.96075143E-02 0.49050603E+03</pdfrwt>
<totfact> 0.14093100E+03</totfact>
</mgrwt>
</event>
<event>
 4    1  0.6296743E-005  0.4903315E+03  0.7818608E-02  0.1016334E+00
         -1   -1    0    0    0  501 -0.00000000000E+00  0.00000000000E+00  0.12963760923E+03  0.12963760933E+03  0.50400000000E-02 0. -1.
          1   -1    0    0  501    0  0.00000000000E+00 -0.00000000000E+00 -0.46364829308E+03  0.46364829311E+03  0.50400000000E-02 0.  1.
    5000001    1    1    2    0    0 -0.13885309932E+03  0.15324098501E+03 -0.12484224818E+03  0.27290578889E+03  0.12700000000E+03 0.  0.
   -5000001    1    1    2    0    0  0.13885309932E+03 -0.15324098501E+03 -0.20916843566E+03  0.32038011355E+03  0.12700000000E+03 0.  0.
<mgrwt>
<rscale>  0 0.49033155E+03</rscale>
<asrwt>0</asrwt>
<pdfrwt beam="1">  1        1 0.66235469E-01 0.49033155E+03</pdfrwt>
<pdfrwt beam="2">  1       -1 0.18519659E-01 0.49033155E+03</pdfrwt>
<totfact> 0.12637476E+03</totfact>
</mgrwt>
</event>
<event>
 4    1  0.6296743E-005  0.2897103E+03  0.7818608E-02  0.1090500E+00
         -1   -1    0    0    0  501 -0.00000000000E+00  0.00000000000E+00  0.26427732068E+03  0.26427732073E+03  0.50400000000E-02 0.  1.
          1   -1    0    0  501    0  0.00000000000E+00 -0.00000000000E+00 -0.79397723432E+02  0.79397723592E+02  0.50400000000E-02 0. -1.
    5000001    1    1    2    0    0  0.29062914204E+02 -0.52749914440E+02  0.50889620090E+02  0.14948565111E+03  0.12700000000E+03 0.  0.
   -5000001    1    1    2    0    0 -0.29062914204E+02  0.52749914440E+02  0.13398997716E+03  0.19418939321E+03  0.12700000000E+03 0.  0.
<mgrwt>
<rscale>  0 0.28971032E+03</rscale>
<asrwt>0</asrwt>
<pdfrwt beam="1">  1        1 0.11342532E-01 0.28971032E+03</pdfrwt>
<pdfrwt beam="2">  1       -1 0.37753903E-01 0.28971032E+03</pdfrwt>
<totfact> 0.36935766E+03</totfact>
</mgrwt>
</event>
<event>
 4    1  0.6296743E-005  0.3973369E+03  0.7818608E-02  0.1044706E+00
         -1   -1    0    0    0  501 -0.00000000000E+00  0.00000000000E+00  0.47649718624E+02  0.47649718890E+02  0.50400000000E-02 0. -1.
          1   -1    0    0  501    0  0.00000000000E+00 -0.00000000000E+00 -0.82831854243E+03  0.82831854245E+03  0.50400000000E-02 0.  1.
    5000001    1    1    2    0    0  0.20811632127E+02  0.14487763952E+03 -0.29379687920E+03  0.35194923028E+03  0.12700000000E+03 0.  0.
   -5000001    1    1    2    0    0 -0.20811632127E+02 -0.14487763952E+03 -0.48687194461E+03  0.52401903106E+03  0.12700000000E+03 0.  0.
<mgrwt>
<rscale>  0 0.39733686E+03</rscale>
<asrwt>0</asrwt>
<pdfrwt beam="1">  1        1 0.11833121E+00 0.39733686E+03</pdfrwt>
<pdfrwt beam="2">  1       -1 0.68071032E-02 0.39733686E+03</pdfrwt>
<totfact> 0.27103944E+03</totfact>
</mgrwt>
</event>
<event>
 4    1  0.6296743E-005  0.5582309E+03  0.7818608E-02  0.9996066E-01
          1   -1    0    0  501    0  0.00000000000E+00  0.00000000000E+00  0.10950392349E+04  0.10950392350E+04  0.50400000000E-02 0.  1.
         -1   -1    0    0    0  501 -0.00000000000E+00 -0.00000000000E+00 -0.71143967644E+02  0.71143967822E+02  0.50400000000E-02 0. -1.
    5000001    1    1    2    0    0  0.52928436047E+02 -0.23838401858E+03  0.60877046138E+03  0.66810091626E+03  0.12700000000E+03 0.  0.
   -5000001    1    1    2    0    0 -0.52928436047E+02  0.23838401858E+03  0.41512480592E+03  0.49808228652E+03  0.12700000000E+03 0.  0.
<mgrwt>
<rscale>  0 0.55823091E+03</rscale>
<asrwt>0</asrwt>
<pdfrwt beam="1">  1        1 0.15643416E+00 0.55823091E+03</pdfrwt>
<pdfrwt beam="2">  1       -1 0.10163425E-01 0.55823091E+03</pdfrwt>
<totfact> 0.91516514E+02</totfact>
</mgrwt>
</event>
<event>
 4    1  0.6296743E-005  0.6352500E+03  0.7818608E-02  0.9834857E-01
          1   -1    0    0  501    0  0.00000000000E+00  0.00000000000E+00  0.35314024577E+03  0.35314024581E+03  0.50400000000E-02 0.  1.
         -1   -1    0    0    0  501 -0.00000000000E+00 -0.00000000000E+00 -0.28568151742E+03  0.28568151747E+03  0.50400000000E-02 0. -1.
    5000001    1    1    2    0    0  0.19821386259E+03  0.11385428201E+03 -0.14757607688E+03  0.30026526826E+03  0.12700000000E+03 0.  0.
   -5000001    1    1    2    0    0 -0.19821386259E+03 -0.11385428201E+03  0.21503480524E+03  0.33855649502E+03  0.12700000000E+03 0.  0.
<mgrwt>
<rscale>  0 0.63525000E+03</rscale>
<asrwt>0</asrwt>
<pdfrwt beam="1">  1        1 0.50448607E-01 0.63525000E+03</pdfrwt>
<pdfrwt beam="2">  1       -1 0.40811645E-01 0.63525000E+03</pdfrwt>
<totfact> 0.46287055E+02</totfact>
</mgrwt>
</event>
<event>
 4    1  0.6296743E-005  0.2956885E+03  0.7818608E-02  0.1087416E+00
          1   -1    0    0  501    0  0.00000000000E+00  0.00000000000E+00  0.95934719875E+02  0.95934720007E+02  0.50400000000E-02 0. -1.
         -1   -1    0    0    0  501 -0.00000000000E+00 -0.00000000000E+00 -0.22784158394E+03  0.22784158399E+03  0.50400000000E-02 0.  1.
    5000001    1    1    2    0    0 -0.38023618827E+02 -0.60214232568E+01 -0.13731180083E+03  0.19095963912E+03  0.12700000000E+03 0.  0.
   -5000001    1    1    2    0    0  0.38023618827E+02  0.60214232568E+01  0.54049367718E+01  0.13281666487E+03  0.12700000000E+03 0.  0.
<mgrwt>
<rscale>  0 0.29568847E+03</rscale>
<asrwt>0</asrwt>
<pdfrwt beam="1">  1        1 0.13704960E-01 0.29568847E+03</pdfrwt>
<pdfrwt beam="2">  1       -1 0.32548798E-01 0.29568847E+03</pdfrwt>
<totfact> 0.37206936E+03</totfact>
</mgrwt>
</event>
<event>
 4    1  0.6296743E-005  0.6939562E+03  0.7818608E-02  0.9727624E-01
         -1   -1    0    0    0  501 -0.00000000000E+00  0.00000000000E+00  0.36841110661E+02  0.36841111006E+02  0.50400000000E-02 0. -1.
          1   -1    0    0  501    0  0.00000000000E+00 -0.00000000000E+00 -0.32679203411E+04  0.32679203411E+04  0.50400000000E-02 0.  1.
    5000001    1    1    2    0    0 -0.19556192370E+03  0.33274087143E+01 -0.39202116653E+03  0.45614157085E+03  0.12700000000E+03 0.  0.
   -5000001    1    1    2    0    0  0.19556192370E+03 -0.33274087143E+01 -0.28390580640E+04  0.28486198813E+04  0.12700000000E+03 0.  0.
<mgrwt>
<rscale>  0 0.69395624E+03</rscale>
<asrwt>0</asrwt>
<pdfrwt beam="1">  1        1 0.46684558E+00 0.69395624E+03</pdfrwt>
<pdfrwt beam="2">  1       -1 0.52630179E-02 0.69395624E+03</pdfrwt>
<totfact> 0.10319590E+02</totfact>
</mgrwt>
</event>
<event>
 4    1  0.6296743E-005  0.3902782E+03  0.7818608E-02  0.1047199E+00
         -1   -1    0    0    0  501 -0.00000000000E+00  0.00000000000E+00  0.34223697159E+02  0.34223697530E+02  0.50400000000E-02 0. -1.
          1   -1    0    0  501    0  0.00000000000E+00 -0.00000000000E+00 -0.11126579007E+04  0.11126579007E+04  0.50400000000E-02 0.  1.
    5000001    1    1    2    0    0 -0.12158166819E+03  0.81402777554E+02 -0.47081885532E+03  0.50912464953E+03  0.12700000000E+03 0.  0.
   -5000001    1    1    2    0    0  0.12158166819E+03 -0.81402777554E+02 -0.60761534821E+03  0.63775694870E+03  0.12700000000E+03 0.  0.
<mgrwt>
<rscale>  0 0.39027819E+03</rscale>
<asrwt>0</asrwt>
<pdfrwt beam="1">  1        1 0.15895111E+00 0.39027819E+03</pdfrwt>
<pdfrwt beam="2">  1       -1 0.48891003E-02 0.39027819E+03</pdfrwt>
<totfact> 0.27575412E+03</totfact>
</mgrwt>
</event>
<event>
 4    1  0.6296743E-005  0.3425904E+03  0.7818608E-02  0.1065698E+00
         -1   -1    0    0    0  501 -0.00000000000E+00  0.00000000000E+00  0.65691083664E+03  0.65691083666E+03  0.50400000000E-02 0. -1.
          1   -1    0    0  501    0  0.00000000000E+00 -0.00000000000E+00 -0.44666711237E+02  0.44666711521E+02  0.50400000000E-02 0.  1.
    5000001    1    1    2    0    0 -0.79308693737E+02 -0.73722091114E+02  0.22712050086E+03  0.28184665606E+03  0.12700000000E+03 0.  0.
   -5000001    1    1    2    0    0  0.79308693737E+02  0.73722091114E+02  0.38512362454E+03  0.41973089212E+03  0.12700000000E+03 0.  0.
<mgrwt>
<rscale>  0 0.34259041E+03</rscale>
<asrwt>0</asrwt>
<pdfrwt beam="1">  1        1 0.63809591E-02 0.34259041E+03</pdfrwt>
<pdfrwt beam="2">  1       -1 0.93844401E-01 0.34259041E+03</pdfrwt>
<totfact> 0.13818257E+03</totfact>
</mgrwt>
</event>
<event>
 4    1  0.6296743E-005  0.4754747E+03  0.7818608E-02  0.1020386E+00
          1   -1    0    0  501    0  0.00000000000E+00  0.00000000000E+00  0.22545170981E+03  0.22545170986E+03  0.50400000000E-02 0.  1.
         -1   -1    0    0    0  501 -0.00000000000E+00 -0.00000000000E+00 -0.25069244425E+03  0.25069244430E+03  0.50400000000E-02 0. -1.
    5000001    1    1    2    0    0 -0.15703003563E+03  0.97457093660E+02 -0.91685466893E+02  0.24226337328E+03  0.12700000000E+03 0.  0.
   -5000001    1    1    2    0    0  0.15703003563E+03 -0.97457093660E+02  0.66444732448E+02  0.23388078088E+03  0.12700000000E+03 0.  0.
<mgrwt>
<rscale>  0 0.47547467E+03</rscale>
<asrwt>0</asrwt>
<pdfrwt beam="1">  1        1 0.32207387E-01 0.47547467E+03</pdfrwt>
<pdfrwt beam="2">  1       -1 0.35813206E-01 0.47547467E+03</pdfrwt>
<totfact> 0.10443695E+03</totfact>
</mgrwt>
</event>
<event>
 4    1  0.6296743E-005  0.4378694E+03  0.7818608E-02  0.1031403E+00
          1   -1    0    0  501    0  0.00000000000E+00  0.00000000000E+00  0.12028253874E+03  0.12028253884E+03  0.50400000000E-02 0.  1.
         -1   -1    0    0    0  501 -0.00000000000E+00 -0.00000000000E+00 -0.39849850386E+03  0.39849850390E+03  0.50400000000E-02 0. -1.
    5000001    1    1    2    0    0  0.15853575855E+02 -0.11563159823E+03  0.20646566712E+02  0.17371609912E+03  0.12700000000E+03 0.  0.
   -5000001    1    1    2    0    0 -0.15853575855E+02  0.11563159823E+03 -0.29886253184E+03  0.34506494362E+03  0.12700000000E+03 0.  0.
<mgrwt>
<rscale>  0 0.43786944E+03</rscale>
<asrwt>0</asrwt>
<pdfrwt beam="1">  1        1 0.17183220E-01 0.43786944E+03</pdfrwt>
<pdfrwt beam="2">  1       -1 0.56928357E-01 0.43786944E+03</pdfrwt>
<totfact> 0.10061380E+03</totfact>
</mgrwt>
</event>
<event>
 4    1  0.6296743E-005  0.3068125E+03  0.7818608E-02  0.1081884E+00
         -1   -1    0    0    0  501 -0.00000000000E+00  0.00000000000E+00  0.16600196895E+02  0.16600197660E+02  0.50400000000E-02 0. -1.
          1   -1    0    0  501    0  0.00000000000E+00 -0.00000000000E+00 -0.14176627966E+04  0.14176627966E+04  0.50400000000E-02 0.  1.
    5000001    1    1    2    0    0 -0.17360202273E+02  0.82133369107E+02 -0.61217843296E+03  0.63082382701E+03  0.12700000000E+03 0.  0.
   -5000001    1    1    2    0    0  0.17360202273E+02 -0.82133369107E+02 -0.78888416675E+03  0.80343916727E+03  0.12700000000E+03 0.  0.
<mgrwt>
<rscale>  0 0.30681253E+03</rscale>
<asrwt>0</asrwt>
<pdfrwt beam="1">  1        1 0.20252318E+00 0.30681253E+03</pdfrwt>
<pdfrwt beam="2">  1       -1 0.23714576E-02 0.30681253E+03</pdfrwt>
<totfact> 0.50878239E+03</totfact>
</mgrwt>
</event>
<event>
 4    1  0.6296743E-005  0.3865768E+03  0.7818608E-02  0.1048529E+00
         -1   -1    0    0    0  501 -0.00000000000E+00  0.00000000000E+00  0.61945351623E+03  0.61945351625E+03  0.50400000000E-02 0. -1.
          1   -1    0    0  501    0  0.00000000000E+00 -0.00000000000E+00 -0.60311878840E+02  0.60311879051E+02  0.50400000000E-02 0.  1.
    5000001    1    1    2    0    0  0.28507608440E+02  0.14284859193E+03  0.27323036012E+03  0.33466734775E+03  0.12700000000E+03 0.  0.
   -5000001    1    1    2    0    0 -0.28507608440E+02 -0.14284859193E+03  0.28591127727E+03  0.34509804755E+03  0.12700000000E+03 0.  0.
<mgrwt>
<rscale>  0 0.38657680E+03</rscale>
<asrwt>0</asrwt>
<pdfrwt beam="1">  1        1 0.86159824E-02 0.38657680E+03</pdfrwt>
<pdfrwt beam="2">  1       -1 0.88493363E-01 0.38657680E+03</pdfrwt>
<totfact> 0.10392965E+03</totfact>
</mgrwt>
</event>
<event>
 4    1  0.6296743E-005  0.4089022E+03  0.7818608E-02  0.1040740E+00
          1   -1    0    0  501    0  0.00000000000E+00  0.00000000000E+00  0.17431865472E+04  0.17431865473E+04  0.50400000000E-02 0.  1.
         -1   -1    0    0    0  501 -0.00000000000E+00 -0.00000000000E+00 -0.23979213429E+02  0.23979213959E+02  0.50400000000E-02 0. -1.
    5000001    1    1    2    0    0 -0.80044978405E+02 -0.11075385195E+03  0.49808283267E+03  0.53187322032E+03  0.12700000000E+03 0.  0.
   -5000001    1    1    2    0    0  0.80044978405E+02  0.11075385195E+03  0.12211245011E+04  0.12352925409E+04  0.12700000000E+03 0.  0.
<mgrwt>
<rscale>  0 0.40890215E+03</rscale>
<asrwt>0</asrwt>
<pdfrwt beam="1">  1        1 0.24902677E+00 0.40890215E+03</pdfrwt>
<pdfrwt beam="2">  1       -1 0.34256003E-02 0.40890215E+03</pdfrwt>
<totfact> 0.18444690E+03</totfact>
</mgrwt>
</event>
<event>
 4    1  0.6296743E-005  0.4018474E+03  0.7818608E-02  0.1043142E+00
          1   -1    0    0  501    0  0.00000000000E+00  0.00000000000E+00  0.87339520079E+03  0.87339520080E+03  0.50400000000E-02 0.  1.
         -1   -1    0    0    0  501 -0.00000000000E+00 -0.00000000000E+00 -0.46222291901E+02  0.46222292176E+02  0.50400000000E-02 0. -1.
    5000001    1    1    2    0    0 -0.86326152107E+02  0.82196817250E+02  0.64280899008E+03  0.66598867785E+03  0.12700000000E+03 0.  0.
   -5000001    1    1    2    0    0  0.86326152107E+02 -0.82196817250E+02  0.18436391881E+03  0.25362881513E+03  0.12700000000E+03 0.  0.
<mgrwt>
<rscale>  0 0.40184737E+03</rscale>
<asrwt>0</asrwt>
<pdfrwt beam="1">  1        1 0.12477075E+00 0.40184737E+03</pdfrwt>
<pdfrwt beam="2">  1       -1 0.66031841E-02 0.40184737E+03</pdfrwt>
<totfact> 0.26153755E+03</totfact>
</mgrwt>
</event>
<event>
 4    1  0.6296743E-005  0.7317855E+03  0.7818608E-02  0.9664367E-01
         -1   -1    0    0    0  501 -0.00000000000E+00  0.00000000000E+00  0.13639888322E+03  0.13639888332E+03  0.50400000000E-02 0. -1.
          1   -1    0    0  501    0  0.00000000000E+00 -0.00000000000E+00 -0.98151465617E+03  0.98151465619E+03  0.50400000000E-02 0.  1.
    5000001    1    1    2    0    0 -0.25447067663E+03 -0.78284628612E+02 -0.75326787683E+03  0.80896557566E+03  0.12700000000E+03 0.  0.
   -5000001    1    1    2    0    0  0.25447067663E+03  0.78284628612E+02 -0.91847896122E+02  0.30894796384E+03  0.12700000000E+03 0.  0.
<mgrwt>
<rscale>  0 0.73178550E+03</rscale>
<asrwt>0</asrwt>
<pdfrwt beam="1">  1        1 0.14021638E+00 0.73178550E+03</pdfrwt>
<pdfrwt beam="2">  1       -1 0.19485555E-01 0.73178550E+03</pdfrwt>
<totfact> 0.38411779E+02</totfact>
</mgrwt>
</event>
<event>
 4    1  0.6296743E-005  0.4556080E+03  0.7818608E-02  0.1026063E+00
         -1   -1    0    0    0  501 -0.00000000000E+00  0.00000000000E+00  0.18962336500E+03  0.18962336506E+03  0.50400000000E-02 0. -1.
          1   -1    0    0  501    0  0.00000000000E+00 -0.00000000000E+00 -0.27367234418E+03  0.27367234422E+03  0.50400000000E-02 0.  1.
    5000001    1    1    2    0    0 -0.17050814842E+03 -0.16658052882E+02 -0.12347060172E+03  0.24642343414E+03  0.12700000000E+03 0.  0.
   -5000001    1    1    2    0    0  0.17050814842E+03  0.16658052882E+02  0.39421622536E+02  0.21687227515E+03  0.12700000000E+03 0.  0.
<mgrwt>
<rscale>  0 0.45560804E+03</rscale>
<asrwt>0</asrwt>
<pdfrwt beam="1">  1        1 0.39096049E-01 0.45560804E+03</pdfrwt>
<pdfrwt beam="2">  1       -1 0.27089052E-01 0.45560804E+03</pdfrwt>
<totfact> 0.13227993E+03</totfact>
</mgrwt>
</event>
<event>
 4    1  0.6296743E-005  0.3731040E+03  0.7818608E-02  0.1053512E+00
         -1   -1    0    0    0  501 -0.00000000000E+00  0.00000000000E+00  0.26550870698E+02  0.26550871176E+02  0.50400000000E-02 0. -1.
          1   -1    0    0  501    0  0.00000000000E+00 -0.00000000000E+00 -0.13107535200E+04  0.13107535200E+04  0.50400000000E-02 0.  1.
    5000001    1    1    2    0    0 -0.75543402222E+02  0.59479988953E+02 -0.29407705216E+03  0.33444728629E+03  0.12700000000E+03 0.  0.
   -5000001    1    1    2    0    0  0.75543402222E+02 -0.59479988953E+02 -0.99012559711E+03  0.10028571049E+04  0.12700000000E+03 0.  0.
<mgrwt>
<rscale>  0 0.37310399E+03</rscale>
<asrwt>0</asrwt>
<pdfrwt beam="1">  1        1 0.18725046E+00 0.37310399E+03</pdfrwt>
<pdfrwt beam="2">  1       -1 0.37929824E-02 0.37310399E+03</pdfrwt>
<totfact> 0.29724370E+03</totfact>
</mgrwt>
</event>
<event>
 4    1  0.6296743E-005  0.3607237E+03  0.7818608E-02  0.1058298E+00
          1   -1    0    0  501    0  0.00000000000E+00  0.00000000000E+00  0.17523359180E+03  0.17523359187E+03  0.50400000000E-02 0.  1.
         -1   -1    0    0    0  501 -0.00000000000E+00 -0.00000000000E+00 -0.18564018129E+03  0.18564018136E+03  0.50400000000E-02 0. -1.
    5000001    1    1    2    0    0  0.66980625870E+02  0.10671501592E+03 -0.28167080048E+02  0.18109909791E+03  0.12700000000E+03 0.  0.
   -5000001    1    1    2    0    0 -0.66980625870E+02 -0.10671501592E+03  0.17760490558E+02  0.17977467533E+03  0.12700000000E+03 0.  0.
<mgrwt>
<rscale>  0 0.36072369E+03</rscale>
<asrwt>0</asrwt>
<pdfrwt beam="1">  1        1 0.25033370E-01 0.36072369E+03</pdfrwt>
<pdfrwt beam="2">  1       -1 0.26520026E-01 0.36072369E+03</pdfrwt>
<totfact> 0.24179025E+03</totfact>
</mgrwt>
</event>
<event>
 4    1  0.6296743E-005  0.4280564E+03  0.7818608E-02  0.1034476E+00
         -1   -1    0    0    0  501 -0.00000000000E+00  0.00000000000E+00  0.39401159351E+03  0.39401159354E+03  0.50400000000E-02 0. -1.
          1   -1    0    0  501    0  0.00000000000E+00 -0.00000000000E+00 -0.11626070384E+03  0.11626070395E+03  0.50400000000E-02 0.  1.
    5000001    1    1    2    0    0 -0.10858266930E+03  0.12871087437E+03  0.18222445167E+03  0.27873183535E+03  0.12700000000E+03 0.  0.
   -5000001    1    1    2    0    0  0.10858266930E+03 -0.12871087437E+03  0.95526437996E+02  0.23154046214E+03  0.12700000000E+03 0.  0.
<mgrwt>
<rscale>  0 0.42805638E+03</rscale>
<asrwt>0</asrwt>
<pdfrwt beam="1">  1        1 0.16608672E-01 0.42805638E+03</pdfrwt>
<pdfrwt beam="2">  1       -1 0.56287371E-01 0.42805638E+03</pdfrwt>
<totfact> 0.10754663E+03</totfact>
</mgrwt>
</event>
<event>
 4    1  0.6296743E-005  0.4272759E+03  0.7818608E-02  0.1034724E+00
         -1   -1    0    0    0  501 -0.00000000000E+00  0.00000000000E+00  0.63654051269E+02  0.63654051468E+02  0.50400000000E-02 0. -1.
          1   -1    0    0  501    0  0.00000000000E+00 -0.00000000000E+00 -0.71701901302E+03  0.71701901303E+03  0.50400000000E-02 0.  1.
    5000001    1    1    2    0    0 -0.76668939514E+02  0.15173897665E+03 -0.37178327503E+03  0.42808252348E+03  0.12700000000E+03 0.  0.
   -5000001    1    1    2    0    0  0.76668939514E+02 -0.15173897665E+03 -0.28158168672E+03  0.35259054102E+03  0.12700000000E+03 0.  0.
<mgrwt>
<rscale>  0 0.42727586E+03</rscale>
<asrwt>0</asrwt>
<pdfrwt beam="1">  1        1 0.10243128E+00 0.42727586E+03</pdfrwt>
<pdfrwt beam="2">  1       -1 0.90934363E-02 0.42727586E+03</pdfrwt>
<totfact> 0.21514773E+03</totfact>
</mgrwt>
</event>
<event>
 4    1  0.6296743E-005  0.3829890E+03  0.7818608E-02  0.1049835E+00
          1   -1    0    0  501    0  0.00000000000E+00  0.00000000000E+00  0.56776858932E+02  0.56776859156E+02  0.50400000000E-02 0.  1.
         -1   -1    0    0    0  501 -0.00000000000E+00 -0.00000000000E+00 -0.64586426499E+03  0.64586426501E+03  0.50400000000E-02 0. -1.
    5000001    1    1    2    0    0 -0.31068782529E+02  0.51203868749E+02 -0.55661471643E+02  0.15104404936E+03  0.12700000000E+03 0.  0.
   -5000001    1    1    2    0    0  0.31068782529E+02 -0.51203868749E+02 -0.53342593442E+03  0.55159707480E+03  0.12700000000E+03 0.  0.
<mgrwt>
<rscale>  0 0.38298900E+03</rscale>
<asrwt>0</asrwt>
<pdfrwt beam="1">  1        1 0.81109803E-02 0.38298900E+03</pdfrwt>
<pdfrwt beam="2">  1       -1 0.92266319E-01 0.38298900E+03</pdfrwt>
<totfact> 0.10311694E+03</totfact>
</mgrwt>
</event>
<event>
 4    1  0.6296743E-005  0.8133150E+03  0.7818608E-02  0.9540942E-01
         -1   -1    0    0    0  501 -0.00000000000E+00  0.00000000000E+00  0.31294462134E+03  0.31294462138E+03  0.50400000000E-02 0. -1.
          1   -1    0    0  501    0  0.00000000000E+00 -0.00000000000E+00 -0.52843314669E+03  0.52843314671E+03  0.50400000000E-02 0.  1.
    5000001    1    1    2    0    0  0.25257475441E+03 -0.29149655872E+03 -0.13033961356E+03  0.42647586705E+03  0.12700000000E+03 0.  0.
   -5000001    1    1    2    0    0 -0.25257475441E+03  0.29149655872E+03 -0.85148911784E+02  0.41490190104E+03  0.12700000000E+03 0.  0.
<mgrwt>
<rscale>  0 0.81331497E+03</rscale>
<asrwt>0</asrwt>
<pdfrwt beam="1">  1        1 0.75490449E-01 0.81331497E+03</pdfrwt>
<pdfrwt beam="2">  1       -1 0.44706375E-01 0.81331497E+03</pdfrwt>
<totfact> 0.22770872E+02</totfact>
</mgrwt>
</event>
<event>
 4    1  0.6296743E-005  0.3378304E+03  0.7818608E-02  0.1067724E+00
          1   -1    0    0  501    0  0.00000000000E+00  0.00000000000E+00  0.13223814350E+04  0.13223814350E+04  0.50400000000E-02 0. -1.
         -1   -1    0    0    0  501 -0.00000000000E+00 -0.00000000000E+00 -0.21576484906E+02  0.21576485495E+02  0.50400000000E-02 0.  1.
    5000001    1    1    2    0    0  0.10558474499E+03 -0.35349226647E+02  0.64095704882E+03  0.66283681599E+03  0.12700000000E+03 0.  0.
   -5000001    1    1    2    0    0 -0.10558474499E+03  0.35349226647E+02  0.65984790127E+03  0.68112110451E+03  0.12700000000E+03 0.  0.
<mgrwt>
<rscale>  0 0.33783039E+03</rscale>
<asrwt>0</asrwt>
<pdfrwt beam="1">  1        1 0.18891165E+00 0.33783039E+03</pdfrwt>
<pdfrwt beam="2">  1       -1 0.30823548E-02 0.33783039E+03</pdfrwt>
<totfact> 0.39789078E+03</totfact>
</mgrwt>
</event>
<event>
 4    1  0.6296743E-005  0.2881227E+03  0.7818608E-02  0.1091333E+00
          1   -1    0    0  501    0  0.00000000000E+00  0.00000000000E+00  0.25996130000E+04  0.25996130000E+04  0.50400000000E-02 0.  1.
         -1   -1    0    0    0  501 -0.00000000000E+00 -0.00000000000E+00 -0.79833690328E+01  0.79833706237E+01  0.50400000000E-02 0. -1.
    5000001    1    1    2    0    0 -0.32238045757E+02 -0.54829311722E+02  0.10780188661E+04  0.10873358362E+04  0.12700000000E+03 0.  0.
   -5000001    1    1    2    0    0  0.32238045757E+02  0.54829311722E+02  0.15136107649E+04  0.15202605345E+04  0.12700000000E+03 0.  0.
<mgrwt>
<rscale>  0 0.28812270E+03</rscale>
<asrwt>0</asrwt>
<pdfrwt beam="1">  1        1 0.37137292E+00 0.28812270E+03</pdfrwt>
<pdfrwt beam="2">  1       -1 0.11404825E-02 0.28812270E+03</pdfrwt>
<totfact> 0.28109802E+03</totfact>
</mgrwt>
</event>
<event>
 4    1  0.6296743E-005  0.3968483E+03  0.7818608E-02  0.1044876E+00
         -1   -1    0    0    0  501 -0.00000000000E+00  0.00000000000E+00  0.66120146974E+02  0.66120147166E+02  0.50400000000E-02 0. -1.
          1   -1    0    0  501    0  0.00000000000E+00 -0.00000000000E+00 -0.59546356980E+03  0.59546356983E+03  0.50400000000E-02 0.  1.
    5000001    1    1    2    0    0 -0.96172966409E+02  0.81431583445E+02 -0.12162373816E+03  0.21633695000E+03  0.12700000000E+03 0.  0.
   -5000001    1    1    2    0    0  0.96172966409E+02 -0.81431583445E+02 -0.40771968467E+03  0.44524676699E+03  0.12700000000E+03 0.  0.
<mgrwt>
<rscale>  0 0.39684828E+03</rscale>
<asrwt>0</asrwt>
<pdfrwt beam="1">  1        1 0.85066221E-01 0.39684828E+03</pdfrwt>
<pdfrwt beam="2">  1       -1 0.94457356E-02 0.39684828E+03</pdfrwt>
<totfact> 0.26366419E+03</totfact>
</mgrwt>
</event>
<event>
 4    1  0.6296743E-005  0.5148808E+03  0.7818608E-02  0.1009966E+00
          1   -1    0    0  501    0  0.00000000000E+00  0.00000000000E+00  0.71363906021E+03  0.71363906023E+03  0.50400000000E-02 0.  1.
         -1   -1    0    0    0  501 -0.00000000000E+00 -0.00000000000E+00 -0.92869868008E+02  0.92869868145E+02  0.50400000000E-02 0. -1.
    5000001    1    1    2    0    0 -0.78325124288E+02 -0.20843629605E+03  0.27311710457E+03  0.37456970968E+03  0.12700000000E+03 0.  0.
   -5000001    1    1    2    0    0  0.78325124288E+02  0.20843629605E+03  0.34765208764E+03  0.43193921869E+03  0.12700000000E+03 0.  0.
<mgrwt>
<rscale>  0 0.51488082E+03</rscale>
<asrwt>0</asrwt>
<pdfrwt beam="1">  1        1 0.10194844E+00 0.51488082E+03</pdfrwt>
<pdfrwt beam="2">  1       -1 0.13267124E-01 0.51488082E+03</pdfrwt>
<totfact> 0.11938071E+03</totfact>
</mgrwt>
</event>
<event>
 4    1  0.6296743E-005  0.3466419E+03  0.7818608E-02  0.1064002E+00
          1   -1    0    0  501    0  0.00000000000E+00  0.00000000000E+00  0.26771547381E+03  0.26771547385E+03  0.50400000000E-02 0.  1.
         -1   -1    0    0    0  501 -0.00000000000E+00 -0.00000000000E+00 -0.11220922399E+03  0.11220922410E+03  0.50400000000E-02 0. -1.
    5000001    1    1    2    0    0  0.16375101588E+02 -0.89903524720E+02 -0.39743135586E+01  0.15651064781E+03  0.12700000000E+03 0.  0.
   -5000001    1    1    2    0    0 -0.16375101588E+02  0.89903524720E+02  0.15948056337E+03  0.22341405015E+03  0.12700000000E+03 0.  0.
<mgrwt>
<rscale>  0 0.34664186E+03</rscale>
<asrwt>0</asrwt>
<pdfrwt beam="1">  1        1 0.38245067E-01 0.34664186E+03</pdfrwt>
<pdfrwt beam="2">  1       -1 0.16029889E-01 0.34664186E+03</pdfrwt>
<totfact> 0.32227949E+03</totfact>
</mgrwt>
</event>
<event>
 4    1  0.6296743E-005  0.3277677E+03  0.7818608E-02  0.1072129E+00
          1   -1    0    0  501    0  0.00000000000E+00  0.00000000000E+00  0.67886388409E+03  0.67886388411E+03  0.50400000000E-02 0.  1.
         -1   -1    0    0    0  501 -0.00000000000E+00 -0.00000000000E+00 -0.39563039030E+02  0.39563039351E+02  0.50400000000E-02 0. -1.
    5000001    1    1    2    0    0  0.79742349701E+02  0.48698627070E+01  0.17514661047E+03  0.23062500528E+03  0.12700000000E+03 0.  0.
   -5000001    1    1    2    0    0 -0.79742349701E+02 -0.48698627070E+01  0.46415423459E+03  0.48780191818E+03  0.12700000000E+03 0.  0.
<mgrwt>
<rscale>  0 0.32776771E+03</rscale>
<asrwt>0</asrwt>
<pdfrwt beam="1">  1        1 0.96980535E-01 0.32776771E+03</pdfrwt>
<pdfrwt beam="2">  1       -1 0.56518639E-02 0.32776771E+03</pdfrwt>
<totfact> 0.48102731E+03</totfact>
</mgrwt>
</event>
<event>
 4    1  0.6296743E-005  0.4963782E+03  0.7818608E-02  0.1014729E+00
         -1   -1    0    0    0  501 -0.00000000000E+00  0.00000000000E+00  0.12822649093E+03  0.12822649103E+03  0.50400000000E-02 0. -1.
          1   -1    0    0  501    0  0.00000000000E+00 -0.00000000000E+00 -0.48038293997E+03  0.48038294000E+03  0.50400000000E-02 0.  1.
    5000001    1    1    2    0    0 -0.64793368167E+02  0.20184608498E+03 -0.20427309849E+03  0.32061896598E+03  0.12700000000E+03 0.  0.
   -5000001    1    1    2    0    0  0.64793368167E+02 -0.20184608498E+03 -0.14788335055E+03  0.28799046504E+03  0.12700000000E+03 0.  0.
<mgrwt>
<rscale>  0 0.49637816E+03</rscale>
<asrwt>0</asrwt>
<pdfrwt beam="1">  1        1 0.68626133E-01 0.49637816E+03</pdfrwt>
<pdfrwt beam="2">  1       -1 0.18318070E-01 0.49637816E+03</pdfrwt>
<totfact> 0.12275157E+03</totfact>
</mgrwt>
</event>
<event>
 4    1  0.6296743E-005  0.4072437E+03  0.7818608E-02  0.1041300E+00
          1   -1    0    0  501    0  0.00000000000E+00  0.00000000000E+00  0.77484067505E+03  0.77484067506E+03  0.50400000000E-02 0. -1.
         -1   -1    0    0    0  501 -0.00000000000E+00 -0.00000000000E+00 -0.53510182945E+02  0.53510183182E+02  0.50400000000E-02 0.  1.
    5000001    1    1    2    0    0 -0.11355811899E+03 -0.57359862793E+02  0.55520374671E+03  0.58358015783E+03  0.12700000000E+03 0.  0.
   -5000001    1    1    2    0    0  0.11355811899E+03  0.57359862793E+02  0.16612674539E+03  0.24477070042E+03  0.12700000000E+03 0.  0.
<mgrwt>
<rscale>  0 0.40724374E+03</rscale>
<asrwt>0</asrwt>
<pdfrwt beam="1">  1        1 0.11069152E+00 0.40724374E+03</pdfrwt>
<pdfrwt beam="2">  1       -1 0.76443120E-02 0.40724374E+03</pdfrwt>
<totfact> 0.25096612E+03</totfact>
</mgrwt>
</event>
<event>
 4    1  0.6296743E-005  0.3925971E+03  0.7818608E-02  0.1046374E+00
         -1   -1    0    0    0  501 -0.00000000000E+00  0.00000000000E+00  0.30742306660E+02  0.30742307073E+02  0.50400000000E-02 0. -1.
          1   -1    0    0  501    0  0.00000000000E+00 -0.00000000000E+00 -0.12534230147E+04  0.12534230147E+04  0.50400000000E-02 0.  1.
    5000001    1    1    2    0    0 -0.39680512779E+02 -0.14321563827E+03 -0.55293280038E+03  0.58647160534E+03  0.12700000000E+03 0.  0.
   -5000001    1    1    2    0    0  0.39680512779E+02  0.14321563827E+03 -0.66974790767E+03  0.69769371645E+03  0.12700000000E+03 0.  0.
<mgrwt>
<rscale>  0 0.39259707E+03</rscale>
<asrwt>0</asrwt>
<pdfrwt beam="1">  1        1 0.17906040E+00 0.39259707E+03</pdfrwt>
<pdfrwt beam="2">  1       -1 0.43917589E-02 0.39259707E+03</pdfrwt>
<totfact> 0.26018209E+03</totfact>
</mgrwt>
</event>
<event>
 4    1  0.6296743E-005  0.3574837E+03  0.7818608E-02  0.1059585E+00
          1   -1    0    0  501    0  0.00000000000E+00  0.00000000000E+00  0.84974587077E+03  0.84974587078E+03  0.50400000000E-02 0. -1.
         -1   -1    0    0    0  501 -0.00000000000E+00 -0.00000000000E+00 -0.37597876476E+02  0.37597876814E+02  0.50400000000E-02 0.  1.
    5000001    1    1    2    0    0  0.51884918065E+02  0.69019009576E+02  0.17906556297E+03  0.23590070845E+03  0.12700000000E+03 0.  0.
   -5000001    1    1    2    0    0 -0.51884918065E+02 -0.69019009576E+02  0.63308243132E+03  0.65144303914E+03  0.12700000000E+03 0.  0.
<mgrwt>
<rscale>  0 0.35748365E+03</rscale>
<asrwt>0</asrwt>
<pdfrwt beam="1">  1        1 0.12139227E+00 0.35748365E+03</pdfrwt>
<pdfrwt beam="2">  1       -1 0.53711250E-02 0.35748365E+03</pdfrwt>
<totfact> 0.37338334E+03</totfact>
</mgrwt>
</event>
<event>
 4    1  0.6296743E-005  0.1395316E+04  0.7818608E-02  0.8957216E-01
          1   -1    0    0  501    0  0.00000000000E+00  0.00000000000E+00  0.12502969517E+04  0.12502969517E+04  0.50400000000E-02 0.  1.
         -1   -1    0    0    0  501 -0.00000000000E+00 -0.00000000000E+00 -0.38928911846E+03  0.38928911849E+03  0.50400000000E-02 0. -1.
    5000001    1    1    2    0    0  0.55318767102E+03 -0.32715887929E+03  0.71239308189E+03  0.96782355561E+03  0.12700000000E+03 0.  0.
   -5000001    1    1    2    0    0 -0.55318767102E+03  0.32715887929E+03  0.14861475134E+03  0.67176251458E+03  0.12700000000E+03 0.  0.
<mgrwt>
<rscale>  0 0.13953164E+04</rscale>
<asrwt>0</asrwt>
<pdfrwt beam="1">  1        1 0.17861385E+00 0.13953164E+04</pdfrwt>
<pdfrwt beam="2">  1       -1 0.55612732E-01 0.13953164E+04</pdfrwt>
<totfact> 0.36468546E+01</totfact>
</mgrwt>
</event>
<event>
 4    1  0.6296743E-005  0.6376406E+03  0.7818608E-02  0.9830251E-01
         -1   -1    0    0    0  501 -0.00000000000E+00  0.00000000000E+00  0.12403748014E+03  0.12403748024E+03  0.50400000000E-02 0. -1.
          1   -1    0    0  501    0  0.00000000000E+00 -0.00000000000E+00 -0.81948122774E+03  0.81948122776E+03  0.50400000000E-02 0.  1.
    5000001    1    1    2    0    0  0.26899456805E+03 -0.17764173290E+02 -0.18002678168E+03  0.34815554802E+03  0.12700000000E+03 0.  0.
   -5000001    1    1    2    0    0 -0.26899456805E+03  0.17764173290E+02 -0.51541696592E+03  0.59536315997E+03  0.12700000000E+03 0.  0.
<mgrwt>
<rscale>  0 0.63764061E+03</rscale>
<asrwt>0</asrwt>
<pdfrwt beam="1">  1        1 0.11706874E+00 0.63764061E+03</pdfrwt>
<pdfrwt beam="2">  1       -1 0.17719641E-01 0.63764061E+03</pdfrwt>
<totfact> 0.60444593E+02</totfact>
</mgrwt>
</event>
<event>
 4    1  0.6296743E-005  0.3851691E+03  0.7818608E-02  0.1049040E+00
          1   -1    0    0  501    0  0.00000000000E+00  0.00000000000E+00  0.12884694506E+04  0.12884694506E+04  0.50400000000E-02 0. -1.
         -1   -1    0    0    0  501 -0.00000000000E+00 -0.00000000000E+00 -0.28785173094E+02  0.28785173535E+02  0.50400000000E-02 0.  1.
    5000001    1    1    2    0    0  0.39758978240E+00  0.14407514953E+03  0.58123452219E+03  0.61214408155E+03  0.12700000000E+03 0.  0.
   -5000001    1    1    2    0    0 -0.39758978240E+00 -0.14407514953E+03  0.67844975532E+03  0.70511054260E+03  0.12700000000E+03 0.  0.
<mgrwt>
<rscale>  0 0.38516914E+03</rscale>
<asrwt>0</asrwt>
<pdfrwt beam="1">  1        1 0.18406710E+00 0.38516914E+03</pdfrwt>
<pdfrwt beam="2">  1       -1 0.41121667E-02 0.38516914E+03</pdfrwt>
<totfact> 0.27232636E+03</totfact>
</mgrwt>
</event>
<event>
 4    1  0.6296743E-005  0.3748631E+03  0.7818608E-02  0.1052849E+00
         -1   -1    0    0    0  501 -0.00000000000E+00  0.00000000000E+00  0.32464204119E+02  0.32464204510E+02  0.50400000000E-02 0. -1.
          1   -1    0    0  501    0  0.00000000000E+00 -0.00000000000E+00 -0.10821327318E+04  0.10821327318E+04  0.50400000000E-02 0.  1.
    5000001    1    1    2    0    0  0.66963443027E+02 -0.62444606775E+02 -0.83122071583E+03  0.84583704697E+03  0.12700000000E+03 0.  0.
   -5000001    1    1    2    0    0 -0.66963443027E+02  0.62444606775E+02 -0.21844781185E+03  0.26875988935E+03  0.12700000000E+03 0.  0.
<mgrwt>
<rscale>  0 0.37486306E+03</rscale>
<asrwt>0</asrwt>
<pdfrwt beam="1">  1        1 0.15459037E+00 0.37486306E+03</pdfrwt>
<pdfrwt beam="2">  1       -1 0.46377442E-02 0.37486306E+03</pdfrwt>
<totfact> 0.31360574E+03</totfact>
</mgrwt>
</event>
<event>
 4    1  0.6296743E-005  0.2981991E+03  0.7818608E-02  0.1086144E+00
         -1   -1    0    0    0  501 -0.00000000000E+00  0.00000000000E+00  0.41701527010E+02  0.41701527314E+02  0.50400000000E-02 0.  1.
          1   -1    0    0  501    0  0.00000000000E+00 -0.00000000000E+00 -0.53309004361E+03  0.53309004364E+03  0.50400000000E-02 0. -1.
    5000001    1    1    2    0    0  0.57596312421E+02  0.44728832171E+02 -0.19173456879E+03  0.24126572177E+03  0.12700000000E+03 0.  0.
   -5000001    1    1    2    0    0 -0.57596312421E+02 -0.44728832171E+02 -0.29965394782E+03  0.33352584919E+03  0.12700000000E+03 0.  0.
<mgrwt>
<rscale>  0 0.29819905E+03</rscale>
<asrwt>0</asrwt>
<pdfrwt beam="1">  1        1 0.76155716E-01 0.29819905E+03</pdfrwt>
<pdfrwt beam="2">  1       -1 0.59573613E-02 0.29819905E+03</pdfrwt>
<totfact> 0.61729676E+03</totfact>
</mgrwt>
</event>
<event>
 4    1  0.6296743E-005  0.2988160E+03  0.7818608E-02  0.1085834E+00
         -1   -1    0    0    0  501 -0.00000000000E+00  0.00000000000E+00  0.63377710760E+02  0.63377710961E+02  0.50400000000E-02 0.  1.
          1   -1    0    0  501    0  0.00000000000E+00 -0.00000000000E+00 -0.35221757600E+03  0.35221757604E+03  0.50400000000E-02 0. -1.
    5000001    1    1    2    0    0 -0.53936884106E+02  0.37177814815E+01 -0.22396064330E+03  0.26307865576E+03  0.12700000000E+03 0.  0.
   -5000001    1    1    2    0    0  0.53936884106E+02 -0.37177814815E+01 -0.64879221941E+02  0.15251663124E+03  0.12700000000E+03 0.  0.
<mgrwt>
<rscale>  0 0.29881595E+03</rscale>
<asrwt>0</asrwt>
<pdfrwt beam="1">  1        1 0.50316795E-01 0.29881595E+03</pdfrwt>
<pdfrwt beam="2">  1       -1 0.90539589E-02 0.29881595E+03</pdfrwt>
<totfact> 0.55676716E+03</totfact>
</mgrwt>
</event>
<event>
 4    1  0.6296743E-005  0.3112942E+03  0.7818608E-02  0.1079727E+00
          1   -1    0    0  501    0  0.00000000000E+00  0.00000000000E+00  0.38811332171E+03  0.38811332174E+03  0.50400000000E-02 0. -1.
         -1   -1    0    0    0  501 -0.00000000000E+00 -0.00000000000E+00 -0.62419970419E+02  0.62419970623E+02  0.50400000000E-02 0.  1.
    5000001    1    1    2    0    0 -0.66086918156E+02 -0.56366378429E+02  0.12883155940E+03  0.20067690467E+03  0.12700000000E+03 0.  0.
   -5000001    1    1    2    0    0  0.66086918156E+02  0.56366378429E+02  0.19686179189E+03  0.24985638770E+03  0.12700000000E+03 0.  0.
<mgrwt>
<rscale>  0 0.31129422E+03</rscale>
<asrwt>0</asrwt>
<pdfrwt beam="1">  1        1 0.55444758E-01 0.31129422E+03</pdfrwt>
<pdfrwt beam="2">  1       -1 0.89171389E-02 0.31129422E+03</pdfrwt>
<totfact> 0.50443440E+03</totfact>
</mgrwt>
</event>
<event>
 4    1  0.6296743E-005  0.4021673E+03  0.7818608E-02  0.1043032E+00
         -1   -1    0    0    0  501 -0.00000000000E+00  0.00000000000E+00  0.21334895818E+04  0.21334895818E+04  0.50400000000E-02 0. -1.
          1   -1    0    0  501    0  0.00000000000E+00 -0.00000000000E+00 -0.18952343870E+02  0.18952344540E+02  0.50400000000E-02 0.  1.
    5000001    1    1    2    0    0  0.10835519222E+03 -0.94027939268E+02  0.13838579712E+04  0.13970590487E+04  0.12700000000E+03 0.  0.
   -5000001    1    1    2    0    0 -0.10835519222E+03  0.94027939268E+02  0.73067926674E+03  0.75538287768E+03  0.12700000000E+03 0.  0.
<mgrwt>
<rscale>  0 0.40216727E+03</rscale>
<asrwt>0</asrwt>
<pdfrwt beam="1">  1        1 0.27074800E-02 0.40216727E+03</pdfrwt>
<pdfrwt beam="2">  1       -1 0.30478397E+00 0.40216727E+03</pdfrwt>
<totfact> 0.14032803E+02</totfact>
</mgrwt>
</event>
<event>
 4    1  0.6296743E-005  0.4815885E+03  0.7818608E-02  0.1018700E+00
         -1   -1    0    0    0  501 -0.00000000000E+00  0.00000000000E+00  0.36769362905E+02  0.36769363250E+02  0.50400000000E-02 0.  1.
          1   -1    0    0  501    0  0.00000000000E+00 -0.00000000000E+00 -0.15769071347E+04  0.15769071347E+04  0.50400000000E-02 0. -1.
    5000001    1    1    2    0    0  0.10798283044E+03  0.80103444322E+02 -0.12867349318E+04  0.12999587063E+04  0.12700000000E+03 0.  0.
   -5000001    1    1    2    0    0 -0.10798283044E+03 -0.80103444322E+02 -0.25340283999E+03  0.31371779162E+03  0.12700000000E+03 0.  0.
<mgrwt>
<rscale>  0 0.48158850E+03</rscale>
<asrwt>0</asrwt>
<pdfrwt beam="1">  1        1 0.22527240E+00 0.48158850E+03</pdfrwt>
<pdfrwt beam="2">  1       -1 0.52527672E-02 0.48158850E+03</pdfrwt>
<totfact> 0.12241501E+03</totfact>
</mgrwt>
</event>
<event>
 4    1  0.6296743E-005  0.3096023E+03  0.7818608E-02  0.1080537E+00
         -1   -1    0    0    0  501 -0.00000000000E+00  0.00000000000E+00  0.17350047918E+03  0.17350047925E+03  0.50400000000E-02 0.  1.
          1   -1    0    0  501    0  0.00000000000E+00 -0.00000000000E+00 -0.13811716551E+03  0.13811716560E+03  0.50400000000E-02 0. -1.
    5000001    1    1    2    0    0  0.63124713190E+02  0.46663821797E+02  0.58849807270E+02  0.16048221551E+03  0.12700000000E+03 0.  0.
   -5000001    1    1    2    0    0 -0.63124713190E+02 -0.46663821797E+02 -0.23466493599E+02  0.15113542934E+03  0.12700000000E+03 0.  0.
<mgrwt>
<rscale>  0 0.30960229E+03</rscale>
<asrwt>0</asrwt>
<pdfrwt beam="1">  1        1 0.19731024E-01 0.30960229E+03</pdfrwt>
<pdfrwt beam="2">  1       -1 0.24785783E-01 0.30960229E+03</pdfrwt>
<totfact> 0.36686885E+03</totfact>
</mgrwt>
</event>
<event>
 4    1  0.6296743E-005  0.2648092E+03  0.7818608E-02  0.1104288E+00
          1   -1    0    0  501    0  0.00000000000E+00  0.00000000000E+00  0.18883506859E+03  0.18883506865E+03  0.50400000000E-02 0.  1.
         -1   -1    0    0    0  501 -0.00000000000E+00 -0.00000000000E+00 -0.92837545271E+02  0.92837545408E+02  0.50400000000E-02 0. -1.
    5000001    1    1    2    0    0 -0.26559229180E+02 -0.91350080681E+01  0.74337347152E+02  0.14981282391E+03  0.12700000000E+03 0.  0.
   -5000001    1    1    2    0    0  0.26559229180E+02  0.91350080681E+01  0.21660176164E+02  0.13185979015E+03  0.12700000000E+03 0.  0.
<mgrwt>
<rscale>  0 0.26480925E+03</rscale>
<asrwt>0</asrwt>
<pdfrwt beam="1">  1        1 0.26976438E-01 0.26480925E+03</pdfrwt>
<pdfrwt beam="2">  1       -1 0.13262507E-01 0.26480925E+03</pdfrwt>
<totfact> 0.67150596E+03</totfact>
</mgrwt>
</event>
<event>
 4    1  0.6296743E-005  0.4300917E+03  0.7818608E-02  0.1033831E+00
         -1   -1    0    0    0  501 -0.00000000000E+00  0.00000000000E+00  0.28406875139E+02  0.28406875586E+02  0.50400000000E-02 0. -1.
          1   -1    0    0  501    0  0.00000000000E+00 -0.00000000000E+00 -0.16279409689E+04  0.16279409689E+04  0.50400000000E-02 0.  1.
    5000001    1    1    2    0    0 -0.16046643034E+03  0.57872167799E+02 -0.67694896390E+03  0.70956857512E+03  0.12700000000E+03 0.  0.
   -5000001    1    1    2    0    0  0.16046643034E+03 -0.57872167799E+02 -0.92258512981E+03  0.94677926932E+03  0.12700000000E+03 0.  0.
<mgrwt>
<rscale>  0 0.43009169E+03</rscale>
<asrwt>0</asrwt>
<pdfrwt beam="1">  1        1 0.23256294E+00 0.43009169E+03</pdfrwt>
<pdfrwt beam="2">  1       -1 0.40581261E-02 0.43009169E+03</pdfrwt>
<totfact> 0.16847322E+03</totfact>
</mgrwt>
</event>
<event>
 4    1  0.6296743E-005  0.9282661E+03  0.7818608E-02  0.9390921E-01
         -1   -1    0    0    0  501 -0.00000000000E+00  0.00000000000E+00  0.13560827654E+03  0.13560827664E+03  0.50400000000E-02 0. -1.
          1   -1    0    0  501    0  0.00000000000E+00 -0.00000000000E+00 -0.15885422776E+04  0.15885422777E+04  0.50400000000E-02 0.  1.
    5000001    1    1    2    0    0  0.37576400811E+03  0.14124233813E+03 -0.36371715252E+03  0.55638759414E+03  0.12700000000E+03 0.  0.
   -5000001    1    1    2    0    0 -0.37576400811E+03 -0.14124233813E+03 -0.10892168486E+04  0.11677629601E+04  0.12700000000E+03 0.  0.
<mgrwt>
<rscale>  0 0.92826608E+03</rscale>
<asrwt>0</asrwt>
<pdfrwt beam="1">  1        1 0.22693460E+00 0.92826608E+03</pdfrwt>
<pdfrwt beam="2">  1       -1 0.19372612E-01 0.92826608E+03</pdfrwt>
<totfact> 0.14780216E+02</totfact>
</mgrwt>
</event>
<event>
 4    1  0.6296743E-005  0.3250002E+03  0.7818608E-02  0.1073371E+00
          1   -1    0    0  501    0  0.00000000000E+00  0.00000000000E+00  0.38576434236E+04  0.38576434236E+04  0.50400000000E-02 0. -1.
         -1   -1    0    0    0  501 -0.00000000000E+00 -0.00000000000E+00 -0.68451858146E+01  0.68451876701E+01  0.50400000000E-02 0.  1.
    5000001    1    1    2    0    0 -0.70619165150E+02 -0.38465418527E+02  0.11913806201E+04  0.12008261477E+04  0.12700000000E+03 0.  0.
   -5000001    1    1    2    0    0  0.70619165150E+02  0.38465418527E+02  0.26594176176E+04  0.26636624635E+04  0.12700000000E+03 0.  0.
<mgrwt>
<rscale>  0 0.32500024E+03</rscale>
<asrwt>0</asrwt>
<pdfrwt beam="1">  1        1 0.55109435E+00 0.32500024E+03</pdfrwt>
<pdfrwt beam="2">  1       -1 0.97787951E-03 0.32500024E+03</pdfrwt>
<totfact> 0.52322125E+02</totfact>
</mgrwt>
</event>
<event>
 4    1  0.6296743E-005  0.7544322E+03  0.7818608E-02  0.9628422E-01
         -1   -1    0    0    0  501 -0.00000000000E+00  0.00000000000E+00  0.58168237188E+03  0.58168237190E+03  0.50400000000E-02 0. -1.
          1   -1    0    0  501    0  0.00000000000E+00 -0.00000000000E+00 -0.24462147854E+03  0.24462147859E+03  0.50400000000E-02 0.  1.
    5000001    1    1    2    0    0 -0.64832924818E+01  0.33958885984E+03  0.54705106992E+02  0.36672097777E+03  0.12700000000E+03 0.  0.
   -5000001    1    1    2    0    0  0.64832924818E+01 -0.33958885984E+03  0.28235578635E+03  0.45958287271E+03  0.12700000000E+03 0.  0.
<mgrwt>
<rscale>  0 0.75443224E+03</rscale>
<asrwt>0</asrwt>
<pdfrwt beam="1">  1        1 0.34945926E-01 0.75443224E+03</pdfrwt>
<pdfrwt beam="2">  1       -1 0.83097481E-01 0.75443224E+03</pdfrwt>
<totfact> 0.18346145E+02</totfact>
</mgrwt>
</event>
<event>
 4    1  0.6296743E-005  0.4083381E+03  0.7818608E-02  0.1040930E+00
         -1   -1    0    0    0  501 -0.00000000000E+00  0.00000000000E+00  0.17440672428E+02  0.17440673156E+02  0.50400000000E-02 0. -1.
          1   -1    0    0  501    0  0.00000000000E+00 -0.00000000000E+00 -0.23901024362E+04  0.23901024362E+04  0.50400000000E-02 0.  1.
    5000001    1    1    2    0    0  0.51044433498E+02  0.11575010630E+03 -0.17625794296E+04  0.17716712074E+04  0.12700000000E+03 0.  0.
   -5000001    1    1    2    0    0 -0.51044433498E+02 -0.11575010630E+03 -0.61008233415E+03  0.63587190199E+03  0.12700000000E+03 0.  0.
<mgrwt>
<rscale>  0 0.40833807E+03</rscale>
<asrwt>0</asrwt>
<pdfrwt beam="1">  1        1 0.34144300E+00 0.40833807E+03</pdfrwt>
<pdfrwt beam="2">  1       -1 0.24915262E-02 0.40833807E+03</pdfrwt>
<totfact> 0.11918038E+03</totfact>
</mgrwt>
</event>
<event>
 4    1  0.6296743E-005  0.3046480E+03  0.7818608E-02  0.1082940E+00
         -1   -1    0    0    0  501 -0.00000000000E+00  0.00000000000E+00  0.14606897773E+03  0.14606897782E+03  0.50400000000E-02 0. -1.
          1   -1    0    0  501    0  0.00000000000E+00 -0.00000000000E+00 -0.15884690290E+03  0.15884690298E+03  0.50400000000E-02 0.  1.
    5000001    1    1    2    0    0 -0.78698586642E+02  0.24625272845E+02  0.10170466951E+02  0.15176399441E+03  0.12700000000E+03 0.  0.
   -5000001    1    1    2    0    0  0.78698586642E+02 -0.24625272845E+02 -0.22948392117E+02  0.15315188638E+03  0.12700000000E+03 0.  0.
<mgrwt>
<rscale>  0 0.30464802E+03</rscale>
<asrwt>0</asrwt>
<pdfrwt beam="1">  1        1 0.22692415E-01 0.30464802E+03</pdfrwt>
<pdfrwt beam="2">  1       -1 0.20866997E-01 0.30464802E+03</pdfrwt>
<totfact> 0.40690729E+03</totfact>
</mgrwt>
</event>
<event>
 4    1  0.6296743E-005  0.3299151E+03  0.7818608E-02  0.1071174E+00
          1   -1    0    0  501    0  0.00000000000E+00  0.00000000000E+00  0.65025359417E+02  0.65025359612E+02  0.50400000000E-02 0. -1.
         -1   -1    0    0    0  501 -0.00000000000E+00 -0.00000000000E+00 -0.41846733295E+03  0.41846733298E+03  0.50400000000E-02 0.  1.
    5000001    1    1    2    0    0 -0.94079390312E+02 -0.20664416462E+02 -0.11447509150E+03  0.19624346197E+03  0.12700000000E+03 0.  0.
   -5000001    1    1    2    0    0  0.94079390312E+02  0.20664416462E+02 -0.23896688203E+03  0.28724923063E+03  0.12700000000E+03 0.  0.
<mgrwt>
<rscale>  0 0.32991507E+03</rscale>
<asrwt>0</asrwt>
<pdfrwt beam="1">  1        1 0.92893373E-02 0.32991507E+03</pdfrwt>
<pdfrwt beam="2">  1       -1 0.59781046E-01 0.32991507E+03</pdfrwt>
<totfact> 0.20814565E+03</totfact>
</mgrwt>
</event>
<event>
 4    1  0.6296743E-005  0.2881505E+03  0.7818608E-02  0.1091319E+00
          1   -1    0    0  501    0  0.00000000000E+00  0.00000000000E+00  0.85921407310E+03  0.85921407311E+03  0.50400000000E-02 0.  1.
         -1   -1    0    0    0  501 -0.00000000000E+00 -0.00000000000E+00 -0.24158908654E+02  0.24158909180E+02  0.50400000000E-02 0. -1.
    5000001    1    1    2    0    0 -0.49124026087E+02 -0.25821274062E+02  0.53817491586E+03  0.55573478225E+03  0.12700000000E+03 0.  0.
   -5000001    1    1    2    0    0  0.49124026087E+02  0.25821274062E+02  0.29688024858E+03  0.32763820005E+03  0.12700000000E+03 0.  0.
<mgrwt>
<rscale>  0 0.28815048E+03</rscale>
<asrwt>0</asrwt>
<pdfrwt beam="1">  1        1 0.12274484E+00 0.28815048E+03</pdfrwt>
<pdfrwt beam="2">  1       -1 0.34512734E-02 0.28815048E+03</pdfrwt>
<totfact> 0.70886194E+03</totfact>
</mgrwt>
</event>
<event>
 4    1  0.6296743E-005  0.5438212E+03  0.7818608E-02  0.1002934E+00
         -1   -1    0    0    0  501 -0.00000000000E+00  0.00000000000E+00  0.46400075868E+03  0.46400075871E+03  0.50400000000E-02 0. -1.
          1   -1    0    0  501    0  0.00000000000E+00 -0.00000000000E+00 -0.15934321523E+03  0.15934321531E+03  0.50400000000E-02 0.  1.
    5000001    1    1    2    0    0 -0.17135047053E+03  0.16842736160E+03  0.16242684692E+03  0.31660739171E+03  0.12700000000E+03 0.  0.
   -5000001    1    1    2    0    0  0.17135047053E+03 -0.16842736160E+03  0.14223069653E+03  0.30673658230E+03  0.12700000000E+03 0.  0.
<mgrwt>
<rscale>  0 0.54382119E+03</rscale>
<asrwt>0</asrwt>
<pdfrwt beam="1">  1        1 0.22763317E-01 0.54382119E+03</pdfrwt>
<pdfrwt beam="2">  1       -1 0.66285822E-01 0.54382119E+03</pdfrwt>
<totfact> 0.51524559E+02</totfact>
</mgrwt>
</event>
<event>
 4    1  0.6296743E-005  0.3276969E+03  0.7818608E-02  0.1072160E+00
         -1   -1    0    0    0  501 -0.00000000000E+00  0.00000000000E+00  0.14810176827E+02  0.14810177685E+02  0.50400000000E-02 0.  1.
          1   -1    0    0  501    0  0.00000000000E+00 -0.00000000000E+00 -0.18126934552E+04  0.18126934552E+04  0.50400000000E-02 0. -1.
    5000001    1    1    2    0    0 -0.45174045012E+02 -0.90718910295E+02 -0.10168086180E+04  0.10297083959E+04  0.12700000000E+03 0.  0.
   -5000001    1    1    2    0    0  0.45174045012E+02  0.90718910295E+02 -0.78107466039E+03  0.79779523697E+03  0.12700000000E+03 0.  0.
<mgrwt>
<rscale>  0 0.32769688E+03</rscale>
<asrwt>0</asrwt>
<pdfrwt beam="1">  1        1 0.25895607E+00 0.32769688E+03</pdfrwt>
<pdfrwt beam="2">  1       -1 0.21157408E-02 0.32769688E+03</pdfrwt>
<totfact> 0.34247607E+03</totfact>
</mgrwt>
</event>
<event>
 4    1  0.6296743E-005  0.7551505E+03  0.7818608E-02  0.9627305E-01
          1   -1    0    0  501    0  0.00000000000E+00  0.00000000000E+00  0.22909883122E+03  0.22909883128E+03  0.50400000000E-02 0.  1.
         -1   -1    0    0    0  501 -0.00000000000E+00 -0.00000000000E+00 -0.62227758842E+03  0.62227758844E+03  0.50400000000E-02 0. -1.
    5000001    1    1    2    0    0 -0.26229591384E+03  0.10600324826E+03 -0.43943978052E+03  0.53784026975E+03  0.12700000000E+03 0.  0.
   -5000001    1    1    2    0    0  0.26229591384E+03 -0.10600324826E+03  0.46261023320E+02  0.31353614997E+03  0.12700000000E+03 0.  0.
<mgrwt>
<rscale>  0 0.75515050E+03</rscale>
<asrwt>0</asrwt>
<pdfrwt beam="1">  1        1 0.32728405E-01 0.75515050E+03</pdfrwt>
<pdfrwt beam="2">  1       -1 0.88896797E-01 0.75515050E+03</pdfrwt>
<totfact> 0.17253782E+02</totfact>
</mgrwt>
</event>
<event>
 4    1  0.6296743E-005  0.3102012E+03  0.7818608E-02  0.1080249E+00
          1   -1    0    0  501    0  0.00000000000E+00  0.00000000000E+00  0.19397693692E+04  0.19397693692E+04  0.50400000000E-02 0.  1.
         -1   -1    0    0    0  501 -0.00000000000E+00 -0.00000000000E+00 -0.12401575218E+02  0.12401576242E+02  0.50400000000E-02 0. -1.
    5000001    1    1    2    0    0  0.24756213468E+02 -0.83614381551E+02  0.85058718785E+03  0.86442570476E+03  0.12700000000E+03 0.  0.
   -5000001    1    1    2    0    0 -0.24756213468E+02  0.83614381551E+02  0.10767806061E+04  0.10877452407E+04  0.12700000000E+03 0.  0.
<mgrwt>
<rscale>  0 0.31020120E+03</rscale>
<asrwt>0</asrwt>
<pdfrwt beam="1">  1        1 0.27710976E+00 0.31020120E+03</pdfrwt>
<pdfrwt beam="2">  1       -1 0.17716546E-02 0.31020120E+03</pdfrwt>
<totfact> 0.37203188E+03</totfact>
</mgrwt>
</event>
<event>
 4    1  0.6296743E-005  0.3380816E+03  0.7818608E-02  0.1067616E+00
         -1   -1    0    0    0  501 -0.00000000000E+00  0.00000000000E+00  0.11522870928E+04  0.11522870928E+04  0.50400000000E-02 0. -1.
          1   -1    0    0  501    0  0.00000000000E+00 -0.00000000000E+00 -0.24798326511E+02  0.24798327024E+02  0.50400000000E-02 0.  1.
    5000001    1    1    2    0    0  0.60959952720E+02  0.72652540913E+01  0.23942825572E+03  0.27789168643E+03  0.12700000000E+03 0.  0.
   -5000001    1    1    2    0    0 -0.60959952720E+02 -0.72652540913E+01  0.88806051058E+03  0.89919373341E+03  0.12700000000E+03 0.  0.
<mgrwt>
<rscale>  0 0.33808160E+03</rscale>
<asrwt>0</asrwt>
<pdfrwt beam="1">  1        1 0.35426184E-02 0.33808160E+03</pdfrwt>
<pdfrwt beam="2">  1       -1 0.16461243E+00 0.33808160E+03</pdfrwt>
<totfact> 0.79556226E+02</totfact>
</mgrwt>
</event>
<event>
 4    1  0.6296743E-005  0.1020096E+04  0.7818608E-02  0.9286775E-01
         -1   -1    0    0    0  501 -0.00000000000E+00  0.00000000000E+00  0.21025580854E+04  0.21025580854E+04  0.50400000000E-02 0. -1.
          1   -1    0    0  501    0  0.00000000000E+00 -0.00000000000E+00 -0.12372966189E+03  0.12372966199E+03  0.50400000000E-02 0.  1.
    5000001    1    1    2    0    0  0.33283183268E+03  0.31378941204E+03  0.58241010741E+03  0.75137963585E+03  0.12700000000E+03 0.  0.
   -5000001    1    1    2    0    0 -0.33283183268E+03 -0.31378941204E+03  0.13964183161E+04  0.14749081115E+04  0.12700000000E+03 0.  0.
<mgrwt>
<rscale>  0 0.10200957E+04</rscale>
<asrwt>0</asrwt>
<pdfrwt beam="1">  1        1 0.17675666E-01 0.10200957E+04</pdfrwt>
<pdfrwt beam="2">  1       -1 0.30036545E+00 0.10200957E+04</pdfrwt>
<totfact> 0.10306680E+01</totfact>
</mgrwt>
</event>
<event>
 4    1  0.6296743E-005  0.2967743E+03  0.7818608E-02  0.1086864E+00
          1   -1    0    0  501    0  0.00000000000E+00  0.00000000000E+00  0.16261370228E+04  0.16261370229E+04  0.50400000000E-02 0. -1.
         -1   -1    0    0    0  501 -0.00000000000E+00 -0.00000000000E+00 -0.13540520343E+02  0.13540521281E+02  0.50400000000E-02 0.  1.
    5000001    1    1    2    0    0  0.12689727280E+02 -0.74283856649E+02  0.72611498701E+03  0.74097982084E+03  0.12700000000E+03 0.  0.
   -5000001    1    1    2    0    0 -0.12689727280E+02  0.74283856649E+02  0.88648151550E+03  0.89869772329E+03  0.12700000000E+03 0.  0.
<mgrwt>
<rscale>  0 0.29677427E+03</rscale>
<asrwt>0</asrwt>
<pdfrwt beam="1">  1        1 0.23230546E+00 0.29677427E+03</pdfrwt>
<pdfrwt beam="2">  1       -1 0.19343587E-02 0.29677427E+03</pdfrwt>
<totfact> 0.50813956E+03</totfact>
</mgrwt>
</event>
<event>
 4    1  0.6296743E-005  0.5269622E+03  0.7818608E-02  0.1006972E+00
          1   -1    0    0  501    0  0.00000000000E+00  0.00000000000E+00  0.23451808808E+04  0.23451808808E+04  0.50400000000E-02 0.  1.
         -1   -1    0    0    0  501 -0.00000000000E+00 -0.00000000000E+00 -0.29602108676E+02  0.29602109105E+02  0.50400000000E-02 0. -1.
    5000001    1    1    2    0    0  0.22795005186E+03  0.26408865251E+02  0.12713192297E+04  0.12980909977E+04  0.12700000000E+03 0.  0.
   -5000001    1    1    2    0    0 -0.22795005186E+03 -0.26408865251E+02  0.10442595424E+04  0.10766919922E+04  0.12700000000E+03 0.  0.
<mgrwt>
<rscale>  0 0.52696224E+03</rscale>
<asrwt>0</asrwt>
<pdfrwt beam="1">  1        1 0.33502583E+00 0.52696224E+03</pdfrwt>
<pdfrwt beam="2">  1       -1 0.42288728E-02 0.52696224E+03</pdfrwt>
<totfact> 0.56895565E+02</totfact>
</mgrwt>
</event>
<event>
 4    1  0.6296743E-005  0.2955702E+03  0.7818608E-02  0.1087476E+00
          1   -1    0    0  501    0  0.00000000000E+00  0.00000000000E+00  0.23474434314E+04  0.23474434314E+04  0.50400000000E-02 0.  1.
         -1   -1    0    0    0  501 -0.00000000000E+00 -0.00000000000E+00 -0.93039224786E+01  0.93039238437E+01  0.50400000000E-02 0. -1.
    5000001    1    1    2    0    0  0.88159680186E+01  0.57079071932E+02  0.78042980902E+03  0.79280226321E+03  0.12700000000E+03 0.  0.
   -5000001    1    1    2    0    0 -0.88159680186E+01 -0.57079071932E+02  0.15577096999E+04  0.15639450921E+04  0.12700000000E+03 0.  0.
<mgrwt>
<rscale>  0 0.29557018E+03</rscale>
<asrwt>0</asrwt>
<pdfrwt beam="1">  1        1 0.33534943E+00 0.29557018E+03</pdfrwt>
<pdfrwt beam="2">  1       -1 0.13291304E-02 0.29557018E+03</pdfrwt>
<totfact> 0.32069643E+03</totfact>
</mgrwt>
</event>
<event>
 4    1  0.6296743E-005  0.3441212E+03  0.7818608E-02  0.1065054E+00
         -1   -1    0    0    0  501 -0.00000000000E+00  0.00000000000E+00  0.21856614899E+02  0.21856615480E+02  0.50400000000E-02 0. -1.
          1   -1    0    0  501    0  0.00000000000E+00 -0.00000000000E+00 -0.13545033370E+04  0.13545033370E+04  0.50400000000E-02 0.  1.
    5000001    1    1    2    0    0  0.81749710218E+02  0.49696367118E+02 -0.92930104303E+03  0.94280547973E+03  0.12700000000E+03 0.  0.
   -5000001    1    1    2    0    0 -0.81749710218E+02 -0.49696367118E+02 -0.40334567903E+03  0.43355447272E+03  0.12700000000E+03 0.  0.
<mgrwt>
<rscale>  0 0.34412125E+03</rscale>
<asrwt>0</asrwt>
<pdfrwt beam="1">  1        1 0.19350042E+00 0.34412125E+03</pdfrwt>
<pdfrwt beam="2">  1       -1 0.31223745E-02 0.34412125E+03</pdfrwt>
<totfact> 0.37210682E+03</totfact>
</mgrwt>
</event>
<event>
 4    1  0.6296743E-005  0.3173529E+03  0.7818608E-02  0.1076874E+00
         -1   -1    0    0    0  501 -0.00000000000E+00  0.00000000000E+00  0.13814404667E+02  0.13814405586E+02  0.50400000000E-02 0. -1.
          1   -1    0    0  501    0  0.00000000000E+00 -0.00000000000E+00 -0.18226056790E+04  0.18226056790E+04  0.50400000000E-02 0.  1.
    5000001    1    1    2    0    0  0.89718072542E+02 -0.27530460014E+02 -0.99440680952E+03  0.10068670029E+04  0.12700000000E+03 0.  0.
   -5000001    1    1    2    0    0 -0.89718072542E+02  0.27530460014E+02 -0.81438446485E+03  0.82955308170E+03  0.12700000000E+03 0.  0.
<mgrwt>
<rscale>  0 0.31735288E+03</rscale>
<asrwt>0</asrwt>
<pdfrwt beam="1">  1        1 0.26037209E+00 0.31735288E+03</pdfrwt>
<pdfrwt beam="2">  1       -1 0.19734876E-02 0.31735288E+03</pdfrwt>
<totfact> 0.37414603E+03</totfact>
</mgrwt>
</event>
<event>
 4    1  0.6296743E-005  0.4155334E+03  0.7818608E-02  0.1038530E+00
         -1   -1    0    0    0  501 -0.00000000000E+00  0.00000000000E+00  0.30116027710E+03  0.30116027714E+03  0.50400000000E-02 0.  1.
          1   -1    0    0  501    0  0.00000000000E+00 -0.00000000000E+00 -0.14333562626E+03  0.14333562635E+03  0.50400000000E-02 0. -1.
    5000001    1    1    2    0    0  0.48999196874E+02  0.10418014966E+03  0.20449876251E+03  0.26683921890E+03  0.12700000000E+03 0.  0.
   -5000001    1    1    2    0    0 -0.48999196874E+02 -0.10418014966E+03 -0.46674111666E+02  0.17765668459E+03  0.12700000000E+03 0.  0.
<mgrwt>
<rscale>  0 0.41553338E+03</rscale>
<asrwt>0</asrwt>
<pdfrwt beam="1">  1        1 0.20476518E-01 0.41553338E+03</pdfrwt>
<pdfrwt beam="2">  1       -1 0.43022897E-01 0.41553338E+03</pdfrwt>
<totfact> 0.13485172E+03</totfact>
</mgrwt>
</event>
<event>
 4    1  0.6296743E-005  0.3870165E+03  0.7818608E-02  0.1048370E+00
          1   -1    0    0  501    0  0.00000000000E+00  0.00000000000E+00  0.15314816012E+02  0.15314816841E+02  0.50400000000E-02 0.  1.
         -1   -1    0    0    0  501 -0.00000000000E+00 -0.00000000000E+00 -0.24450471426E+04  0.24450471426E+04  0.50400000000E-02 0. -1.
    5000001    1    1    2    0    0  0.10422911203E+03  0.91365237265E+02 -0.92318435629E+03  0.94213038911E+03  0.12700000000E+03 0.  0.
   -5000001    1    1    2    0    0 -0.10422911203E+03 -0.91365237265E+02 -0.15065479703E+04  0.15182315703E+04  0.12700000000E+03 0.  0.
<mgrwt>
<rscale>  0 0.38701653E+03</rscale>
<asrwt>0</asrwt>
<pdfrwt beam="1">  1        1 0.21878325E-02 0.38701653E+03</pdfrwt>
<pdfrwt beam="2">  1       -1 0.34929220E+00 0.38701653E+03</pdfrwt>
<totfact> 0.99083944E+01</totfact>
</mgrwt>
</event>
<event>
 4    1  0.6296743E-005  0.4469110E+03  0.7818608E-02  0.1028647E+00
         -1   -1    0    0    0  501 -0.00000000000E+00  0.00000000000E+00  0.65205608128E+03  0.65205608130E+03  0.50400000000E-02 0. -1.
          1   -1    0    0  501    0  0.00000000000E+00 -0.00000000000E+00 -0.76576798224E+02  0.76576798390E+02  0.50400000000E-02 0.  1.
    5000001    1    1    2    0    0  0.39356014168E+02  0.15735293688E+03  0.14659651538E+03  0.25284062355E+03  0.12700000000E+03 0.  0.
   -5000001    1    1    2    0    0 -0.39356014168E+02 -0.15735293688E+03  0.42888276767E+03  0.47579225614E+03  0.12700000000E+03 0.  0.
<mgrwt>
<rscale>  0 0.44691103E+03</rscale>
<asrwt>0</asrwt>
<pdfrwt beam="1">  1        1 0.10939542E-01 0.44691103E+03</pdfrwt>
<pdfrwt beam="2">  1       -1 0.93150871E-01 0.44691103E+03</pdfrwt>
<totfact> 0.67112466E+02</totfact>
</mgrwt>
</event>
<event>
 4    1  0.6296743E-005  0.3519114E+03  0.7818608E-02  0.1061833E+00
          1   -1    0    0  501    0  0.00000000000E+00  0.00000000000E+00  0.41590650720E+03  0.41590650723E+03  0.50400000000E-02 0.  1.
         -1   -1    0    0    0  501 -0.00000000000E+00 -0.00000000000E+00 -0.74440785684E+02  0.74440785855E+02  0.50400000000E-02 0. -1.
    5000001    1    1    2    0    0  0.78085009294E+02 -0.94899918659E+01  0.30028059087E+03  0.33538748020E+03  0.12700000000E+03 0.  0.
   -5000001    1    1    2    0    0 -0.78085009294E+02  0.94899918659E+01  0.41185130642E+02  0.15495981288E+03  0.12700000000E+03 0.  0.
<mgrwt>
<rscale>  0 0.35191139E+03</rscale>
<asrwt>0</asrwt>
<pdfrwt beam="1">  1        1 0.59415215E-01 0.35191139E+03</pdfrwt>
<pdfrwt beam="2">  1       -1 0.10634398E-01 0.35191139E+03</pdfrwt>
<totfact> 0.35229048E+03</totfact>
</mgrwt>
</event>
<event>
 4    1  0.6296743E-005  0.4076474E+03  0.7818608E-02  0.1041163E+00
         -1   -1    0    0    0  501 -0.00000000000E+00  0.00000000000E+00  0.26998979151E+02  0.26998979621E+02  0.50400000000E-02 0. -1.
          1   -1    0    0  501    0  0.00000000000E+00 -0.00000000000E+00 -0.15387282113E+04  0.15387282113E+04  0.50400000000E-02 0.  1.
    5000001    1    1    2    0    0 -0.12401440027E+03  0.83860334280E+02 -0.96634253388E+03  0.98608266384E+03  0.12700000000E+03 0.  0.
   -5000001    1    1    2    0    0  0.12401440027E+03 -0.83860334280E+02 -0.54538669831E+03  0.57964452713E+03  0.12700000000E+03 0.  0.
<mgrwt>
<rscale>  0 0.40764735E+03</rscale>
<asrwt>0</asrwt>
<pdfrwt beam="1">  1        1 0.21981826E+00 0.40764735E+03</pdfrwt>
<pdfrwt beam="2">  1       -1 0.38569980E-02 0.40764735E+03</pdfrwt>
<totfact> 0.20699615E+03</totfact>
</mgrwt>
</event>
<event>
 4    1  0.6296743E-005  0.3546647E+03  0.7818608E-02  0.1060717E+00
         -1   -1    0    0    0  501 -0.00000000000E+00  0.00000000000E+00  0.26272413334E+03  0.26272413339E+03  0.50400000000E-02 0.  1.
          1   -1    0    0  501    0  0.00000000000E+00 -0.00000000000E+00 -0.11969498935E+03  0.11969498946E+03  0.50400000000E-02 0. -1.
    5000001    1    1    2    0    0 -0.65662627704E+02  0.87915590140E+02  0.97894593302E+01  0.16812366038E+03  0.12700000000E+03 0.  0.
   -5000001    1    1    2    0    0  0.65662627704E+02 -0.87915590140E+02  0.13323968465E+03  0.21429546247E+03  0.12700000000E+03 0.  0.
<mgrwt>
<rscale>  0 0.35466470E+03</rscale>
<asrwt>0</asrwt>
<pdfrwt beam="1">  1        1 0.17099284E-01 0.35466470E+03</pdfrwt>
<pdfrwt beam="2">  1       -1 0.37532019E-01 0.35466470E+03</pdfrwt>
<totfact> 0.21765677E+03</totfact>
</mgrwt>
</event>
<event>
 4    1  0.6296743E-005  0.4187213E+03  0.7818608E-02  0.1037483E+00
          1   -1    0    0  501    0  0.00000000000E+00  0.00000000000E+00  0.41520659276E+03  0.41520659280E+03  0.50400000000E-02 0.  1.
         -1   -1    0    0    0  501 -0.00000000000E+00 -0.00000000000E+00 -0.10556645341E+03  0.10556645353E+03  0.50400000000E-02 0. -1.
    5000001    1    1    2    0    0 -0.16529858261E+02  0.15865171456E+03  0.21393659494E+03  0.29553590205E+03  0.12700000000E+03 0.  0.
   -5000001    1    1    2    0    0  0.16529858261E+02 -0.15865171456E+03  0.95703544415E+02  0.22523714427E+03  0.12700000000E+03 0.  0.
<mgrwt>
<rscale>  0 0.41872133E+03</rscale>
<asrwt>0</asrwt>
<pdfrwt beam="1">  1        1 0.59315228E-01 0.41872133E+03</pdfrwt>
<pdfrwt beam="2">  1       -1 0.15080922E-01 0.41872133E+03</pdfrwt>
<totfact> 0.20361718E+03</totfact>
</mgrwt>
</event>
<event>
 4    1  0.6296743E-005  0.2684779E+03  0.7818608E-02  0.1102154E+00
          1   -1    0    0  501    0  0.00000000000E+00  0.00000000000E+00  0.21497501914E+03  0.21497501919E+03  0.50400000000E-02 0.  1.
         -1   -1    0    0    0  501 -0.00000000000E+00 -0.00000000000E+00 -0.83824109804E+02  0.83824109956E+02  0.50400000000E-02 0. -1.
    5000001    1    1    2    0    0 -0.38472595423E+02 -0.18587869476E+02  0.74578573914E+02  0.15335127380E+03  0.12700000000E+03 0.  0.
   -5000001    1    1    2    0    0  0.38472595423E+02  0.18587869476E+02  0.56572335417E+02  0.14544785535E+03  0.12700000000E+03 0.  0.
<mgrwt>
<rscale>  0 0.26847785E+03</rscale>
<asrwt>0</asrwt>
<pdfrwt beam="1">  1        1 0.30710717E-01 0.26847785E+03</pdfrwt>
<pdfrwt beam="2">  1       -1 0.11974873E-01 0.26847785E+03</pdfrwt>
<totfact> 0.66933234E+03</totfact>
</mgrwt>
</event>
<event>
 4    1  0.6296743E-005  0.3568829E+03  0.7818608E-02  0.1059825E+00
         -1   -1    0    0    0  501 -0.00000000000E+00  0.00000000000E+00  0.48841389323E+03  0.48841389326E+03  0.50400000000E-02 0.  1.
          1   -1    0    0  501    0  0.00000000000E+00 -0.00000000000E+00 -0.65193360668E+02  0.65193360863E+02  0.50400000000E-02 0. -1.
    5000001    1    1    2    0    0  0.75744930373E+02 -0.88222072141E+02  0.13898497147E+03  0.22128319137E+03  0.12700000000E+03 0.  0.
   -5000001    1    1    2    0    0 -0.75744930373E+02  0.88222072141E+02  0.28423556109E+03  0.33232406274E+03  0.12700000000E+03 0.  0.
<mgrwt>
<rscale>  0 0.35688286E+03</rscale>
<asrwt>0</asrwt>
<pdfrwt beam="1">  1        1 0.93133367E-02 0.35688286E+03</pdfrwt>
<pdfrwt beam="2">  1       -1 0.69773417E-01 0.35688286E+03</pdfrwt>
<totfact> 0.15313211E+03</totfact>
</mgrwt>
</event>
<event>
 4    1  0.6296743E-005  0.7767837E+03  0.7818608E-02  0.9594243E-01
         -1   -1    0    0    0  501 -0.00000000000E+00  0.00000000000E+00  0.53119137684E+03  0.53119137686E+03  0.50400000000E-02 0. -1.
          1   -1    0    0  501    0  0.00000000000E+00 -0.00000000000E+00 -0.28398091446E+03  0.28398091450E+03  0.50400000000E-02 0.  1.
    5000001    1    1    2    0    0  0.26759897522E+02 -0.26014410702E+03  0.39387552765E+03  0.48954875121E+03  0.12700000000E+03 0.  0.
   -5000001    1    1    2    0    0 -0.26759897522E+02  0.26014410702E+03 -0.14666506527E+03  0.32562354015E+03  0.12700000000E+03 0.  0.
<mgrwt>
<rscale>  0 0.77678366E+03</rscale>
<asrwt>0</asrwt>
<pdfrwt beam="1">  1        1 0.40568702E-01 0.77678366E+03</pdfrwt>
<pdfrwt beam="2">  1       -1 0.75884482E-01 0.77678366E+03</pdfrwt>
<totfact> 0.18313810E+02</totfact>
</mgrwt>
</event>
<event>
 4    1  0.6296743E-005  0.4590074E+03  0.7818608E-02  0.1025069E+00
         -1   -1    0    0    0  501 -0.00000000000E+00  0.00000000000E+00  0.33281604473E+02  0.33281604854E+02  0.50400000000E-02 0. -1.
          1   -1    0    0  501    0  0.00000000000E+00 -0.00000000000E+00 -0.15826147628E+04  0.15826147628E+04  0.50400000000E-02 0.  1.
    5000001    1    1    2    0    0  0.10053148138E+03  0.10914687201E+03 -0.35041151678E+03  0.40116935266E+03  0.12700000000E+03 0.  0.
   -5000001    1    1    2    0    0 -0.10053148138E+03 -0.10914687201E+03 -0.11989216416E+04  0.12147270150E+04  0.12700000000E+03 0.  0.
<mgrwt>
<rscale>  0 0.45900745E+03</rscale>
<asrwt>0</asrwt>
<pdfrwt beam="1">  1        1 0.22608778E+00 0.45900745E+03</pdfrwt>
<pdfrwt beam="2">  1       -1 0.47545159E-02 0.45900745E+03</pdfrwt>
<totfact> 0.14140567E+03</totfact>
</mgrwt>
</event>
<event>
 4    1  0.6296743E-005  0.2959414E+03  0.7818608E-02  0.1087287E+00
         -1   -1    0    0    0  501 -0.00000000000E+00  0.00000000000E+00  0.13841939971E+04  0.13841939972E+04  0.50400000000E-02 0. -1.
          1   -1    0    0  501    0  0.00000000000E+00 -0.00000000000E+00 -0.15818110091E+02  0.15818110894E+02  0.50400000000E-02 0.  1.
    5000001    1    1    2    0    0  0.30769716438E+02  0.51740867563E+02  0.46522005750E+03  0.48598620837E+03  0.12700000000E+03 0.  0.
   -5000001    1    1    2    0    0 -0.30769716438E+02 -0.51740867563E+02  0.90315582955E+03  0.91402589968E+03  0.12700000000E+03 0.  0.
<mgrwt>
<rscale>  0 0.29594144E+03</rscale>
<asrwt>0</asrwt>
<pdfrwt beam="1">  1        1 0.22597294E-02 0.29594144E+03</pdfrwt>
<pdfrwt beam="2">  1       -1 0.19774206E+00 0.29594144E+03</pdfrwt>
<totfact> 0.88076840E+02</totfact>
</mgrwt>
</event>
<event>
 4    1  0.6296743E-005  0.4963902E+03  0.7818608E-02  0.1014725E+00
          1   -1    0    0  501    0  0.00000000000E+00  0.00000000000E+00  0.70640712461E+03  0.70640712463E+03  0.50400000000E-02 0.  1.
         -1   -1    0    0    0  501 -0.00000000000E+00 -0.00000000000E+00 -0.87202970195E+02  0.87202970340E+02  0.50400000000E-02 0. -1.
    5000001    1    1    2    0    0 -0.28677856702E+02  0.21122343529E+03  0.30027422968E+03  0.38952711343E+03  0.12700000000E+03 0.  0.
   -5000001    1    1    2    0    0  0.28677856702E+02 -0.21122343529E+03  0.31892992473E+03  0.40408298154E+03  0.12700000000E+03 0.  0.
<mgrwt>
<rscale>  0 0.49639017E+03</rscale>
<asrwt>0</asrwt>
<pdfrwt beam="1">  1        1 0.10091530E+00 0.49639017E+03</pdfrwt>
<pdfrwt beam="2">  1       -1 0.12457568E-01 0.49639017E+03</pdfrwt>
<totfact> 0.13400578E+03</totfact>
</mgrwt>
</event>
<event>
 4    1  0.6296743E-005  0.5447460E+03  0.7818608E-02  0.1002717E+00
          1   -1    0    0  501    0  0.00000000000E+00  0.00000000000E+00  0.35790706089E+03  0.35790706093E+03  0.50400000000E-02 0.  1.
         -1   -1    0    0    0  501 -0.00000000000E+00 -0.00000000000E+00 -0.20728024450E+03  0.20728024456E+03  0.50400000000E-02 0. -1.
    5000001    1    1    2    0    0  0.20676114197E+03  0.64781221233E+02 -0.34052128818E+02  0.25344688582E+03  0.12700000000E+03 0.  0.
   -5000001    1    1    2    0    0 -0.20676114197E+03 -0.64781221233E+02  0.18467894521E+03  0.31174041967E+03  0.12700000000E+03 0.  0.
<mgrwt>
<rscale>  0 0.54474604E+03</rscale>
<asrwt>0</asrwt>
<pdfrwt beam="1">  1        1 0.51129579E-01 0.54474604E+03</pdfrwt>
<pdfrwt beam="2">  1       -1 0.29611464E-01 0.54474604E+03</pdfrwt>
<totfact> 0.80454735E+02</totfact>
</mgrwt>
</event>
<event>
 4    1  0.6296743E-005  0.2943948E+03  0.7818608E-02  0.1088077E+00
          1   -1    0    0  501    0  0.00000000000E+00  0.00000000000E+00  0.67359571502E+02  0.67359571691E+02  0.50400000000E-02 0.  1.
         -1   -1    0    0    0  501 -0.00000000000E+00 -0.00000000000E+00 -0.32166286114E+03  0.32166286118E+03  0.50400000000E-02 0. -1.
    5000001    1    1    2    0    0 -0.47060039672E+02  0.56690518227E+02 -0.11331692687E+03  0.18546748531E+03  0.12700000000E+03 0.  0.
   -5000001    1    1    2    0    0  0.47060039672E+02 -0.56690518227E+02 -0.14098636277E+03  0.20355494756E+03  0.12700000000E+03 0.  0.
<mgrwt>
<rscale>  0 0.29439479E+03</rscale>
<asrwt>0</asrwt>
<pdfrwt beam="1">  1        1 0.96227961E-02 0.29439479E+03</pdfrwt>
<pdfrwt beam="2">  1       -1 0.45951837E-01 0.29439479E+03</pdfrwt>
<totfact> 0.32412824E+03</totfact>
</mgrwt>
</event>
<event>
 4    1  0.6296743E-005  0.3877865E+03  0.7818608E-02  0.1048093E+00
         -1   -1    0    0    0  501 -0.00000000000E+00  0.00000000000E+00  0.28475887520E+03  0.28475887525E+03  0.50400000000E-02 0. -1.
          1   -1    0    0  501    0  0.00000000000E+00 -0.00000000000E+00 -0.13202251572E+03  0.13202251581E+03  0.50400000000E-02 0.  1.
    5000001    1    1    2    0    0  0.54168257045E+02 -0.10788602942E+03  0.16559346275E+03  0.24108876026E+03  0.12700000000E+03 0.  0.
   -5000001    1    1    2    0    0 -0.54168257045E+02  0.10788602942E+03 -0.12857103265E+02  0.17569263080E+03  0.12700000000E+03 0.  0.
<mgrwt>
<rscale>  0 0.38778645E+03</rscale>
<asrwt>0</asrwt>
<pdfrwt beam="1">  1        1 0.18860359E-01 0.38778645E+03</pdfrwt>
<pdfrwt beam="2">  1       -1 0.40679840E-01 0.38778645E+03</pdfrwt>
<totfact> 0.16602288E+03</totfact>
</mgrwt>
</event>
<event>
 4    1  0.6296743E-005  0.2852894E+03  0.7818608E-02  0.1092835E+00
         -1   -1    0    0    0  501 -0.00000000000E+00  0.00000000000E+00  0.43527820824E+02  0.43527821116E+02  0.50400000000E-02 0.  1.
          1   -1    0    0  501    0  0.00000000000E+00 -0.00000000000E+00 -0.46745991727E+03  0.46745991729E+03  0.50400000000E-02 0. -1.
    5000001    1    1    2    0    0 -0.62393012994E+02 -0.16168278077E+02 -0.22631853762E+03  0.26740116260E+03  0.12700000000E+03 0.  0.
   -5000001    1    1    2    0    0  0.62393012994E+02  0.16168278077E+02 -0.19761355882E+03  0.24358657581E+03  0.12700000000E+03 0.  0.
<mgrwt>
<rscale>  0 0.28528941E+03</rscale>
<asrwt>0</asrwt>
<pdfrwt beam="1">  1        1 0.66779985E-01 0.28528941E+03</pdfrwt>
<pdfrwt beam="2">  1       -1 0.62182604E-02 0.28528941E+03</pdfrwt>
<totfact> 0.68660039E+03</totfact>
</mgrwt>
</event>
<event>
 4    1  0.6296743E-005  0.8773492E+03  0.7818608E-02  0.9454347E-01
         -1   -1    0    0    0  501 -0.00000000000E+00  0.00000000000E+00  0.74043240091E+03  0.74043240092E+03  0.50400000000E-02 0. -1.
          1   -1    0    0  501    0  0.00000000000E+00 -0.00000000000E+00 -0.25989598634E+03  0.25989598639E+03  0.50400000000E-02 0.  1.
    5000001    1    1    2    0    0 -0.19622150619E+03  0.37001123365E+03  0.20615408642E+03  0.48377649784E+03  0.12700000000E+03 0.  0.
   -5000001    1    1    2    0    0  0.19622150619E+03 -0.37001123365E+03  0.27438232815E+03  0.51655188947E+03  0.12700000000E+03 0.  0.
<mgrwt>
<rscale>  0 0.87734921E+03</rscale>
<asrwt>0</asrwt>
<pdfrwt beam="1">  1        1 0.37127997E-01 0.87734921E+03</pdfrwt>
<pdfrwt beam="2">  1       -1 0.10577606E+00 0.87734921E+03</pdfrwt>
<totfact> 0.98308850E+01</totfact>
</mgrwt>
</event>
<event>
 4    1  0.6296743E-005  0.7308284E+03  0.7818608E-02  0.9665917E-01
          1   -1    0    0  501    0  0.00000000000E+00  0.00000000000E+00  0.34839865393E+03  0.34839865396E+03  0.50400000000E-02 0.  1.
         -1   -1    0    0    0  501 -0.00000000000E+00 -0.00000000000E+00 -0.38326072842E+03  0.38326072845E+03  0.50400000000E-02 0. -1.
    5000001    1    1    2    0    0 -0.24373137810E+03  0.20661533804E+03 -0.14127958453E+03  0.37173082141E+03  0.12700000000E+03 0.  0.
   -5000001    1    1    2    0    0  0.24373137810E+03 -0.20661533804E+03  0.10641751004E+03  0.35992856100E+03  0.12700000000E+03 0.  0.
<mgrwt>
<rscale>  0 0.73082836E+03</rscale>
<asrwt>0</asrwt>
<pdfrwt beam="1">  1        1 0.49771236E-01 0.73082836E+03</pdfrwt>
<pdfrwt beam="2">  1       -1 0.54751533E-01 0.73082836E+03</pdfrwt>
<totfact> 0.27095136E+02</totfact>
</mgrwt>
</event>
<event>
 4    1  0.6296743E-005  0.3370305E+03  0.7818608E-02  0.1068068E+00
         -1   -1    0    0    0  501 -0.00000000000E+00  0.00000000000E+00  0.35666195709E+02  0.35666196065E+02  0.50400000000E-02 0. -1.
          1   -1    0    0  501    0  0.00000000000E+00 -0.00000000000E+00 -0.79619903156E+03  0.79619903158E+03  0.50400000000E-02 0.  1.
    5000001    1    1    2    0    0  0.54788446688E+02  0.83482648227E+02 -0.49856763948E+03  0.52408951295E+03  0.12700000000E+03 0.  0.
   -5000001    1    1    2    0    0 -0.54788446688E+02 -0.83482648227E+02 -0.26196519637E+03  0.30777571470E+03  0.12700000000E+03 0.  0.
<mgrwt>
<rscale>  0 0.33703051E+03</rscale>
<asrwt>0</asrwt>
<pdfrwt beam="1">  1        1 0.11374271E+00 0.33703051E+03</pdfrwt>
<pdfrwt beam="2">  1       -1 0.50951713E-02 0.33703051E+03</pdfrwt>
<totfact> 0.44610903E+03</totfact>
</mgrwt>
</event>
<event>
 4    1  0.6296743E-005  0.4391335E+03  0.7818608E-02  0.1031013E+00
          1   -1    0    0  501    0  0.00000000000E+00  0.00000000000E+00  0.59354791322E+03  0.59354791324E+03  0.50400000000E-02 0.  1.
         -1   -1    0    0    0  501 -0.00000000000E+00 -0.00000000000E+00 -0.81222700737E+02  0.81222700894E+02  0.50400000000E-02 0. -1.
    5000001    1    1    2    0    0  0.12200932773E+03 -0.83633945821E+02  0.10097671655E+03  0.21955912696E+03  0.12700000000E+03 0.  0.
   -5000001    1    1    2    0    0 -0.12200932773E+03  0.83633945821E+02  0.41134849593E+03  0.45521148717E+03  0.12700000000E+03 0.  0.
<mgrwt>
<rscale>  0 0.43913353E+03</rscale>
<asrwt>0</asrwt>
<pdfrwt beam="1">  1        1 0.84792561E-01 0.43913353E+03</pdfrwt>
<pdfrwt beam="2">  1       -1 0.11603243E-01 0.43913353E+03</pdfrwt>
<totfact> 0.19198240E+03</totfact>
</mgrwt>
</event>
<event>
 4    1  0.6296743E-005  0.3201701E+03  0.7818608E-02  0.1075571E+00
          1   -1    0    0  501    0  0.00000000000E+00  0.00000000000E+00  0.62690996134E+02  0.62690996337E+02  0.50400000000E-02 0.  1.
         -1   -1    0    0    0  501 -0.00000000000E+00 -0.00000000000E+00 -0.40878641971E+03  0.40878641974E+03  0.50400000000E-02 0. -1.
    5000001    1    1    2    0    0  0.40204718486E+02 -0.81310235537E+02 -0.12055976595E+03  0.19720910465E+03  0.12700000000E+03 0.  0.
   -5000001    1    1    2    0    0 -0.40204718486E+02  0.81310235537E+02 -0.22553565762E+03  0.27426831142E+03  0.12700000000E+03 0.  0.
<mgrwt>
<rscale>  0 0.32017013E+03</rscale>
<asrwt>0</asrwt>
<pdfrwt beam="1">  1        1 0.89558568E-02 0.32017013E+03</pdfrwt>
<pdfrwt beam="2">  1       -1 0.58398059E-01 0.32017013E+03</pdfrwt>
<totfact> 0.22869643E+03</totfact>
</mgrwt>
</event>
<event>
 4    1  0.6296743E-005  0.3962574E+03  0.7818608E-02  0.1045083E+00
          1   -1    0    0  501    0  0.00000000000E+00  0.00000000000E+00  0.35930092325E+03  0.35930092329E+03  0.50400000000E-02 0.  1.
         -1   -1    0    0    0  501 -0.00000000000E+00 -0.00000000000E+00 -0.10925378810E+03  0.10925378821E+03  0.50400000000E-02 0. -1.
    5000001    1    1    2    0    0 -0.36725375655E+02 -0.11002220062E+03  0.24131530975E+03  0.29633716704E+03  0.12700000000E+03 0.  0.
   -5000001    1    1    2    0    0  0.36725375655E+02  0.11002220062E+03  0.87318254046E+01  0.17221754446E+03  0.12700000000E+03 0.  0.
<mgrwt>
<rscale>  0 0.39625743E+03</rscale>
<asrwt>0</asrwt>
<pdfrwt beam="1">  1        1 0.51328703E-01 0.39625743E+03</pdfrwt>
<pdfrwt beam="2">  1       -1 0.15607684E-01 0.39625743E+03</pdfrwt>
<totfact> 0.23201029E+03</totfact>
</mgrwt>
</event>
<event>
 4    1  0.6296743E-005  0.2683355E+03  0.7818608E-02  0.1102236E+00
         -1   -1    0    0    0  501 -0.00000000000E+00  0.00000000000E+00  0.26645300824E+02  0.26645301301E+02  0.50400000000E-02 0. -1.
          1   -1    0    0  501    0  0.00000000000E+00 -0.00000000000E+00 -0.67557824062E+03  0.67557824064E+03  0.50400000000E-02 0.  1.
    5000001    1    1    2    0    0 -0.41180559965E+02 -0.42524965686E+01 -0.29156518354E+03  0.32070730971E+03  0.12700000000E+03 0.  0.
   -5000001    1    1    2    0    0  0.41180559965E+02  0.42524965686E+01 -0.35736775625E+03  0.38151623223E+03  0.12700000000E+03 0.  0.
<mgrwt>
<rscale>  0 0.26833550E+03</rscale>
<asrwt>0</asrwt>
<pdfrwt beam="1">  1        1 0.96511166E-01 0.26833550E+03</pdfrwt>
<pdfrwt beam="2">  1       -1 0.38064720E-02 0.26833550E+03</pdfrwt>
<totfact> 0.87063549E+03</totfact>
</mgrwt>
</event>
<event>
 4    1  0.6296743E-005  0.3259222E+03  0.7818608E-02  0.1072956E+00
          1   -1    0    0  501    0  0.00000000000E+00  0.00000000000E+00  0.71330021452E+03  0.71330021454E+03  0.50400000000E-02 0.  1.
         -1   -1    0    0    0  501 -0.00000000000E+00 -0.00000000000E+00 -0.37230211541E+02  0.37230211882E+02  0.50400000000E-02 0. -1.
    5000001    1    1    2    0    0  0.90552339460E+02 -0.24000323469E+02  0.24445055006E+03  0.29096531260E+03  0.12700000000E+03 0.  0.
   -5000001    1    1    2    0    0 -0.90552339460E+02  0.24000323469E+02  0.43161945291E+03  0.45956511382E+03  0.12700000000E+03 0.  0.
<mgrwt>
<rscale>  0 0.32592219E+03</rscale>
<asrwt>0</asrwt>
<pdfrwt beam="1">  1        1 0.10190003E+00 0.32592219E+03</pdfrwt>
<pdfrwt beam="2">  1       -1 0.53186017E-02 0.32592219E+03</pdfrwt>
<totfact> 0.49119735E+03</totfact>
</mgrwt>
</event>
<event>
 4    1  0.6296743E-005  0.5757166E+03  0.7818608E-02  0.9957108E-01
          1   -1    0    0  501    0  0.00000000000E+00  0.00000000000E+00  0.12183955227E+04  0.12183955227E+04  0.50400000000E-02 0. -1.
         -1   -1    0    0    0  501 -0.00000000000E+00 -0.00000000000E+00 -0.68009432030E+02  0.68009432217E+02  0.50400000000E-02 0.  1.
    5000001    1    1    2    0    0 -0.77048627612E+02 -0.24513476519E+03  0.51582904009E+03  0.59011536391E+03  0.12700000000E+03 0.  0.
   -5000001    1    1    2    0    0  0.77048627612E+02  0.24513476519E+03  0.63455705060E+03  0.69628959104E+03  0.12700000000E+03 0.  0.
<mgrwt>
<rscale>  0 0.57571655E+03</rscale>
<asrwt>0</asrwt>
<pdfrwt beam="1">  1        1 0.17405649E+00 0.57571655E+03</pdfrwt>
<pdfrwt beam="2">  1       -1 0.97156341E-02 0.57571655E+03</pdfrwt>
<totfact> 0.80627249E+02</totfact>
</mgrwt>
</event>
<event>
 4    1  0.6296743E-005  0.6528399E+03  0.7818608E-02  0.9801465E-01
         -1   -1    0    0    0  501 -0.00000000000E+00  0.00000000000E+00  0.13599223630E+03  0.13599223640E+03  0.50400000000E-02 0. -1.
          1   -1    0    0  501    0  0.00000000000E+00 -0.00000000000E+00 -0.78350059847E+03  0.78350059849E+03  0.50400000000E-02 0.  1.
    5000001    1    1    2    0    0 -0.23715460099E+03 -0.10585219021E+03 -0.53723556530E+03  0.61008035828E+03  0.12700000000E+03 0.  0.
   -5000001    1    1    2    0    0  0.23715460099E+03  0.10585219021E+03 -0.11027279687E+03  0.30941247660E+03  0.12700000000E+03 0.  0.
<mgrwt>
<rscale>  0 0.65283995E+03</rscale>
<asrwt>0</asrwt>
<pdfrwt beam="1">  1        1 0.11192865E+00 0.65283995E+03</pdfrwt>
<pdfrwt beam="2">  1       -1 0.19427463E-01 0.65283995E+03</pdfrwt>
<totfact> 0.55617895E+02</totfact>
</mgrwt>
</event>
<event>
 4    1  0.6296743E-005  0.4171226E+03  0.7818608E-02  0.1038007E+00
         -1   -1    0    0    0  501 -0.00000000000E+00  0.00000000000E+00  0.58410146404E+03  0.58410146406E+03  0.50400000000E-02 0. -1.
          1   -1    0    0  501    0  0.00000000000E+00 -0.00000000000E+00 -0.74469612052E+02  0.74469612223E+02  0.50400000000E-02 0.  1.
    5000001    1    1    2    0    0 -0.16516592264E+03 -0.80365714937E+01  0.26262138590E+03  0.33532575329E+03  0.12700000000E+03 0.  0.
   -5000001    1    1    2    0    0  0.16516592264E+03  0.80365714937E+01  0.24701046608E+03  0.32324532299E+03  0.12700000000E+03 0.  0.
<mgrwt>
<rscale>  0 0.41712257E+03</rscale>
<asrwt>0</asrwt>
<pdfrwt beam="1">  1        1 0.10638517E-01 0.41712257E+03</pdfrwt>
<pdfrwt beam="2">  1       -1 0.83443058E-01 0.41712257E+03</pdfrwt>
<totfact> 0.88423700E+02</totfact>
</mgrwt>
</event>
<event>
 4    1  0.6296743E-005  0.3767045E+03  0.7818608E-02  0.1052159E+00
         -1   -1    0    0    0  501 -0.00000000000E+00  0.00000000000E+00  0.46110041653E+03  0.46110041656E+03  0.50400000000E-02 0. -1.
          1   -1    0    0  501    0  0.00000000000E+00 -0.00000000000E+00 -0.76938908659E+02  0.76938908824E+02  0.50400000000E-02 0.  1.
    5000001    1    1    2    0    0  0.13736093273E+03  0.46353369736E+01  0.16151254262E+03  0.24719387859E+03  0.12700000000E+03 0.  0.
   -5000001    1    1    2    0    0 -0.13736093273E+03 -0.46353369736E+01  0.22264896525E+03  0.29084544679E+03  0.12700000000E+03 0.  0.
<mgrwt>
<rscale>  0 0.37670446E+03</rscale>
<asrwt>0</asrwt>
<pdfrwt beam="1">  1        1 0.10991273E-01 0.37670446E+03</pdfrwt>
<pdfrwt beam="2">  1       -1 0.65871487E-01 0.37670446E+03</pdfrwt>
<totfact> 0.13730789E+03</totfact>
</mgrwt>
</event>
<event>
 4    1  0.6296743E-005  0.4592148E+03  0.7818608E-02  0.1025009E+00
         -1   -1    0    0    0  501 -0.00000000000E+00  0.00000000000E+00  0.14588921854E+03  0.14588921862E+03  0.50400000000E-02 0.  1.
          1   -1    0    0  501    0  0.00000000000E+00 -0.00000000000E+00 -0.36136707424E+03  0.36136707428E+03  0.50400000000E-02 0. -1.
    5000001    1    1    2    0    0 -0.14696666794E+03 -0.84396159595E+02 -0.20572437669E+03  0.29525147316E+03  0.12700000000E+03 0.  0.
   -5000001    1    1    2    0    0  0.14696666794E+03  0.84396159595E+02 -0.97534790137E+01  0.21200481974E+03  0.12700000000E+03 0.  0.
<mgrwt>
<rscale>  0 0.45921481E+03</rscale>
<asrwt>0</asrwt>
<pdfrwt beam="1">  1        1 0.51623867E-01 0.45921481E+03</pdfrwt>
<pdfrwt beam="2">  1       -1 0.20841317E-01 0.45921481E+03</pdfrwt>
<totfact> 0.14390336E+03</totfact>
</mgrwt>
</event>
<event>
 4    1  0.6296743E-005  0.5280325E+03  0.7818608E-02  0.1006710E+00
          1   -1    0    0  501    0  0.00000000000E+00  0.00000000000E+00  0.21502283558E+04  0.21502283558E+04  0.50400000000E-02 0. -1.
         -1   -1    0    0    0  501 -0.00000000000E+00 -0.00000000000E+00 -0.32417293200E+02  0.32417293592E+02  0.50400000000E-02 0.  1.
    5000001    1    1    2    0    0  0.25831477887E+02 -0.19131299346E+03  0.15867650426E+04  0.16035024874E+04  0.12700000000E+03 0.  0.
   -5000001    1    1    2    0    0 -0.25831477887E+02  0.19131299346E+03  0.53104602000E+03  0.57914316199E+03  0.12700000000E+03 0.  0.
<mgrwt>
<rscale>  0 0.52803251E+03</rscale>
<asrwt>0</asrwt>
<pdfrwt beam="1">  1        1 0.30717540E+00 0.52803251E+03</pdfrwt>
<pdfrwt beam="2">  1       -1 0.46310431E-02 0.52803251E+03</pdfrwt>
<totfact> 0.65338382E+02</totfact>
</mgrwt>
</event>
<event>
 4    1  0.6296743E-005  0.3775376E+03  0.7818608E-02  0.1051848E+00
         -1   -1    0    0    0  501 -0.00000000000E+00  0.00000000000E+00  0.83362185564E+02  0.83362185716E+02  0.50400000000E-02 0. -1.
          1   -1    0    0  501    0  0.00000000000E+00 -0.00000000000E+00 -0.42745590847E+03  0.42745590850E+03  0.50400000000E-02 0.  1.
    5000001    1    1    2    0    0 -0.19271523303E+02  0.50169742509E+02  0.23636926034E+01  0.13792382578E+03  0.12700000000E+03 0.  0.
   -5000001    1    1    2    0    0  0.19271523303E+02 -0.50169742509E+02 -0.34645741551E+03  0.37289426844E+03  0.12700000000E+03 0.  0.
<mgrwt>
<rscale>  0 0.37753759E+03</rscale>
<asrwt>0</asrwt>
<pdfrwt beam="1">  1        1 0.61065128E-01 0.37753759E+03</pdfrwt>
<pdfrwt beam="2">  1       -1 0.11908884E-01 0.37753759E+03</pdfrwt>
<totfact> 0.28507315E+03</totfact>
</mgrwt>
</event>
<event>
 4    1  0.6296743E-005  0.5590074E+03  0.7818608E-02  0.9994303E-01
          1   -1    0    0  501    0  0.00000000000E+00  0.00000000000E+00  0.31217773800E+03  0.31217773804E+03  0.50400000000E-02 0.  1.
         -1   -1    0    0    0  501 -0.00000000000E+00 -0.00000000000E+00 -0.25024944802E+03  0.25024944807E+03  0.50400000000E-02 0. -1.
    5000001    1    1    2    0    0  0.55478706764E+02  0.23521719822E+03  0.91232940461E+02  0.28784972932E+03  0.12700000000E+03 0.  0.
   -5000001    1    1    2    0    0 -0.55478706764E+02 -0.23521719822E+03 -0.29304650482E+02  0.27457745680E+03  0.12700000000E+03 0.  0.
<mgrwt>
<rscale>  0 0.55900736E+03</rscale>
<asrwt>0</asrwt>
<pdfrwt beam="1">  1        1 0.44596820E-01 0.55900736E+03</pdfrwt>
<pdfrwt beam="2">  1       -1 0.35749921E-01 0.55900736E+03</pdfrwt>
<totfact> 0.68974007E+02</totfact>
</mgrwt>
</event>
<event>
 4    1  0.6296743E-005  0.3699847E+03  0.7818608E-02  0.1054699E+00
          1   -1    0    0  501    0  0.00000000000E+00  0.00000000000E+00  0.29037457960E+03  0.29037457964E+03  0.50400000000E-02 0.  1.
         -1   -1    0    0    0  501 -0.00000000000E+00 -0.00000000000E+00 -0.11785524583E+03  0.11785524594E+03  0.50400000000E-02 0. -1.
    5000001    1    1    2    0    0 -0.71528772853E+02  0.78063262726E+02 -0.52796420347E+01  0.16543008479E+03  0.12700000000E+03 0.  0.
   -5000001    1    1    2    0    0  0.71528772853E+02 -0.78063262726E+02  0.17779897580E+03  0.24279974079E+03  0.12700000000E+03 0.  0.
<mgrwt>
<rscale>  0 0.36998469E+03</rscale>
<asrwt>0</asrwt>
<pdfrwt beam="1">  1        1 0.41482082E-01 0.36998469E+03</pdfrwt>
<pdfrwt beam="2">  1       -1 0.16836464E-01 0.36998469E+03</pdfrwt>
<totfact> 0.26900455E+03</totfact>
</mgrwt>
</event>
<event>
 4    1  0.6296743E-005  0.4917596E+03  0.7818608E-02  0.1015952E+00
         -1   -1    0    0    0  501 -0.00000000000E+00  0.00000000000E+00  0.36611238896E+02  0.36611239243E+02  0.50400000000E-02 0.  1.
          1   -1    0    0  501    0  0.00000000000E+00 -0.00000000000E+00 -0.16513204573E+04  0.16513204574E+04  0.50400000000E-02 0. -1.
    5000001    1    1    2    0    0 -0.20965963146E+03 -0.14340905362E+02 -0.85145374105E+03  0.88615195975E+03  0.12700000000E+03 0.  0.
   -5000001    1    1    2    0    0  0.20965963146E+03  0.14340905362E+02 -0.76325547741E+03  0.80177973685E+03  0.12700000000E+03 0.  0.
<mgrwt>
<rscale>  0 0.49175965E+03</rscale>
<asrwt>0</asrwt>
<pdfrwt beam="1">  1        1 0.23590288E+00 0.49175965E+03</pdfrwt>
<pdfrwt beam="2">  1       -1 0.52301781E-02 0.49175965E+03</pdfrwt>
<totfact> 0.11060329E+03</totfact>
</mgrwt>
</event>
<event>
 4    1  0.6296743E-005  0.2648827E+03  0.7818608E-02  0.1104245E+00
          1   -1    0    0  501    0  0.00000000000E+00  0.00000000000E+00  0.31588113901E+03  0.31588113905E+03  0.50400000000E-02 0.  1.
         -1   -1    0    0    0  501 -0.00000000000E+00 -0.00000000000E+00 -0.55529467767E+02  0.55529467995E+02  0.50400000000E-02 0. -1.
    5000001    1    1    2    0    0 -0.34833352872E+02  0.82584809725E+01  0.11417962512E+03  0.17449226852E+03  0.12700000000E+03 0.  0.
   -5000001    1    1    2    0    0  0.34833352872E+02 -0.82584809725E+01  0.14617204612E+03  0.19691833853E+03  0.12700000000E+03 0.  0.
<mgrwt>
<rscale>  0 0.26488270E+03</rscale>
<asrwt>0</asrwt>
<pdfrwt beam="1">  1        1 0.45125879E-01 0.26488270E+03</pdfrwt>
<pdfrwt beam="2">  1       -1 0.79327808E-02 0.26488270E+03</pdfrwt>
<totfact> 0.77881974E+03</totfact>
</mgrwt>
</event>
<event>
 4    1  0.6296743E-005  0.4052600E+03  0.7818608E-02  0.1041973E+00
         -1   -1    0    0    0  501 -0.00000000000E+00  0.00000000000E+00  0.29775254021E+03  0.29775254025E+03  0.50400000000E-02 0. -1.
          1   -1    0    0  501    0  0.00000000000E+00 -0.00000000000E+00 -0.13789612880E+03  0.13789612889E+03  0.50400000000E-02 0.  1.
    5000001    1    1    2    0    0  0.33445647750E+02 -0.15296507926E+03  0.58082028235E+02  0.20980812384E+03  0.12700000000E+03 0.  0.
   -5000001    1    1    2    0    0 -0.33445647750E+02  0.15296507926E+03  0.10177438318E+03  0.22584054529E+03  0.12700000000E+03 0.  0.
<mgrwt>
<rscale>  0 0.40526003E+03</rscale>
<asrwt>0</asrwt>
<pdfrwt beam="1">  1        1 0.19699447E-01 0.40526003E+03</pdfrwt>
<pdfrwt beam="2">  1       -1 0.42536077E-01 0.40526003E+03</pdfrwt>
<totfact> 0.14476959E+03</totfact>
</mgrwt>
</event>
<event>
 4    1  0.6296743E-005  0.5255550E+03  0.7818608E-02  0.1007316E+00
         -1   -1    0    0    0  501 -0.00000000000E+00  0.00000000000E+00  0.36215290882E+02  0.36215291233E+02  0.50400000000E-02 0.  1.
          1   -1    0    0  501    0  0.00000000000E+00 -0.00000000000E+00 -0.19067087868E+04  0.19067087868E+04  0.50400000000E-02 0. -1.
    5000001    1    1    2    0    0  0.18417694662E+03 -0.12731369657E+03 -0.73986678460E+03  0.78336567703E+03  0.12700000000E+03 0.  0.
   -5000001    1    1    2    0    0 -0.18417694662E+03  0.12731369657E+03 -0.11306267113E+04  0.11595584010E+04  0.12700000000E+03 0.  0.
<mgrwt>
<rscale>  0 0.52555500E+03</rscale>
<asrwt>0</asrwt>
<pdfrwt beam="1">  1        1 0.27238691E+00 0.52555500E+03</pdfrwt>
<pdfrwt beam="2">  1       -1 0.51736142E-02 0.52555500E+03</pdfrwt>
<totfact> 0.77936311E+02</totfact>
</mgrwt>
</event>
<event>
 4    1  0.6296743E-005  0.3345083E+03  0.7818608E-02  0.1069159E+00
         -1   -1    0    0    0  501 -0.00000000000E+00  0.00000000000E+00  0.21257238361E+03  0.21257238367E+03  0.50400000000E-02 0. -1.
          1   -1    0    0  501    0  0.00000000000E+00 -0.00000000000E+00 -0.13159731638E+03  0.13159731648E+03  0.50400000000E-02 0.  1.
    5000001    1    1    2    0    0  0.84232566747E+02  0.17625828139E+02 -0.28063831158E+02  0.15595631997E+03  0.12700000000E+03 0.  0.
   -5000001    1    1    2    0    0 -0.84232566747E+02 -0.17625828139E+02  0.10903889839E+03  0.18821338018E+03  0.12700000000E+03 0.  0.
<mgrwt>
<rscale>  0 0.33450833E+03</rscale>
<asrwt>0</asrwt>
<pdfrwt beam="1">  1        1 0.18799617E-01 0.33450833E+03</pdfrwt>
<pdfrwt beam="2">  1       -1 0.30367483E-01 0.33450833E+03</pdfrwt>
<totfact> 0.27768823E+03</totfact>
</mgrwt>
</event>
<event>
 4    1  0.6296743E-005  0.3005840E+03  0.7818608E-02  0.1084949E+00
          1   -1    0    0  501    0  0.00000000000E+00  0.00000000000E+00  0.19250004103E+02  0.19250004763E+02  0.50400000000E-02 0.  1.
         -1   -1    0    0    0  501 -0.00000000000E+00 -0.00000000000E+00 -0.11733860571E+04  0.11733860571E+04  0.50400000000E-02 0. -1.
    5000001    1    1    2    0    0 -0.60260805904E+02  0.45205170692E+02 -0.68815131927E+03  0.70381539511E+03  0.12700000000E+03 0.  0.
   -5000001    1    1    2    0    0  0.60260805904E+02 -0.45205170692E+02 -0.46598473373E+03  0.48882066676E+03  0.12700000000E+03 0.  0.
<mgrwt>
<rscale>  0 0.30058401E+03</rscale>
<asrwt>0</asrwt>
<pdfrwt beam="1">  1        1 0.27500014E-02 0.30058401E+03</pdfrwt>
<pdfrwt beam="2">  1       -1 0.16762653E+00 0.30058401E+03</pdfrwt>
<totfact> 0.10804945E+03</totfact>
</mgrwt>
</event>
<event>
 4    1  0.6296743E-005  0.4638188E+03  0.7818608E-02  0.1023679E+00
         -1   -1    0    0    0  501 -0.00000000000E+00  0.00000000000E+00  0.73388725197E+02  0.73388725370E+02  0.50400000000E-02 0. -1.
          1   -1    0    0  501    0  0.00000000000E+00 -0.00000000000E+00 -0.73283701977E+03  0.73283701979E+03  0.50400000000E-02 0.  1.
    5000001    1    1    2    0    0 -0.19208479703E+03 -0.26078073314E+02 -0.31453675643E+03  0.39069042259E+03  0.12700000000E+03 0.  0.
   -5000001    1    1    2    0    0  0.19208479703E+03  0.26078073314E+02 -0.34491153814E+03  0.41553532257E+03  0.12700000000E+03 0.  0.
<mgrwt>
<rscale>  0 0.46381882E+03</rscale>
<asrwt>0</asrwt>
<pdfrwt beam="1">  1        1 0.10469100E+00 0.46381882E+03</pdfrwt>
<pdfrwt beam="2">  1       -1 0.10484104E-01 0.46381882E+03</pdfrwt>
<totfact> 0.16681407E+03</totfact>
</mgrwt>
</event>
<event>
 4    1  0.6296743E-005  0.3182096E+03  0.7818608E-02  0.1076476E+00
          1   -1    0    0  501    0  0.00000000000E+00  0.00000000000E+00  0.40831102312E+02  0.40831102623E+02  0.50400000000E-02 0. -1.
         -1   -1    0    0    0  501 -0.00000000000E+00 -0.00000000000E+00 -0.61997678345E+03  0.61997678347E+03  0.50400000000E-02 0.  1.
    5000001    1    1    2    0    0 -0.38875557394E+02 -0.81478743273E+02 -0.35638918177E+03  0.38896316464E+03  0.12700000000E+03 0.  0.
   -5000001    1    1    2    0    0  0.38875557394E+02  0.81478743273E+02 -0.22275649937E+03  0.27184472145E+03  0.12700000000E+03 0.  0.
<mgrwt>
<rscale>  0 0.31820959E+03</rscale>
<asrwt>0</asrwt>
<pdfrwt beam="1">  1        1 0.58330150E-02 0.31820959E+03</pdfrwt>
<pdfrwt beam="2">  1       -1 0.88568106E-01 0.31820959E+03</pdfrwt>
<totfact> 0.17719982E+03</totfact>
</mgrwt>
</event>
<event>
 4    1  0.6296743E-005  0.4100704E+03  0.7818608E-02  0.1040347E+00
          1   -1    0    0  501    0  0.00000000000E+00  0.00000000000E+00  0.42941379858E+03  0.42941379861E+03  0.50400000000E-02 0. -1.
         -1   -1    0    0    0  501 -0.00000000000E+00 -0.00000000000E+00 -0.97899598048E+02  0.97899598178E+02  0.50400000000E-02 0.  1.
    5000001    1    1    2    0    0  0.98927641141E+02 -0.11144285180E+03  0.87493367837E+02  0.21445343740E+03  0.12700000000E+03 0.  0.
   -5000001    1    1    2    0    0 -0.98927641141E+02  0.11144285180E+03  0.24402083269E+03  0.31285995939E+03  0.12700000000E+03 0.  0.
<mgrwt>
<rscale>  0 0.41007042E+03</rscale>
<asrwt>0</asrwt>
<pdfrwt beam="1">  1        1 0.61344829E-01 0.41007042E+03</pdfrwt>
<pdfrwt beam="2">  1       -1 0.13985657E-01 0.41007042E+03</pdfrwt>
<totfact> 0.21987448E+03</totfact>
</mgrwt>
</event>
<event>
 4    1  0.6296743E-005  0.4089020E+03  0.7818608E-02  0.1040740E+00
         -1   -1    0    0    0  501 -0.00000000000E+00  0.00000000000E+00  0.25003591881E+03  0.25003591886E+03  0.50400000000E-02 0. -1.
          1   -1    0    0  501    0  0.00000000000E+00 -0.00000000000E+00 -0.16717685313E+03  0.16717685320E+03  0.50400000000E-02 0.  1.
    5000001    1    1    2    0    0  0.11642985525E+03  0.10006884397E+03  0.88203743902E+02  0.21789581264E+03  0.12700000000E+03 0.  0.
   -5000001    1    1    2    0    0 -0.11642985525E+03 -0.10006884397E+03 -0.53446782234E+01  0.19931695942E+03  0.12700000000E+03 0.  0.
<mgrwt>
<rscale>  0 0.40890203E+03</rscale>
<asrwt>0</asrwt>
<pdfrwt beam="1">  1        1 0.23882407E-01 0.40890203E+03</pdfrwt>
<pdfrwt beam="2">  1       -1 0.35719417E-01 0.40890203E+03</pdfrwt>
<totfact> 0.15403321E+03</totfact>
</mgrwt>
</event>
<event>
 4    1  0.6296743E-005  0.3773328E+03  0.7818608E-02  0.1051924E+00
          1   -1    0    0  501    0  0.00000000000E+00  0.00000000000E+00  0.20961669568E+04  0.20961669568E+04  0.50400000000E-02 0.  1.
         -1   -1    0    0    0  501 -0.00000000000E+00 -0.00000000000E+00 -0.16981000090E+02  0.16981000838E+02  0.50400000000E-02 0. -1.
    5000001    1    1    2    0    0  0.39518133296E+02 -0.67756022860E+02  0.16857687256E+04  0.16923645464E+04  0.12700000000E+03 0.  0.
   -5000001    1    1    2    0    0 -0.39518133296E+02  0.67756022860E+02  0.39341723107E+03  0.42078341127E+03  0.12700000000E+03 0.  0.
<mgrwt>
<rscale>  0 0.37733281E+03</rscale>
<asrwt>0</asrwt>
<pdfrwt beam="1">  1        1 0.29945240E+00 0.37733281E+03</pdfrwt>
<pdfrwt beam="2">  1       -1 0.24258574E-02 0.37733281E+03</pdfrwt>
<totfact> 0.18783163E+03</totfact>
</mgrwt>
</event>
<event>
 4    1  0.6296743E-005  0.4487148E+03  0.7818608E-02  0.1028106E+00
         -1   -1    0    0    0  501 -0.00000000000E+00  0.00000000000E+00  0.70572546731E+02  0.70572546911E+02  0.50400000000E-02 0. -1.
          1   -1    0    0  501    0  0.00000000000E+00 -0.00000000000E+00 -0.71325544502E+03  0.71325544503E+03  0.50400000000E-02 0.  1.
    5000001    1    1    2    0    0 -0.10621685663E+03  0.10895647416E+03 -0.13768569152E+03  0.24132940879E+03  0.12700000000E+03 0.  0.
   -5000001    1    1    2    0    0  0.10621685663E+03 -0.10895647416E+03 -0.50499720676E+03  0.54249858316E+03  0.12700000000E+03 0.  0.
<mgrwt>
<rscale>  0 0.44871485E+03</rscale>
<asrwt>0</asrwt>
<pdfrwt beam="1">  1        1 0.10189363E+00 0.44871485E+03</pdfrwt>
<pdfrwt beam="2">  1       -1 0.10081793E-01 0.44871485E+03</pdfrwt>
<totfact> 0.18456464E+03</totfact>
</mgrwt>
</event>
<event>
 4    1  0.6296743E-005  0.3303370E+03  0.7818608E-02  0.1070988E+00
         -1   -1    0    0    0  501 -0.00000000000E+00  0.00000000000E+00  0.24967980687E+02  0.24967981196E+02  0.50400000000E-02 0. -1.
          1   -1    0    0  501    0  0.00000000000E+00 -0.00000000000E+00 -0.10926245780E+04  0.10926245780E+04  0.50400000000E-02 0.  1.
    5000001    1    1    2    0    0  0.96309204991E+02  0.22668565953E+02 -0.65869974338E+03  0.67808825294E+03  0.12700000000E+03 0.  0.
   -5000001    1    1    2    0    0 -0.96309204991E+02 -0.22668565953E+02 -0.40895685394E+03  0.43950430627E+03  0.12700000000E+03 0.  0.
<mgrwt>
<rscale>  0 0.33033698E+03</rscale>
<asrwt>0</asrwt>
<pdfrwt beam="1">  1        1 0.15608920E+00 0.33033698E+03</pdfrwt>
<pdfrwt beam="2">  1       -1 0.35668551E-02 0.33033698E+03</pdfrwt>
<totfact> 0.45650237E+03</totfact>
</mgrwt>
</event>
<event>
 4    1  0.6296743E-005  0.3077663E+03  0.7818608E-02  0.1081422E+00
          1   -1    0    0  501    0  0.00000000000E+00  0.00000000000E+00  0.18746145715E+03  0.18746145722E+03  0.50400000000E-02 0.  1.
         -1   -1    0    0    0  501 -0.00000000000E+00 -0.00000000000E+00 -0.12631938827E+03  0.12631938837E+03  0.50400000000E-02 0. -1.
    5000001    1    1    2    0    0  0.63095149054E+01  0.86597599280E+02  0.27030058447E+02  0.15620044251E+03  0.12700000000E+03 0.  0.
   -5000001    1    1    2    0    0 -0.63095149054E+01 -0.86597599280E+02  0.34112010430E+02  0.15758040308E+03  0.12700000000E+03 0.  0.
<mgrwt>
<rscale>  0 0.30776625E+03</rscale>
<asrwt>0</asrwt>
<pdfrwt beam="1">  1        1 0.26780208E-01 0.30776625E+03</pdfrwt>
<pdfrwt beam="2">  1       -1 0.18045627E-01 0.30776625E+03</pdfrwt>
<totfact> 0.41711672E+03</totfact>
</mgrwt>
</event>
<event>
 4    1  0.6296743E-005  0.3771651E+03  0.7818608E-02  0.1051987E+00
         -1   -1    0    0    0  501 -0.00000000000E+00  0.00000000000E+00  0.16604399388E+03  0.16604399396E+03  0.50400000000E-02 0.  1.
          1   -1    0    0  501    0  0.00000000000E+00 -0.00000000000E+00 -0.21418050742E+03  0.21418050748E+03  0.50400000000E-02 0. -1.
    5000001    1    1    2    0    0  0.29223044270E+01 -0.13217004193E+03  0.20527738809E+02  0.18446638693E+03  0.12700000000E+03 0.  0.
   -5000001    1    1    2    0    0 -0.29223044270E+01  0.13217004193E+03 -0.68664252344E+02  0.19575811451E+03  0.12700000000E+03 0.  0.
<mgrwt>
<rscale>  0 0.37716515E+03</rscale>
<asrwt>0</asrwt>
<pdfrwt beam="1">  1        1 0.30597216E-01 0.37716515E+03</pdfrwt>
<pdfrwt beam="2">  1       -1 0.23720570E-01 0.37716515E+03</pdfrwt>
<totfact> 0.22572090E+03</totfact>
</mgrwt>
</event>
<event>
 4    1  0.6296743E-005  0.2740811E+03  0.7818608E-02  0.1098966E+00
         -1   -1    0    0    0  501 -0.00000000000E+00  0.00000000000E+00  0.91133741974E+01  0.91133755910E+01  0.50400000000E-02 0. -1.
          1   -1    0    0  501    0  0.00000000000E+00 -0.00000000000E+00 -0.20607193228E+04  0.20607193228E+04  0.50400000000E-02 0.  1.
    5000001    1    1    2    0    0 -0.34209784846E+02  0.37983955187E+02 -0.10723667418E+04  0.10810700806E+04  0.12700000000E+03 0.  0.
   -5000001    1    1    2    0    0  0.34209784846E+02 -0.37983955187E+02 -0.97923920678E+03  0.98876261778E+03  0.12700000000E+03 0.  0.
<mgrwt>
<rscale>  0 0.27408107E+03</rscale>
<asrwt>0</asrwt>
<pdfrwt beam="1">  1        1 0.29438818E+00 0.27408107E+03</pdfrwt>
<pdfrwt beam="2">  1       -1 0.13019120E-02 0.27408107E+03</pdfrwt>
<totfact> 0.49261096E+03</totfact>
</mgrwt>
</event>
<event>
 4    1  0.6296743E-005  0.3563045E+03  0.7818608E-02  0.1060057E+00
         -1   -1    0    0    0  501 -0.00000000000E+00  0.00000000000E+00  0.33512254853E+02  0.33512255232E+02  0.50400000000E-02 0.  1.
          1   -1    0    0  501    0  0.00000000000E+00 -0.00000000000E+00 -0.94706321490E+03  0.94706321491E+03  0.50400000000E-02 0. -1.
    5000001    1    1    2    0    0 -0.84291323873E+02  0.47749833044E+02 -0.23965552019E+03  0.28800840646E+03  0.12700000000E+03 0.  0.
   -5000001    1    1    2    0    0  0.84291323873E+02 -0.47749833044E+02 -0.67389543986E+03  0.69256706368E+03  0.12700000000E+03 0.  0.
<mgrwt>
<rscale>  0 0.35630450E+03</rscale>
<asrwt>0</asrwt>
<pdfrwt beam="1">  1        1 0.13529473E+00 0.35630450E+03</pdfrwt>
<pdfrwt beam="2">  1       -1 0.47874656E-02 0.35630450E+03</pdfrwt>
<totfact> 0.37408292E+03</totfact>
</mgrwt>
</event>
<event>
 4    1  0.6296743E-005  0.3829993E+03  0.7818608E-02  0.1049831E+00
          1   -1    0    0  501    0  0.00000000000E+00  0.00000000000E+00  0.13110691036E+03  0.13110691045E+03  0.50400000000E-02 0.  1.
         -1   -1    0    0    0  501 -0.00000000000E+00 -0.00000000000E+00 -0.27971157737E+03  0.27971157741E+03  0.50400000000E-02 0. -1.
    5000001    1    1    2    0    0 -0.34319558437E+02  0.11217323605E+03 -0.16263989196E+03  0.23736343744E+03  0.12700000000E+03 0.  0.
   -5000001    1    1    2    0    0  0.34319558437E+02 -0.11217323605E+03  0.14035224947E+02  0.17345505042E+03  0.12700000000E+03 0.  0.
<mgrwt>
<rscale>  0 0.38299932E+03</rscale>
<asrwt>0</asrwt>
<pdfrwt beam="1">  1        1 0.18729559E-01 0.38299932E+03</pdfrwt>
<pdfrwt beam="2">  1       -1 0.39958797E-01 0.38299932E+03</pdfrwt>
<totfact> 0.17297925E+03</totfact>
</mgrwt>
</event>
<event>
 4    1  0.6296743E-005  0.3956049E+03  0.7818608E-02  0.1045312E+00
          1   -1    0    0  501    0  0.00000000000E+00  0.00000000000E+00  0.13311552790E+04  0.13311552790E+04  0.50400000000E-02 0.  1.
         -1   -1    0    0    0  501 -0.00000000000E+00 -0.00000000000E+00 -0.29392367470E+02  0.29392367902E+02  0.50400000000E-02 0. -1.
    5000001    1    1    2    0    0  0.71983959014E+02  0.12203082212E+03  0.83683763295E+03  0.85819545316E+03  0.12700000000E+03 0.  0.
   -5000001    1    1    2    0    0 -0.71983959014E+02 -0.12203082212E+03  0.46492527857E+03  0.50235219374E+03  0.12700000000E+03 0.  0.
<mgrwt>
<rscale>  0 0.39560488E+03</rscale>
<asrwt>0</asrwt>
<pdfrwt beam="1">  1        1 0.19016506E+00 0.39560488E+03</pdfrwt>
<pdfrwt beam="2">  1       -1 0.41989093E-02 0.39560488E+03</pdfrwt>
<totfact> 0.24743106E+03</totfact>
</mgrwt>
</event>
<event>
 4    1  0.6296743E-005  0.3251421E+03  0.7818608E-02  0.1073307E+00
          1   -1    0    0  501    0  0.00000000000E+00  0.00000000000E+00  0.16342249970E+04  0.16342249970E+04  0.50400000000E-02 0.  1.
         -1   -1    0    0    0  501 -0.00000000000E+00 -0.00000000000E+00 -0.16172404317E+02  0.16172405102E+02  0.50400000000E-02 0. -1.
    5000001    1    1    2    0    0  0.77146541153E+02 -0.64600030167E+02  0.87628861068E+03  0.89114279547E+03  0.12700000000E+03 0.  0.
   -5000001    1    1    2    0    0 -0.77146541153E+02  0.64600030167E+02  0.74176398204E+03  0.75925460668E+03  0.12700000000E+03 0.  0.
<mgrwt>
<rscale>  0 0.32514211E+03</rscale>
<asrwt>0</asrwt>
<pdfrwt beam="1">  1        1 0.23346063E+00 0.32514211E+03</pdfrwt>
<pdfrwt beam="2">  1       -1 0.23103443E-02 0.32514211E+03</pdfrwt>
<totfact> 0.38713972E+03</totfact>
</mgrwt>
</event>
<event>
 4    1  0.6296743E-005  0.4042654E+03  0.7818608E-02  0.1042313E+00
         -1   -1    0    0    0  501 -0.00000000000E+00  0.00000000000E+00  0.62758739080E+02  0.62758739282E+02  0.50400000000E-02 0. -1.
          1   -1    0    0  501    0  0.00000000000E+00 -0.00000000000E+00 -0.65102682343E+03  0.65102682345E+03  0.50400000000E-02 0.  1.
    5000001    1    1    2    0    0 -0.17977867873E+01 -0.14360409336E+03 -0.18103329633E+03  0.26368053028E+03  0.12700000000E+03 0.  0.
   -5000001    1    1    2    0    0  0.17977867873E+01  0.14360409336E+03 -0.40723478802E+03  0.45010503245E+03  0.12700000000E+03 0.  0.
<mgrwt>
<rscale>  0 0.40426537E+03</rscale>
<asrwt>0</asrwt>
<pdfrwt beam="1">  1        1 0.93003828E-01 0.40426537E+03</pdfrwt>
<pdfrwt beam="2">  1       -1 0.89655345E-02 0.40426537E+03</pdfrwt>
<totfact> 0.25253368E+03</totfact>
</mgrwt>
</event>
<event>
 4    1  0.6296743E-005  0.3243203E+03  0.7818608E-02  0.1073678E+00
          1   -1    0    0  501    0  0.00000000000E+00  0.00000000000E+00  0.78061844373E+02  0.78061844536E+02  0.50400000000E-02 0. -1.
         -1   -1    0    0    0  501 -0.00000000000E+00 -0.00000000000E+00 -0.33686006244E+03  0.33686006248E+03  0.50400000000E-02 0.  1.
    5000001    1    1    2    0    0  0.63797145356E+02 -0.21164201757E+02 -0.22555477096E+03  0.26743588745E+03  0.12700000000E+03 0.  0.
   -5000001    1    1    2    0    0 -0.63797145356E+02  0.21164201757E+02 -0.33243447103E+02  0.14748601956E+03  0.12700000000E+03 0.  0.
<mgrwt>
<rscale>  0 0.32432032E+03</rscale>
<asrwt>0</asrwt>
<pdfrwt beam="1">  1        1 0.11151692E-01 0.32432032E+03</pdfrwt>
<pdfrwt beam="2">  1       -1 0.48122865E-01 0.32432032E+03</pdfrwt>
<totfact> 0.24474589E+03</totfact>
</mgrwt>
</event>
<event>
 4    1  0.6296743E-005  0.2591368E+03  0.7818608E-02  0.1107663E+00
          1   -1    0    0  501    0  0.00000000000E+00  0.00000000000E+00  0.41210938730E+02  0.41210939038E+02  0.50400000000E-02 0.  1.
         -1   -1    0    0    0  501 -0.00000000000E+00 -0.00000000000E+00 -0.40736674600E+03  0.40736674603E+03  0.50400000000E-02 0. -1.
    5000001    1    1    2    0    0  0.50986901998E+01  0.22830777095E+02 -0.20137507392E+03  0.23922408202E+03  0.12700000000E+03 0.  0.
   -5000001    1    1    2    0    0 -0.50986901998E+01 -0.22830777095E+02 -0.16478073336E+03  0.20935360305E+03  0.12700000000E+03 0.  0.
<mgrwt>
<rscale>  0 0.25913677E+03</rscale>
<asrwt>0</asrwt>
<pdfrwt beam="1">  1        1 0.58872772E-02 0.25913677E+03</pdfrwt>
<pdfrwt beam="2">  1       -1 0.58195247E-01 0.25913677E+03</pdfrwt>
<totfact> 0.40631860E+03</totfact>
</mgrwt>
</event>
<event>
 4    1  0.6296743E-005  0.3413930E+03  0.7818608E-02  0.1066204E+00
          1   -1    0    0  501    0  0.00000000000E+00  0.00000000000E+00  0.16487665507E+04  0.16487665507E+04  0.50400000000E-02 0.  1.
         -1   -1    0    0    0  501 -0.00000000000E+00 -0.00000000000E+00 -0.17672181135E+02  0.17672181854E+02  0.50400000000E-02 0. -1.
    5000001    1    1    2    0    0  0.56483321968E+02 -0.99084323858E+02  0.81319177047E+03  0.83091390917E+03  0.12700000000E+03 0.  0.
   -5000001    1    1    2    0    0 -0.56483321968E+02  0.99084323858E+02  0.81790259912E+03  0.83552482342E+03  0.12700000000E+03 0.  0.
<mgrwt>
<rscale>  0 0.34139304E+03</rscale>
<asrwt>0</asrwt>
<pdfrwt beam="1">  1        1 0.23553804E+00 0.34139304E+03</pdfrwt>
<pdfrwt beam="2">  1       -1 0.25245978E-02 0.34139304E+03</pdfrwt>
<totfact> 0.33268085E+03</totfact>
</mgrwt>
</event>
<event>
 4    1  0.6296743E-005  0.3549616E+03  0.7818608E-02  0.1060597E+00
         -1   -1    0    0    0  501 -0.00000000000E+00  0.00000000000E+00  0.56861233194E+02  0.56861233418E+02  0.50400000000E-02 0. -1.
          1   -1    0    0  501    0  0.00000000000E+00 -0.00000000000E+00 -0.55397044416E+03  0.55397044419E+03  0.50400000000E-02 0.  1.
    5000001    1    1    2    0    0 -0.77136541473E+02 -0.95160521961E+02 -0.21568380966E+03  0.27866481070E+03  0.12700000000E+03 0.  0.
   -5000001    1    1    2    0    0  0.77136541473E+02  0.95160521961E+02 -0.28142540131E+03  0.33216686691E+03  0.12700000000E+03 0.  0.
<mgrwt>
<rscale>  0 0.35496165E+03</rscale>
<asrwt>0</asrwt>
<pdfrwt beam="1">  1        1 0.79138632E-01 0.35496165E+03</pdfrwt>
<pdfrwt beam="2">  1       -1 0.81230337E-02 0.35496165E+03</pdfrwt>
<totfact> 0.36689399E+03</totfact>
</mgrwt>
</event>
<event>
 4    1  0.6296743E-005  0.3723356E+03  0.7818608E-02  0.1053803E+00
          1   -1    0    0  501    0  0.00000000000E+00  0.00000000000E+00  0.29372439854E+03  0.29372439858E+03  0.50400000000E-02 0. -1.
         -1   -1    0    0    0  501 -0.00000000000E+00 -0.00000000000E+00 -0.11799647088E+03  0.11799647099E+03  0.50400000000E-02 0.  1.
    5000001    1    1    2    0    0  0.92285036147E+02 -0.99880213509E+02  0.94577192530E+02  0.20872572983E+03  0.12700000000E+03 0.  0.
   -5000001    1    1    2    0    0 -0.92285036147E+02  0.99880213509E+02  0.81150735124E+02  0.20299513974E+03  0.12700000000E+03 0.  0.
<mgrwt>
<rscale>  0 0.37233556E+03</rscale>
<asrwt>0</asrwt>
<pdfrwt beam="1">  1        1 0.41960628E-01 0.37233556E+03</pdfrwt>
<pdfrwt beam="2">  1       -1 0.16856639E-01 0.37233556E+03</pdfrwt>
<totfact> 0.26463748E+03</totfact>
</mgrwt>
</event>
<event>
 4    1  0.6296743E-005  0.4855272E+03  0.7818608E-02  0.1017627E+00
         -1   -1    0    0    0  501 -0.00000000000E+00  0.00000000000E+00  0.11891147429E+03  0.11891147440E+03  0.50400000000E-02 0. -1.
          1   -1    0    0  501    0  0.00000000000E+00 -0.00000000000E+00 -0.49561370029E+03  0.49561370031E+03  0.50400000000E-02 0.  1.
    5000001    1    1    2    0    0  0.14186161990E+03 -0.13942525600E+03 -0.11629547232E+03  0.26309267967E+03  0.12700000000E+03 0.  0.
   -5000001    1    1    2    0    0 -0.14186161990E+03  0.13942525600E+03 -0.26040675368E+03  0.35143249504E+03  0.12700000000E+03 0.  0.
<mgrwt>
<rscale>  0 0.48552716E+03</rscale>
<asrwt>0</asrwt>
<pdfrwt beam="1">  1        1 0.70801956E-01 0.48552716E+03</pdfrwt>
<pdfrwt beam="2">  1       -1 0.16987354E-01 0.48552716E+03</pdfrwt>
<totfact> 0.13318030E+03</totfact>
</mgrwt>
</event>
<event>
 4    1  0.6296743E-005  0.3996169E+03  0.7818608E-02  0.1043912E+00
         -1   -1    0    0    0  501 -0.00000000000E+00  0.00000000000E+00  0.39940839582E+03  0.39940839585E+03  0.50400000000E-02 0. -1.
          1   -1    0    0  501    0  0.00000000000E+00 -0.00000000000E+00 -0.99956376355E+02  0.99956376482E+02  0.50400000000E-02 0.  1.
    5000001    1    1    2    0    0  0.21308309081E+02 -0.45732099576E+02 -0.32429690368E+02  0.14044982657E+03  0.12700000000E+03 0.  0.
   -5000001    1    1    2    0    0 -0.21308309081E+02  0.45732099576E+02  0.33188170983E+03  0.35891494576E+03  0.12700000000E+03 0.  0.
<mgrwt>
<rscale>  0 0.39961690E+03</rscale>
<asrwt>0</asrwt>
<pdfrwt beam="1">  1        1 0.14279482E-01 0.39961690E+03</pdfrwt>
<pdfrwt beam="2">  1       -1 0.57058344E-01 0.39961690E+03</pdfrwt>
<totfact> 0.12800028E+03</totfact>
</mgrwt>
</event>
<event>
 4    1  0.6296743E-005  0.3162307E+03  0.7818608E-02  0.1077397E+00
         -1   -1    0    0    0  501 -0.00000000000E+00  0.00000000000E+00  0.42381298981E+02  0.42381299281E+02  0.50400000000E-02 0. -1.
          1   -1    0    0  501    0  0.00000000000E+00 -0.00000000000E+00 -0.58989369778E+03  0.58989369780E+03  0.50400000000E-02 0.  1.
    5000001    1    1    2    0    0  0.16253715861E+02  0.78614373621E+02 -0.17525486771E+03  0.23084122612E+03  0.12700000000E+03 0.  0.
   -5000001    1    1    2    0    0 -0.16253715861E+02 -0.78614373621E+02 -0.37225753109E+03  0.40143377096E+03  0.12700000000E+03 0.  0.
<mgrwt>
<rscale>  0 0.31623068E+03</rscale>
<asrwt>0</asrwt>
<pdfrwt beam="1">  1        1 0.84270523E-01 0.31623068E+03</pdfrwt>
<pdfrwt beam="2">  1       -1 0.60544717E-02 0.31623068E+03</pdfrwt>
<totfact> 0.52646344E+03</totfact>
</mgrwt>
</event>
<event>
 4    1  0.6296743E-005  0.6043712E+03  0.7818608E-02  0.9896379E-01
         -1   -1    0    0    0  501 -0.00000000000E+00  0.00000000000E+00  0.14238235600E+03  0.14238235609E+03  0.50400000000E-02 0. -1.
          1   -1    0    0  501    0  0.00000000000E+00 -0.00000000000E+00 -0.64134440824E+03  0.64134440826E+03  0.50400000000E-02 0.  1.
    5000001    1    1    2    0    0 -0.24994013519E+03  0.18097992063E+02 -0.39382151394E+03  0.48375819718E+03  0.12700000000E+03 0.  0.
   -5000001    1    1    2    0    0  0.24994013519E+03 -0.18097992063E+02 -0.10514053830E+03  0.29996856717E+03  0.12700000000E+03 0.  0.
<mgrwt>
<rscale>  0 0.60437117E+03</rscale>
<asrwt>0</asrwt>
<pdfrwt beam="1">  1        1 0.91620628E-01 0.60437117E+03</pdfrwt>
<pdfrwt beam="2">  1       -1 0.20340337E-01 0.60437117E+03</pdfrwt>
<totfact> 0.69327338E+02</totfact>
</mgrwt>
</event>
<event>
 4    1  0.6296743E-005  0.4620134E+03  0.7818608E-02  0.1024199E+00
          1   -1    0    0  501    0  0.00000000000E+00  0.00000000000E+00  0.24259169006E+03  0.24259169011E+03  0.50400000000E-02 0.  1.
         -1   -1    0    0    0  501 -0.00000000000E+00 -0.00000000000E+00 -0.21997499329E+03  0.21997499335E+03  0.50400000000E-02 0. -1.
    5000001    1    1    2    0    0  0.18335375639E+03  0.16738036964E+02 -0.46521908222E+02  0.22845579399E+03  0.12700000000E+03 0.  0.
   -5000001    1    1    2    0    0 -0.18335375639E+03 -0.16738036964E+02  0.69138604991E+02  0.23411088946E+03  0.12700000000E+03 0.  0.
<mgrwt>
<rscale>  0 0.46201344E+03</rscale>
<asrwt>0</asrwt>
<pdfrwt beam="1">  1        1 0.34655956E-01 0.46201344E+03</pdfrwt>
<pdfrwt beam="2">  1       -1 0.31424999E-01 0.46201344E+03</pdfrwt>
<totfact> 0.11955435E+03</totfact>
</mgrwt>
</event>
<event>
 4    1  0.6296743E-005  0.4090112E+03  0.7818608E-02  0.1040703E+00
          1   -1    0    0  501    0  0.00000000000E+00  0.00000000000E+00  0.66082072719E+03  0.66082072721E+03  0.50400000000E-02 0.  1.
         -1   -1    0    0    0  501 -0.00000000000E+00 -0.00000000000E+00 -0.63288783819E+02  0.63288784019E+02  0.50400000000E-02 0. -1.
    5000001    1    1    2    0    0  0.61322902684E+02  0.10931021966E+03  0.47566614104E+03  0.50803198743E+03  0.12700000000E+03 0.  0.
   -5000001    1    1    2    0    0 -0.61322902684E+02 -0.10931021966E+03  0.12186580233E+03  0.21607752380E+03  0.12700000000E+03 0.  0.
<mgrwt>
<rscale>  0 0.40901120E+03</rscale>
<asrwt>0</asrwt>
<pdfrwt beam="1">  1        1 0.94402957E-01 0.40901120E+03</pdfrwt>
<pdfrwt beam="2">  1       -1 0.90412553E-02 0.40901120E+03</pdfrwt>
<totfact> 0.24406716E+03</totfact>
</mgrwt>
</event>
<event>
 4    1  0.6296743E-005  0.3306003E+03  0.7818608E-02  0.1070872E+00
          1   -1    0    0  501    0  0.00000000000E+00  0.00000000000E+00  0.28664074892E+03  0.28664074896E+03  0.50400000000E-02 0.  1.
         -1   -1    0    0    0  501 -0.00000000000E+00 -0.00000000000E+00 -0.95325358298E+02  0.95325358432E+02  0.50400000000E-02 0. -1.
    5000001    1    1    2    0    0 -0.93387662456E+02 -0.41297009808E+02  0.63630063985E+02  0.17494137178E+03  0.12700000000E+03 0.  0.
   -5000001    1    1    2    0    0  0.93387662456E+02  0.41297009808E+02  0.12768532664E+03  0.20702473561E+03  0.12700000000E+03 0.  0.
<mgrwt>
<rscale>  0 0.33060025E+03</rscale>
<asrwt>0</asrwt>
<pdfrwt beam="1">  1        1 0.40948678E-01 0.33060025E+03</pdfrwt>
<pdfrwt beam="2">  1       -1 0.13617909E-01 0.33060025E+03</pdfrwt>
<totfact> 0.38298500E+03</totfact>
</mgrwt>
</event>
<event>
 4    1  0.6296743E-005  0.5695380E+03  0.7818608E-02  0.9970701E-01
          1   -1    0    0  501    0  0.00000000000E+00  0.00000000000E+00  0.12982461238E+04  0.12982461238E+04  0.50400000000E-02 0. -1.
         -1   -1    0    0    0  501 -0.00000000000E+00 -0.00000000000E+00 -0.62463806895E+02  0.62463807099E+02  0.50400000000E-02 0.  1.
    5000001    1    1    2    0    0 -0.18785293029E+03  0.15901652947E+03  0.45960382930E+03  0.53660009315E+03  0.12700000000E+03 0.  0.
   -5000001    1    1    2    0    0  0.18785293029E+03 -0.15901652947E+03  0.77617848756E+03  0.82410983771E+03  0.12700000000E+03 0.  0.
<mgrwt>
<rscale>  0 0.56953804E+03</rscale>
<asrwt>0</asrwt>
<pdfrwt beam="1">  1        1 0.18546373E+00 0.56953804E+03</pdfrwt>
<pdfrwt beam="2">  1       -1 0.89234009E-02 0.56953804E+03</pdfrwt>
<totfact> 0.81444102E+02</totfact>
</mgrwt>
</event>
<event>
 4    1  0.6296743E-005  0.4513185E+03  0.7818608E-02  0.1027330E+00
         -1   -1    0    0    0  501 -0.00000000000E+00  0.00000000000E+00  0.39564013390E+03  0.39564013393E+03  0.50400000000E-02 0.  1.
          1   -1    0    0  501    0  0.00000000000E+00 -0.00000000000E+00 -0.12870810135E+03  0.12870810144E+03  0.50400000000E-02 0. -1.
    5000001    1    1    2    0    0 -0.13024909282E+03  0.76520063711E+02  0.63391968962E+01  0.19745716433E+03  0.12700000000E+03 0.  0.
   -5000001    1    1    2    0    0  0.13024909282E+03 -0.76520063711E+02  0.26059283565E+03  0.32689107104E+03  0.12700000000E+03 0.  0.
<mgrwt>
<rscale>  0 0.45131847E+03</rscale>
<asrwt>0</asrwt>
<pdfrwt beam="1">  1        1 0.18386872E-01 0.45131847E+03</pdfrwt>
<pdfrwt beam="2">  1       -1 0.56520019E-01 0.45131847E+03</pdfrwt>
<totfact> 0.93307244E+02</totfact>
</mgrwt>
</event>
<event>
 4    1  0.6296743E-005  0.3327223E+03  0.7818608E-02  0.1069939E+00
          1   -1    0    0  501    0  0.00000000000E+00  0.00000000000E+00  0.43595140652E+03  0.43595140655E+03  0.50400000000E-02 0.  1.
         -1   -1    0    0    0  501 -0.00000000000E+00 -0.00000000000E+00 -0.63484204331E+02  0.63484204531E+02  0.50400000000E-02 0. -1.
    5000001    1    1    2    0    0  0.94865708838E+02 -0.50466170993E+02  0.18498573539E+03  0.24878717698E+03  0.12700000000E+03 0.  0.
   -5000001    1    1    2    0    0 -0.94865708838E+02  0.50466170993E+02  0.18748146680E+03  0.25064843411E+03  0.12700000000E+03 0.  0.
<mgrwt>
<rscale>  0 0.33272228E+03</rscale>
<asrwt>0</asrwt>
<pdfrwt beam="1">  1        1 0.62278777E-01 0.33272228E+03</pdfrwt>
<pdfrwt beam="2">  1       -1 0.90691714E-02 0.33272228E+03</pdfrwt>
<totfact> 0.42402443E+03</totfact>
</mgrwt>
</event>
<event>
 4    1  0.6296743E-005  0.3865581E+03  0.7818608E-02  0.1048536E+00
          1   -1    0    0  501    0  0.00000000000E+00  0.00000000000E+00  0.26439272238E+03  0.26439272243E+03  0.50400000000E-02 0.  1.
         -1   -1    0    0    0  501 -0.00000000000E+00 -0.00000000000E+00 -0.14129284598E+03  0.14129284607E+03  0.50400000000E-02 0. -1.
    5000001    1    1    2    0    0  0.41070757266E+02 -0.13972628753E+03  0.57152410818E+02  0.20150841320E+03  0.12700000000E+03 0.  0.
   -5000001    1    1    2    0    0 -0.41070757266E+02  0.13972628753E+03  0.65947465579E+02  0.20417715530E+03  0.12700000000E+03 0.  0.
<mgrwt>
<rscale>  0 0.38655815E+03</rscale>
<asrwt>0</asrwt>
<pdfrwt beam="1">  1        1 0.37770389E-01 0.38655815E+03</pdfrwt>
<pdfrwt beam="2">  1       -1 0.20184692E-01 0.38655815E+03</pdfrwt>
<totfact> 0.22566072E+03</totfact>
</mgrwt>
</event>
<event>
 4    1  0.6296743E-005  0.3427392E+03  0.7818608E-02  0.1065635E+00
         -1   -1    0    0    0  501 -0.00000000000E+00  0.00000000000E+00  0.11006162124E+04  0.11006162124E+04  0.50400000000E-02 0. -1.
          1   -1    0    0  501    0  0.00000000000E+00 -0.00000000000E+00 -0.26682809751E+02  0.26682810227E+02  0.50400000000E-02 0.  1.
    5000001    1    1    2    0    0 -0.67487787489E+02  0.80587623292E+02  0.69087232837E+03  0.71026934370E+03  0.12700000000E+03 0.  0.
   -5000001    1    1    2    0    0  0.67487787489E+02 -0.80587623292E+02  0.38306107425E+03  0.41702967891E+03  0.12700000000E+03 0.  0.
<mgrwt>
<rscale>  0 0.34273916E+03</rscale>
<asrwt>0</asrwt>
<pdfrwt beam="1">  1        1 0.38118305E-02 0.34273916E+03</pdfrwt>
<pdfrwt beam="2">  1       -1 0.15723087E+00 0.34273916E+03</pdfrwt>
<totfact> 0.81355461E+02</totfact>
</mgrwt>
</event>
<event>
 4    1  0.6296743E-005  0.3354107E+03  0.7818608E-02  0.1068768E+00
          1   -1    0    0  501    0  0.00000000000E+00  0.00000000000E+00  0.12223496629E+03  0.12223496640E+03  0.50400000000E-02 0.  1.
         -1   -1    0    0    0  501 -0.00000000000E+00 -0.00000000000E+00 -0.23009032996E+03  0.23009033001E+03  0.50400000000E-02 0. -1.
    5000001    1    1    2    0    0  0.81013509431E+02 -0.59148969874E+02 -0.10012621708E+03  0.19030514626E+03  0.12700000000E+03 0.  0.
   -5000001    1    1    2    0    0 -0.81013509431E+02  0.59148969874E+02 -0.77291465860E+01  0.16202015015E+03  0.12700000000E+03 0.  0.
<mgrwt>
<rscale>  0 0.33541070E+03</rscale>
<asrwt>0</asrwt>
<pdfrwt beam="1">  1        1 0.17462138E-01 0.33541070E+03</pdfrwt>
<pdfrwt beam="2">  1       -1 0.32870047E-01 0.33541070E+03</pdfrwt>
<totfact> 0.26679821E+03</totfact>
</mgrwt>
</event>
<event>
 4    1  0.6296743E-005  0.3022143E+03  0.7818608E-02  0.1084139E+00
          1   -1    0    0  501    0  0.00000000000E+00  0.00000000000E+00  0.42547215897E+03  0.42547215900E+03  0.50400000000E-02 0. -1.
         -1   -1    0    0    0  501 -0.00000000000E+00 -0.00000000000E+00 -0.53665973294E+02  0.53665973530E+02  0.50400000000E-02 0.  1.
    5000001    1    1    2    0    0  0.19243552019E+02 -0.73395287629E+02  0.23469697460E+03  0.27743260880E+03  0.12700000000E+03 0.  0.
   -5000001    1    1    2    0    0 -0.19243552019E+02  0.73395287629E+02  0.13710921108E+03  0.20170552373E+03  0.12700000000E+03 0.  0.
<mgrwt>
<rscale>  0 0.30221435E+03</rscale>
<asrwt>0</asrwt>
<pdfrwt beam="1">  1        1 0.60781739E-01 0.30221435E+03</pdfrwt>
<pdfrwt beam="2">  1       -1 0.76665674E-02 0.30221435E+03</pdfrwt>
<totfact> 0.56497707E+03</totfact>
</mgrwt>
</event>
<event>
 4    1  0.6296743E-005  0.4076226E+03  0.7818608E-02  0.1041172E+00
          1   -1    0    0  501    0  0.00000000000E+00  0.00000000000E+00  0.23152393461E+03  0.23152393466E+03  0.50400000000E-02 0.  1.
         -1   -1    0    0    0  501 -0.00000000000E+00 -0.00000000000E+00 -0.17941576031E+03  0.17941576038E+03  0.50400000000E-02 0. -1.
    5000001    1    1    2    0    0  0.17445076682E+01  0.14024516949E+03  0.10242204460E+03  0.21515349426E+03  0.12700000000E+03 0.  0.
   -5000001    1    1    2    0    0 -0.17445076682E+01 -0.14024516949E+03 -0.50313870303E+02  0.19578620078E+03  0.12700000000E+03 0.  0.
<mgrwt>
<rscale>  0 0.40762258E+03</rscale>
<asrwt>0</asrwt>
<pdfrwt beam="1">  1        1 0.33074848E-01 0.40762258E+03</pdfrwt>
<pdfrwt beam="2">  1       -1 0.25630823E-01 0.40762258E+03</pdfrwt>
<totfact> 0.17968476E+03</totfact>
</mgrwt>
</event>
<event>
 4    1  0.6296743E-005  0.3943087E+03  0.7818608E-02  0.1045768E+00
         -1   -1    0    0    0  501 -0.00000000000E+00  0.00000000000E+00  0.15129943638E+04  0.15129943638E+04  0.50400000000E-02 0. -1.
          1   -1    0    0  501    0  0.00000000000E+00 -0.00000000000E+00 -0.25690673195E+02  0.25690673690E+02  0.50400000000E-02 0.  1.
    5000001    1    1    2    0    0  0.46682509458E+02 -0.86320461395E+02  0.11904596321E+04  0.12012300423E+04  0.12700000000E+03 0.  0.
   -5000001    1    1    2    0    0 -0.46682509458E+02  0.86320461395E+02  0.29684405846E+03  0.33745499520E+03  0.12700000000E+03 0.  0.
<mgrwt>
<rscale>  0 0.39430873E+03</rscale>
<asrwt>0</asrwt>
<pdfrwt beam="1">  1        1 0.36700942E-02 0.39430873E+03</pdfrwt>
<pdfrwt beam="2">  1       -1 0.21614217E+00 0.39430873E+03</pdfrwt>
<totfact> 0.33415768E+02</totfact>
</mgrwt>
</event>
<event>
 4    1  0.6296743E-005  0.4421704E+03  0.7818608E-02  0.1030083E+00
         -1   -1    0    0    0  501 -0.00000000000E+00  0.00000000000E+00  0.13023279832E+03  0.13023279841E+03  0.50400000000E-02 0.  1.
          1   -1    0    0  501    0  0.00000000000E+00 -0.00000000000E+00 -0.37531762402E+03  0.37531762406E+03  0.50400000000E-02 0. -1.
    5000001    1    1    2    0    0 -0.17280031312E+03  0.46912783796E+02 -0.15255166037E+03  0.26732333714E+03  0.12700000000E+03 0.  0.
   -5000001    1    1    2    0    0  0.17280031312E+03 -0.46912783796E+02 -0.92533165339E+02  0.23822708533E+03  0.12700000000E+03 0.  0.
<mgrwt>
<rscale>  0 0.44217039E+03</rscale>
<asrwt>0</asrwt>
<pdfrwt beam="1">  1        1 0.53616803E-01 0.44217039E+03</pdfrwt>
<pdfrwt beam="2">  1       -1 0.18604686E-01 0.44217039E+03</pdfrwt>
<totfact> 0.16516988E+03</totfact>
</mgrwt>
</event>
<event>
 4    1  0.6296743E-005  0.4071500E+03  0.7818608E-02  0.1041332E+00
          1   -1    0    0  501    0  0.00000000000E+00  0.00000000000E+00  0.18616312990E+03  0.18616312997E+03  0.50400000000E-02 0.  1.
         -1   -1    0    0    0  501 -0.00000000000E+00 -0.00000000000E+00 -0.22261537352E+03  0.22261537358E+03  0.50400000000E-02 0. -1.
    5000001    1    1    2    0    0 -0.12372720009E+03 -0.98422931493E+02 -0.36137918864E+02  0.20598651088E+03  0.12700000000E+03 0.  0.
   -5000001    1    1    2    0    0  0.12372720009E+03  0.98422931493E+02 -0.31432475590E+00  0.20279199266E+03  0.12700000000E+03 0.  0.
<mgrwt>
<rscale>  0 0.40714997E+03</rscale>
<asrwt>0</asrwt>
<pdfrwt beam="1">  1        1 0.26594733E-01 0.40714997E+03</pdfrwt>
<pdfrwt beam="2">  1       -1 0.31802196E-01 0.40714997E+03</pdfrwt>
<totfact> 0.16425771E+03</totfact>
</mgrwt>
</event>
<event>
 4    1  0.6296743E-005  0.3612642E+03  0.7818608E-02  0.1058084E+00
          1   -1    0    0  501    0  0.00000000000E+00  0.00000000000E+00  0.28590716206E+03  0.28590716211E+03  0.50400000000E-02 0.  1.
         -1   -1    0    0    0  501 -0.00000000000E+00 -0.00000000000E+00 -0.11412079374E+03  0.11412079385E+03  0.50400000000E-02 0. -1.
    5000001    1    1    2    0    0  0.94266383982E+02 -0.74437585751E+02  0.13629477871E+03  0.22165823248E+03  0.12700000000E+03 0.  0.
   -5000001    1    1    2    0    0 -0.94266383982E+02  0.74437585751E+02  0.35491589608E+02  0.17836972348E+03  0.12700000000E+03 0.  0.
<mgrwt>
<rscale>  0 0.36126418E+03</rscale>
<asrwt>0</asrwt>
<pdfrwt beam="1">  1        1 0.40843880E-01 0.36126418E+03</pdfrwt>
<pdfrwt beam="2">  1       -1 0.16302971E-01 0.36126418E+03</pdfrwt>
<totfact> 0.28883276E+03</totfact>
</mgrwt>
</event>
<event>
 4    1  0.6296743E-005  0.4120761E+03  0.7818608E-02  0.1039677E+00
         -1   -1    0    0    0  501 -0.00000000000E+00  0.00000000000E+00  0.11788362585E+03  0.11788362596E+03  0.50400000000E-02 0. -1.
          1   -1    0    0  501    0  0.00000000000E+00 -0.00000000000E+00 -0.36011518846E+03  0.36011518849E+03  0.50400000000E-02 0.  1.
    5000001    1    1    2    0    0  0.12195574614E+03 -0.10055553819E+03 -0.78684339623E+02  0.21749677142E+03  0.12700000000E+03 0.  0.
   -5000001    1    1    2    0    0 -0.12195574614E+03  0.10055553819E+03 -0.16354722298E+03  0.26050204303E+03  0.12700000000E+03 0.  0.
<mgrwt>
<rscale>  0 0.41207613E+03</rscale>
<asrwt>0</asrwt>
<pdfrwt beam="1">  1        1 0.51445026E-01 0.41207613E+03</pdfrwt>
<pdfrwt beam="2">  1       -1 0.16840518E-01 0.41207613E+03</pdfrwt>
<totfact> 0.20473331E+03</totfact>
</mgrwt>
</event>
<event>
 4    1  0.6296743E-005  0.3802671E+03  0.7818608E-02  0.1050835E+00
         -1   -1    0    0    0  501 -0.00000000000E+00  0.00000000000E+00  0.42476480965E+02  0.42476481264E+02  0.50400000000E-02 0. -1.
          1   -1    0    0  501    0  0.00000000000E+00 -0.00000000000E+00 -0.85107703266E+03  0.85107703268E+03  0.50400000000E-02 0.  1.
    5000001    1    1    2    0    0 -0.99892580703E+02 -0.31305448703E+02 -0.62800369475E+03  0.64921198342E+03  0.12700000000E+03 0.  0.
   -5000001    1    1    2    0    0  0.99892580703E+02  0.31305448703E+02 -0.18059685695E+03  0.24434153052E+03  0.12700000000E+03 0.  0.
<mgrwt>
<rscale>  0 0.38026705E+03</rscale>
<asrwt>0</asrwt>
<pdfrwt beam="1">  1        1 0.12158242E+00 0.38026705E+03</pdfrwt>
<pdfrwt beam="2">  1       -1 0.60680692E-02 0.38026705E+03</pdfrwt>
<totfact> 0.30971020E+03</totfact>
</mgrwt>
</event>
<event>
 4    1  0.6296743E-005  0.3675476E+03  0.7818608E-02  0.1055635E+00
          1   -1    0    0  501    0  0.00000000000E+00  0.00000000000E+00  0.14339998471E+04  0.14339998471E+04  0.50400000000E-02 0.  1.
         -1   -1    0    0    0  501 -0.00000000000E+00 -0.00000000000E+00 -0.23551473097E+02  0.23551473636E+02  0.50400000000E-02 0. -1.
    5000001    1    1    2    0    0  0.11875772310E+03 -0.77744097651E+01  0.93916073499E+03  0.95515219959E+03  0.12700000000E+03 0.  0.
   -5000001    1    1    2    0    0 -0.11875772310E+03  0.77744097651E+01  0.47128763898E+03  0.50239912112E+03  0.12700000000E+03 0.  0.
<mgrwt>
<rscale>  0 0.36754760E+03</rscale>
<asrwt>0</asrwt>
<pdfrwt beam="1">  1        1 0.20485712E+00 0.36754760E+03</pdfrwt>
<pdfrwt beam="2">  1       -1 0.33644961E-02 0.36754760E+03</pdfrwt>
<totfact> 0.29606967E+03</totfact>
</mgrwt>
</event>
<event>
 4    1  0.6296743E-005  0.3929607E+03  0.7818608E-02  0.1046245E+00
          1   -1    0    0  501    0  0.00000000000E+00  0.00000000000E+00  0.16350869739E+03  0.16350869747E+03  0.50400000000E-02 0.  1.
         -1   -1    0    0    0  501 -0.00000000000E+00 -0.00000000000E+00 -0.23610080243E+03  0.23610080248E+03  0.50400000000E-02 0. -1.
    5000001    1    1    2    0    0  0.37717552101E+02  0.14439580671E+03 -0.21815318049E+02  0.19717421442E+03  0.12700000000E+03 0.  0.
   -5000001    1    1    2    0    0 -0.37717552101E+02 -0.14439580671E+03 -0.50776786982E+02  0.20243528553E+03  0.12700000000E+03 0.  0.
<mgrwt>
<rscale>  0 0.39296073E+03</rscale>
<asrwt>0</asrwt>
<pdfrwt beam="1">  1        1 0.23358385E-01 0.39296073E+03</pdfrwt>
<pdfrwt beam="2">  1       -1 0.33728686E-01 0.39296073E+03</pdfrwt>
<totfact> 0.17520779E+03</totfact>
</mgrwt>
</event>
<event>
 4    1  0.6296743E-005  0.4088921E+03  0.7818608E-02  0.1040743E+00
         -1   -1    0    0    0  501 -0.00000000000E+00  0.00000000000E+00  0.19086509980E+03  0.19086509987E+03  0.50400000000E-02 0. -1.
          1   -1    0    0  501    0  0.00000000000E+00 -0.00000000000E+00 -0.21899332722E+03  0.21899332727E+03  0.50400000000E-02 0.  1.
    5000001    1    1    2    0    0  0.77820695048E+02  0.12401588576E+03 -0.79280792896E+02  0.20940497755E+03  0.12700000000E+03 0.  0.
   -5000001    1    1    2    0    0 -0.77820695048E+02 -0.12401588576E+03  0.51152565483E+02  0.20045344960E+03  0.12700000000E+03 0.  0.
<mgrwt>
<rscale>  0 0.40889208E+03</rscale>
<asrwt>0</asrwt>
<pdfrwt beam="1">  1        1 0.31284761E-01 0.40889208E+03</pdfrwt>
<pdfrwt beam="2">  1       -1 0.27266443E-01 0.40889208E+03</pdfrwt>
<totfact> 0.17373484E+03</totfact>
</mgrwt>
</event>
<event>
 4    1  0.6296743E-005  0.3450250E+03  0.7818608E-02  0.1064676E+00
         -1   -1    0    0    0  501 -0.00000000000E+00  0.00000000000E+00  0.41800524875E+02  0.41800525179E+02  0.50400000000E-02 0. -1.
          1   -1    0    0  501    0  0.00000000000E+00 -0.00000000000E+00 -0.71196643903E+03  0.71196643905E+03  0.50400000000E-02 0.  1.
    5000001    1    1    2    0    0  0.93485859573E+02 -0.69292338654E+02 -0.35587030650E+03  0.39536528576E+03  0.12700000000E+03 0.  0.
   -5000001    1    1    2    0    0 -0.93485859573E+02  0.69292338654E+02 -0.31429560766E+03  0.35840167847E+03  0.12700000000E+03 0.  0.
<mgrwt>
<rscale>  0 0.34502505E+03</rscale>
<asrwt>0</asrwt>
<pdfrwt beam="1">  1        1 0.10170948E+00 0.34502505E+03</pdfrwt>
<pdfrwt beam="2">  1       -1 0.59715040E-02 0.34502505E+03</pdfrwt>
<totfact> 0.41382236E+03</totfact>
</mgrwt>
</event>
<event>
 4    1  0.6296743E-005  0.3527962E+03  0.7818608E-02  0.1061473E+00
          1   -1    0    0  501    0  0.00000000000E+00  0.00000000000E+00  0.16426549085E+04  0.16426549085E+04  0.50400000000E-02 0.  1.
         -1   -1    0    0    0  501 -0.00000000000E+00 -0.00000000000E+00 -0.18942679000E+02  0.18942679671E+02  0.50400000000E-02 0. -1.
    5000001    1    1    2    0    0 -0.39761714799E+02  0.11572597060E+03  0.79436572947E+03  0.81370719942E+03  0.12700000000E+03 0.  0.
   -5000001    1    1    2    0    0  0.39761714799E+02 -0.11572597060E+03  0.82934650002E+03  0.84789038875E+03  0.12700000000E+03 0.  0.
<mgrwt>
<rscale>  0 0.35279617E+03</rscale>
<asrwt>0</asrwt>
<pdfrwt beam="1">  1        1 0.23466498E+00 0.35279617E+03</pdfrwt>
<pdfrwt beam="2">  1       -1 0.27060971E-02 0.35279617E+03</pdfrwt>
<totfact> 0.30279053E+03</totfact>
</mgrwt>
</event>
<event>
 4    1  0.6296743E-005  0.2932428E+03  0.7818608E-02  0.1088668E+00
          1   -1    0    0  501    0  0.00000000000E+00  0.00000000000E+00  0.13179407249E+04  0.13179407249E+04  0.50400000000E-02 0.  1.
         -1   -1    0    0    0  501 -0.00000000000E+00 -0.00000000000E+00 -0.16311689960E+02  0.16311690738E+02  0.50400000000E-02 0. -1.
    5000001    1    1    2    0    0  0.36959802353E+02 -0.34248477304E+02  0.89285763260E+03  0.90325120386E+03  0.12700000000E+03 0.  0.
   -5000001    1    1    2    0    0 -0.36959802353E+02  0.34248477304E+02  0.40877140232E+03  0.43100121176E+03  0.12700000000E+03 0.  0.
<mgrwt>
<rscale>  0 0.29324284E+03</rscale>
<asrwt>0</asrwt>
<pdfrwt beam="1">  1        1 0.18827724E+00 0.29324284E+03</pdfrwt>
<pdfrwt beam="2">  1       -1 0.23302416E-02 0.29324284E+03</pdfrwt>
<totfact> 0.60451069E+03</totfact>
</mgrwt>
</event>
<event>
 4    1  0.6296743E-005  0.6002300E+03  0.7818608E-02  0.9904929E-01
         -1   -1    0    0    0  501 -0.00000000000E+00  0.00000000000E+00  0.58214830821E+03  0.58214830823E+03  0.50400000000E-02 0. -1.
          1   -1    0    0  501    0  0.00000000000E+00 -0.00000000000E+00 -0.15471833109E+03  0.15471833118E+03  0.50400000000E-02 0.  1.
    5000001    1    1    2    0    0  0.21548023412E+03  0.71864230489E+02  0.39722081780E+03  0.47487848658E+03  0.12700000000E+03 0.  0.
   -5000001    1    1    2    0    0 -0.21548023412E+03 -0.71864230489E+02  0.30209159319E+02  0.26198815283E+03  0.12700000000E+03 0.  0.
<mgrwt>
<rscale>  0 0.60023001E+03</rscale>
<asrwt>0</asrwt>
<pdfrwt beam="1">  1        1 0.22102619E-01 0.60023001E+03</pdfrwt>
<pdfrwt beam="2">  1       -1 0.83164043E-01 0.60023001E+03</pdfrwt>
<totfact> 0.33445121E+02</totfact>
</mgrwt>
</event>
<event>
 4    1  0.6296743E-005  0.2721291E+03  0.7818608E-02  0.1100067E+00
         -1   -1    0    0    0  501 -0.00000000000E+00  0.00000000000E+00  0.16341128960E+03  0.16341128967E+03  0.50400000000E-02 0.  1.
          1   -1    0    0  501    0  0.00000000000E+00 -0.00000000000E+00 -0.11329428171E+03  0.11329428182E+03  0.50400000000E-02 0. -1.
    5000001    1    1    2    0    0  0.40737648463E+02 -0.87044824419E+01 -0.85020357805E+00  0.13366019177E+03  0.12700000000E+03 0.  0.
   -5000001    1    1    2    0    0 -0.40737648463E+02  0.87044824419E+01  0.50967211465E+02  0.14304537973E+03  0.12700000000E+03 0.  0.
<mgrwt>
<rscale>  0 0.27212912E+03</rscale>
<asrwt>0</asrwt>
<pdfrwt beam="1">  1        1 0.16184897E-01 0.27212912E+03</pdfrwt>
<pdfrwt beam="2">  1       -1 0.23344470E-01 0.27212912E+03</pdfrwt>
<totfact> 0.52220325E+03</totfact>
</mgrwt>
</event>
<event>
 4    1  0.6296743E-005  0.3764815E+03  0.7818608E-02  0.1052242E+00
          1   -1    0    0  501    0  0.00000000000E+00  0.00000000000E+00  0.12068952307E+03  0.12068952317E+03  0.50400000000E-02 0.  1.
         -1   -1    0    0    0  501 -0.00000000000E+00 -0.00000000000E+00 -0.29360112668E+03  0.29360112672E+03  0.50400000000E-02 0. -1.
    5000001    1    1    2    0    0  0.21037700236E+02 -0.11556445546E+03 -0.16812393230E+03  0.24123097813E+03  0.12700000000E+03 0.  0.
   -5000001    1    1    2    0    0 -0.21037700236E+02  0.11556445546E+03 -0.47876713109E+01  0.17305967177E+03  0.12700000000E+03 0.  0.
<mgrwt>
<rscale>  0 0.37648150E+03</rscale>
<asrwt>0</asrwt>
<pdfrwt beam="1">  1        1 0.17241360E-01 0.37648150E+03</pdfrwt>
<pdfrwt beam="2">  1       -1 0.41943018E-01 0.37648150E+03</pdfrwt>
<totfact> 0.17668358E+03</totfact>
</mgrwt>
</event>
<event>
 4    1  0.6296743E-005  0.2866482E+03  0.7818608E-02  0.1092112E+00
         -1   -1    0    0    0  501 -0.00000000000E+00  0.00000000000E+00  0.40550237964E+02  0.40550238278E+02  0.50400000000E-02 0.  1.
          1   -1    0    0  501    0  0.00000000000E+00 -0.00000000000E+00 -0.50657654744E+03  0.50657654747E+03  0.50400000000E-02 0. -1.
    5000001    1    1    2    0    0  0.39394531620E+02  0.53462399320E+02 -0.22991048146E+03  0.27092062814E+03  0.12700000000E+03 0.  0.
   -5000001    1    1    2    0    0 -0.39394531620E+02 -0.53462399320E+02 -0.23611582801E+03  0.27620615761E+03  0.12700000000E+03 0.  0.
<mgrwt>
<rscale>  0 0.28664821E+03</rscale>
<asrwt>0</asrwt>
<pdfrwt beam="1">  1        1 0.72368075E-01 0.28664821E+03</pdfrwt>
<pdfrwt beam="2">  1       -1 0.57928915E-02 0.28664821E+03</pdfrwt>
<totfact> 0.68807263E+03</totfact>
</mgrwt>
</event>
<event>
 4    1  0.6296743E-005  0.3000838E+03  0.7818608E-02  0.1085199E+00
          1   -1    0    0  501    0  0.00000000000E+00  0.00000000000E+00  0.20272006819E+04  0.20272006819E+04  0.50400000000E-02 0.  1.
         -1   -1    0    0    0  501 -0.00000000000E+00 -0.00000000000E+00 -0.11105246947E+02  0.11105248091E+02  0.50400000000E-02 0. -1.
    5000001    1    1    2    0    0  0.19485425023E+02 -0.73959347169E+02  0.85109955222E+03  0.86391499270E+03  0.12700000000E+03 0.  0.
   -5000001    1    1    2    0    0 -0.19485425023E+02  0.73959347169E+02  0.11649958828E+04  0.11743909373E+04  0.12700000000E+03 0.  0.
<mgrwt>
<rscale>  0 0.30008376E+03</rscale>
<asrwt>0</asrwt>
<pdfrwt beam="1">  1        1 0.28960010E+00 0.30008376E+03</pdfrwt>
<pdfrwt beam="2">  1       -1 0.15864639E-02 0.30008376E+03</pdfrwt>
<totfact> 0.38707765E+03</totfact>
</mgrwt>
</event>
<event>
 4    1  0.6296743E-005  0.3566508E+03  0.7818608E-02  0.1059918E+00
          1   -1    0    0  501    0  0.00000000000E+00  0.00000000000E+00  0.26526241441E+03  0.26526241445E+03  0.50400000000E-02 0.  1.
         -1   -1    0    0    0  501 -0.00000000000E+00 -0.00000000000E+00 -0.11988107566E+03  0.11988107577E+03  0.50400000000E-02 0. -1.
    5000001    1    1    2    0    0 -0.94761995224E+02  0.68380219974E+02  0.12116861644E+03  0.21087087004E+03  0.12700000000E+03 0.  0.
   -5000001    1    1    2    0    0  0.94761995224E+02 -0.68380219974E+02  0.24212722299E+02  0.17427262018E+03  0.12700000000E+03 0.  0.
<mgrwt>
<rscale>  0 0.35665077E+03</rscale>
<asrwt>0</asrwt>
<pdfrwt beam="1">  1        1 0.37894631E-01 0.35665077E+03</pdfrwt>
<pdfrwt beam="2">  1       -1 0.17125868E-01 0.35665077E+03</pdfrwt>
<totfact> 0.29328575E+03</totfact>
</mgrwt>
</event>
<event>
 4    1  0.6296743E-005  0.4663432E+03  0.7818608E-02  0.1022957E+00
         -1   -1    0    0    0  501 -0.00000000000E+00  0.00000000000E+00  0.47252483522E+02  0.47252483791E+02  0.50400000000E-02 0. -1.
          1   -1    0    0  501    0  0.00000000000E+00 -0.00000000000E+00 -0.11506061771E+04  0.11506061771E+04  0.50400000000E-02 0.  1.
    5000001    1    1    2    0    0 -0.19224765075E+03 -0.32898383729E+02 -0.51548420104E+03  0.56559210072E+03  0.12700000000E+03 0.  0.
   -5000001    1    1    2    0    0  0.19224765075E+03  0.32898383729E+02 -0.58786949253E+03  0.63226656018E+03  0.12700000000E+03 0.  0.
<mgrwt>
<rscale>  0 0.46634322E+03</rscale>
<asrwt>0</asrwt>
<pdfrwt beam="1">  1        1 0.16437229E+00 0.46634322E+03</pdfrwt>
<pdfrwt beam="2">  1       -1 0.67503555E-02 0.46634322E+03</pdfrwt>
<totfact> 0.15861741E+03</totfact>
</mgrwt>
</event>
<event>
 4    1  0.6296743E-005  0.3704247E+03  0.7818608E-02  0.1054531E+00
          1   -1    0    0  501    0  0.00000000000E+00  0.00000000000E+00  0.18374936186E+03  0.18374936193E+03  0.50400000000E-02 0.  1.
         -1   -1    0    0    0  501 -0.00000000000E+00 -0.00000000000E+00 -0.18668698988E+03  0.18668698994E+03  0.50400000000E-02 0. -1.
    5000001    1    1    2    0    0  0.12089773221E+03  0.20383822169E+02 -0.57531734760E+02  0.18566276515E+03  0.12700000000E+03 0.  0.
   -5000001    1    1    2    0    0 -0.12089773221E+03 -0.20383822169E+02  0.54594106740E+02  0.18477358672E+03  0.12700000000E+03 0.  0.
<mgrwt>
<rscale>  0 0.37042470E+03</rscale>
<asrwt>0</asrwt>
<pdfrwt beam="1">  1        1 0.26249909E-01 0.37042470E+03</pdfrwt>
<pdfrwt beam="2">  1       -1 0.26669570E-01 0.37042470E+03</pdfrwt>
<totfact> 0.22545365E+03</totfact>
</mgrwt>
</event>
<event>
 4    1  0.6296743E-005  0.2853816E+03  0.7818608E-02  0.1092785E+00
         -1   -1    0    0    0  501 -0.00000000000E+00  0.00000000000E+00  0.87040973822E+02  0.87040973968E+02  0.50400000000E-02 0. -1.
          1   -1    0    0  501    0  0.00000000000E+00 -0.00000000000E+00 -0.23392044831E+03  0.23392044837E+03  0.50400000000E-02 0.  1.
    5000001    1    1    2    0    0 -0.56744764363E+02 -0.18135152932E+01 -0.10915424758E+03  0.17682450872E+03  0.12700000000E+03 0.  0.
   -5000001    1    1    2    0    0  0.56744764363E+02  0.18135152932E+01 -0.37725226909E+02  0.14413691361E+03  0.12700000000E+03 0.  0.
<mgrwt>
<rscale>  0 0.28538159E+03</rscale>
<asrwt>0</asrwt>
<pdfrwt beam="1">  1        1 0.33417207E-01 0.28538159E+03</pdfrwt>
<pdfrwt beam="2">  1       -1 0.12434425E-01 0.28538159E+03</pdfrwt>
<totfact> 0.56862746E+03</totfact>
</mgrwt>
</event>
<event>
 4    1  0.6296743E-005  0.5383791E+03  0.7818608E-02  0.1004220E+00
          1   -1    0    0  501    0  0.00000000000E+00  0.00000000000E+00  0.47375011388E+02  0.47375011656E+02  0.50400000000E-02 0.  1.
         -1   -1    0    0    0  501 -0.00000000000E+00 -0.00000000000E+00 -0.15295622055E+04  0.15295622055E+04  0.50400000000E-02 0. -1.
    5000001    1    1    2    0    0  0.46790724656E+00 -0.20599428681E+03 -0.10864250228E+04  0.11130508503E+04  0.12700000000E+03 0.  0.
   -5000001    1    1    2    0    0 -0.46790724656E+00  0.20599428681E+03 -0.39576217125E+03  0.46388636683E+03  0.12700000000E+03 0.  0.
<mgrwt>
<rscale>  0 0.53837915E+03</rscale>
<asrwt>0</asrwt>
<pdfrwt beam="1">  1        1 0.67678598E-02 0.53837915E+03</pdfrwt>
<pdfrwt beam="2">  1       -1 0.21850885E+00 0.53837915E+03</pdfrwt>
<totfact> 0.13518741E+02</totfact>
</mgrwt>
</event>
<event>
 4    1  0.6296743E-005  0.4332523E+03  0.7818608E-02  0.1032837E+00
          1   -1    0    0  501    0  0.00000000000E+00  0.00000000000E+00  0.12346528732E+03  0.12346528742E+03  0.50400000000E-02 0. -1.
         -1   -1    0    0    0  501 -0.00000000000E+00 -0.00000000000E+00 -0.38008170507E+03  0.38008170510E+03  0.50400000000E-02 0.  1.
    5000001    1    1    2    0    0  0.15103607928E+03 -0.37258758076E+02 -0.33902521137E+02  0.20366269476E+03  0.12700000000E+03 0.  0.
   -5000001    1    1    2    0    0 -0.15103607928E+03  0.37258758076E+02 -0.22271389661E+03  0.29988429776E+03  0.12700000000E+03 0.  0.
<mgrwt>
<rscale>  0 0.43325234E+03</rscale>
<asrwt>0</asrwt>
<pdfrwt beam="1">  1        1 0.17637898E-01 0.43325234E+03</pdfrwt>
<pdfrwt beam="2">  1       -1 0.54297386E-01 0.43325234E+03</pdfrwt>
<totfact> 0.10641356E+03</totfact>
</mgrwt>
</event>
<event>
 4    1  0.6296743E-005  0.3261017E+03  0.7818608E-02  0.1072875E+00
          1   -1    0    0  501    0  0.00000000000E+00  0.00000000000E+00  0.31918513302E+03  0.31918513306E+03  0.50400000000E-02 0.  1.
         -1   -1    0    0    0  501 -0.00000000000E+00 -0.00000000000E+00 -0.83292015926E+02  0.83292016079E+02  0.50400000000E-02 0. -1.
    5000001    1    1    2    0    0  0.94021314867E+02  0.37391190717E+02  0.99704300893E+02  0.19054673025E+03  0.12700000000E+03 0.  0.
   -5000001    1    1    2    0    0 -0.94021314867E+02 -0.37391190717E+02  0.13618881621E+03  0.21193041889E+03  0.12700000000E+03 0.  0.
<mgrwt>
<rscale>  0 0.32610166E+03</rscale>
<asrwt>0</asrwt>
<pdfrwt beam="1">  1        1 0.45597876E-01 0.32610166E+03</pdfrwt>
<pdfrwt beam="2">  1       -1 0.11898859E-01 0.32610166E+03</pdfrwt>
<totfact> 0.41342902E+03</totfact>
</mgrwt>
</event>
<event>
 4    1  0.6296743E-005  0.4838158E+03  0.7818608E-02  0.1018092E+00
         -1   -1    0    0    0  501 -0.00000000000E+00  0.00000000000E+00  0.74877883209E+02  0.74877883378E+02  0.50400000000E-02 0. -1.
          1   -1    0    0  501    0  0.00000000000E+00 -0.00000000000E+00 -0.78153155676E+03  0.78153155678E+03  0.50400000000E-02 0.  1.
    5000001    1    1    2    0    0 -0.79797276026E+02 -0.18242038249E+03 -0.26057506389E+03  0.35167195670E+03  0.12700000000E+03 0.  0.
   -5000001    1    1    2    0    0  0.79797276026E+02  0.18242038249E+03 -0.44607860966E+03  0.50473748346E+03  0.12700000000E+03 0.  0.
<mgrwt>
<rscale>  0 0.48381579E+03</rscale>
<asrwt>0</asrwt>
<pdfrwt beam="1">  1        1 0.11164736E+00 0.48381579E+03</pdfrwt>
<pdfrwt beam="2">  1       -1 0.10696841E-01 0.48381579E+03</pdfrwt>
<totfact> 0.14681692E+03</totfact>
</mgrwt>
</event>
<event>
 4    1  0.6296743E-005  0.3639265E+03  0.7818608E-02  0.1057040E+00
          1   -1    0    0  501    0  0.00000000000E+00  0.00000000000E+00  0.59172145891E+02  0.59172146106E+02  0.50400000000E-02 0.  1.
         -1   -1    0    0    0  501 -0.00000000000E+00 -0.00000000000E+00 -0.55956426949E+03  0.55956426951E+03  0.50400000000E-02 0. -1.
    5000001    1    1    2    0    0 -0.13378851731E+02 -0.11957675858E+03 -0.33527288400E+03  0.37817258178E+03  0.12700000000E+03 0.  0.
   -5000001    1    1    2    0    0  0.13378851731E+02  0.11957675858E+03 -0.16511923960E+03  0.24056383384E+03  0.12700000000E+03 0.  0.
<mgrwt>
<rscale>  0 0.36392647E+03</rscale>
<asrwt>0</asrwt>
<pdfrwt beam="1">  1        1 0.84531640E-02 0.36392647E+03</pdfrwt>
<pdfrwt beam="2">  1       -1 0.79937750E-01 0.36392647E+03</pdfrwt>
<totfact> 0.13230964E+03</totfact>
</mgrwt>
</event>
<event>
 4    1  0.6296743E-005  0.3659126E+03  0.7818608E-02  0.1056267E+00
          1   -1    0    0  501    0  0.00000000000E+00  0.00000000000E+00  0.86036900645E+02  0.86036900793E+02  0.50400000000E-02 0. -1.
         -1   -1    0    0    0  501 -0.00000000000E+00 -0.00000000000E+00 -0.38905401894E+03  0.38905401897E+03  0.50400000000E-02 0.  1.
    5000001    1    1    2    0    0  0.84491484040E+02  0.90765776627E+02 -0.20908908553E+03  0.27427082012E+03  0.12700000000E+03 0.  0.
   -5000001    1    1    2    0    0 -0.84491484040E+02 -0.90765776627E+02 -0.93928032761E+02  0.20082009964E+03  0.12700000000E+03 0.  0.
<mgrwt>
<rscale>  0 0.36591257E+03</rscale>
<asrwt>0</asrwt>
<pdfrwt beam="1">  1        1 0.12290986E-01 0.36591257E+03</pdfrwt>
<pdfrwt beam="2">  1       -1 0.55579144E-01 0.36591257E+03</pdfrwt>
<totfact> 0.16431471E+03</totfact>
</mgrwt>
</event>
<event>
 4    1  0.6296743E-005  0.4644252E+03  0.7818608E-02  0.1023506E+00
         -1   -1    0    0    0  501 -0.00000000000E+00  0.00000000000E+00  0.65491012023E+03  0.65491012025E+03  0.50400000000E-02 0. -1.
          1   -1    0    0  501    0  0.00000000000E+00 -0.00000000000E+00 -0.82336021675E+02  0.82336021829E+02  0.50400000000E-02 0.  1.
    5000001    1    1    2    0    0 -0.15899583106E+03 -0.49050001626E+02  0.44588666886E+03  0.49257435827E+03  0.12700000000E+03 0.  0.
   -5000001    1    1    2    0    0  0.15899583106E+03  0.49050001626E+02  0.12668742970E+03  0.24467178382E+03  0.12700000000E+03 0.  0.
<mgrwt>
<rscale>  0 0.46442521E+03</rscale>
<asrwt>0</asrwt>
<pdfrwt beam="1">  1        1 0.11762289E-01 0.46442521E+03</pdfrwt>
<pdfrwt beam="2">  1       -1 0.93558586E-01 0.46442521E+03</pdfrwt>
<totfact> 0.60233553E+02</totfact>
</mgrwt>
</event>
<event>
 4    1  0.6296743E-005  0.3387196E+03  0.7818608E-02  0.1067343E+00
          1   -1    0    0  501    0  0.00000000000E+00  0.00000000000E+00  0.27777541305E+04  0.27777541305E+04  0.50400000000E-02 0.  1.
         -1   -1    0    0    0  501 -0.00000000000E+00 -0.00000000000E+00 -0.10325875055E+02  0.10325876285E+02  0.50400000000E-02 0. -1.
    5000001    1    1    2    0    0  0.11198738853E+03  0.40915310042E+00  0.13547275514E+04  0.13652681353E+04  0.12700000000E+03 0.  0.
   -5000001    1    1    2    0    0 -0.11198738853E+03 -0.40915310042E+00  0.14127007041E+04  0.14228118716E+04  0.12700000000E+03 0.  0.
<mgrwt>
<rscale>  0 0.33871961E+03</rscale>
<asrwt>0</asrwt>
<pdfrwt beam="1">  1        1 0.39682237E+00 0.33871961E+03</pdfrwt>
<pdfrwt beam="2">  1       -1 0.14751238E-02 0.33871961E+03</pdfrwt>
<totfact> 0.14934901E+03</totfact>
</mgrwt>
</event>
<event>
 4    1  0.6296743E-005  0.3578128E+03  0.7818608E-02  0.1059453E+00
         -1   -1    0    0    0  501 -0.00000000000E+00  0.00000000000E+00  0.89552611100E+03  0.89552611101E+03  0.50400000000E-02 0. -1.
          1   -1    0    0  501    0  0.00000000000E+00 -0.00000000000E+00 -0.35741569453E+02  0.35741569808E+02  0.50400000000E-02 0.  1.
    5000001    1    1    2    0    0  0.41852912007E+02  0.11377847934E+03  0.51934606136E+03  0.54822125100E+03  0.12700000000E+03 0.  0.
   -5000001    1    1    2    0    0 -0.41852912007E+02 -0.11377847934E+03  0.34043848019E+03  0.38304642982E+03  0.12700000000E+03 0.  0.
<mgrwt>
<rscale>  0 0.35781285E+03</rscale>
<asrwt>0</asrwt>
<pdfrwt beam="1">  1        1 0.51059398E-02 0.35781285E+03</pdfrwt>
<pdfrwt beam="2">  1       -1 0.12793227E+00 0.35781285E+03</pdfrwt>
<totfact> 0.91848021E+02</totfact>
</mgrwt>
</event>
<event>
 4    1  0.6296743E-005  0.3540155E+03  0.7818608E-02  0.1060979E+00
         -1   -1    0    0    0  501 -0.00000000000E+00  0.00000000000E+00  0.13011763146E+03  0.13011763156E+03  0.50400000000E-02 0. -1.
          1   -1    0    0  501    0  0.00000000000E+00 -0.00000000000E+00 -0.24079557942E+03  0.24079557947E+03  0.50400000000E-02 0.  1.
    5000001    1    1    2    0    0 -0.11886326301E+03  0.12281131939E+02 -0.87177755047E+02  0.19495707853E+03  0.12700000000E+03 0.  0.
   -5000001    1    1    2    0    0  0.11886326301E+03 -0.12281131939E+02 -0.23500192910E+02  0.17595613249E+03  0.12700000000E+03 0.  0.
<mgrwt>
<rscale>  0 0.35401554E+03</rscale>
<asrwt>0</asrwt>
<pdfrwt beam="1">  1        1 0.34399368E-01 0.35401554E+03</pdfrwt>
<pdfrwt beam="2">  1       -1 0.18588233E-01 0.35401554E+03</pdfrwt>
<totfact> 0.29028393E+03</totfact>
</mgrwt>
</event>
<event>
 4    1  0.6296743E-005  0.3624184E+03  0.7818608E-02  0.1057630E+00
          1   -1    0    0  501    0  0.00000000000E+00  0.00000000000E+00  0.17558295231E+03  0.17558295239E+03  0.50400000000E-02 0.  1.
         -1   -1    0    0    0  501 -0.00000000000E+00 -0.00000000000E+00 -0.18701571350E+03  0.18701571357E+03  0.50400000000E-02 0. -1.
    5000001    1    1    2    0    0 -0.12385417937E+03 -0.10548096355E+02  0.29750527702E+02  0.18018105889E+03  0.12700000000E+03 0.  0.
   -5000001    1    1    2    0    0  0.12385417937E+03  0.10548096355E+02 -0.41183288894E+02  0.18241760707E+03  0.12700000000E+03 0.  0.
<mgrwt>
<rscale>  0 0.36241838E+03</rscale>
<asrwt>0</asrwt>
<pdfrwt beam="1">  1        1 0.25083279E-01 0.36241838E+03</pdfrwt>
<pdfrwt beam="2">  1       -1 0.26716531E-01 0.36241838E+03</pdfrwt>
<totfact> 0.23820427E+03</totfact>
</mgrwt>
</event>
<event>
 4    1  0.6296743E-005  0.3561155E+03  0.7818608E-02  0.1060133E+00
         -1   -1    0    0    0  501 -0.00000000000E+00  0.00000000000E+00  0.30853190886E+02  0.30853191298E+02  0.50400000000E-02 0. -1.
          1   -1    0    0  501    0  0.00000000000E+00 -0.00000000000E+00 -0.10275940461E+04  0.10275940461E+04  0.50400000000E-02 0.  1.
    5000001    1    1    2    0    0 -0.41696322340E+02 -0.73731966391E+02 -0.77078651035E+03  0.78575812481E+03  0.12700000000E+03 0.  0.
   -5000001    1    1    2    0    0  0.41696322340E+02  0.73731966391E+02 -0.22595434482E+03  0.27268911255E+03  0.12700000000E+03 0.  0.
<mgrwt>
<rscale>  0 0.35611546E+03</rscale>
<asrwt>0</asrwt>
<pdfrwt beam="1">  1        1 0.14679913E+00 0.35611546E+03</pdfrwt>
<pdfrwt beam="2">  1       -1 0.44075994E-02 0.35611546E+03</pdfrwt>
<totfact> 0.36997343E+03</totfact>
</mgrwt>
</event>
<event>
 4    1  0.6296743E-005  0.3865695E+03  0.7818608E-02  0.1048532E+00
          1   -1    0    0  501    0  0.00000000000E+00  0.00000000000E+00  0.16885930951E+03  0.16885930958E+03  0.50400000000E-02 0.  1.
         -1   -1    0    0    0  501 -0.00000000000E+00 -0.00000000000E+00 -0.22124336446E+03  0.22124336452E+03  0.50400000000E-02 0. -1.
    5000001    1    1    2    0    0 -0.24785640642E+02 -0.13755296773E+03 -0.67736912152E+02  0.20063009789E+03  0.12700000000E+03 0.  0.
   -5000001    1    1    2    0    0  0.24785640642E+02  0.13755296773E+03  0.15352857194E+02  0.18947257621E+03  0.12700000000E+03 0.  0.
<mgrwt>
<rscale>  0 0.38656954E+03</rscale>
<asrwt>0</asrwt>
<pdfrwt beam="1">  1        1 0.24122759E-01 0.38656954E+03</pdfrwt>
<pdfrwt beam="2">  1       -1 0.31606195E-01 0.38656954E+03</pdfrwt>
<totfact> 0.18812664E+03</totfact>
</mgrwt>
</event>
<event>
 4    1  0.6296743E-005  0.3567253E+03  0.7818608E-02  0.1059888E+00
          1   -1    0    0  501    0  0.00000000000E+00  0.00000000000E+00  0.37647377177E+04  0.37647377177E+04  0.50400000000E-02 0.  1.
         -1   -1    0    0    0  501 -0.00000000000E+00 -0.00000000000E+00 -0.84503206392E+01  0.84503221422E+01  0.50400000000E-02 0. -1.
    5000001    1    1    2    0    0 -0.11271909516E+03  0.46948463392E+02  0.21725063319E+04  0.21796381614E+04  0.12700000000E+03 0.  0.
   -5000001    1    1    2    0    0  0.11271909516E+03 -0.46948463392E+02  0.15837810652E+04  0.15935498785E+04  0.12700000000E+03 0.  0.
<mgrwt>
<rscale>  0 0.35672535E+03</rscale>
<asrwt>0</asrwt>
<pdfrwt beam="1">  1        1 0.53781937E+00 0.35672535E+03</pdfrwt>
<pdfrwt beam="2">  1       -1 0.12071895E-02 0.35672535E+03</pdfrwt>
<totfact> 0.44588288E+02</totfact>
</mgrwt>
</event>
<event>
 4    1  0.6296743E-005  0.3168440E+03  0.7818608E-02  0.1077111E+00
         -1   -1    0    0    0  501 -0.00000000000E+00  0.00000000000E+00  0.16774361997E+02  0.16774362754E+02  0.50400000000E-02 0. -1.
          1   -1    0    0  501    0  0.00000000000E+00 -0.00000000000E+00 -0.14961839708E+04  0.14961839708E+04  0.50400000000E-02 0.  1.
    5000001    1    1    2    0    0  0.60465866286E+02 -0.72400548019E+02 -0.77981889927E+03  0.79570376146E+03  0.12700000000E+03 0.  0.
   -5000001    1    1    2    0    0 -0.60465866286E+02  0.72400548019E+02 -0.69959070953E+03  0.71725457210E+03  0.12700000000E+03 0.  0.
<mgrwt>
<rscale>  0 0.31684401E+03</rscale>
<asrwt>0</asrwt>
<pdfrwt beam="1">  1        1 0.21374048E+00 0.31684401E+03</pdfrwt>
<pdfrwt beam="2">  1       -1 0.23963384E-02 0.31684401E+03</pdfrwt>
<totfact> 0.44708043E+03</totfact>
</mgrwt>
</event>
<event>
 4    1  0.6296743E-005  0.3733501E+03  0.7818608E-02  0.1053419E+00
         -1   -1    0    0    0  501 -0.00000000000E+00  0.00000000000E+00  0.48972217818E+03  0.48972217821E+03  0.50400000000E-02 0. -1.
          1   -1    0    0  501    0  0.00000000000E+00 -0.00000000000E+00 -0.71157850279E+02  0.71157850458E+02  0.50400000000E-02 0.  1.
    5000001    1    1    2    0    0  0.12006824230E+03 -0.65310122596E+02  0.21839334579E+03  0.28723935734E+03  0.12700000000E+03 0.  0.
   -5000001    1    1    2    0    0 -0.12006824230E+03  0.65310122596E+02  0.20017098212E+03  0.27364067133E+03  0.12700000000E+03 0.  0.
<mgrwt>
<rscale>  0 0.37335012E+03</rscale>
<asrwt>0</asrwt>
<pdfrwt beam="1">  1        1 0.10165407E-01 0.37335012E+03</pdfrwt>
<pdfrwt beam="2">  1       -1 0.69960311E-01 0.37335012E+03</pdfrwt>
<totfact> 0.13529499E+03</totfact>
</mgrwt>
</event>
<event>
 4    1  0.6296743E-005  0.4795914E+03  0.7818608E-02  0.1019248E+00
         -1   -1    0    0    0  501 -0.00000000000E+00  0.00000000000E+00  0.47594057493E+02  0.47594057760E+02  0.50400000000E-02 0. -1.
          1   -1    0    0  501    0  0.00000000000E+00 -0.00000000000E+00 -0.12081754137E+04  0.12081754137E+04  0.50400000000E-02 0.  1.
    5000001    1    1    2    0    0  0.12536029230E+03 -0.13829934244E+03 -0.79189784604E+03  0.82345194734E+03  0.12700000000E+03 0.  0.
   -5000001    1    1    2    0    0 -0.12536029230E+03  0.13829934244E+03 -0.36868351016E+03  0.43231752413E+03  0.12700000000E+03 0.  0.
<mgrwt>
<rscale>  0 0.47959137E+03</rscale>
<asrwt>0</asrwt>
<pdfrwt beam="1">  1        1 0.17259647E+00 0.47959137E+03</pdfrwt>
<pdfrwt beam="2">  1       -1 0.67991518E-02 0.47959137E+03</pdfrwt>
<totfact> 0.14322961E+03</totfact>
</mgrwt>
</event>
<event>
 4    1  0.6296743E-005  0.4326722E+03  0.7818608E-02  0.1033019E+00
         -1   -1    0    0    0  501 -0.00000000000E+00  0.00000000000E+00  0.22647242501E+03  0.22647242507E+03  0.50400000000E-02 0. -1.
          1   -1    0    0  501    0  0.00000000000E+00 -0.00000000000E+00 -0.20665342121E+03  0.20665342127E+03  0.50400000000E-02 0.  1.
    5000001    1    1    2    0    0 -0.69062058984E+02  0.14328286155E+03  0.83285438987E+02  0.21992046461E+03  0.12700000000E+03 0.  0.
   -5000001    1    1    2    0    0  0.69062058984E+02 -0.14328286155E+03 -0.63466435185E+02  0.21320538174E+03  0.12700000000E+03 0.  0.
<mgrwt>
<rscale>  0 0.43267217E+03</rscale>
<asrwt>0</asrwt>
<pdfrwt beam="1">  1        1 0.29521917E-01 0.43267217E+03</pdfrwt>
<pdfrwt beam="2">  1       -1 0.32353204E-01 0.43267217E+03</pdfrwt>
<totfact> 0.13950216E+03</totfact>
</mgrwt>
</event>
<event>
 4    1  0.6296743E-005  0.3838780E+03  0.7818608E-02  0.1049510E+00
         -1   -1    0    0    0  501 -0.00000000000E+00  0.00000000000E+00  0.20013518629E+03  0.20013518635E+03  0.50400000000E-02 0. -1.
          1   -1    0    0  501    0  0.00000000000E+00 -0.00000000000E+00 -0.18407844346E+03  0.18407844353E+03  0.50400000000E-02 0.  1.
    5000001    1    1    2    0    0  0.50175897226E+01 -0.14314751122E+03 -0.59547941039E+01  0.19152244189E+03  0.12700000000E+03 0.  0.
   -5000001    1    1    2    0    0 -0.50175897226E+01  0.14314751122E+03  0.22011536930E+02  0.19269118800E+03  0.12700000000E+03 0.  0.
<mgrwt>
<rscale>  0 0.38387797E+03</rscale>
<asrwt>0</asrwt>
<pdfrwt beam="1">  1        1 0.26296920E-01 0.38387797E+03</pdfrwt>
<pdfrwt beam="2">  1       -1 0.28590741E-01 0.38387797E+03</pdfrwt>
<totfact> 0.19998129E+03</totfact>
</mgrwt>
</event>
<event>
 4    1  0.6296743E-005  0.3524567E+03  0.7818608E-02  0.1061611E+00
         -1   -1    0    0    0  501 -0.00000000000E+00  0.00000000000E+00  0.11833350843E+02  0.11833351916E+02  0.50400000000E-02 0. -1.
          1   -1    0    0  501    0  0.00000000000E+00 -0.00000000000E+00 -0.26244836094E+04  0.26244836094E+04  0.50400000000E-02 0.  1.
    5000001    1    1    2    0    0 -0.63003124395E+02  0.66225026997E+02 -0.19127124852E+04  0.19191021856E+04  0.12700000000E+03 0.  0.
   -5000001    1    1    2    0    0  0.63003124395E+02 -0.66225026997E+02 -0.69993777338E+03  0.71721477571E+03  0.12700000000E+03 0.  0.
<mgrwt>
<rscale>  0 0.35245673E+03</rscale>
<asrwt>0</asrwt>
<pdfrwt beam="1">  1        1 0.37492586E+00 0.35245673E+03</pdfrwt>
<pdfrwt beam="2">  1       -1 0.16904804E-02 0.35245673E+03</pdfrwt>
<totfact> 0.15217553E+03</totfact>
</mgrwt>
</event>
<event>
 4    1  0.6296743E-005  0.3223634E+03  0.7818608E-02  0.1074567E+00
         -1   -1    0    0    0  501 -0.00000000000E+00  0.00000000000E+00  0.81618719546E+02  0.81618719702E+02  0.50400000000E-02 0.  1.
          1   -1    0    0  501    0  0.00000000000E+00 -0.00000000000E+00 -0.31830375599E+03  0.31830375603E+03  0.50400000000E-02 0. -1.
    5000001    1    1    2    0    0 -0.55679881988E+02  0.81008533911E+02 -0.13534877357E+03  0.21002600394E+03  0.12700000000E+03 0.  0.
   -5000001    1    1    2    0    0  0.55679881988E+02 -0.81008533911E+02 -0.10133626287E+03  0.18989647179E+03  0.12700000000E+03 0.  0.
<mgrwt>
<rscale>  0 0.32236343E+03</rscale>
<asrwt>0</asrwt>
<pdfrwt beam="1">  1        1 0.45471965E-01 0.32236343E+03</pdfrwt>
<pdfrwt beam="2">  1       -1 0.11659817E-01 0.32236343E+03</pdfrwt>
<totfact> 0.42815787E+03</totfact>
</mgrwt>
</event>
<event>
 4    1  0.6296743E-005  0.6834724E+03  0.7818608E-02  0.9745922E-01
          1   -1    0    0  501    0  0.00000000000E+00  0.00000000000E+00  0.69970723828E+03  0.69970723830E+03  0.50400000000E-02 0. -1.
         -1   -1    0    0    0  501 -0.00000000000E+00 -0.00000000000E+00 -0.16690355480E+03  0.16690355488E+03  0.50400000000E-02 0.  1.
    5000001    1    1    2    0    0  0.45553594415E+02  0.30611865371E+03  0.17790939930E+03  0.37889908217E+03  0.12700000000E+03 0.  0.
   -5000001    1    1    2    0    0 -0.45553594415E+02 -0.30611865371E+03  0.35489428418E+03  0.48771171101E+03  0.12700000000E+03 0.  0.
<mgrwt>
<rscale>  0 0.68347239E+03</rscale>
<asrwt>0</asrwt>
<pdfrwt beam="1">  1        1 0.99958175E-01 0.68347239E+03</pdfrwt>
<pdfrwt beam="2">  1       -1 0.23843365E-01 0.68347239E+03</pdfrwt>
<totfact> 0.46702627E+02</totfact>
</mgrwt>
</event>
<event>
 4    1  0.6296743E-005  0.5104857E+03  0.7818608E-02  0.1011078E+00
         -1   -1    0    0    0  501 -0.00000000000E+00  0.00000000000E+00  0.23242796887E+02  0.23242797434E+02  0.50400000000E-02 0. -1.
          1   -1    0    0  501    0  0.00000000000E+00 -0.00000000000E+00 -0.28029716114E+04  0.28029716114E+04  0.50400000000E-02 0.  1.
    5000001    1    1    2    0    0 -0.35399466455E+02 -0.10649896243E+03 -0.24464868991E+04  0.24523503622E+04  0.12700000000E+03 0.  0.
   -5000001    1    1    2    0    0  0.35399466455E+02  0.10649896243E+03 -0.33324191540E+03  0.37386404668E+03  0.12700000000E+03 0.  0.
<mgrwt>
<rscale>  0 0.51048565E+03</rscale>
<asrwt>0</asrwt>
<pdfrwt beam="1">  1        1 0.40042430E+00 0.51048565E+03</pdfrwt>
<pdfrwt beam="2">  1       -1 0.33204014E-02 0.51048565E+03</pdfrwt>
<totfact> 0.42526091E+02</totfact>
</mgrwt>
</event>
<event>
 4    1  0.6296743E-005  0.7255593E+03  0.7818608E-02  0.9674494E-01
          1   -1    0    0  501    0  0.00000000000E+00  0.00000000000E+00  0.22945353390E+03  0.22945353396E+03  0.50400000000E-02 0.  1.
         -1   -1    0    0    0  501 -0.00000000000E+00 -0.00000000000E+00 -0.57357621863E+03  0.57357621865E+03  0.50400000000E-02 0. -1.
    5000001    1    1    2    0    0  0.19917003400E+03 -0.22448147581E+03  0.43968450740E+01  0.32589717347E+03  0.12700000000E+03 0.  0.
   -5000001    1    1    2    0    0 -0.19917003400E+03  0.22448147581E+03 -0.34851952980E+03  0.47713257914E+03  0.12700000000E+03 0.  0.
<mgrwt>
<rscale>  0 0.72555934E+03</rscale>
<asrwt>0</asrwt>
<pdfrwt beam="1">  1        1 0.32779077E-01 0.72555934E+03</pdfrwt>
<pdfrwt beam="2">  1       -1 0.81939459E-01 0.72555934E+03</pdfrwt>
<totfact> 0.20565703E+02</totfact>
</mgrwt>
</event>
<event>
 4    1  0.6296743E-005  0.3285412E+03  0.7818608E-02  0.1071784E+00
          1   -1    0    0  501    0  0.00000000000E+00  0.00000000000E+00  0.92526359682E+03  0.92526359683E+03  0.50400000000E-02 0.  1.
         -1   -1    0    0    0  501 -0.00000000000E+00 -0.00000000000E+00 -0.29164482738E+02  0.29164483173E+02  0.50400000000E-02 0. -1.
    5000001    1    1    2    0    0  0.82464009668E+01  0.50150596084E+02  0.18382190991E+03  0.22913441466E+03  0.12700000000E+03 0.  0.
   -5000001    1    1    2    0    0 -0.82464009668E+01 -0.50150596084E+02  0.71227720417E+03  0.72529366535E+03  0.12700000000E+03 0.  0.
<mgrwt>
<rscale>  0 0.32854123E+03</rscale>
<asrwt>0</asrwt>
<pdfrwt beam="1">  1        1 0.13218051E+00 0.32854123E+03</pdfrwt>
<pdfrwt beam="2">  1       -1 0.41663548E-02 0.32854123E+03</pdfrwt>
<totfact> 0.47801678E+03</totfact>
</mgrwt>
</event>
<event>
 4    1  0.6296743E-005  0.3609898E+03  0.7818608E-02  0.1058193E+00
          1   -1    0    0  501    0  0.00000000000E+00  0.00000000000E+00  0.52142374753E+03  0.52142374756E+03  0.50400000000E-02 0.  1.
         -1   -1    0    0    0  501 -0.00000000000E+00 -0.00000000000E+00 -0.62479718676E+02  0.62479718880E+02  0.50400000000E-02 0. -1.
    5000001    1    1    2    0    0  0.74414370896E+02 -0.97124533086E+02  0.29167215779E+03  0.34084060960E+03  0.12700000000E+03 0.  0.
   -5000001    1    1    2    0    0 -0.74414370896E+02  0.97124533086E+02  0.16727187107E+03  0.24306285684E+03  0.12700000000E+03 0.  0.
<mgrwt>
<rscale>  0 0.36098980E+03</rscale>
<asrwt>0</asrwt>
<pdfrwt beam="1">  1        1 0.74489113E-01 0.36098980E+03</pdfrwt>
<pdfrwt beam="2">  1       -1 0.89256734E-02 0.36098980E+03</pdfrwt>
<totfact> 0.34417285E+03</totfact>
</mgrwt>
</event>
