<event>
 4    1  0.8877834E-005  0.4210412E+03  0.7818608E-02  0.1036728E+00
         -2   -1    0    0    0  501 -0.00000000000E+00  0.00000000000E+00  0.13359319249E+03  0.13359319251E+03  0.25500000000E-02 0. -1.
          2   -1    0    0  501    0  0.00000000000E+00 -0.00000000000E+00 -0.33174531190E+03  0.33174531191E+03  0.25500000000E-02 0.  1.
    5000001    1    1    2    0    0  0.11261780320E+03 -0.48655847049E+02 -0.14904024050E+03  0.25394517979E+03  0.16500000000E+03 0.  0.
   -5000001    1    1    2    0    0 -0.11261780320E+03  0.48655847049E+02 -0.49111878916E+02  0.21139332464E+03  0.16500000000E+03 0.  0.
<mgrwt>
<rscale>  0 0.42104116E+03</rscale>
<asrwt>0</asrwt>
<pdfrwt beam="1">  1        2 0.51037740E-01 0.42104116E+03</pdfrwt>
<pdfrwt beam="2">  1       -2 0.20552799E-01 0.42104116E+03</pdfrwt>
<totfact> 0.19781004E+03</totfact>
</mgrwt>
</event>
<event>
 4    1  0.8877834E-005  0.5626993E+03  0.7818608E-02  0.9985965E-01
         -2   -1    0    0    0  501 -0.00000000000E+00  0.00000000000E+00  0.17240786162E+03  0.17240786164E+03  0.25500000000E-02 0. -1.
          2   -1    0    0  501    0  0.00000000000E+00 -0.00000000000E+00 -0.45913000986E+03  0.45913000987E+03  0.25500000000E-02 0.  1.
    5000001    1    1    2    0    0  0.43504976852E+02 -0.19658246754E+03 -0.23553186700E+02  0.26137540465E+03  0.16500000000E+03 0.  0.
   -5000001    1    1    2    0    0 -0.43504976852E+02  0.19658246754E+03 -0.26316896153E+03  0.37016246686E+03  0.16500000000E+03 0.  0.
<mgrwt>
<rscale>  0 0.56269929E+03</rscale>
<asrwt>0</asrwt>
<pdfrwt beam="1">  1        2 0.70635385E-01 0.56269929E+03</pdfrwt>
<pdfrwt beam="2">  1       -2 0.26524287E-01 0.56269929E+03</pdfrwt>
<totfact> 0.87801147E+02</totfact>
</mgrwt>
</event>
<event>
 4    1  0.8877834E-005  0.4011224E+03  0.7818608E-02  0.1043392E+00
         -2   -1    0    0    0  501 -0.00000000000E+00  0.00000000000E+00  0.34286510255E+02  0.34286510349E+02  0.25500000000E-02 0. -1.
          2   -1    0    0  501    0  0.00000000000E+00 -0.00000000000E+00 -0.11731957942E+04  0.11731957942E+04  0.25500000000E-02 0.  1.
    5000001    1    1    2    0    0 -0.78551071676E+02 -0.69870154914E+02 -0.43660428624E+03  0.47843537930E+03  0.16500000000E+03 0.  0.
   -5000001    1    1    2    0    0  0.78551071676E+02  0.69870154914E+02 -0.70230499773E+03  0.72904692527E+03  0.16500000000E+03 0.  0.
<mgrwt>
<rscale>  0 0.40112237E+03</rscale>
<asrwt>0</asrwt>
<pdfrwt beam="1">  1        2 0.18049163E+00 0.40112237E+03</pdfrwt>
<pdfrwt beam="2">  1       -2 0.52748486E-02 0.40112237E+03</pdfrwt>
<totfact> 0.37476646E+03</totfact>
</mgrwt>
</event>
<event>
 4    1  0.8877834E-005  0.3731827E+03  0.7818608E-02  0.1053483E+00
         -2   -1    0    0    0  501 -0.00000000000E+00  0.00000000000E+00  0.14820087102E+02  0.14820087321E+02  0.25500000000E-02 0. -1.
          2   -1    0    0  501    0  0.00000000000E+00 -0.00000000000E+00 -0.23492669423E+04  0.23492669423E+04  0.25500000000E-02 0.  1.
    5000001    1    1    2    0    0 -0.70680024029E+02 -0.41912351839E+02 -0.98372572552E+03  0.10008464488E+04  0.16500000000E+03 0.  0.
   -5000001    1    1    2    0    0  0.70680024029E+02  0.41912351839E+02 -0.13507211297E+04  0.13632405809E+04  0.16500000000E+03 0.  0.
<mgrwt>
<rscale>  0 0.37318275E+03</rscale>
<asrwt>0</asrwt>
<pdfrwt beam="1">  1        2 0.36142539E+00 0.37318275E+03</pdfrwt>
<pdfrwt beam="2">  1       -2 0.22800153E-02 0.37318275E+03</pdfrwt>
<totfact> 0.30677609E+03</totfact>
</mgrwt>
</event>
<event>
 4    1  0.8877834E-005  0.6302642E+03  0.7818608E-02  0.9844533E-01
          2   -1    0    0  501    0  0.00000000000E+00  0.00000000000E+00  0.98726835616E+03  0.98726835616E+03  0.25500000000E-02 0.  1.
         -2   -1    0    0    0  501 -0.00000000000E+00 -0.00000000000E+00 -0.10058889856E+03  0.10058889859E+03  0.25500000000E-02 0. -1.
    5000001    1    1    2    0    0  0.21372137015E+03  0.14162735274E+03  0.30581799229E+03  0.43183883048E+03  0.16500000000E+03 0.  0.
   -5000001    1    1    2    0    0 -0.21372137015E+03 -0.14162735274E+03  0.58086146531E+03  0.65601842427E+03  0.16500000000E+03 0.  0.
<mgrwt>
<rscale>  0 0.63026419E+03</rscale>
<asrwt>0</asrwt>
<pdfrwt beam="1">  1        2 0.15188743E+00 0.63026419E+03</pdfrwt>
<pdfrwt beam="2">  1       -2 0.15475216E-01 0.63026419E+03</pdfrwt>
<totfact> 0.85956103E+02</totfact>
</mgrwt>
</event>
<event>
 4    1  0.8877834E-005  0.6574518E+03  0.7818608E-02  0.9792896E-01
          2   -1    0    0  501    0  0.00000000000E+00  0.00000000000E+00  0.25815507711E+04  0.25815507711E+04  0.25500000000E-02 0.  1.
         -2   -1    0    0    0  501 -0.00000000000E+00 -0.00000000000E+00 -0.41858835146E+02  0.41858835224E+02  0.25500000000E-02 0. -1.
    5000001    1    1    2    0    0 -0.28036430269E+03 -0.14906067902E+02  0.14487139961E+04  0.14848648341E+04  0.16500000000E+03 0.  0.
   -5000001    1    1    2    0    0  0.28036430269E+03  0.14906067902E+02  0.10909779398E+04  0.11385447722E+04  0.16500000000E+03 0.  0.
<mgrwt>
<rscale>  0 0.65745177E+03</rscale>
<asrwt>0</asrwt>
<pdfrwt beam="1">  1        2 0.39716168E+00 0.65745177E+03</pdfrwt>
<pdfrwt beam="2">  1       -2 0.64398204E-02 0.65745177E+03</pdfrwt>
<totfact> 0.45477979E+02</totfact>
</mgrwt>
</event>
<event>
 4    1  0.8877834E-005  0.6576950E+03  0.7818608E-02  0.9792446E-01
          2   -1    0    0  501    0  0.00000000000E+00  0.00000000000E+00  0.18589563008E+04  0.18589563008E+04  0.25500000000E-02 0.  1.
         -2   -1    0    0    0  501 -0.00000000000E+00 -0.00000000000E+00 -0.58172798598E+02  0.58172798654E+02  0.25500000000E-02 0. -1.
    5000001    1    1    2    0    0  0.78584226155E+02 -0.24043389221E+03  0.12796873137E+04  0.13148416475E+04  0.16500000000E+03 0.  0.
   -5000001    1    1    2    0    0 -0.78584226155E+02  0.24043389221E+03  0.52109618846E+03  0.60228745193E+03  0.16500000000E+03 0.  0.
<mgrwt>
<rscale>  0 0.65769504E+03</rscale>
<asrwt>0</asrwt>
<pdfrwt beam="1">  1        2 0.28599332E+00 0.65769504E+03</pdfrwt>
<pdfrwt beam="2">  1       -2 0.89496600E-02 0.65769504E+03</pdfrwt>
<totfact> 0.67457656E+02</totfact>
</mgrwt>
</event>
<event>
 4    1  0.8877834E-005  0.4732785E+03  0.7818608E-02  0.1020999E+00
          2   -1    0    0  501    0  0.00000000000E+00  0.00000000000E+00  0.29162535798E+03  0.29162535799E+03  0.25500000000E-02 0.  1.
         -2   -1    0    0    0  501 -0.00000000000E+00 -0.00000000000E+00 -0.19202078398E+03  0.19202078400E+03  0.25500000000E-02 0. -1.
    5000001    1    1    2    0    0 -0.63731188501E+02 -0.12207477631E+03  0.15101337316E+03  0.26266700263E+03  0.16500000000E+03 0.  0.
   -5000001    1    1    2    0    0  0.63731188501E+02  0.12207477631E+03 -0.51408799158E+02  0.22097913935E+03  0.16500000000E+03 0.  0.
<mgrwt>
<rscale>  0 0.47327848E+03</rscale>
<asrwt>0</asrwt>
<pdfrwt beam="1">  1        2 0.44865440E-01 0.47327848E+03</pdfrwt>
<pdfrwt beam="2">  1       -2 0.29541659E-01 0.47327848E+03</pdfrwt>
<totfact> 0.11940759E+03</totfact>
</mgrwt>
</event>
<event>
 4    1  0.8877834E-005  0.4797540E+03  0.7818608E-02  0.1019203E+00
          2   -1    0    0  501    0  0.00000000000E+00  0.00000000000E+00  0.86525384824E+03  0.86525384824E+03  0.25500000000E-02 0.  1.
         -2   -1    0    0    0  501 -0.00000000000E+00 -0.00000000000E+00 -0.66501835801E+02  0.66501835849E+02  0.25500000000E-02 0. -1.
    5000001    1    1    2    0    0 -0.96085484850E+02 -0.78726447297E+02  0.16241982996E+03  0.26274602769E+03  0.16500000000E+03 0.  0.
   -5000001    1    1    2    0    0  0.96085484850E+02  0.78726447297E+02  0.63633218247E+03  0.66900965640E+03  0.16500000000E+03 0.  0.
<mgrwt>
<rscale>  0 0.47975398E+03</rscale>
<asrwt>0</asrwt>
<pdfrwt beam="1">  1        2 0.13311597E+00 0.47975398E+03</pdfrwt>
<pdfrwt beam="2">  1       -2 0.10231052E-01 0.47975398E+03</pdfrwt>
<totfact> 0.20533426E+03</totfact>
</mgrwt>
</event>
<event>
 4    1  0.8877834E-005  0.5822796E+03  0.7818608E-02  0.9942868E-01
          2   -1    0    0  501    0  0.00000000000E+00  0.00000000000E+00  0.56602271844E+03  0.56602271845E+03  0.25500000000E-02 0.  1.
         -2   -1    0    0    0  501 -0.00000000000E+00 -0.00000000000E+00 -0.14975083590E+03  0.14975083592E+03  0.25500000000E-02 0. -1.
    5000001    1    1    2    0    0 -0.19096146135E+03  0.16860938167E+02  0.30905647551E+02  0.25481508983E+03  0.16500000000E+03 0.  0.
   -5000001    1    1    2    0    0  0.19096146135E+03 -0.16860938167E+02  0.38536623499E+03  0.46095846453E+03  0.16500000000E+03 0.  0.
<mgrwt>
<rscale>  0 0.58227957E+03</rscale>
<asrwt>0</asrwt>
<pdfrwt beam="1">  1        2 0.87080417E-01 0.58227957E+03</pdfrwt>
<pdfrwt beam="2">  1       -2 0.23038591E-01 0.58227957E+03</pdfrwt>
<totfact> 0.88710925E+02</totfact>
</mgrwt>
</event>
<event>
 4    1  0.8877834E-005  0.5130243E+03  0.7818608E-02  0.1010434E+00
          2   -1    0    0  501    0  0.00000000000E+00  0.00000000000E+00  0.67735249420E+03  0.67735249420E+03  0.25500000000E-02 0.  1.
         -2   -1    0    0    0  501 -0.00000000000E+00 -0.00000000000E+00 -0.97140670680E+02  0.97140670714E+02  0.25500000000E-02 0. -1.
    5000001    1    1    2    0    0  0.95589818428E+02 -0.14266580721E+03  0.43398016745E+03  0.49503003108E+03  0.16500000000E+03 0.  0.
   -5000001    1    1    2    0    0 -0.95589818428E+02  0.14266580721E+03  0.14623165607E+03  0.27946313383E+03  0.16500000000E+03 0.  0.
<mgrwt>
<rscale>  0 0.51302427E+03</rscale>
<asrwt>0</asrwt>
<pdfrwt beam="1">  1        2 0.10420808E+00 0.51302427E+03</pdfrwt>
<pdfrwt beam="2">  1       -2 0.14944718E-01 0.51302427E+03</pdfrwt>
<totfact> 0.15077350E+03</totfact>
</mgrwt>
</event>
<event>
 4    1  0.8877834E-005  0.4632650E+03  0.7818608E-02  0.1023839E+00
         -2   -1    0    0    0  501 -0.00000000000E+00  0.00000000000E+00  0.38836849537E+03  0.38836849537E+03  0.25500000000E-02 0. -1.
          2   -1    0    0  501    0  0.00000000000E+00 -0.00000000000E+00 -0.13815127785E+03  0.13815127787E+03  0.25500000000E-02 0.  1.
    5000001    1    1    2    0    0 -0.87327779859E+02 -0.95123632007E+01  0.28057806745E+03  0.33714340884E+03  0.16500000000E+03 0.  0.
   -5000001    1    1    2    0    0  0.87327779859E+02  0.95123632007E+01 -0.30360849930E+02  0.18937636441E+03  0.16500000000E+03 0.  0.
<mgrwt>
<rscale>  0 0.46326495E+03</rscale>
<asrwt>0</asrwt>
<pdfrwt beam="1">  1        2 0.21254043E-01 0.46326495E+03</pdfrwt>
<pdfrwt beam="2">  1       -2 0.59748999E-01 0.46326495E+03</pdfrwt>
<totfact> 0.69503670E+02</totfact>
</mgrwt>
</event>
<event>
 4    1  0.8877834E-005  0.3825081E+03  0.7818608E-02  0.1050011E+00
          2   -1    0    0  501    0  0.00000000000E+00  0.00000000000E+00  0.20869789195E+03  0.20869789196E+03  0.25500000000E-02 0.  1.
         -2   -1    0    0    0  501 -0.00000000000E+00 -0.00000000000E+00 -0.17526828259E+03  0.17526828261E+03  0.25500000000E-02 0. -1.
    5000001    1    1    2    0    0  0.75885238596E+02  0.25280341262E+02  0.71286132967E+02  0.19673428233E+03  0.16500000000E+03 0.  0.
   -5000001    1    1    2    0    0 -0.75885238596E+02 -0.25280341262E+02 -0.37856523610E+02  0.18723189224E+03  0.16500000000E+03 0.  0.
<mgrwt>
<rscale>  0 0.38250815E+03</rscale>
<asrwt>0</asrwt>
<pdfrwt beam="1">  1        2 0.32107368E-01 0.38250815E+03</pdfrwt>
<pdfrwt beam="2">  1       -2 0.26964351E-01 0.38250815E+03</pdfrwt>
<totfact> 0.20317864E+03</totfact>
</mgrwt>
</event>
<event>
 4    1  0.8877834E-005  0.3949773E+03  0.7818608E-02  0.1045533E+00
          2   -1    0    0  501    0  0.00000000000E+00  0.00000000000E+00  0.41917413533E+04  0.41917413533E+04  0.25500000000E-02 0.  1.
         -2   -1    0    0    0  501 -0.00000000000E+00 -0.00000000000E+00 -0.93044317707E+01  0.93044321201E+01  0.25500000000E-02 0. -1.
    5000001    1    1    2    0    0 -0.90925999520E+02 -0.20017257979E+02  0.14982060688E+04  0.15101372959E+04  0.16500000000E+03 0.  0.
   -5000001    1    1    2    0    0  0.90925999520E+02  0.20017257979E+02  0.26842308527E+04  0.26909084895E+04  0.16500000000E+03 0.  0.
<mgrwt>
<rscale>  0 0.39497733E+03</rscale>
<asrwt>0</asrwt>
<pdfrwt beam="1">  1        2 0.64488349E+00 0.39497733E+03</pdfrwt>
<pdfrwt beam="2">  1       -2 0.14314506E-02 0.39497733E+03</pdfrwt>
<totfact> 0.38559687E+02</totfact>
</mgrwt>
</event>
<event>
 4    1  0.8877834E-005  0.5223336E+03  0.7818608E-02  0.1008109E+00
          2   -1    0    0  501    0  0.00000000000E+00  0.00000000000E+00  0.21737337698E+04  0.21737337698E+04  0.25500000000E-02 0.  1.
         -2   -1    0    0    0  501 -0.00000000000E+00 -0.00000000000E+00 -0.31378307163E+02  0.31378307267E+02  0.25500000000E-02 0. -1.
    5000001    1    1    2    0    0  0.11971083051E+03 -0.14721201309E+03  0.13691268863E+04  0.13920256788E+04  0.16500000000E+03 0.  0.
   -5000001    1    1    2    0    0 -0.11971083051E+03  0.14721201309E+03  0.77322857641E+03  0.81308639831E+03  0.16500000000E+03 0.  0.
<mgrwt>
<rscale>  0 0.52233356E+03</rscale>
<asrwt>0</asrwt>
<pdfrwt beam="1">  1        2 0.33442051E+00 0.52233356E+03</pdfrwt>
<pdfrwt beam="2">  1       -2 0.48274328E-02 0.52233356E+03</pdfrwt>
<totfact> 0.12149113E+03</totfact>
</mgrwt>
</event>
<event>
 4    1  0.8877834E-005  0.4626406E+03  0.7818608E-02  0.1024018E+00
         -2   -1    0    0    0  501 -0.00000000000E+00  0.00000000000E+00  0.14443603482E+03  0.14443603484E+03  0.25500000000E-02 0. -1.
          2   -1    0    0  501    0  0.00000000000E+00 -0.00000000000E+00 -0.37046899347E+03  0.37046899348E+03  0.25500000000E-02 0.  1.
    5000001    1    1    2    0    0 -0.98448622108E+02 -0.11725784878E+03 -0.53677977493E+02  0.23140410447E+03  0.16500000000E+03 0.  0.
   -5000001    1    1    2    0    0  0.98448622108E+02  0.11725784878E+03 -0.17235498115E+03  0.28350092385E+03  0.16500000000E+03 0.  0.
<mgrwt>
<rscale>  0 0.46264056E+03</rscale>
<asrwt>0</asrwt>
<pdfrwt beam="1">  1        2 0.56995229E-01 0.46264056E+03</pdfrwt>
<pdfrwt beam="2">  1       -2 0.22220929E-01 0.46264056E+03</pdfrwt>
<totfact> 0.15300379E+03</totfact>
</mgrwt>
</event>
<event>
 4    1  0.8877834E-005  0.1317482E+04  0.7818608E-02  0.9015816E-01
          2   -1    0    0  501    0  0.00000000000E+00  0.00000000000E+00  0.33566660474E+04  0.33566660474E+04  0.25500000000E-02 0.  1.
         -2   -1    0    0    0  501 -0.00000000000E+00 -0.00000000000E+00 -0.12927697343E+03  0.12927697346E+03  0.25500000000E-02 0. -1.
    5000001    1    1    2    0    0  0.31553174405E+02 -0.62052198074E+03  0.12332760733E+04  0.13907688537E+04  0.16500000000E+03 0.  0.
   -5000001    1    1    2    0    0 -0.31553174405E+02  0.62052198074E+03  0.19941130007E+04  0.20951741672E+04  0.16500000000E+03 0.  0.
<mgrwt>
<rscale>  0 0.13174819E+04</rscale>
<asrwt>0</asrwt>
<pdfrwt beam="1">  1        2 0.51641023E+00 0.13174819E+04</pdfrwt>
<pdfrwt beam="2">  1       -2 0.19888762E-01 0.13174819E+04</pdfrwt>
<totfact> 0.21937542E+01</totfact>
</mgrwt>
</event>
<event>
 4    1  0.8877834E-005  0.3599116E+03  0.7818608E-02  0.1058619E+00
         -2   -1    0    0    0  501 -0.00000000000E+00  0.00000000000E+00  0.12662784062E+02  0.12662784319E+02  0.25500000000E-02 0. -1.
          2   -1    0    0  501    0  0.00000000000E+00 -0.00000000000E+00 -0.25574225392E+04  0.25574225392E+04  0.25500000000E-02 0.  1.
    5000001    1    1    2    0    0 -0.10192220790E+02  0.59498500064E+02 -0.99442287087E+03  0.10098246377E+04  0.16500000000E+03 0.  0.
   -5000001    1    1    2    0    0  0.10192220790E+02 -0.59498500064E+02 -0.15503368842E+04  0.15602606858E+04  0.16500000000E+03 0.  0.
<mgrwt>
<rscale>  0 0.35991160E+03</rscale>
<asrwt>0</asrwt>
<pdfrwt beam="1">  1        2 0.39344921E+00 0.35991160E+03</pdfrwt>
<pdfrwt beam="2">  1       -2 0.19481227E-02 0.35991160E+03</pdfrwt>
<totfact> 0.29788363E+03</totfact>
</mgrwt>
</event>
<event>
 4    1  0.8877834E-005  0.8871938E+03  0.7818608E-02  0.9441733E-01
          2   -1    0    0  501    0  0.00000000000E+00  0.00000000000E+00  0.80156338004E+03  0.80156338004E+03  0.25500000000E-02 0. -1.
         -2   -1    0    0    0  501 -0.00000000000E+00 -0.00000000000E+00 -0.24549302488E+03  0.24549302489E+03  0.25500000000E-02 0.  1.
    5000001    1    1    2    0    0  0.11086304564E+03  0.32791117250E+03  0.54123814507E+03  0.66330994385E+03  0.16500000000E+03 0.  0.
   -5000001    1    1    2    0    0 -0.11086304564E+03 -0.32791117250E+03  0.14832210089E+02  0.38374646108E+03  0.16500000000E+03 0.  0.
<mgrwt>
<rscale>  0 0.88719382E+03</rscale>
<asrwt>0</asrwt>
<pdfrwt beam="1">  1        2 0.12331744E+00 0.88719382E+03</pdfrwt>
<pdfrwt beam="2">  1       -2 0.37768158E-01 0.88719382E+03</pdfrwt>
<totfact> 0.22784366E+02</totfact>
</mgrwt>
</event>
<event>
 4    1  0.8877834E-005  0.3990051E+03  0.7818608E-02  0.1044125E+00
         -2   -1    0    0    0  501 -0.00000000000E+00  0.00000000000E+00  0.81800282522E+02  0.81800282561E+02  0.25500000000E-02 0. -1.
          2   -1    0    0  501    0  0.00000000000E+00 -0.00000000000E+00 -0.48656626383E+03  0.48656626383E+03  0.25500000000E-02 0.  1.
    5000001    1    1    2    0    0 -0.10464212986E+03 -0.38990340514E+02 -0.18771480147E+03  0.27373722561E+03  0.16500000000E+03 0.  0.
   -5000001    1    1    2    0    0  0.10464212986E+03  0.38990340514E+02 -0.21705117984E+03  0.29462932078E+03  0.16500000000E+03 0.  0.
<mgrwt>
<rscale>  0 0.39900505E+03</rscale>
<asrwt>0</asrwt>
<pdfrwt beam="1">  1        2 0.74856346E-01 0.39900505E+03</pdfrwt>
<pdfrwt beam="2">  1       -2 0.12584659E-01 0.39900505E+03</pdfrwt>
<totfact> 0.29540333E+03</totfact>
</mgrwt>
</event>
<event>
 4    1  0.8877834E-005  0.5337254E+03  0.7818608E-02  0.1005333E+00
          2   -1    0    0  501    0  0.00000000000E+00  0.00000000000E+00  0.14254248067E+04  0.14254248067E+04  0.25500000000E-02 0.  1.
         -2   -1    0    0    0  501 -0.00000000000E+00 -0.00000000000E+00 -0.49961031562E+02  0.49961031628E+02  0.25500000000E-02 0. -1.
    5000001    1    1    2    0    0  0.15261252269E+03  0.12087387237E+03  0.47201566321E+03  0.53658630379E+03  0.16500000000E+03 0.  0.
   -5000001    1    1    2    0    0 -0.15261252269E+03 -0.12087387237E+03  0.90344811195E+03  0.93879953456E+03  0.16500000000E+03 0.  0.
<mgrwt>
<rscale>  0 0.53372537E+03</rscale>
<asrwt>0</asrwt>
<pdfrwt beam="1">  1        2 0.21929617E+00 0.53372537E+03</pdfrwt>
<pdfrwt beam="2">  1       -2 0.76863109E-02 0.53372537E+03</pdfrwt>
<totfact> 0.14936147E+03</totfact>
</mgrwt>
</event>
<event>
 4    1  0.8877834E-005  0.4964610E+03  0.7818608E-02  0.1014707E+00
         -2   -1    0    0    0  501 -0.00000000000E+00  0.00000000000E+00  0.45821811091E+02  0.45821811162E+02  0.25500000000E-02 0. -1.
          2   -1    0    0  501    0  0.00000000000E+00 -0.00000000000E+00 -0.13447389901E+04  0.13447389901E+04  0.25500000000E-02 0.  1.
    5000001    1    1    2    0    0 -0.16649780978E+03 -0.33909156603E+02 -0.85759785913E+03  0.88970244438E+03  0.16500000000E+03 0.  0.
   -5000001    1    1    2    0    0  0.16649780978E+03  0.33909156603E+02 -0.44131931992E+03  0.50085835692E+03  0.16500000000E+03 0.  0.
<mgrwt>
<rscale>  0 0.49646098E+03</rscale>
<asrwt>0</asrwt>
<pdfrwt beam="1">  1        2 0.20688289E+00 0.49646098E+03</pdfrwt>
<pdfrwt beam="2">  1       -2 0.70495104E-02 0.49646098E+03</pdfrwt>
<totfact> 0.19019544E+03</totfact>
</mgrwt>
</event>
<event>
 4    1  0.8877834E-005  0.1626952E+04  0.7818608E-02  0.8804159E-01
          2   -1    0    0  501    0  0.00000000000E+00  0.00000000000E+00  0.18326634477E+04  0.18326634477E+04  0.25500000000E-02 0.  1.
         -2   -1    0    0    0  501 -0.00000000000E+00 -0.00000000000E+00 -0.36108284238E+03  0.36108284239E+03  0.25500000000E-02 0. -1.
    5000001    1    1    2    0    0 -0.44119872037E+03 -0.59922100033E+03  0.35251828788E+03  0.83977155310E+03  0.16500000000E+03 0.  0.
   -5000001    1    1    2    0    0  0.44119872037E+03  0.59922100033E+03  0.11190623174E+04  0.13539747370E+04  0.16500000000E+03 0.  0.
<mgrwt>
<rscale>  0 0.16269522E+04</rscale>
<asrwt>0</asrwt>
<pdfrwt beam="1">  1        2 0.28194822E+00 0.16269522E+04</pdfrwt>
<pdfrwt beam="2">  1       -2 0.55551207E-01 0.16269522E+04</pdfrwt>
<totfact> 0.24114840E+01</totfact>
</mgrwt>
</event>
<event>
 4    1  0.8877834E-005  0.7610844E+03  0.7818608E-02  0.9618119E-01
          2   -1    0    0  501    0  0.00000000000E+00  0.00000000000E+00  0.37342669567E+04  0.37342669567E+04  0.25500000000E-02 0.  1.
         -2   -1    0    0    0  501 -0.00000000000E+00 -0.00000000000E+00 -0.38779329747E+02  0.38779329831E+02  0.25500000000E-02 0. -1.
    5000001    1    1    2    0    0 -0.22823774985E+03  0.23796612179E+03  0.13809251023E+04  0.14293003476E+04  0.16500000000E+03 0.  0.
   -5000001    1    1    2    0    0  0.22823774985E+03 -0.23796612179E+03  0.23145625247E+04  0.23437459390E+04  0.16500000000E+03 0.  0.
<mgrwt>
<rscale>  0 0.76108441E+03</rscale>
<asrwt>0</asrwt>
<pdfrwt beam="1">  1        2 0.57450281E+00 0.76108441E+03</pdfrwt>
<pdfrwt beam="2">  1       -2 0.59660487E-02 0.76108441E+03</pdfrwt>
<totfact> 0.93632501E+01</totfact>
</mgrwt>
</event>
<event>
 4    1  0.8877834E-005  0.4643857E+03  0.7818608E-02  0.1023517E+00
          2   -1    0    0  501    0  0.00000000000E+00  0.00000000000E+00  0.70301711893E+02  0.70301711939E+02  0.25500000000E-02 0.  1.
         -2   -1    0    0    0  501 -0.00000000000E+00 -0.00000000000E+00 -0.76688762801E+03  0.76688762802E+03  0.25500000000E-02 0. -1.
    5000001    1    1    2    0    0  0.14527781371E+03 -0.20635586347E+02 -0.21883008695E+03  0.31087469748E+03  0.16500000000E+03 0.  0.
   -5000001    1    1    2    0    0 -0.14527781371E+03  0.20635586347E+02 -0.47775582917E+03  0.52631464247E+03  0.16500000000E+03 0.  0.
<mgrwt>
<rscale>  0 0.46438567E+03</rscale>
<asrwt>0</asrwt>
<pdfrwt beam="1">  1        2 0.10815648E-01 0.46438567E+03</pdfrwt>
<pdfrwt beam="2">  1       -2 0.11798271E+00 0.46438567E+03</pdfrwt>
<totfact> 0.33730048E+02</totfact>
</mgrwt>
</event>
<event>
 4    1  0.8877834E-005  0.5738465E+03  0.7818608E-02  0.9961203E-01
         -2   -1    0    0    0  501 -0.00000000000E+00  0.00000000000E+00  0.11487583759E+03  0.11487583762E+03  0.25500000000E-02 0. -1.
          2   -1    0    0  501    0  0.00000000000E+00 -0.00000000000E+00 -0.71664276526E+03  0.71664276526E+03  0.25500000000E-02 0.  1.
    5000001    1    1    2    0    0 -0.14274016313E+02  0.16559783252E+03 -0.60705231279E+02  0.24194320569E+03  0.16500000000E+03 0.  0.
   -5000001    1    1    2    0    0  0.14274016313E+02 -0.16559783252E+03 -0.54106169639E+03  0.58957539719E+03  0.16500000000E+03 0.  0.
<mgrwt>
<rscale>  0 0.57384645E+03</rscale>
<asrwt>0</asrwt>
<pdfrwt beam="1">  1        2 0.11025273E+00 0.57384645E+03</pdfrwt>
<pdfrwt beam="2">  1       -2 0.17673206E-01 0.57384645E+03</pdfrwt>
<totfact> 0.10569001E+03</totfact>
</mgrwt>
</event>
<event>
 4    1  0.8877834E-005  0.4239915E+03  0.7818608E-02  0.1035775E+00
         -2   -1    0    0    0  501 -0.00000000000E+00  0.00000000000E+00  0.17814952901E+03  0.17814952903E+03  0.25500000000E-02 0.  1.
          2   -1    0    0  501    0  0.00000000000E+00 -0.00000000000E+00 -0.25227235121E+03  0.25227235123E+03  0.25500000000E-02 0. -1.
    5000001    1    1    2    0    0  0.16367288613E+02 -0.10928532222E+03  0.38266598972E+02  0.20223872623E+03  0.16500000000E+03 0.  0.
   -5000001    1    1    2    0    0 -0.16367288613E+02  0.10928532222E+03 -0.11238942117E+03  0.22818315403E+03  0.16500000000E+03 0.  0.
<mgrwt>
<rscale>  0 0.42399151E+03</rscale>
<asrwt>0</asrwt>
<pdfrwt beam="1">  1        2 0.38811131E-01 0.42399151E+03</pdfrwt>
<pdfrwt beam="2">  1       -2 0.27407620E-01 0.42399151E+03</pdfrwt>
<totfact> 0.16033794E+03</totfact>
</mgrwt>
</event>
<event>
 4    1  0.8877834E-005  0.6220398E+03  0.7818608E-02  0.9860707E-01
         -2   -1    0    0    0  501 -0.00000000000E+00  0.00000000000E+00  0.61943257232E+03  0.61943257233E+03  0.25500000000E-02 0. -1.
          2   -1    0    0  501    0  0.00000000000E+00 -0.00000000000E+00 -0.15616447983E+03  0.15616447985E+03  0.25500000000E-02 0.  1.
    5000001    1    1    2    0    0  0.21755330258E+03 -0.40771935790E+02  0.41022951623E+03  0.49447451522E+03  0.16500000000E+03 0.  0.
   -5000001    1    1    2    0    0 -0.21755330258E+03  0.40771935790E+02  0.53038576265E+02  0.28112253696E+03  0.16500000000E+03 0.  0.
<mgrwt>
<rscale>  0 0.62203976E+03</rscale>
<asrwt>0</asrwt>
<pdfrwt beam="1">  1        2 0.24025305E-01 0.62203976E+03</pdfrwt>
<pdfrwt beam="2">  1       -2 0.95297317E-01 0.62203976E+03</pdfrwt>
<totfact> 0.21475073E+02</totfact>
</mgrwt>
</event>
<event>
 4    1  0.8877834E-005  0.6204590E+03  0.7818608E-02  0.9863846E-01
          2   -1    0    0  501    0  0.00000000000E+00  0.00000000000E+00  0.71401552227E+03  0.71401552227E+03  0.25500000000E-02 0.  1.
         -2   -1    0    0    0  501 -0.00000000000E+00 -0.00000000000E+00 -0.13479026807E+03  0.13479026809E+03  0.25500000000E-02 0. -1.
    5000001    1    1    2    0    0  0.22598665098E+03 -0.12588048534E+03  0.35232567964E+03  0.46719829574E+03  0.16500000000E+03 0.  0.
   -5000001    1    1    2    0    0 -0.22598665098E+03  0.12588048534E+03  0.22689957456E+03  0.38160749462E+03  0.16500000000E+03 0.  0.
<mgrwt>
<rscale>  0 0.62045900E+03</rscale>
<asrwt>0</asrwt>
<pdfrwt beam="1">  1        2 0.10984854E+00 0.62045900E+03</pdfrwt>
<pdfrwt beam="2">  1       -2 0.20736964E-01 0.62045900E+03</pdfrwt>
<totfact> 0.80415661E+02</totfact>
</mgrwt>
</event>
<event>
 4    1  0.8877834E-005  0.6618872E+03  0.7818608E-02  0.9784726E-01
         -2   -1    0    0    0  501 -0.00000000000E+00  0.00000000000E+00  0.74980574276E+02  0.74980574319E+02  0.25500000000E-02 0. -1.
          2   -1    0    0  501    0  0.00000000000E+00 -0.00000000000E+00 -0.14606937681E+04  0.14606937681E+04  0.25500000000E-02 0.  1.
    5000001    1    1    2    0    0  0.11515490996E+03 -0.22020605353E+03 -0.10254338379E+04  0.10679376926E+04  0.16500000000E+03 0.  0.
   -5000001    1    1    2    0    0 -0.11515490996E+03  0.22020605353E+03 -0.36027935587E+03  0.46773664980E+03  0.16500000000E+03 0.  0.
<mgrwt>
<rscale>  0 0.66188717E+03</rscale>
<asrwt>0</asrwt>
<pdfrwt beam="1">  1        2 0.22472210E+00 0.66188717E+03</pdfrwt>
<pdfrwt beam="2">  1       -2 0.11535474E-01 0.66188717E+03</pdfrwt>
<totfact> 0.73724666E+02</totfact>
</mgrwt>
</event>
<event>
 4    1  0.8877834E-005  0.6871522E+03  0.7818608E-02  0.9739459E-01
         -2   -1    0    0    0  501 -0.00000000000E+00  0.00000000000E+00  0.23626140665E+03  0.23626140666E+03  0.25500000000E-02 0. -1.
          2   -1    0    0  501    0  0.00000000000E+00 -0.00000000000E+00 -0.49963535894E+03  0.49963535895E+03  0.25500000000E-02 0.  1.
    5000001    1    1    2    0    0  0.22198164985E+03 -0.20316553848E+03 -0.11417252829E+03  0.36168004522E+03  0.16500000000E+03 0.  0.
   -5000001    1    1    2    0    0 -0.22198164985E+03  0.20316553848E+03 -0.14920142400E+03  0.37421672039E+03  0.16500000000E+03 0.  0.
<mgrwt>
<rscale>  0 0.68715225E+03</rscale>
<asrwt>0</asrwt>
<pdfrwt beam="1">  1        2 0.76866978E-01 0.68715225E+03</pdfrwt>
<pdfrwt beam="2">  1       -2 0.36347909E-01 0.68715225E+03</pdfrwt>
<totfact> 0.44233088E+02</totfact>
</mgrwt>
</event>
<event>
 4    1  0.8877834E-005  0.3979191E+03  0.7818608E-02  0.1044503E+00
         -2   -1    0    0    0  501 -0.00000000000E+00  0.00000000000E+00  0.25920296820E+02  0.25920296946E+02  0.25500000000E-02 0. -1.
          2   -1    0    0  501    0  0.00000000000E+00 -0.00000000000E+00 -0.15271775922E+04  0.15271775922E+04  0.25500000000E-02 0.  1.
    5000001    1    1    2    0    0  0.45926321293E+02  0.99202214472E+02 -0.82961987772E+03  0.85290353959E+03  0.16500000000E+03 0.  0.
   -5000001    1    1    2    0    0 -0.45926321293E+02 -0.99202214472E+02 -0.67163741762E+03  0.70019434951E+03  0.16500000000E+03 0.  0.
<mgrwt>
<rscale>  0 0.39791907E+03</rscale>
<asrwt>0</asrwt>
<pdfrwt beam="1">  1        2 0.23495033E+00 0.39791907E+03</pdfrwt>
<pdfrwt beam="2">  1       -2 0.39877392E-02 0.39791907E+03</pdfrwt>
<totfact> 0.36464295E+03</totfact>
</mgrwt>
</event>
<event>
 4    1  0.8877834E-005  0.7225536E+03  0.7818608E-02  0.9679421E-01
         -2   -1    0    0    0  501 -0.00000000000E+00  0.00000000000E+00  0.91198809616E+02  0.91198809652E+02  0.25500000000E-02 0. -1.
          2   -1    0    0  501    0  0.00000000000E+00 -0.00000000000E+00 -0.14311693817E+04  0.14311693817E+04  0.25500000000E-02 0.  1.
    5000001    1    1    2    0    0 -0.16520878263E+03  0.19375446033E+03 -0.10831860169E+04  0.11248785178E+04  0.16500000000E+03 0.  0.
   -5000001    1    1    2    0    0  0.16520878263E+03 -0.19375446033E+03 -0.25678455523E+03  0.39748967353E+03  0.16500000000E+03 0.  0.
<mgrwt>
<rscale>  0 0.72255365E+03</rscale>
<asrwt>0</asrwt>
<pdfrwt beam="1">  1        2 0.22017989E+00 0.72255365E+03</pdfrwt>
<pdfrwt beam="2">  1       -2 0.14030587E-01 0.72255365E+03</pdfrwt>
<totfact> 0.55147397E+02</totfact>
</mgrwt>
</event>
<event>
 4    1  0.8877834E-005  0.7780041E+03  0.7818608E-02  0.9592413E-01
         -2   -1    0    0    0  501 -0.00000000000E+00  0.00000000000E+00  0.58253081575E+02  0.58253081631E+02  0.25500000000E-02 0. -1.
          2   -1    0    0  501    0  0.00000000000E+00 -0.00000000000E+00 -0.25976751790E+04  0.25976751790E+04  0.25500000000E-02 0.  1.
    5000001    1    1    2    0    0 -0.15609904421E+03 -0.28088098729E+03 -0.77693758920E+03  0.85680689665E+03  0.16500000000E+03 0.  0.
   -5000001    1    1    2    0    0  0.15609904421E+03  0.28088098729E+03 -0.17624845083E+04  0.17991213640E+04  0.16500000000E+03 0.  0.
<mgrwt>
<rscale>  0 0.77800407E+03</rscale>
<asrwt>0</asrwt>
<pdfrwt beam="1">  1        2 0.39964225E+00 0.77800407E+03</pdfrwt>
<pdfrwt beam="2">  1       -2 0.89620146E-02 0.77800407E+03</pdfrwt>
<totfact> 0.25986192E+02</totfact>
</mgrwt>
</event>
<event>
 4    1  0.8877834E-005  0.6583122E+03  0.7818608E-02  0.9791306E-01
         -2   -1    0    0    0  501 -0.00000000000E+00  0.00000000000E+00  0.61741939385E+02  0.61741939438E+02  0.25500000000E-02 0. -1.
          2   -1    0    0  501    0  0.00000000000E+00 -0.00000000000E+00 -0.17547832867E+04  0.17547832867E+04  0.25500000000E-02 0.  1.
    5000001    1    1    2    0    0  0.16831162448E+03 -0.22557269995E+03 -0.96701620833E+03  0.10205670939E+04  0.16500000000E+03 0.  0.
   -5000001    1    1    2    0    0 -0.16831162448E+03  0.22557269995E+03 -0.72602513896E+03  0.79595813225E+03  0.16500000000E+03 0.  0.
<mgrwt>
<rscale>  0 0.65831216E+03</rscale>
<asrwt>0</asrwt>
<pdfrwt beam="1">  1        2 0.26996662E+00 0.65831216E+03</pdfrwt>
<pdfrwt beam="2">  1       -2 0.94987612E-02 0.65831216E+03</pdfrwt>
<totfact> 0.69795240E+02</totfact>
</mgrwt>
</event>
<event>
 4    1  0.8877834E-005  0.3753536E+03  0.7818608E-02  0.1052665E+00
         -2   -1    0    0    0  501 -0.00000000000E+00  0.00000000000E+00  0.45202104137E+02  0.45202104209E+02  0.25500000000E-02 0. -1.
          2   -1    0    0  501    0  0.00000000000E+00 -0.00000000000E+00 -0.77922421374E+03  0.77922421374E+03  0.25500000000E-02 0.  1.
    5000001    1    1    2    0    0  0.24289384407E+02  0.84353693295E+02 -0.32947547548E+03  0.37879362285E+03  0.16500000000E+03 0.  0.
   -5000001    1    1    2    0    0 -0.24289384407E+02 -0.84353693295E+02 -0.40454663412E+03  0.44563269510E+03  0.16500000000E+03 0.  0.
<mgrwt>
<rscale>  0 0.37535356E+03</rscale>
<asrwt>0</asrwt>
<pdfrwt beam="1">  1        2 0.11988064E+00 0.37535356E+03</pdfrwt>
<pdfrwt beam="2">  1       -2 0.69541704E-02 0.37535356E+03</pdfrwt>
<totfact> 0.43409870E+03</totfact>
</mgrwt>
</event>
<event>
 4    1  0.8877834E-005  0.3382501E+03  0.7818608E-02  0.1067544E+00
         -2   -1    0    0    0  501 -0.00000000000E+00  0.00000000000E+00  0.16999249225E+02  0.16999249416E+02  0.25500000000E-02 0. -1.
          2   -1    0    0  501    0  0.00000000000E+00 -0.00000000000E+00 -0.16826200295E+04  0.16826200295E+04  0.25500000000E-02 0.  1.
    5000001    1    1    2    0    0  0.34782526454E+02  0.12816767915E+02 -0.84308805779E+03  0.85988171680E+03  0.16500000000E+03 0.  0.
   -5000001    1    1    2    0    0 -0.34782526454E+02 -0.12816767915E+02 -0.82253272250E+03  0.83973756214E+03  0.16500000000E+03 0.  0.
<mgrwt>
<rscale>  0 0.33825007E+03</rscale>
<asrwt>0</asrwt>
<pdfrwt beam="1">  1        2 0.25886449E+00 0.33825007E+03</pdfrwt>
<pdfrwt beam="2">  1       -2 0.26152705E-02 0.33825007E+03</pdfrwt>
<totfact> 0.56794708E+03</totfact>
</mgrwt>
</event>
<event>
 4    1  0.8877834E-005  0.3669041E+03  0.7818608E-02  0.1055883E+00
         -2   -1    0    0    0  501 -0.00000000000E+00  0.00000000000E+00  0.19861701921E+03  0.19861701923E+03  0.25500000000E-02 0. -1.
          2   -1    0    0  501    0  0.00000000000E+00 -0.00000000000E+00 -0.16944497858E+03  0.16944497860E+03  0.25500000000E-02 0.  1.
    5000001    1    1    2    0    0  0.15574081189E+02  0.72031566953E+02  0.46285711718E+02  0.18654346880E+03  0.16500000000E+03 0.  0.
   -5000001    1    1    2    0    0 -0.15574081189E+02 -0.72031566953E+02 -0.17113671092E+02  0.18151852903E+03  0.16500000000E+03 0.  0.
<mgrwt>
<rscale>  0 0.36690411E+03</rscale>
<asrwt>0</asrwt>
<pdfrwt beam="1">  1        2 0.26068458E-01 0.36690411E+03</pdfrwt>
<pdfrwt beam="2">  1       -2 0.30556465E-01 0.36690411E+03</pdfrwt>
<totfact> 0.20400996E+03</totfact>
</mgrwt>
</event>
<event>
 4    1  0.8877834E-005  0.4594596E+03  0.7818608E-02  0.1024938E+00
          2   -1    0    0  501    0  0.00000000000E+00  0.00000000000E+00  0.64650834937E+03  0.64650834938E+03  0.25500000000E-02 0.  1.
         -2   -1    0    0    0  501 -0.00000000000E+00 -0.00000000000E+00 -0.81632013005E+02  0.81632013045E+02  0.25500000000E-02 0. -1.
    5000001    1    1    2    0    0 -0.36285472080E+02  0.15487527748E+03  0.30738471859E+03  0.38342320259E+03  0.16500000000E+03 0.  0.
   -5000001    1    1    2    0    0  0.36285472080E+02 -0.15487527748E+03  0.25749161777E+03  0.34471715983E+03  0.16500000000E+03 0.  0.
<mgrwt>
<rscale>  0 0.45945959E+03</rscale>
<asrwt>0</asrwt>
<pdfrwt beam="1">  1        2 0.99462818E-01 0.45945959E+03</pdfrwt>
<pdfrwt beam="2">  1       -2 0.12558772E-01 0.45945959E+03</pdfrwt>
<totfact> 0.21303196E+03</totfact>
</mgrwt>
</event>
<event>
 4    1  0.8877834E-005  0.4954448E+03  0.7818608E-02  0.1014975E+00
          2   -1    0    0  501    0  0.00000000000E+00  0.00000000000E+00  0.11332802708E+04  0.11332802708E+04  0.25500000000E-02 0.  1.
         -2   -1    0    0    0  501 -0.00000000000E+00 -0.00000000000E+00 -0.54149346927E+02  0.54149346987E+02  0.25500000000E-02 0. -1.
    5000001    1    1    2    0    0  0.18152883170E+03  0.26493768036E+02  0.48668860499E+03  0.54566054898E+03  0.16500000000E+03 0.  0.
   -5000001    1    1    2    0    0 -0.18152883170E+03 -0.26493768036E+02  0.59244231892E+03  0.64176906885E+03  0.16500000000E+03 0.  0.
<mgrwt>
<rscale>  0 0.49544480E+03</rscale>
<asrwt>0</asrwt>
<pdfrwt beam="1">  1        2 0.17435079E+00 0.49544480E+03</pdfrwt>
<pdfrwt beam="2">  1       -2 0.83306697E-02 0.49544480E+03</pdfrwt>
<totfact> 0.19341303E+03</totfact>
</mgrwt>
</event>
<event>
 4    1  0.8877834E-005  0.5797911E+03  0.7818608E-02  0.9948243E-01
          2   -1    0    0  501    0  0.00000000000E+00  0.00000000000E+00  0.82591755379E+03  0.82591755379E+03  0.25500000000E-02 0.  1.
         -2   -1    0    0    0  501 -0.00000000000E+00 -0.00000000000E+00 -0.10175279065E+03  0.10175279068E+03  0.25500000000E-02 0. -1.
    5000001    1    1    2    0    0  0.12702015538E+03 -0.19596049113E+03  0.28568669718E+03  0.40419861813E+03  0.16500000000E+03 0.  0.
   -5000001    1    1    2    0    0 -0.12702015538E+03  0.19596049113E+03  0.43847806595E+03  0.52347172634E+03  0.16500000000E+03 0.  0.
<mgrwt>
<rscale>  0 0.57979105E+03</rscale>
<asrwt>0</asrwt>
<pdfrwt beam="1">  1        2 0.12706424E+00 0.57979105E+03</pdfrwt>
<pdfrwt beam="2">  1       -2 0.15654275E-01 0.57979105E+03</pdfrwt>
<totfact> 0.10812110E+03</totfact>
</mgrwt>
</event>
<event>
 4    1  0.8877834E-005  0.4927742E+03  0.7818608E-02  0.1015682E+00
         -2   -1    0    0    0  501 -0.00000000000E+00  0.00000000000E+00  0.13833755635E+03  0.13833755638E+03  0.25500000000E-02 0. -1.
          2   -1    0    0  501    0  0.00000000000E+00 -0.00000000000E+00 -0.43882952190E+03  0.43882952191E+03  0.25500000000E-02 0.  1.
    5000001    1    1    2    0    0 -0.12511414650E+03 -0.11905777226E+03 -0.22103995986E+03  0.32544118769E+03  0.16500000000E+03 0.  0.
   -5000001    1    1    2    0    0  0.12511414650E+03  0.11905777226E+03 -0.79452005686E+02  0.25172589060E+03  0.16500000000E+03 0.  0.
<mgrwt>
<rscale>  0 0.49277420E+03</rscale>
<asrwt>0</asrwt>
<pdfrwt beam="1">  1        2 0.67512233E-01 0.49277420E+03</pdfrwt>
<pdfrwt beam="2">  1       -2 0.21282701E-01 0.49277420E+03</pdfrwt>
<totfact> 0.13674466E+03</totfact>
</mgrwt>
</event>
<event>
 4    1  0.8877834E-005  0.7648323E+03  0.7818608E-02  0.9612364E-01
          2   -1    0    0  501    0  0.00000000000E+00  0.00000000000E+00  0.21169294503E+03  0.21169294505E+03  0.25500000000E-02 0.  1.
         -2   -1    0    0    0  501 -0.00000000000E+00 -0.00000000000E+00 -0.69082178921E+03  0.69082178921E+03  0.25500000000E-02 0. -1.
    5000001    1    1    2    0    0  0.32946511213E+03 -0.65582316651E+02 -0.33224492850E+03  0.50045978148E+03  0.16500000000E+03 0.  0.
   -5000001    1    1    2    0    0 -0.32946511213E+03  0.65582316651E+02 -0.14688391567E+03  0.40205495278E+03  0.16500000000E+03 0.  0.
<mgrwt>
<rscale>  0 0.76483227E+03</rscale>
<asrwt>0</asrwt>
<pdfrwt beam="1">  1        2 0.32568146E-01 0.76483227E+03</pdfrwt>
<pdfrwt beam="2">  1       -2 0.10628027E+00 0.76483227E+03</pdfrwt>
<totfact> 0.11678510E+02</totfact>
</mgrwt>
</event>
<event>
 4    1  0.8877834E-005  0.5518251E+03  0.7818608E-02  0.1001072E+00
          2   -1    0    0  501    0  0.00000000000E+00  0.00000000000E+00  0.89917930350E+02  0.89917930387E+02  0.25500000000E-02 0.  1.
         -2   -1    0    0    0  501 -0.00000000000E+00 -0.00000000000E+00 -0.84663562651E+03  0.84663562651E+03  0.25500000000E-02 0. -1.
    5000001    1    1    2    0    0 -0.19549279995E+03 -0.95424312206E+02 -0.44581002329E+03  0.52277606206E+03  0.16500000000E+03 0.  0.
   -5000001    1    1    2    0    0  0.19549279995E+03  0.95424312206E+02 -0.31090767286E+03  0.41377749484E+03  0.16500000000E+03 0.  0.
<mgrwt>
<rscale>  0 0.55182506E+03</rscale>
<asrwt>0</asrwt>
<pdfrwt beam="1">  1        2 0.13833528E-01 0.55182506E+03</pdfrwt>
<pdfrwt beam="2">  1       -2 0.13025163E+00 0.55182506E+03</pdfrwt>
<totfact> 0.19422034E+02</totfact>
</mgrwt>
</event>
<event>
 4    1  0.8877834E-005  0.4292216E+03  0.7818608E-02  0.1034106E+00
         -2   -1    0    0    0  501 -0.00000000000E+00  0.00000000000E+00  0.34641852795E+02  0.34641852889E+02  0.25500000000E-02 0. -1.
          2   -1    0    0  501    0  0.00000000000E+00 -0.00000000000E+00 -0.13295417941E+04  0.13295417941E+04  0.25500000000E-02 0.  1.
    5000001    1    1    2    0    0 -0.91121609681E+02 -0.13097744214E+02 -0.32398207485E+03  0.37505210769E+03  0.16500000000E+03 0.  0.
   -5000001    1    1    2    0    0  0.91121609681E+02  0.13097744214E+02 -0.97091786650E+03  0.98913153935E+03  0.16500000000E+03 0.  0.
<mgrwt>
<rscale>  0 0.42922158E+03</rscale>
<asrwt>0</asrwt>
<pdfrwt beam="1">  1        2 0.20454485E+00 0.42922158E+03</pdfrwt>
<pdfrwt beam="2">  1       -2 0.53295169E-02 0.42922158E+03</pdfrwt>
<totfact> 0.30033026E+03</totfact>
</mgrwt>
</event>
<event>
 4    1  0.8877834E-005  0.3611791E+03  0.7818608E-02  0.1058118E+00
         -2   -1    0    0    0  501 -0.00000000000E+00  0.00000000000E+00  0.24541860879E+02  0.24541861012E+02  0.25500000000E-02 0. -1.
          2   -1    0    0  501    0  0.00000000000E+00 -0.00000000000E+00 -0.13288552624E+04  0.13288552624E+04  0.25500000000E-02 0.  1.
    5000001    1    1    2    0    0  0.93448029850E+01  0.19496982466E+02 -0.91499622071E+03  0.93000566750E+03  0.16500000000E+03 0.  0.
   -5000001    1    1    2    0    0 -0.93448029850E+01 -0.19496982466E+02 -0.38931718083E+03  0.42339145593E+03  0.16500000000E+03 0.  0.
<mgrwt>
<rscale>  0 0.36117908E+03</rscale>
<asrwt>0</asrwt>
<pdfrwt beam="1">  1        2 0.20443922E+00 0.36117908E+03</pdfrwt>
<pdfrwt beam="2">  1       -2 0.37756719E-02 0.36117908E+03</pdfrwt>
<totfact> 0.50885564E+03</totfact>
</mgrwt>
</event>
<event>
 4    1  0.8877834E-005  0.6425771E+03  0.7818608E-02  0.9820808E-01
         -2   -1    0    0    0  501 -0.00000000000E+00  0.00000000000E+00  0.24344295688E+03  0.24344295690E+03  0.25500000000E-02 0. -1.
          2   -1    0    0  501    0  0.00000000000E+00 -0.00000000000E+00 -0.42402672974E+03  0.42402672975E+03  0.25500000000E-02 0.  1.
    5000001    1    1    2    0    0 -0.25093392537E+03  0.36679244440E+02  0.22007824782E+02  0.30335218184E+03  0.16500000000E+03 0.  0.
   -5000001    1    1    2    0    0  0.25093392537E+03 -0.36679244440E+02 -0.20259159764E+03  0.36411750481E+03  0.16500000000E+03 0.  0.
<mgrwt>
<rscale>  0 0.64257706E+03</rscale>
<asrwt>0</asrwt>
<pdfrwt beam="1">  1        2 0.65234882E-01 0.64257706E+03</pdfrwt>
<pdfrwt beam="2">  1       -2 0.37452763E-01 0.64257706E+03</pdfrwt>
<totfact> 0.50425596E+02</totfact>
</mgrwt>
</event>
<event>
 4    1  0.8877834E-005  0.6510986E+03  0.7818608E-02  0.9804720E-01
          2   -1    0    0  501    0  0.00000000000E+00  0.00000000000E+00  0.16254387912E+04  0.16254387912E+04  0.25500000000E-02 0.  1.
         -2   -1    0    0    0  501 -0.00000000000E+00 -0.00000000000E+00 -0.65202303150E+02  0.65202303199E+02  0.25500000000E-02 0. -1.
    5000001    1    1    2    0    0 -0.67895250942E+02  0.16245233377E+03  0.21267506589E+03  0.32164609356E+03  0.16500000000E+03 0.  0.
   -5000001    1    1    2    0    0  0.67895250942E+02 -0.16245233377E+03  0.13475614222E+04  0.13689950009E+04  0.16500000000E+03 0.  0.
<mgrwt>
<rscale>  0 0.65109862E+03</rscale>
<asrwt>0</asrwt>
<pdfrwt beam="1">  1        2 0.25006749E+00 0.65109862E+03</pdfrwt>
<pdfrwt beam="2">  1       -2 0.10031124E-01 0.65109862E+03</pdfrwt>
<totfact> 0.75184379E+02</totfact>
</mgrwt>
</event>
<event>
 4    1  0.8877834E-005  0.4807190E+03  0.7818608E-02  0.1018938E+00
          2   -1    0    0  501    0  0.00000000000E+00  0.00000000000E+00  0.38026900755E+03  0.38026900756E+03  0.25500000000E-02 0.  1.
         -2   -1    0    0    0  501 -0.00000000000E+00 -0.00000000000E+00 -0.15192586138E+03  0.15192586140E+03  0.25500000000E-02 0. -1.
    5000001    1    1    2    0    0 -0.26802319635E+02  0.15322916073E+03  0.20239249307E+03  0.30394943871E+03  0.16500000000E+03 0.  0.
   -5000001    1    1    2    0    0  0.26802319635E+02 -0.15322916073E+03  0.25950653099E+02  0.22824543026E+03  0.16500000000E+03 0.  0.
<mgrwt>
<rscale>  0 0.48071903E+03</rscale>
<asrwt>0</asrwt>
<pdfrwt beam="1">  1        2 0.58502923E-01 0.48071903E+03</pdfrwt>
<pdfrwt beam="2">  1       -2 0.23373210E-01 0.48071903E+03</pdfrwt>
<totfact> 0.13599650E+03</totfact>
</mgrwt>
</event>
<event>
 4    1  0.8877834E-005  0.3722145E+03  0.7818608E-02  0.1053849E+00
          2   -1    0    0  501    0  0.00000000000E+00  0.00000000000E+00  0.10588185495E+03  0.10588185498E+03  0.25500000000E-02 0.  1.
         -2   -1    0    0    0  501 -0.00000000000E+00 -0.00000000000E+00 -0.32711850702E+03  0.32711850703E+03  0.25500000000E-02 0. -1.
    5000001    1    1    2    0    0  0.97709567699E+01  0.66006712238E+02 -0.47342928646E+02  0.18417033026E+03  0.16500000000E+03 0.  0.
   -5000001    1    1    2    0    0 -0.97709567699E+01 -0.66006712238E+02 -0.17389372343E+03  0.24883003176E+03  0.16500000000E+03 0.  0.
<mgrwt>
<rscale>  0 0.37221453E+03</rscale>
<asrwt>0</asrwt>
<pdfrwt beam="1">  1        2 0.16289516E-01 0.37221453E+03</pdfrwt>
<pdfrwt beam="2">  1       -2 0.50325924E-01 0.37221453E+03</pdfrwt>
<totfact> 0.13475498E+03</totfact>
</mgrwt>
</event>
<event>
 4    1  0.8877834E-005  0.3909196E+03  0.7818608E-02  0.1046970E+00
          2   -1    0    0  501    0  0.00000000000E+00  0.00000000000E+00  0.29551792084E+04  0.29551792084E+04  0.25500000000E-02 0.  1.
         -2   -1    0    0    0  501 -0.00000000000E+00 -0.00000000000E+00 -0.12927994431E+02  0.12927994683E+02  0.25500000000E-02 0. -1.
    5000001    1    1    2    0    0  0.92697206452E+02 -0.41488238096E+02  0.16669940222E+04  0.16782157538E+04  0.16500000000E+03 0.  0.
   -5000001    1    1    2    0    0 -0.92697206452E+02  0.41488238096E+02  0.12752571918E+04  0.12898914494E+04  0.16500000000E+03 0.  0.
<mgrwt>
<rscale>  0 0.39091964E+03</rscale>
<asrwt>0</asrwt>
<pdfrwt beam="1">  1        2 0.45464302E+00 0.39091964E+03</pdfrwt>
<pdfrwt beam="2">  1       -2 0.19889220E-02 0.39091964E+03</pdfrwt>
<totfact> 0.17014468E+03</totfact>
</mgrwt>
</event>
<event>
 4    1  0.8877834E-005  0.1387650E+04  0.7818608E-02  0.8962807E-01
          2   -1    0    0  501    0  0.00000000000E+00  0.00000000000E+00  0.21264834133E+04  0.21264834133E+04  0.25500000000E-02 0.  1.
         -2   -1    0    0    0  501 -0.00000000000E+00 -0.00000000000E+00 -0.22638006493E+03  0.22638006495E+03  0.25500000000E-02 0. -1.
    5000001    1    1    2    0    0  0.37018397725E+03 -0.56289227607E+03  0.97865423337E+03  0.11995303247E+04  0.16500000000E+03 0.  0.
   -5000001    1    1    2    0    0 -0.37018397725E+03  0.56289227607E+03  0.92144911503E+03  0.11533331535E+04  0.16500000000E+03 0.  0.
<mgrwt>
<rscale>  0 0.13876505E+04</rscale>
<asrwt>0</asrwt>
<pdfrwt beam="1">  1        2 0.32715129E+00 0.13876505E+04</pdfrwt>
<pdfrwt beam="2">  1       -2 0.34827702E-01 0.13876505E+04</pdfrwt>
<totfact> 0.42833933E+01</totfact>
</mgrwt>
</event>
<event>
 4    1  0.8877834E-005  0.4469108E+03  0.7818608E-02  0.1028647E+00
          2   -1    0    0  501    0  0.00000000000E+00  0.00000000000E+00  0.40666103608E+03  0.40666103609E+03  0.25500000000E-02 0.  1.
         -2   -1    0    0    0  501 -0.00000000000E+00 -0.00000000000E+00 -0.12278611041E+03  0.12278611044E+03  0.25500000000E-02 0. -1.
    5000001    1    1    2    0    0 -0.12965073644E+02 -0.91568377044E+02  0.28288206879E+03  0.34029417517E+03  0.16500000000E+03 0.  0.
   -5000001    1    1    2    0    0  0.12965073644E+02  0.91568377044E+02  0.99285687742E+00  0.18915297136E+03  0.16500000000E+03 0.  0.
<mgrwt>
<rscale>  0 0.44691085E+03</rscale>
<asrwt>0</asrwt>
<pdfrwt beam="1">  1        2 0.62563237E-01 0.44691085E+03</pdfrwt>
<pdfrwt beam="2">  1       -2 0.18890171E-01 0.44691085E+03</pdfrwt>
<totfact> 0.18297612E+03</totfact>
</mgrwt>
</event>
<event>
 4    1  0.8877834E-005  0.5130978E+03  0.7818608E-02  0.1010416E+00
         -2   -1    0    0    0  501 -0.00000000000E+00  0.00000000000E+00  0.29981868554E+03  0.29981868555E+03  0.25500000000E-02 0. -1.
          2   -1    0    0  501    0  0.00000000000E+00 -0.00000000000E+00 -0.21952377186E+03  0.21952377187E+03  0.25500000000E-02 0.  1.
    5000001    1    1    2    0    0  0.17862111419E+03 -0.40125427492E+02  0.11226612925E+03  0.27082141005E+03  0.16500000000E+03 0.  0.
   -5000001    1    1    2    0    0 -0.17862111419E+03  0.40125427492E+02 -0.31971215562E+02  0.24852104738E+03  0.16500000000E+03 0.  0.
<mgrwt>
<rscale>  0 0.51309776E+03</rscale>
<asrwt>0</asrwt>
<pdfrwt beam="1">  1        2 0.33772888E-01 0.51309776E+03</pdfrwt>
<pdfrwt beam="2">  1       -2 0.46125951E-01 0.51309776E+03</pdfrwt>
<totfact> 0.69771528E+02</totfact>
</mgrwt>
</event>
<event>
 4    1  0.8877834E-005  0.8297921E+03  0.7818608E-02  0.9517868E-01
         -2   -1    0    0    0  501 -0.00000000000E+00  0.00000000000E+00  0.38436393363E+03  0.38436393364E+03  0.25500000000E-02 0. -1.
          2   -1    0    0  501    0  0.00000000000E+00 -0.00000000000E+00 -0.44785350870E+03  0.44785350871E+03  0.25500000000E-02 0.  1.
    5000001    1    1    2    0    0  0.69190940712E+02  0.22136007096E+03  0.27100847442E+03  0.39301178163E+03  0.16500000000E+03 0.  0.
   -5000001    1    1    2    0    0 -0.69190940712E+02 -0.22136007096E+03 -0.33449804949E+03  0.43920566072E+03  0.16500000000E+03 0.  0.
<mgrwt>
<rscale>  0 0.82979211E+03</rscale>
<asrwt>0</asrwt>
<pdfrwt beam="1">  1        2 0.68900540E-01 0.82979211E+03</pdfrwt>
<pdfrwt beam="2">  1       -2 0.59132913E-01 0.82979211E+03</pdfrwt>
<totfact> 0.18801459E+02</totfact>
</mgrwt>
</event>
<event>
 4    1  0.8877834E-005  0.4441751E+03  0.7818608E-02  0.1029473E+00
          2   -1    0    0  501    0  0.00000000000E+00  0.00000000000E+00  0.36550637060E+03  0.36550637061E+03  0.25500000000E-02 0.  1.
         -2   -1    0    0    0  501 -0.00000000000E+00 -0.00000000000E+00 -0.13494398205E+03  0.13494398207E+03  0.25500000000E-02 0. -1.
    5000001    1    1    2    0    0  0.11402242677E+03 -0.54851195645E+02  0.27369168860E+02  0.20972324352E+03  0.16500000000E+03 0.  0.
   -5000001    1    1    2    0    0 -0.11402242677E+03  0.54851195645E+02  0.20319321969E+03  0.29072710916E+03  0.16500000000E+03 0.  0.
<mgrwt>
<rscale>  0 0.44417512E+03</rscale>
<asrwt>0</asrwt>
<pdfrwt beam="1">  1        2 0.56231749E-01 0.44417512E+03</pdfrwt>
<pdfrwt beam="2">  1       -2 0.20760613E-01 0.44417512E+03</pdfrwt>
<totfact> 0.17484601E+03</totfact>
</mgrwt>
</event>
<event>
 4    1  0.8877834E-005  0.5910325E+03  0.7818608E-02  0.9924187E-01
         -2   -1    0    0    0  501 -0.00000000000E+00  0.00000000000E+00  0.17904262638E+03  0.17904262640E+03  0.25500000000E-02 0. -1.
          2   -1    0    0  501    0  0.00000000000E+00 -0.00000000000E+00 -0.48776013310E+03  0.48776013310E+03  0.25500000000E-02 0.  1.
    5000001    1    1    2    0    0  0.21219465757E+03  0.11981437186E+03 -0.18469031397E+03  0.34744433868E+03  0.16500000000E+03 0.  0.
   -5000001    1    1    2    0    0 -0.21219465757E+03 -0.11981437186E+03 -0.12402719275E+03  0.31935842082E+03  0.16500000000E+03 0.  0.
<mgrwt>
<rscale>  0 0.59103250E+03</rscale>
<asrwt>0</asrwt>
<pdfrwt beam="1">  1        2 0.75040020E-01 0.59103250E+03</pdfrwt>
<pdfrwt beam="2">  1       -2 0.27545020E-01 0.59103250E+03</pdfrwt>
<totfact> 0.76486230E+02</totfact>
</mgrwt>
</event>
<event>
 4    1  0.8877834E-005  0.3481123E+03  0.7818608E-02  0.1063393E+00
          2   -1    0    0  501    0  0.00000000000E+00  0.00000000000E+00  0.33504983036E+03  0.33504983037E+03  0.25500000000E-02 0.  1.
         -2   -1    0    0    0  501 -0.00000000000E+00 -0.00000000000E+00 -0.90420987671E+02  0.90420987707E+02  0.25500000000E-02 0. -1.
    5000001    1    1    2    0    0 -0.46376541148E+02 -0.25916408356E+02  0.10306323324E+03  0.20166673954E+03  0.16500000000E+03 0.  0.
   -5000001    1    1    2    0    0  0.46376541148E+02  0.25916408356E+02  0.14156560945E+03  0.22380407854E+03  0.16500000000E+03 0.  0.
<mgrwt>
<rscale>  0 0.34811226E+03</rscale>
<asrwt>0</asrwt>
<pdfrwt beam="1">  1        2 0.51546127E-01 0.34811226E+03</pdfrwt>
<pdfrwt beam="2">  1       -2 0.13910921E-01 0.34811226E+03</pdfrwt>
<totfact> 0.37729348E+03</totfact>
</mgrwt>
</event>
<event>
 4    1  0.8877834E-005  0.5858222E+03  0.7818608E-02  0.9935265E-01
         -2   -1    0    0    0  501 -0.00000000000E+00  0.00000000000E+00  0.96651472538E+02  0.96651472571E+02  0.25500000000E-02 0.  1.
          2   -1    0    0  501    0  0.00000000000E+00 -0.00000000000E+00 -0.88769390197E+03  0.88769390197E+03  0.25500000000E-02 0. -1.
    5000001    1    1    2    0    0 -0.14005337429E+03  0.15901086724E+03 -0.19904683551E+03  0.33428138787E+03  0.16500000000E+03 0.  0.
   -5000001    1    1    2    0    0  0.14005337429E+03 -0.15901086724E+03 -0.59199559392E+03  0.65006398668E+03  0.16500000000E+03 0.  0.
<mgrwt>
<rscale>  0 0.58582224E+03</rscale>
<asrwt>0</asrwt>
<pdfrwt beam="1">  1        2 0.13656829E+00 0.58582224E+03</pdfrwt>
<pdfrwt beam="2">  1       -2 0.14869458E-01 0.58582224E+03</pdfrwt>
<totfact> 0.10695267E+03</totfact>
</mgrwt>
</event>
<event>
 4    1  0.8877834E-005  0.5790457E+03  0.7818608E-02  0.9949859E-01
         -2   -1    0    0    0  501 -0.00000000000E+00  0.00000000000E+00  0.10134292712E+04  0.10134292712E+04  0.25500000000E-02 0. -1.
          2   -1    0    0  501    0  0.00000000000E+00 -0.00000000000E+00 -0.82712721251E+02  0.82712721291E+02  0.25500000000E-02 0.  1.
    5000001    1    1    2    0    0 -0.56711949187E+02  0.20407377576E+03  0.26028143557E+03  0.37394354766E+03  0.16500000000E+03 0.  0.
   -5000001    1    1    2    0    0  0.56711949187E+02 -0.20407377576E+03  0.67043511442E+03  0.72219844487E+03  0.16500000000E+03 0.  0.
<mgrwt>
<rscale>  0 0.57904574E+03</rscale>
<asrwt>0</asrwt>
<pdfrwt beam="1">  1        2 0.12725033E-01 0.57904574E+03</pdfrwt>
<pdfrwt beam="2">  1       -2 0.15591220E+00 0.57904574E+03</pdfrwt>
<totfact> 0.13502076E+02</totfact>
</mgrwt>
</event>
<event>
 4    1  0.8877834E-005  0.5687794E+03  0.7818608E-02  0.9972383E-01
          2   -1    0    0  501    0  0.00000000000E+00  0.00000000000E+00  0.25086139854E+04  0.25086139854E+04  0.25500000000E-02 0.  1.
         -2   -1    0    0    0  501 -0.00000000000E+00 -0.00000000000E+00 -0.32239919332E+02  0.32239919433E+02  0.25500000000E-02 0. -1.
    5000001    1    1    2    0    0 -0.78573929030E+02  0.13976817759E+02  0.26680584126E+03  0.32369672641E+03  0.16500000000E+03 0.  0.
   -5000001    1    1    2    0    0  0.78573929030E+02 -0.13976817759E+02  0.22095682248E+04  0.22171571784E+04  0.16500000000E+03 0.  0.
<mgrwt>
<rscale>  0 0.56877944E+03</rscale>
<asrwt>0</asrwt>
<pdfrwt beam="1">  1        2 0.38594048E+00 0.56877944E+03</pdfrwt>
<pdfrwt beam="2">  1       -2 0.49599894E-02 0.56877944E+03</pdfrwt>
<totfact> 0.75818879E+02</totfact>
</mgrwt>
</event>
<event>
 4    1  0.8877834E-005  0.6792835E+03  0.7818608E-02  0.9753331E-01
          2   -1    0    0  501    0  0.00000000000E+00  0.00000000000E+00  0.10069045627E+04  0.10069045627E+04  0.25500000000E-02 0.  1.
         -2   -1    0    0    0  501 -0.00000000000E+00 -0.00000000000E+00 -0.11456548159E+03  0.11456548162E+03  0.25500000000E-02 0. -1.
    5000001    1    1    2    0    0 -0.13250653898E+03 -0.25282861125E+03  0.58081359512E+03  0.66786953951E+03  0.16500000000E+03 0.  0.
   -5000001    1    1    2    0    0  0.13250653898E+03  0.25282861125E+03  0.31152548596E+03  0.45360050478E+03  0.16500000000E+03 0.  0.
<mgrwt>
<rscale>  0 0.67928346E+03</rscale>
<asrwt>0</asrwt>
<pdfrwt beam="1">  1        2 0.15490839E+00 0.67928346E+03</pdfrwt>
<pdfrwt beam="2">  1       -2 0.17625459E-01 0.67928346E+03</pdfrwt>
<totfact> 0.66791372E+02</totfact>
</mgrwt>
</event>
<event>
 4    1  0.8877834E-005  0.7601589E+03  0.7818608E-02  0.9619546E-01
         -2   -1    0    0    0  501 -0.00000000000E+00  0.00000000000E+00  0.77903346032E+02  0.77903346074E+02  0.25500000000E-02 0. -1.
          2   -1    0    0  501    0  0.00000000000E+00 -0.00000000000E+00 -0.18543542100E+04  0.18543542100E+04  0.25500000000E-02 0.  1.
    5000001    1    1    2    0    0 -0.22012129487E+03  0.19365994622E+03 -0.13377764464E+04  0.13794304548E+04  0.16500000000E+03 0.  0.
   -5000001    1    1    2    0    0  0.22012129487E+03 -0.19365994622E+03 -0.43867441758E+03  0.55282710124E+03  0.16500000000E+03 0.  0.
<mgrwt>
<rscale>  0 0.76015892E+03</rscale>
<asrwt>0</asrwt>
<pdfrwt beam="1">  1        2 0.28528523E+00 0.76015892E+03</pdfrwt>
<pdfrwt beam="2">  1       -2 0.11985132E-01 0.76015892E+03</pdfrwt>
<totfact> 0.41842619E+02</totfact>
</mgrwt>
</event>
<event>
 4    1  0.8877834E-005  0.3871103E+03  0.7818608E-02  0.1048337E+00
         -2   -1    0    0    0  501 -0.00000000000E+00  0.00000000000E+00  0.14288035136E+02  0.14288035364E+02  0.25500000000E-02 0.  1.
          2   -1    0    0  501    0  0.00000000000E+00 -0.00000000000E+00 -0.26220258260E+04  0.26220258260E+04  0.25500000000E-02 0. -1.
    5000001    1    1    2    0    0  0.79878845881E+02 -0.62084453202E+02 -0.12911498129E+04  0.13055757154E+04  0.16500000000E+03 0.  0.
   -5000001    1    1    2    0    0 -0.79878845881E+02  0.62084453202E+02 -0.13165879780E+04  0.13307381460E+04  0.16500000000E+03 0.  0.
<mgrwt>
<rscale>  0 0.38711031E+03</rscale>
<asrwt>0</asrwt>
<pdfrwt beam="1">  1        2 0.40338821E+00 0.38711031E+03</pdfrwt>
<pdfrwt beam="2">  1       -2 0.21981614E-02 0.38711031E+03</pdfrwt>
<totfact> 0.22857054E+03</totfact>
</mgrwt>
</event>
<event>
 4    1  0.8877834E-005  0.4240534E+03  0.7818608E-02  0.1035755E+00
          2   -1    0    0  501    0  0.00000000000E+00  0.00000000000E+00  0.20528257141E+04  0.20528257141E+04  0.25500000000E-02 0.  1.
         -2   -1    0    0    0  501 -0.00000000000E+00 -0.00000000000E+00 -0.21899239903E+02  0.21899240052E+02  0.25500000000E-02 0. -1.
    5000001    1    1    2    0    0 -0.80606111496E+02 -0.51771691644E+02  0.56299215987E+03  0.59444329027E+03  0.16500000000E+03 0.  0.
   -5000001    1    1    2    0    0  0.80606111496E+02  0.51771691644E+02  0.14679343144E+04  0.14802816639E+04  0.16500000000E+03 0.  0.
<mgrwt>
<rscale>  0 0.42405341E+03</rscale>
<asrwt>0</asrwt>
<pdfrwt beam="1">  1        2 0.31581943E+00 0.42405341E+03</pdfrwt>
<pdfrwt beam="2">  1       -2 0.33691129E-02 0.42405341E+03</pdfrwt>
<totfact> 0.24609740E+03</totfact>
</mgrwt>
</event>
<event>
 4    1  0.8877834E-005  0.9844996E+03  0.7818608E-02  0.9325711E-01
         -2   -1    0    0    0  501 -0.00000000000E+00  0.00000000000E+00  0.51062528437E+03  0.51062528437E+03  0.25500000000E-02 0. -1.
          2   -1    0    0  501    0  0.00000000000E+00 -0.00000000000E+00 -0.47453562589E+03  0.47453562590E+03  0.25500000000E-02 0.  1.
    5000001    1    1    2    0    0 -0.42802298570E+03  0.16858819029E+03  0.76899593220E+02  0.49473649717E+03  0.16500000000E+03 0.  0.
   -5000001    1    1    2    0    0  0.42802298570E+03 -0.16858819029E+03 -0.40809934741E+02  0.49042441310E+03  0.16500000000E+03 0.  0.
<mgrwt>
<rscale>  0 0.98449965E+03</rscale>
<asrwt>0</asrwt>
<pdfrwt beam="1">  1        2 0.73005481E-01 0.98449965E+03</pdfrwt>
<pdfrwt beam="2">  1       -2 0.78557736E-01 0.98449965E+03</pdfrwt>
<totfact> 0.94210434E+01</totfact>
</mgrwt>
</event>
<event>
 4    1  0.8877834E-005  0.4005796E+03  0.7818608E-02  0.1043579E+00
          2   -1    0    0  501    0  0.00000000000E+00  0.00000000000E+00  0.54220620537E+03  0.54220620538E+03  0.25500000000E-02 0.  1.
         -2   -1    0    0    0  501 -0.00000000000E+00 -0.00000000000E+00 -0.73986611481E+02  0.73986611525E+02  0.25500000000E-02 0. -1.
    5000001    1    1    2    0    0 -0.56331410334E+02  0.86884955261E+02  0.16247315199E+03  0.25366266647E+03  0.16500000000E+03 0.  0.
   -5000001    1    1    2    0    0  0.56331410334E+02 -0.86884955261E+02  0.30574644190E+03  0.36253015044E+03  0.16500000000E+03 0.  0.
<mgrwt>
<rscale>  0 0.40057958E+03</rscale>
<asrwt>0</asrwt>
<pdfrwt beam="1">  1        2 0.83416340E-01 0.40057958E+03</pdfrwt>
<pdfrwt beam="2">  1       -2 0.11382556E-01 0.40057958E+03</pdfrwt>
<totfact> 0.30750788E+03</totfact>
</mgrwt>
</event>
<event>
 4    1  0.8877834E-005  0.6972785E+03  0.7818608E-02  0.9721898E-01
          2   -1    0    0  501    0  0.00000000000E+00  0.00000000000E+00  0.13362644790E+04  0.13362644790E+04  0.25500000000E-02 0. -1.
         -2   -1    0    0    0  501 -0.00000000000E+00 -0.00000000000E+00 -0.90962020455E+02  0.90962020491E+02  0.25500000000E-02 0.  1.
    5000001    1    1    2    0    0  0.17610528083E+03  0.23375237211E+03  0.43205112783E+03  0.54730833948E+03  0.16500000000E+03 0.  0.
   -5000001    1    1    2    0    0 -0.17610528083E+03 -0.23375237211E+03  0.81325133067E+03  0.87991815997E+03  0.16500000000E+03 0.  0.
<mgrwt>
<rscale>  0 0.69727847E+03</rscale>
<asrwt>0</asrwt>
<pdfrwt beam="1">  1        2 0.20557916E+00 0.69727847E+03</pdfrwt>
<pdfrwt beam="2">  1       -2 0.13994156E-01 0.69727847E+03</pdfrwt>
<totfact> 0.62759459E+02</totfact>
</mgrwt>
</event>
<event>
 4    1  0.8877834E-005  0.9333110E+03  0.7818608E-02  0.9384873E-01
         -2   -1    0    0    0  501 -0.00000000000E+00  0.00000000000E+00  0.37206362138E+03  0.37206362138E+03  0.25500000000E-02 0. -1.
          2   -1    0    0  501    0  0.00000000000E+00 -0.00000000000E+00 -0.58529604574E+03  0.58529604575E+03  0.25500000000E-02 0.  1.
    5000001    1    1    2    0    0  0.38966980168E+03 -0.15711250077E+03  0.14821234937E+02  0.45163210830E+03  0.16500000000E+03 0.  0.
   -5000001    1    1    2    0    0 -0.38966980168E+03  0.15711250077E+03 -0.22805365930E+03  0.50572755883E+03  0.16500000000E+03 0.  0.
<mgrwt>
<rscale>  0 0.93331102E+03</rscale>
<asrwt>0</asrwt>
<pdfrwt beam="1">  1        2 0.90045545E-01 0.93331102E+03</pdfrwt>
<pdfrwt beam="2">  1       -2 0.57240557E-01 0.93331102E+03</pdfrwt>
<totfact> 0.14649254E+02</totfact>
</mgrwt>
</event>
<event>
 4    1  0.8877834E-005  0.4338247E+03  0.7818608E-02  0.1032659E+00
          2   -1    0    0  501    0  0.00000000000E+00  0.00000000000E+00  0.91904250873E+03  0.91904250874E+03  0.25500000000E-02 0.  1.
         -2   -1    0    0    0  501 -0.00000000000E+00 -0.00000000000E+00 -0.51195630710E+02  0.51195630773E+02  0.25500000000E-02 0. -1.
    5000001    1    1    2    0    0 -0.57594341600E+02 -0.76483300017E+02  0.20302258518E+03  0.27858566629E+03  0.16500000000E+03 0.  0.
   -5000001    1    1    2    0    0  0.57594341600E+02  0.76483300017E+02  0.66482429284E+03  0.69165247323E+03  0.16500000000E+03 0.  0.
<mgrwt>
<rscale>  0 0.43382467E+03</rscale>
<asrwt>0</asrwt>
<pdfrwt beam="1">  1        2 0.14139115E+00 0.43382467E+03</pdfrwt>
<pdfrwt beam="2">  1       -2 0.78762510E-02 0.43382467E+03</pdfrwt>
<totfact> 0.28721324E+03</totfact>
</mgrwt>
</event>
<event>
 4    1  0.8877834E-005  0.1207392E+04  0.7818608E-02  0.9106411E-01
          2   -1    0    0  501    0  0.00000000000E+00  0.00000000000E+00  0.34108233540E+04  0.34108233540E+04  0.25500000000E-02 0.  1.
         -2   -1    0    0    0  501 -0.00000000000E+00 -0.00000000000E+00 -0.10685069734E+03  0.10685069737E+03  0.25500000000E-02 0. -1.
    5000001    1    1    2    0    0 -0.10360115432E+02 -0.41120164941E+03  0.28462503912E+04  0.28805486314E+04  0.16500000000E+03 0.  0.
   -5000001    1    1    2    0    0  0.10360115432E+02  0.41120164941E+03  0.45772226548E+03  0.63712541998E+03  0.16500000000E+03 0.  0.
<mgrwt>
<rscale>  0 0.12073920E+04</rscale>
<asrwt>0</asrwt>
<pdfrwt beam="1">  1        2 0.52474195E+00 0.12073920E+04</pdfrwt>
<pdfrwt beam="2">  1       -2 0.16438572E-01 0.12073920E+04</pdfrwt>
<totfact> 0.28420981E+01</totfact>
</mgrwt>
</event>
<event>
 4    1  0.8877834E-005  0.7078353E+03  0.7818608E-02  0.9703926E-01
          2   -1    0    0  501    0  0.00000000000E+00  0.00000000000E+00  0.42046898831E+03  0.42046898831E+03  0.25500000000E-02 0.  1.
         -2   -1    0    0    0  501 -0.00000000000E+00 -0.00000000000E+00 -0.29789995796E+03  0.29789995797E+03  0.25500000000E-02 0. -1.
    5000001    1    1    2    0    0  0.20728357272E+03 -0.22131163214E+03 -0.17898203566E+02  0.34567421618E+03  0.16500000000E+03 0.  0.
   -5000001    1    1    2    0    0 -0.20728357272E+03  0.22131163214E+03  0.14046723392E+03  0.37269473010E+03  0.16500000000E+03 0.  0.
<mgrwt>
<rscale>  0 0.70783527E+03</rscale>
<asrwt>0</asrwt>
<pdfrwt beam="1">  1        2 0.64687537E-01 0.70783527E+03</pdfrwt>
<pdfrwt beam="2">  1       -2 0.45830763E-01 0.70783527E+03</pdfrwt>
<totfact> 0.34219661E+02</totfact>
</mgrwt>
</event>
<event>
 4    1  0.8877834E-005  0.5627316E+03  0.7818608E-02  0.9985893E-01
         -2   -1    0    0    0  501 -0.00000000000E+00  0.00000000000E+00  0.34483316945E+02  0.34483317039E+02  0.25500000000E-02 0. -1.
          2   -1    0    0  501    0  0.00000000000E+00 -0.00000000000E+00 -0.22957977985E+04  0.22957977985E+04  0.25500000000E-02 0.  1.
    5000001    1    1    2    0    0  0.23572121142E+02 -0.22659861709E+03 -0.11047485451E+04  0.11399986518E+04  0.16500000000E+03 0.  0.
   -5000001    1    1    2    0    0 -0.23572121142E+02  0.22659861709E+03 -0.11565659365E+04  0.11902824638E+04  0.16500000000E+03 0.  0.
<mgrwt>
<rscale>  0 0.56273163E+03</rscale>
<asrwt>0</asrwt>
<pdfrwt beam="1">  1        2 0.35319954E+00 0.56273163E+03</pdfrwt>
<pdfrwt beam="2">  1       -2 0.53051275E-02 0.56273163E+03</pdfrwt>
<totfact> 0.89745962E+02</totfact>
</mgrwt>
</event>
<event>
 4    1  0.8877834E-005  0.4198593E+03  0.7818608E-02  0.1037112E+00
          2   -1    0    0  501    0  0.00000000000E+00  0.00000000000E+00  0.92763257166E+03  0.92763257167E+03  0.25500000000E-02 0.  1.
         -2   -1    0    0    0  501 -0.00000000000E+00 -0.00000000000E+00 -0.47508522621E+02  0.47508522690E+02  0.25500000000E-02 0. -1.
    5000001    1    1    2    0    0 -0.16875354579E+02  0.84563321051E+02  0.21476676161E+03  0.28422789228E+03  0.16500000000E+03 0.  0.
   -5000001    1    1    2    0    0  0.16875354579E+02 -0.84563321051E+02  0.66535728744E+03  0.69091320208E+03  0.16500000000E+03 0.  0.
<mgrwt>
<rscale>  0 0.41985928E+03</rscale>
<asrwt>0</asrwt>
<pdfrwt beam="1">  1        2 0.14271269E+00 0.41985928E+03</pdfrwt>
<pdfrwt beam="2">  1       -2 0.73090041E-02 0.41985928E+03</pdfrwt>
<totfact> 0.31894312E+03</totfact>
</mgrwt>
</event>
<event>
 4    1  0.8877834E-005  0.4098944E+03  0.7818608E-02  0.1040406E+00
          2   -1    0    0  501    0  0.00000000000E+00  0.00000000000E+00  0.22016244459E+04  0.22016244459E+04  0.25500000000E-02 0.  1.
         -2   -1    0    0    0  501 -0.00000000000E+00 -0.00000000000E+00 -0.19078348567E+02  0.19078348737E+02  0.25500000000E-02 0. -1.
    5000001    1    1    2    0    0 -0.75102580247E+02 -0.95592478783E+02  0.10902000629E+04  0.11092968479E+04  0.16500000000E+03 0.  0.
   -5000001    1    1    2    0    0  0.75102580247E+02  0.95592478783E+02  0.10923460345E+04  0.11114059468E+04  0.16500000000E+03 0.  0.
<mgrwt>
<rscale>  0 0.40989442E+03</rscale>
<asrwt>0</asrwt>
<pdfrwt beam="1">  1        2 0.33871145E+00 0.40989442E+03</pdfrwt>
<pdfrwt beam="2">  1       -2 0.29351306E-02 0.40989442E+03</pdfrwt>
<totfact> 0.25221258E+03</totfact>
</mgrwt>
</event>
<event>
 4    1  0.8877834E-005  0.5927274E+03  0.7818608E-02  0.9920610E-01
         -2   -1    0    0    0  501 -0.00000000000E+00  0.00000000000E+00  0.27638318980E+03  0.27638318981E+03  0.25500000000E-02 0. -1.
          2   -1    0    0  501    0  0.00000000000E+00 -0.00000000000E+00 -0.31778862560E+03  0.31778862561E+03  0.25500000000E-02 0.  1.
    5000001    1    1    2    0    0  0.51875430282E+02 -0.23679776866E+03  0.22322624634E+02  0.29408764524E+03  0.16500000000E+03 0.  0.
   -5000001    1    1    2    0    0 -0.51875430282E+02  0.23679776866E+03 -0.63728060439E+02  0.30008417019E+03  0.16500000000E+03 0.  0.
<mgrwt>
<rscale>  0 0.59272737E+03</rscale>
<asrwt>0</asrwt>
<pdfrwt beam="1">  1        2 0.48890558E-01 0.59272737E+03</pdfrwt>
<pdfrwt beam="2">  1       -2 0.42520491E-01 0.59272737E+03</pdfrwt>
<totfact> 0.54399052E+02</totfact>
</mgrwt>
</event>
<event>
 4    1  0.8877834E-005  0.4987204E+03  0.7818608E-02  0.1014113E+00
         -2   -1    0    0    0  501 -0.00000000000E+00  0.00000000000E+00  0.11710161146E+03  0.11710161149E+03  0.25500000000E-02 0. -1.
          2   -1    0    0  501    0  0.00000000000E+00 -0.00000000000E+00 -0.53099620811E+03  0.53099620812E+03  0.25500000000E-02 0.  1.
    5000001    1    1    2    0    0 -0.15534859019E+02  0.86106420480E+02 -0.42166292957E+03  0.46117271566E+03  0.16500000000E+03 0.  0.
   -5000001    1    1    2    0    0  0.15534859019E+02 -0.86106420480E+02  0.77683329197E+01  0.18692510396E+03  0.16500000000E+03 0.  0.
<mgrwt>
<rscale>  0 0.49872041E+03</rscale>
<asrwt>0</asrwt>
<pdfrwt beam="1">  1        2 0.81691723E-01 0.49872041E+03</pdfrwt>
<pdfrwt beam="2">  1       -2 0.18015633E-01 0.49872041E+03</pdfrwt>
<totfact> 0.14684583E+03</totfact>
</mgrwt>
</event>
<event>
 4    1  0.8877834E-005  0.3677574E+03  0.7818608E-02  0.1055554E+00
         -2   -1    0    0    0  501 -0.00000000000E+00  0.00000000000E+00  0.23672822745E+02  0.23672822882E+02  0.25500000000E-02 0. -1.
          2   -1    0    0  501    0  0.00000000000E+00 -0.00000000000E+00 -0.14282780770E+04  0.14282780770E+04  0.25500000000E-02 0.  1.
    5000001    1    1    2    0    0 -0.56846412534E+02  0.54906082355E+02 -0.77512180598E+03  0.79642011941E+03  0.16500000000E+03 0.  0.
   -5000001    1    1    2    0    0  0.56846412534E+02 -0.54906082355E+02 -0.62948344830E+03  0.65553078050E+03  0.16500000000E+03 0.  0.
<mgrwt>
<rscale>  0 0.36775739E+03</rscale>
<asrwt>0</asrwt>
<pdfrwt beam="1">  1        2 0.21973502E+00 0.36775739E+03</pdfrwt>
<pdfrwt beam="2">  1       -2 0.36419739E-02 0.36775739E+03</pdfrwt>
<totfact> 0.47362866E+03</totfact>
</mgrwt>
</event>
<event>
 4    1  0.8877834E-005  0.4497965E+03  0.7818608E-02  0.1027783E+00
         -2   -1    0    0    0  501 -0.00000000000E+00  0.00000000000E+00  0.66819970844E+02  0.66819970892E+02  0.25500000000E-02 0. -1.
          2   -1    0    0  501    0  0.00000000000E+00 -0.00000000000E+00 -0.75694776625E+03  0.75694776625E+03  0.25500000000E-02 0.  1.
    5000001    1    1    2    0    0 -0.92878724945E+02  0.10227726310E+03 -0.46469847093E+03  0.51211011021E+03  0.16500000000E+03 0.  0.
   -5000001    1    1    2    0    0  0.92878724945E+02 -0.10227726310E+03 -0.22542932447E+03  0.31165762693E+03  0.16500000000E+03 0.  0.
<mgrwt>
<rscale>  0 0.44979652E+03</rscale>
<asrwt>0</asrwt>
<pdfrwt beam="1">  1        2 0.11645350E+00 0.44979652E+03</pdfrwt>
<pdfrwt beam="2">  1       -2 0.10279996E-01 0.44979652E+03</pdfrwt>
<totfact> 0.24269772E+03</totfact>
</mgrwt>
</event>
<event>
 4    1  0.8877834E-005  0.1717222E+04  0.7818608E-02  0.8751602E-01
          2   -1    0    0  501    0  0.00000000000E+00  0.00000000000E+00  0.10660672639E+04  0.10660672639E+04  0.25500000000E-02 0.  1.
         -2   -1    0    0    0  501 -0.00000000000E+00 -0.00000000000E+00 -0.69152573288E+03  0.69152573288E+03  0.25500000000E-02 0. -1.
    5000001    1    1    2    0    0 -0.63081309866E+03  0.42084910647E+03  0.56326083187E+03  0.95891965283E+03  0.16500000000E+03 0.  0.
   -5000001    1    1    2    0    0  0.63081309866E+03 -0.42084910647E+03 -0.18871930084E+03  0.79867334397E+03  0.16500000000E+03 0.  0.
<mgrwt>
<rscale>  0 0.17172221E+04</rscale>
<asrwt>0</asrwt>
<pdfrwt beam="1">  1        2 0.16401035E+00 0.17172221E+04</pdfrwt>
<pdfrwt beam="2">  1       -2 0.10638857E+00 0.17172221E+04</pdfrwt>
<totfact> 0.15481410E+01</totfact>
</mgrwt>
</event>
<event>
 4    1  0.8877834E-005  0.4248931E+03  0.7818608E-02  0.1035485E+00
         -2   -1    0    0    0  501 -0.00000000000E+00  0.00000000000E+00  0.14470936063E+02  0.14470936288E+02  0.25500000000E-02 0. -1.
          2   -1    0    0  501    0  0.00000000000E+00 -0.00000000000E+00 -0.31189098785E+04  0.31189098785E+04  0.25500000000E-02 0.  1.
    5000001    1    1    2    0    0  0.28833407327E+02  0.13016244049E+03 -0.14665609015E+04  0.14818230340E+04  0.16500000000E+03 0.  0.
   -5000001    1    1    2    0    0 -0.28833407327E+02 -0.13016244049E+03 -0.16378780409E+04  0.16515577808E+04  0.16500000000E+03 0.  0.
<mgrwt>
<rscale>  0 0.42489314E+03</rscale>
<asrwt>0</asrwt>
<pdfrwt beam="1">  1        2 0.47983175E+00 0.42489314E+03</pdfrwt>
<pdfrwt beam="2">  1       -2 0.22263004E-02 0.42489314E+03</pdfrwt>
<totfact> 0.11404895E+03</totfact>
</mgrwt>
</event>
<event>
 4    1  0.8877834E-005  0.5288058E+03  0.7818608E-02  0.1006522E+00
         -2   -1    0    0    0  501 -0.00000000000E+00  0.00000000000E+00  0.32622775754E+02  0.32622775854E+02  0.25500000000E-02 0. -1.
          2   -1    0    0  501    0  0.00000000000E+00 -0.00000000000E+00 -0.21429471627E+04  0.21429471627E+04  0.25500000000E-02 0.  1.
    5000001    1    1    2    0    0 -0.17649304842E+02 -0.20511913192E+03 -0.98407852296E+03  0.10188331049E+04  0.16500000000E+03 0.  0.
   -5000001    1    1    2    0    0  0.17649304842E+02  0.20511913192E+03 -0.11262458640E+04  0.11567368337E+04  0.16500000000E+03 0.  0.
<mgrwt>
<rscale>  0 0.52880577E+03</rscale>
<asrwt>0</asrwt>
<pdfrwt beam="1">  1        2 0.32968407E+00 0.52880577E+03</pdfrwt>
<pdfrwt beam="2">  1       -2 0.50188903E-02 0.52880577E+03</pdfrwt>
<totfact> 0.11884080E+03</totfact>
</mgrwt>
</event>
<event>
 4    1  0.8877834E-005  0.5375966E+03  0.7818608E-02  0.1004406E+00
          2   -1    0    0  501    0  0.00000000000E+00  0.00000000000E+00  0.22663617458E+04  0.22663617458E+04  0.25500000000E-02 0.  1.
         -2   -1    0    0    0  501 -0.00000000000E+00 -0.00000000000E+00 -0.31880403644E+02  0.31880403746E+02  0.25500000000E-02 0. -1.
    5000001    1    1    2    0    0 -0.80016715512E+02 -0.17524872842E+03  0.14975198967E+04  0.15188501021E+04  0.16500000000E+03 0.  0.
   -5000001    1    1    2    0    0  0.80016715512E+02  0.17524872842E+03  0.73696144552E+03  0.77939204754E+03  0.16500000000E+03 0.  0.
<mgrwt>
<rscale>  0 0.53759660E+03</rscale>
<asrwt>0</asrwt>
<pdfrwt beam="1">  1        2 0.34867106E+00 0.53759660E+03</pdfrwt>
<pdfrwt beam="2">  1       -2 0.49046772E-02 0.53759660E+03</pdfrwt>
<totfact> 0.10540442E+03</totfact>
</mgrwt>
</event>
<event>
 4    1  0.8877834E-005  0.1106460E+04  0.7818608E-02  0.9198918E-01
          2   -1    0    0  501    0  0.00000000000E+00  0.00000000000E+00  0.44247023081E+03  0.44247023081E+03  0.25500000000E-02 0.  1.
         -2   -1    0    0    0  501 -0.00000000000E+00 -0.00000000000E+00 -0.69171520667E+03  0.69171520667E+03  0.25500000000E-02 0. -1.
    5000001    1    1    2    0    0  0.17323384128E+02  0.52765908337E+03 -0.13557571222E+03  0.56949976439E+03  0.16500000000E+03 0.  0.
   -5000001    1    1    2    0    0 -0.17323384128E+02 -0.52765908337E+03 -0.11366926364E+03  0.56468567309E+03  0.16500000000E+03 0.  0.
<mgrwt>
<rscale>  0 0.11064599E+04</rscale>
<asrwt>0</asrwt>
<pdfrwt beam="1">  1        2 0.68072343E-01 0.11064599E+04</pdfrwt>
<pdfrwt beam="2">  1       -2 0.10641772E+00 0.11064599E+04</pdfrwt>
<totfact> 0.50089746E+01</totfact>
</mgrwt>
</event>
<event>
 4    1  0.8877834E-005  0.5697623E+03  0.7818608E-02  0.9970205E-01
         -2   -1    0    0    0  501 -0.00000000000E+00  0.00000000000E+00  0.60334567207E+02  0.60334567261E+02  0.25500000000E-02 0. -1.
          2   -1    0    0  501    0  0.00000000000E+00 -0.00000000000E+00 -0.13451207577E+04  0.13451207577E+04  0.25500000000E-02 0.  1.
    5000001    1    1    2    0    0  0.44771990434E+02  0.12472285658E+03 -0.11128356980E+04  0.11327791544E+04  0.16500000000E+03 0.  0.
   -5000001    1    1    2    0    0 -0.44771990434E+02 -0.12472285658E+03 -0.17195049249E+03  0.27267617048E+03  0.16500000000E+03 0.  0.
<mgrwt>
<rscale>  0 0.56976233E+03</rscale>
<asrwt>0</asrwt>
<pdfrwt beam="1">  1        2 0.20694163E+00 0.56976233E+03</pdfrwt>
<pdfrwt beam="2">  1       -2 0.92822421E-02 0.56976233E+03</pdfrwt>
<totfact> 0.12239955E+03</totfact>
</mgrwt>
</event>
<event>
 4    1  0.8877834E-005  0.5667076E+03  0.7818608E-02  0.9976991E-01
         -2   -1    0    0    0  501 -0.00000000000E+00  0.00000000000E+00  0.24698308764E+02  0.24698308895E+02  0.25500000000E-02 0. -1.
          2   -1    0    0  501    0  0.00000000000E+00 -0.00000000000E+00 -0.32508049503E+04  0.32508049503E+04  0.25500000000E-02 0.  1.
    5000001    1    1    2    0    0  0.85481479694E+02  0.21341134919E+03 -0.15287190627E+04  0.15546891843E+04  0.16500000000E+03 0.  0.
   -5000001    1    1    2    0    0 -0.85481479694E+02 -0.21341134919E+03 -0.16973875789E+04  0.17208140749E+04  0.16500000000E+03 0.  0.
<mgrwt>
<rscale>  0 0.56670763E+03</rscale>
<asrwt>0</asrwt>
<pdfrwt beam="1">  1        2 0.50012350E+00 0.56670763E+03</pdfrwt>
<pdfrwt beam="2">  1       -2 0.37997424E-02 0.56670763E+03</pdfrwt>
<totfact> 0.41267614E+02</totfact>
</mgrwt>
</event>
<event>
 4    1  0.8877834E-005  0.4942696E+03  0.7818608E-02  0.1015286E+00
         -2   -1    0    0    0  501 -0.00000000000E+00  0.00000000000E+00  0.48423884905E+02  0.48423884972E+02  0.25500000000E-02 0. -1.
          2   -1    0    0  501    0  0.00000000000E+00 -0.00000000000E+00 -0.12612705230E+04  0.12612705230E+04  0.25500000000E-02 0.  1.
    5000001    1    1    2    0    0  0.12420397958E+03 -0.10089653833E+03 -0.36583649653E+03  0.43205101804E+03  0.16500000000E+03 0.  0.
   -5000001    1    1    2    0    0 -0.12420397958E+03  0.10089653833E+03 -0.84701014155E+03  0.87764338993E+03  0.16500000000E+03 0.  0.
<mgrwt>
<rscale>  0 0.49426964E+03</rscale>
<asrwt>0</asrwt>
<pdfrwt beam="1">  1        2 0.19404159E+00 0.49426964E+03</pdfrwt>
<pdfrwt beam="2">  1       -2 0.74498294E-02 0.49426964E+03</pdfrwt>
<totfact> 0.19443189E+03</totfact>
</mgrwt>
</event>
<event>
 4    1  0.8877834E-005  0.4525452E+03  0.7818608E-02  0.1026966E+00
          2   -1    0    0  501    0  0.00000000000E+00  0.00000000000E+00  0.28887778692E+03  0.28887778693E+03  0.25500000000E-02 0.  1.
         -2   -1    0    0    0  501 -0.00000000000E+00 -0.00000000000E+00 -0.17723515963E+03  0.17723515965E+03  0.25500000000E-02 0. -1.
    5000001    1    1    2    0    0  0.13370672502E+03  0.68917131101E+02  0.93626542130E+02  0.24211152114E+03  0.16500000000E+03 0.  0.
   -5000001    1    1    2    0    0 -0.13370672502E+03 -0.68917131101E+02  0.18016085164E+02  0.22400142544E+03  0.16500000000E+03 0.  0.
<mgrwt>
<rscale>  0 0.45254525E+03</rscale>
<asrwt>0</asrwt>
<pdfrwt beam="1">  1        2 0.44442736E-01 0.45254525E+03</pdfrwt>
<pdfrwt beam="2">  1       -2 0.27266948E-01 0.45254525E+03</pdfrwt>
<totfact> 0.13958970E+03</totfact>
</mgrwt>
</event>
<event>
 4    1  0.8877834E-005  0.6474512E+03  0.7818608E-02  0.9811574E-01
          2   -1    0    0  501    0  0.00000000000E+00  0.00000000000E+00  0.31832011173E+04  0.31832011173E+04  0.25500000000E-02 0. -1.
         -2   -1    0    0    0  501 -0.00000000000E+00 -0.00000000000E+00 -0.32922283919E+02  0.32922284018E+02  0.25500000000E-02 0.  1.
    5000001    1    1    2    0    0  0.23087330449E+03  0.14099033140E+03  0.12459231233E+04  0.12855855419E+04  0.16500000000E+03 0.  0.
   -5000001    1    1    2    0    0 -0.23087330449E+03 -0.14099033140E+03  0.19043557101E+04  0.19305378594E+04  0.16500000000E+03 0.  0.
<mgrwt>
<rscale>  0 0.64745116E+03</rscale>
<asrwt>0</asrwt>
<pdfrwt beam="1">  1        2 0.48972330E+00 0.64745116E+03</pdfrwt>
<pdfrwt beam="2">  1       -2 0.50649663E-02 0.64745116E+03</pdfrwt>
<totfact> 0.28946277E+02</totfact>
</mgrwt>
</event>
<event>
 4    1  0.8877834E-005  0.6234277E+03  0.7818608E-02  0.9857959E-01
         -2   -1    0    0    0  501 -0.00000000000E+00  0.00000000000E+00  0.15019431353E+03  0.15019431355E+03  0.25500000000E-02 0. -1.
          2   -1    0    0  501    0  0.00000000000E+00 -0.00000000000E+00 -0.64693216367E+03  0.64693216368E+03  0.25500000000E-02 0.  1.
    5000001    1    1    2    0    0  0.95100504453E+02  0.17828029426E+03 -0.30205801689E+02  0.26261256581E+03  0.16500000000E+03 0.  0.
   -5000001    1    1    2    0    0 -0.95100504453E+02 -0.17828029426E+03 -0.46653204845E+03  0.53451391142E+03  0.16500000000E+03 0.  0.
<mgrwt>
<rscale>  0 0.62342773E+03</rscale>
<asrwt>0</asrwt>
<pdfrwt beam="1">  1        2 0.99528023E-01 0.62342773E+03</pdfrwt>
<pdfrwt beam="2">  1       -2 0.23106818E-01 0.62342773E+03</pdfrwt>
<totfact> 0.75099479E+02</totfact>
</mgrwt>
</event>
<event>
 4    1  0.8877834E-005  0.4737383E+03  0.7818608E-02  0.1020870E+00
         -2   -1    0    0    0  501 -0.00000000000E+00  0.00000000000E+00  0.40027063452E+02  0.40027063533E+02  0.25500000000E-02 0. -1.
          2   -1    0    0  501    0  0.00000000000E+00 -0.00000000000E+00 -0.14017264209E+04  0.14017264209E+04  0.25500000000E-02 0.  1.
    5000001    1    1    2    0    0 -0.12455357584E+03 -0.11555472043E+03 -0.69283361094E+03  0.73219526024E+03  0.16500000000E+03 0.  0.
   -5000001    1    1    2    0    0  0.12455357584E+03  0.11555472043E+03 -0.66886574648E+03  0.70955822417E+03  0.16500000000E+03 0.  0.
<mgrwt>
<rscale>  0 0.47373829E+03</rscale>
<asrwt>0</asrwt>
<pdfrwt beam="1">  1        2 0.21565018E+00 0.47373829E+03</pdfrwt>
<pdfrwt beam="2">  1       -2 0.61580108E-02 0.47373829E+03</pdfrwt>
<totfact> 0.21858312E+03</totfact>
</mgrwt>
</event>
<event>
 4    1  0.8877834E-005  0.8594168E+03  0.7818608E-02  0.9477785E-01
          2   -1    0    0  501    0  0.00000000000E+00  0.00000000000E+00  0.55467076413E+03  0.55467076414E+03  0.25500000000E-02 0.  1.
         -2   -1    0    0    0  501 -0.00000000000E+00 -0.00000000000E+00 -0.33289890561E+03  0.33289890562E+03  0.25500000000E-02 0. -1.
    5000001    1    1    2    0    0 -0.37847921308E+03  0.87458081054E+02  0.27437665793E+02  0.42293410382E+03  0.16500000000E+03 0.  0.
   -5000001    1    1    2    0    0  0.37847921308E+03 -0.87458081054E+02  0.19433419272E+03  0.46463556594E+03  0.16500000000E+03 0.  0.
<mgrwt>
<rscale>  0 0.85941676E+03</rscale>
<asrwt>0</asrwt>
<pdfrwt beam="1">  1        2 0.85333963E-01 0.85941676E+03</pdfrwt>
<pdfrwt beam="2">  1       -2 0.51215217E-01 0.85941676E+03</pdfrwt>
<totfact> 0.19735124E+02</totfact>
</mgrwt>
</event>
<event>
 4    1  0.8877834E-005  0.7200929E+03  0.7818608E-02  0.9683475E-01
         -2   -1    0    0    0  501 -0.00000000000E+00  0.00000000000E+00  0.45588916212E+03  0.45588916213E+03  0.25500000000E-02 0. -1.
          2   -1    0    0  501    0  0.00000000000E+00 -0.00000000000E+00 -0.28435297684E+03  0.28435297685E+03  0.25500000000E-02 0.  1.
    5000001    1    1    2    0    0  0.29724904790E+03 -0.11650709680E+03  0.63303927075E+02  0.36491545221E+03  0.16500000000E+03 0.  0.
   -5000001    1    1    2    0    0 -0.29724904790E+03  0.11650709680E+03  0.10823225821E+03  0.37532668677E+03  0.16500000000E+03 0.  0.
<mgrwt>
<rscale>  0 0.72009288E+03</rscale>
<asrwt>0</asrwt>
<pdfrwt beam="1">  1        2 0.43746611E-01 0.72009288E+03</pdfrwt>
<pdfrwt beam="2">  1       -2 0.70136795E-01 0.72009288E+03</pdfrwt>
<totfact> 0.21780923E+02</totfact>
</mgrwt>
</event>
<event>
 4    1  0.8877834E-005  0.5923747E+03  0.7818608E-02  0.9921354E-01
         -2   -1    0    0    0  501 -0.00000000000E+00  0.00000000000E+00  0.60048332069E+03  0.60048332070E+03  0.25500000000E-02 0. -1.
          2   -1    0    0  501    0  0.00000000000E+00 -0.00000000000E+00 -0.14609391093E+03  0.14609391095E+03  0.25500000000E-02 0.  1.
    5000001    1    1    2    0    0  0.15773457069E+03  0.17025537663E+03  0.12453633110E+03  0.31080763477E+03  0.16500000000E+03 0.  0.
   -5000001    1    1    2    0    0 -0.15773457069E+03 -0.17025537663E+03  0.32985307866E+03  0.43576959688E+03  0.16500000000E+03 0.  0.
<mgrwt>
<rscale>  0 0.59237474E+03</rscale>
<asrwt>0</asrwt>
<pdfrwt beam="1">  1        2 0.22475987E-01 0.59237474E+03</pdfrwt>
<pdfrwt beam="2">  1       -2 0.92382047E-01 0.59237474E+03</pdfrwt>
<totfact> 0.24946306E+02</totfact>
</mgrwt>
</event>
<event>
 4    1  0.8877834E-005  0.6348438E+03  0.7818608E-02  0.9835642E-01
          2   -1    0    0  501    0  0.00000000000E+00  0.00000000000E+00  0.19373927303E+03  0.19373927305E+03  0.25500000000E-02 0.  1.
         -2   -1    0    0    0  501 -0.00000000000E+00 -0.00000000000E+00 -0.52006320711E+03  0.52006320712E+03  0.25500000000E-02 0. -1.
    5000001    1    1    2    0    0 -0.19245806634E+03  0.19048310901E+03 -0.17936801212E+03  0.36431004088E+03  0.16500000000E+03 0.  0.
   -5000001    1    1    2    0    0  0.19245806634E+03 -0.19048310901E+03 -0.14695592196E+03  0.34949243928E+03  0.16500000000E+03 0.  0.
<mgrwt>
<rscale>  0 0.63484382E+03</rscale>
<asrwt>0</asrwt>
<pdfrwt beam="1">  1        2 0.29806042E-01 0.63484382E+03</pdfrwt>
<pdfrwt beam="2">  1       -2 0.80009724E-01 0.63484382E+03</pdfrwt>
<totfact> 0.25043577E+02</totfact>
</mgrwt>
</event>
<event>
 4    1  0.8877834E-005  0.6165134E+03  0.7818608E-02  0.9871726E-01
         -2   -1    0    0    0  501 -0.00000000000E+00  0.00000000000E+00  0.69970673487E+03  0.69970673487E+03  0.25500000000E-02 0. -1.
          2   -1    0    0  501    0  0.00000000000E+00 -0.00000000000E+00 -0.13580290421E+03  0.13580290423E+03  0.25500000000E-02 0.  1.
    5000001    1    1    2    0    0  0.14220716920E+03 -0.19857169410E+03  0.15965446654E+03  0.33521358170E+03  0.16500000000E+03 0.  0.
   -5000001    1    1    2    0    0 -0.14220716920E+03  0.19857169410E+03  0.40424936411E+03  0.50029605740E+03  0.16500000000E+03 0.  0.
<mgrwt>
<rscale>  0 0.61651344E+03</rscale>
<asrwt>0</asrwt>
<pdfrwt beam="1">  1        2 0.20892755E-01 0.61651344E+03</pdfrwt>
<pdfrwt beam="2">  1       -2 0.10764719E+00 0.61651344E+03</pdfrwt>
<totfact> 0.18920191E+02</totfact>
</mgrwt>
</event>
<event>
 4    1  0.8877834E-005  0.4115821E+03  0.7818608E-02  0.1039841E+00
          2   -1    0    0  501    0  0.00000000000E+00  0.00000000000E+00  0.25004901240E+04  0.25004901240E+04  0.25500000000E-02 0.  1.
         -2   -1    0    0    0  501 -0.00000000000E+00 -0.00000000000E+00 -0.16936665971E+02  0.16936666163E+02  0.25500000000E-02 0. -1.
    5000001    1    1    2    0    0  0.12880180404E+02  0.11867302121E+03  0.10607685768E+04  0.10801408050E+04  0.16500000000E+03 0.  0.
   -5000001    1    1    2    0    0 -0.12880180404E+02 -0.11867302121E+03  0.14227848813E+04  0.14372859852E+04  0.16500000000E+03 0.  0.
<mgrwt>
<rscale>  0 0.41158215E+03</rscale>
<asrwt>0</asrwt>
<pdfrwt beam="1">  1        2 0.38469077E+00 0.41158215E+03</pdfrwt>
<pdfrwt beam="2">  1       -2 0.26056410E-02 0.41158215E+03</pdfrwt>
<totfact> 0.20692531E+03</totfact>
</mgrwt>
</event>
<event>
 4    1  0.8877834E-005  0.4256772E+03  0.7818608E-02  0.1035234E+00
          2   -1    0    0  501    0  0.00000000000E+00  0.00000000000E+00  0.65744998318E+03  0.65744998318E+03  0.25500000000E-02 0.  1.
         -2   -1    0    0    0  501 -0.00000000000E+00 -0.00000000000E+00 -0.68902995828E+02  0.68902995875E+02  0.25500000000E-02 0. -1.
    5000001    1    1    2    0    0 -0.92144714252E+02 -0.57744430857E+02  0.42917427765E+03  0.47248346877E+03  0.16500000000E+03 0.  0.
   -5000001    1    1    2    0    0  0.92144714252E+02  0.57744430857E+02  0.15937270970E+03  0.25386951029E+03  0.16500000000E+03 0.  0.
<mgrwt>
<rscale>  0 0.42567722E+03</rscale>
<asrwt>0</asrwt>
<pdfrwt beam="1">  1        2 0.10114615E+00 0.42567722E+03</pdfrwt>
<pdfrwt beam="2">  1       -2 0.10600461E-01 0.42567722E+03</pdfrwt>
<totfact> 0.27502265E+03</totfact>
</mgrwt>
</event>
<event>
 4    1  0.8877834E-005  0.4131565E+03  0.7818608E-02  0.1039317E+00
         -2   -1    0    0    0  501 -0.00000000000E+00  0.00000000000E+00  0.37996164947E+02  0.37996165032E+02  0.25500000000E-02 0. -1.
          2   -1    0    0  501    0  0.00000000000E+00 -0.00000000000E+00 -0.11231286442E+04  0.11231286442E+04  0.25500000000E-02 0.  1.
    5000001    1    1    2    0    0 -0.88256756938E+02  0.74880827634E+02 -0.41522220367E+03  0.46155267512E+03  0.16500000000E+03 0.  0.
   -5000001    1    1    2    0    0  0.88256756938E+02 -0.74880827634E+02 -0.66991027556E+03  0.69957213409E+03  0.16500000000E+03 0.  0.
<mgrwt>
<rscale>  0 0.41315654E+03</rscale>
<asrwt>0</asrwt>
<pdfrwt beam="1">  1        2 0.17278900E+00 0.41315654E+03</pdfrwt>
<pdfrwt beam="2">  1       -2 0.58455647E-02 0.41315654E+03</pdfrwt>
<totfact> 0.34221198E+03</totfact>
</mgrwt>
</event>
<event>
 4    1  0.8877834E-005  0.4685208E+03  0.7818608E-02  0.1022339E+00
          2   -1    0    0  501    0  0.00000000000E+00  0.00000000000E+00  0.32959208146E+03  0.32959208147E+03  0.25500000000E-02 0.  1.
         -2   -1    0    0    0  501 -0.00000000000E+00 -0.00000000000E+00 -0.16650262300E+03  0.16650262302E+03  0.25500000000E-02 0. -1.
    5000001    1    1    2    0    0 -0.16103792472E+03  0.86266916930E+01  0.12449441063E+03  0.26216691493E+03  0.16500000000E+03 0.  0.
   -5000001    1    1    2    0    0  0.16103792472E+03 -0.86266916930E+01  0.38595047826E+02  0.23392778955E+03  0.16500000000E+03 0.  0.
<mgrwt>
<rscale>  0 0.46852085E+03</rscale>
<asrwt>0</asrwt>
<pdfrwt beam="1">  1        2 0.50706474E-01 0.46852085E+03</pdfrwt>
<pdfrwt beam="2">  1       -2 0.25615788E-01 0.46852085E+03</pdfrwt>
<totfact> 0.13521676E+03</totfact>
</mgrwt>
</event>
<event>
 4    1  0.8877834E-005  0.4664384E+03  0.7818608E-02  0.1022930E+00
         -2   -1    0    0    0  501 -0.00000000000E+00  0.00000000000E+00  0.27905654593E+03  0.27905654594E+03  0.25500000000E-02 0. -1.
          2   -1    0    0  501    0  0.00000000000E+00 -0.00000000000E+00 -0.19491103709E+03  0.19491103711E+03  0.25500000000E-02 0.  1.
    5000001    1    1    2    0    0 -0.12762732291E+03  0.38480525420E+02 -0.56428640278E+02  0.21949641417E+03  0.16500000000E+03 0.  0.
   -5000001    1    1    2    0    0  0.12762732291E+03 -0.38480525420E+02  0.14057414911E+03  0.25447116888E+03  0.16500000000E+03 0.  0.
<mgrwt>
<rscale>  0 0.46643842E+03</rscale>
<asrwt>0</asrwt>
<pdfrwt beam="1">  1        2 0.29986314E-01 0.46643842E+03</pdfrwt>
<pdfrwt beam="2">  1       -2 0.42931776E-01 0.46643842E+03</pdfrwt>
<totfact> 0.91777984E+02</totfact>
</mgrwt>
</event>
<event>
 4    1  0.8877834E-005  0.5348944E+03  0.7818608E-02  0.1005052E+00
          2   -1    0    0  501    0  0.00000000000E+00  0.00000000000E+00  0.33825965726E+03  0.33825965727E+03  0.25500000000E-02 0.  1.
         -2   -1    0    0    0  501 -0.00000000000E+00 -0.00000000000E+00 -0.21145890138E+03  0.21145890139E+03  0.25500000000E-02 0. -1.
    5000001    1    1    2    0    0  0.19698111431E+03  0.63289425964E+02  0.23651554746E+02  0.26569062248E+03  0.16500000000E+03 0.  0.
   -5000001    1    1    2    0    0 -0.19698111431E+03 -0.63289425964E+02  0.10314920114E+03  0.28402793618E+03  0.16500000000E+03 0.  0.
<mgrwt>
<rscale>  0 0.53489444E+03</rscale>
<asrwt>0</asrwt>
<pdfrwt beam="1">  1        2 0.52039947E-01 0.53489444E+03</pdfrwt>
<pdfrwt beam="2">  1       -2 0.32532139E-01 0.53489444E+03</pdfrwt>
<totfact> 0.84845208E+02</totfact>
</mgrwt>
</event>
<event>
 4    1  0.8877834E-005  0.4381912E+03  0.7818608E-02  0.1031303E+00
          2   -1    0    0  501    0  0.00000000000E+00  0.00000000000E+00  0.84979124977E+03  0.84979124978E+03  0.25500000000E-02 0.  1.
         -2   -1    0    0    0  501 -0.00000000000E+00 -0.00000000000E+00 -0.56487858283E+02  0.56487858341E+02  0.25500000000E-02 0. -1.
    5000001    1    1    2    0    0  0.10625641538E+03  0.78891421536E+02  0.27849805184E+03  0.34971480821E+03  0.16500000000E+03 0.  0.
   -5000001    1    1    2    0    0 -0.10625641538E+03 -0.78891421536E+02  0.51480533965E+03  0.55656429991E+03  0.16500000000E+03 0.  0.
<mgrwt>
<rscale>  0 0.43819123E+03</rscale>
<asrwt>0</asrwt>
<pdfrwt beam="1">  1        2 0.13073711E+00 0.43819123E+03</pdfrwt>
<pdfrwt beam="2">  1       -2 0.86904401E-02 0.43819123E+03</pdfrwt>
<totfact> 0.27325174E+03</totfact>
</mgrwt>
</event>
<event>
 4    1  0.8877834E-005  0.3857247E+03  0.7818608E-02  0.1048838E+00
         -2   -1    0    0    0  501 -0.00000000000E+00  0.00000000000E+00  0.14206632856E+02  0.14206633085E+02  0.25500000000E-02 0. -1.
          2   -1    0    0  501    0  0.00000000000E+00 -0.00000000000E+00 -0.26182062130E+04  0.26182062130E+04  0.25500000000E-02 0.  1.
    5000001    1    1    2    0    0 -0.24078445484E+02 -0.95607669035E+02 -0.11940295298E+04  0.12094015528E+04  0.16500000000E+03 0.  0.
   -5000001    1    1    2    0    0  0.24078445484E+02  0.95607669035E+02 -0.14099700504E+04  0.14230112933E+04  0.16500000000E+03 0.  0.
<mgrwt>
<rscale>  0 0.38572474E+03</rscale>
<asrwt>0</asrwt>
<pdfrwt beam="1">  1        2 0.40280057E+00 0.38572474E+03</pdfrwt>
<pdfrwt beam="2">  1       -2 0.21856379E-02 0.38572474E+03</pdfrwt>
<totfact> 0.23169571E+03</totfact>
</mgrwt>
</event>
<event>
 4    1  0.8877834E-005  0.8264170E+03  0.7818608E-02  0.9522548E-01
          2   -1    0    0  501    0  0.00000000000E+00  0.00000000000E+00  0.13142693884E+04  0.13142693884E+04  0.25500000000E-02 0.  1.
         -2   -1    0    0    0  501 -0.00000000000E+00 -0.00000000000E+00 -0.12991345022E+03  0.12991345024E+03  0.25500000000E-02 0. -1.
    5000001    1    1    2    0    0  0.78928471048E-01 -0.37871852132E+03  0.57573395669E+03  0.70860589435E+03  0.16500000000E+03 0.  0.
   -5000001    1    1    2    0    0 -0.78928471048E-01  0.37871852132E+03  0.60862198150E+03  0.73557694431E+03  0.16500000000E+03 0.  0.
<mgrwt>
<rscale>  0 0.82641702E+03</rscale>
<asrwt>0</asrwt>
<pdfrwt beam="1">  1        2 0.20219529E+00 0.82641702E+03</pdfrwt>
<pdfrwt beam="2">  1       -2 0.19986685E-01 0.82641702E+03</pdfrwt>
<totfact> 0.34856150E+02</totfact>
</mgrwt>
</event>
<event>
 4    1  0.8877834E-005  0.4179495E+03  0.7818608E-02  0.1037736E+00
         -2   -1    0    0    0  501 -0.00000000000E+00  0.00000000000E+00  0.93112968473E+02  0.93112968508E+02  0.25500000000E-02 0. -1.
          2   -1    0    0  501    0  0.00000000000E+00 -0.00000000000E+00 -0.46900489157E+03  0.46900489157E+03  0.25500000000E-02 0.  1.
    5000001    1    1    2    0    0  0.12662516878E+03  0.18405804686E+02 -0.19941593574E+03  0.28872897748E+03  0.16500000000E+03 0.  0.
   -5000001    1    1    2    0    0 -0.12662516878E+03 -0.18405804686E+02 -0.17647598736E+03  0.27338888260E+03  0.16500000000E+03 0.  0.
<mgrwt>
<rscale>  0 0.41794946E+03</rscale>
<asrwt>0</asrwt>
<pdfrwt beam="1">  1        2 0.72154597E-01 0.41794946E+03</pdfrwt>
<pdfrwt beam="2">  1       -2 0.14325072E-01 0.41794946E+03</pdfrwt>
<totfact> 0.24880438E+03</totfact>
</mgrwt>
</event>
<event>
 4    1  0.8877834E-005  0.5814933E+03  0.7818608E-02  0.9944563E-01
          2   -1    0    0  501    0  0.00000000000E+00  0.00000000000E+00  0.15780117712E+04  0.15780117712E+04  0.25500000000E-02 0.  1.
         -2   -1    0    0    0  501 -0.00000000000E+00 -0.00000000000E+00 -0.53569691204E+02  0.53569691265E+02  0.25500000000E-02 0. -1.
    5000001    1    1    2    0    0  0.88451781810E+02 -0.21671241384E+03  0.62135141359E+03  0.68417144575E+03  0.16500000000E+03 0.  0.
   -5000001    1    1    2    0    0 -0.88451781810E+02  0.21671241384E+03  0.90309066645E+03  0.94741001676E+03  0.16500000000E+03 0.  0.
<mgrwt>
<rscale>  0 0.58149326E+03</rscale>
<asrwt>0</asrwt>
<pdfrwt beam="1">  1        2 0.24277108E+00 0.58149326E+03</pdfrwt>
<pdfrwt beam="2">  1       -2 0.82414896E-02 0.58149326E+03</pdfrwt>
<totfact> 0.10991970E+03</totfact>
</mgrwt>
</event>
<event>
 4    1  0.8877834E-005  0.7607232E+03  0.7818608E-02  0.9618676E-01
         -2   -1    0    0    0  501 -0.00000000000E+00  0.00000000000E+00  0.20367456161E+03  0.20367456163E+03  0.25500000000E-02 0. -1.
          2   -1    0    0  501    0  0.00000000000E+00 -0.00000000000E+00 -0.71032416374E+03  0.71032416374E+03  0.25500000000E-02 0.  1.
    5000001    1    1    2    0    0  0.85521857962E+02  0.21175905278E+03  0.53687517833E+02  0.28681567982E+03  0.16500000000E+03 0.  0.
   -5000001    1    1    2    0    0 -0.85521857962E+02 -0.21175905278E+03 -0.56033711996E+03  0.62718304555E+03  0.16500000000E+03 0.  0.
<mgrwt>
<rscale>  0 0.76072324E+03</rscale>
<asrwt>0</asrwt>
<pdfrwt beam="1">  1        2 0.10928064E+00 0.76072324E+03</pdfrwt>
<pdfrwt beam="2">  1       -2 0.31334548E-01 0.76072324E+03</pdfrwt>
<totfact> 0.38215417E+02</totfact>
</mgrwt>
</event>
<event>
 4    1  0.8877834E-005  0.7404088E+03  0.7818608E-02  0.9650519E-01
         -2   -1    0    0    0  501 -0.00000000000E+00  0.00000000000E+00  0.50442124734E+03  0.50442124735E+03  0.25500000000E-02 0. -1.
          2   -1    0    0  501    0  0.00000000000E+00 -0.00000000000E+00 -0.27170011706E+03  0.27170011707E+03  0.25500000000E-02 0.  1.
    5000001    1    1    2    0    0  0.31518448312E+03 -0.76493988336E+01  0.22339614259E+03  0.42015545721E+03  0.16500000000E+03 0.  0.
   -5000001    1    1    2    0    0 -0.31518448312E+03  0.76493988336E+01  0.93249876930E+01  0.35596590721E+03  0.16500000000E+03 0.  0.
<mgrwt>
<rscale>  0 0.74040884E+03</rscale>
<asrwt>0</asrwt>
<pdfrwt beam="1">  1        2 0.41800019E-01 0.74040884E+03</pdfrwt>
<pdfrwt beam="2">  1       -2 0.77603268E-01 0.74040884E+03</pdfrwt>
<totfact> 0.18313988E+02</totfact>
</mgrwt>
</event>
<event>
 4    1  0.8877834E-005  0.3732774E+03  0.7818608E-02  0.1053447E+00
          2   -1    0    0  501    0  0.00000000000E+00  0.00000000000E+00  0.46075765695E+02  0.46075765765E+02  0.25500000000E-02 0.  1.
         -2   -1    0    0    0  501 -0.00000000000E+00 -0.00000000000E+00 -0.75601559664E+03  0.75601559664E+03  0.25500000000E-02 0. -1.
    5000001    1    1    2    0    0 -0.58688053086E+02  0.61737101708E+02 -0.31458424859E+03  0.36529988607E+03  0.16500000000E+03 0.  0.
   -5000001    1    1    2    0    0  0.58688053086E+02 -0.61737101708E+02 -0.39535558235E+03  0.43679147634E+03  0.16500000000E+03 0.  0.
<mgrwt>
<rscale>  0 0.37327736E+03</rscale>
<asrwt>0</asrwt>
<pdfrwt beam="1">  1        2 0.70885799E-02 0.37327736E+03</pdfrwt>
<pdfrwt beam="2">  1       -2 0.11631008E+00 0.37327736E+03</pdfrwt>
<totfact> 0.59860973E+02</totfact>
</mgrwt>
</event>
<event>
 4    1  0.8877834E-005  0.6658702E+03  0.7818608E-02  0.9777447E-01
          2   -1    0    0  501    0  0.00000000000E+00  0.00000000000E+00  0.27737845102E+04  0.27737845102E+04  0.25500000000E-02 0.  1.
         -2   -1    0    0    0  501 -0.00000000000E+00 -0.00000000000E+00 -0.39961932930E+02  0.39961933011E+02  0.25500000000E-02 0. -1.
    5000001    1    1    2    0    0  0.26254445014E+03  0.93856007326E+01  0.18775551102E+04  0.19030123146E+04  0.16500000000E+03 0.  0.
   -5000001    1    1    2    0    0 -0.26254445014E+03 -0.93856007326E+01  0.85626746704E+03  0.91073412855E+03  0.16500000000E+03 0.  0.
<mgrwt>
<rscale>  0 0.66587023E+03</rscale>
<asrwt>0</asrwt>
<pdfrwt beam="1">  1        2 0.42673611E+00 0.66587023E+03</pdfrwt>
<pdfrwt beam="2">  1       -2 0.61479892E-02 0.66587023E+03</pdfrwt>
<totfact> 0.37843037E+02</totfact>
</mgrwt>
</event>
<event>
 4    1  0.8877834E-005  0.6067271E+03  0.7818608E-02  0.9891547E-01
          2   -1    0    0  501    0  0.00000000000E+00  0.00000000000E+00  0.82653888246E+03  0.82653888246E+03  0.25500000000E-02 0.  1.
         -2   -1    0    0    0  501 -0.00000000000E+00 -0.00000000000E+00 -0.11134313530E+03  0.11134313533E+03  0.25500000000E-02 0. -1.
    5000001    1    1    2    0    0  0.21279365754E+03 -0.12062657966E+03  0.24859372226E+03  0.38581828774E+03  0.16500000000E+03 0.  0.
   -5000001    1    1    2    0    0 -0.21279365754E+03  0.12062657966E+03  0.46660202490E+03  0.55206373006E+03  0.16500000000E+03 0.  0.
<mgrwt>
<rscale>  0 0.60672706E+03</rscale>
<asrwt>0</asrwt>
<pdfrwt beam="1">  1        2 0.12715983E+00 0.60672706E+03</pdfrwt>
<pdfrwt beam="2">  1       -2 0.17129713E-01 0.60672706E+03</pdfrwt>
<totfact> 0.92622300E+02</totfact>
</mgrwt>
</event>
<event>
 4    1  0.8877834E-005  0.7448861E+03  0.7818608E-02  0.9643408E-01
         -2   -1    0    0    0  501 -0.00000000000E+00  0.00000000000E+00  0.11863546682E+03  0.11863546685E+03  0.25500000000E-02 0. -1.
          2   -1    0    0  501    0  0.00000000000E+00 -0.00000000000E+00 -0.11692442281E+04  0.11692442281E+04  0.25500000000E-02 0.  1.
    5000001    1    1    2    0    0  0.30112148930E+03  0.34589353059E+02 -0.76747176789E+03  0.84149182359E+03  0.16500000000E+03 0.  0.
   -5000001    1    1    2    0    0 -0.30112148930E+03 -0.34589353059E+02 -0.28313699337E+03  0.44638787134E+03  0.16500000000E+03 0.  0.
<mgrwt>
<rscale>  0 0.74488613E+03</rscale>
<asrwt>0</asrwt>
<pdfrwt beam="1">  1        2 0.17988372E+00 0.74488613E+03</pdfrwt>
<pdfrwt beam="2">  1       -2 0.18251611E-01 0.74488613E+03</pdfrwt>
<totfact> 0.49855335E+02</totfact>
</mgrwt>
</event>
<event>
 4    1  0.8877834E-005  0.4018165E+03  0.7818608E-02  0.1043153E+00
         -2   -1    0    0    0  501 -0.00000000000E+00  0.00000000000E+00  0.60610810832E+02  0.60610810885E+02  0.25500000000E-02 0. -1.
          2   -1    0    0  501    0  0.00000000000E+00 -0.00000000000E+00 -0.66595573360E+03  0.66595573361E+03  0.25500000000E-02 0.  1.
    5000001    1    1    2    0    0 -0.27318478817E+02 -0.73143916944E+02 -0.15092553886E+03  0.23685406931E+03  0.16500000000E+03 0.  0.
   -5000001    1    1    2    0    0  0.27318478817E+02  0.73143916944E+02 -0.45441938391E+03  0.48971247518E+03  0.16500000000E+03 0.  0.
<mgrwt>
<rscale>  0 0.40181646E+03</rscale>
<asrwt>0</asrwt>
<pdfrwt beam="1">  1        2 0.10245472E+00 0.40181646E+03</pdfrwt>
<pdfrwt beam="2">  1       -2 0.93247406E-02 0.40181646E+03</pdfrwt>
<totfact> 0.33249918E+03</totfact>
</mgrwt>
</event>
<event>
 4    1  0.8877834E-005  0.6001755E+03  0.7818608E-02  0.9905042E-01
          2   -1    0    0  501    0  0.00000000000E+00  0.00000000000E+00  0.41337509571E+03  0.41337509572E+03  0.25500000000E-02 0.  1.
         -2   -1    0    0    0  501 -0.00000000000E+00 -0.00000000000E+00 -0.21784730465E+03  0.21784730467E+03  0.25500000000E-02 0. -1.
    5000001    1    1    2    0    0 -0.23641748608E+03  0.77580445529E+02  0.12958975142E+03  0.32546959447E+03  0.16500000000E+03 0.  0.
   -5000001    1    1    2    0    0  0.23641748608E+03 -0.77580445529E+02  0.65938039638E+02  0.30575280591E+03  0.16500000000E+03 0.  0.
<mgrwt>
<rscale>  0 0.60017548E+03</rscale>
<asrwt>0</asrwt>
<pdfrwt beam="1">  1        2 0.63596167E-01 0.60017548E+03</pdfrwt>
<pdfrwt beam="2">  1       -2 0.33514971E-01 0.60017548E+03</pdfrwt>
<totfact> 0.64151569E+02</totfact>
</mgrwt>
</event>
<event>
 4    1  0.8877834E-005  0.4296424E+03  0.7818608E-02  0.1033973E+00
         -2   -1    0    0    0  501 -0.00000000000E+00  0.00000000000E+00  0.63904845474E+02  0.63904845525E+02  0.25500000000E-02 0. -1.
          2   -1    0    0  501    0  0.00000000000E+00 -0.00000000000E+00 -0.72213834966E+03  0.72213834966E+03  0.25500000000E-02 0.  1.
    5000001    1    1    2    0    0 -0.33709778013E+02 -0.13254590660E+03 -0.35615253588E+03  0.41566139501E+03  0.16500000000E+03 0.  0.
   -5000001    1    1    2    0    0  0.33709778013E+02  0.13254590660E+03 -0.30208096831E+03  0.37038180018E+03  0.16500000000E+03 0.  0.
<mgrwt>
<rscale>  0 0.42964236E+03</rscale>
<asrwt>0</asrwt>
<pdfrwt beam="1">  1        2 0.11109820E+00 0.42964236E+03</pdfrwt>
<pdfrwt beam="2">  1       -2 0.98315152E-02 0.42964236E+03</pdfrwt>
<totfact> 0.27665018E+03</totfact>
</mgrwt>
</event>
<event>
 4    1  0.8877834E-005  0.1139415E+04  0.7818608E-02  0.9167604E-01
         -2   -1    0    0    0  501 -0.00000000000E+00  0.00000000000E+00  0.23774626246E+03  0.23774626247E+03  0.25500000000E-02 0. -1.
          2   -1    0    0  501    0  0.00000000000E+00 -0.00000000000E+00 -0.13651817067E+04  0.13651817067E+04  0.25500000000E-02 0.  1.
    5000001    1    1    2    0    0  0.32352004530E+03  0.41148311852E+03 -0.34871087731E+03  0.65023676648E+03  0.16500000000E+03 0.  0.
   -5000001    1    1    2    0    0 -0.32352004530E+03 -0.41148311852E+03 -0.77872456689E+03  0.95269120265E+03  0.16500000000E+03 0.  0.
<mgrwt>
<rscale>  0 0.11394154E+04</rscale>
<asrwt>0</asrwt>
<pdfrwt beam="1">  1        2 0.21002795E+00 0.11394154E+04</pdfrwt>
<pdfrwt beam="2">  1       -2 0.36576349E-01 0.11394154E+04</pdfrwt>
<totfact> 0.10555954E+02</totfact>
</mgrwt>
</event>
<event>
 4    1  0.8877834E-005  0.5239922E+03  0.7818608E-02  0.1007700E+00
          2   -1    0    0  501    0  0.00000000000E+00  0.00000000000E+00  0.14390217261E+04  0.14390217261E+04  0.25500000000E-02 0.  1.
         -2   -1    0    0    0  501 -0.00000000000E+00 -0.00000000000E+00 -0.47700427416E+02  0.47700427484E+02  0.25500000000E-02 0. -1.
    5000001    1    1    2    0    0  0.14448265479E+03 -0.96715920538E+02  0.39555354350E+03  0.46251141888E+03  0.16500000000E+03 0.  0.
   -5000001    1    1    2    0    0 -0.14448265479E+03  0.96715920538E+02  0.99576775521E+03  0.10242107347E+04  0.16500000000E+03 0.  0.
<mgrwt>
<rscale>  0 0.52399218E+03</rscale>
<asrwt>0</asrwt>
<pdfrwt beam="1">  1        2 0.22138794E+00 0.52399218E+03</pdfrwt>
<pdfrwt beam="2">  1       -2 0.73385279E-02 0.52399218E+03</pdfrwt>
<totfact> 0.15800680E+03</totfact>
</mgrwt>
</event>
<event>
 4    1  0.8877834E-005  0.8377385E+03  0.7818608E-02  0.9506943E-01
         -2   -1    0    0    0  501 -0.00000000000E+00  0.00000000000E+00  0.19476007348E+03  0.19476007350E+03  0.25500000000E-02 0. -1.
          2   -1    0    0  501    0  0.00000000000E+00 -0.00000000000E+00 -0.90085938607E+03  0.90085938607E+03  0.25500000000E-02 0.  1.
    5000001    1    1    2    0    0  0.23438851329E+03 -0.24112292258E+03 -0.10785961590E+03  0.38979088714E+03  0.16500000000E+03 0.  0.
   -5000001    1    1    2    0    0 -0.23438851329E+03  0.24112292258E+03 -0.59823969669E+03  0.70582857243E+03  0.16500000000E+03 0.  0.
<mgrwt>
<rscale>  0 0.83773848E+03</rscale>
<asrwt>0</asrwt>
<pdfrwt beam="1">  1        2 0.13859375E+00 0.83773848E+03</pdfrwt>
<pdfrwt beam="2">  1       -2 0.29963089E-01 0.83773848E+03</pdfrwt>
<totfact> 0.30193744E+02</totfact>
</mgrwt>
</event>
<event>
 4    1  0.8877834E-005  0.4435220E+03  0.7818608E-02  0.1029672E+00
          2   -1    0    0  501    0  0.00000000000E+00  0.00000000000E+00  0.59912844266E+03  0.59912844267E+03  0.25500000000E-02 0.  1.
         -2   -1    0    0    0  501 -0.00000000000E+00 -0.00000000000E+00 -0.82082467212E+02  0.82082467252E+02  0.25500000000E-02 0. -1.
    5000001    1    1    2    0    0  0.38666350517E+01  0.11336369684E+03  0.40493227265E+03  0.45173158409E+03  0.16500000000E+03 0.  0.
   -5000001    1    1    2    0    0 -0.38666350517E+01 -0.11336369684E+03  0.11211370280E+03  0.22947932583E+03  0.16500000000E+03 0.  0.
<mgrwt>
<rscale>  0 0.44352200E+03</rscale>
<asrwt>0</asrwt>
<pdfrwt beam="1">  1        2 0.92173609E-01 0.44352200E+03</pdfrwt>
<pdfrwt beam="2">  1       -2 0.12628072E-01 0.44352200E+03</pdfrwt>
<totfact> 0.23120754E+03</totfact>
</mgrwt>
</event>
<event>
 4    1  0.8877834E-005  0.4356876E+03  0.7818608E-02  0.1032078E+00
         -2   -1    0    0    0  501 -0.00000000000E+00  0.00000000000E+00  0.33009043398E+03  0.33009043399E+03  0.25500000000E-02 0. -1.
          2   -1    0    0  501    0  0.00000000000E+00 -0.00000000000E+00 -0.14376644935E+03  0.14376644937E+03  0.25500000000E-02 0.  1.
    5000001    1    1    2    0    0 -0.90077998537E+02  0.89945789761E+02  0.16217696006E+03  0.26406563065E+03  0.16500000000E+03 0.  0.
   -5000001    1    1    2    0    0  0.90077998537E+02 -0.89945789761E+02  0.24147024563E+02  0.20979125270E+03  0.16500000000E+03 0.  0.
<mgrwt>
<rscale>  0 0.43568764E+03</rscale>
<asrwt>0</asrwt>
<pdfrwt beam="1">  1        2 0.22117915E-01 0.43568764E+03</pdfrwt>
<pdfrwt beam="2">  1       -2 0.50783144E-01 0.43568764E+03</pdfrwt>
<totfact> 0.92726823E+02</totfact>
</mgrwt>
</event>
<event>
 4    1  0.8877834E-005  0.7613752E+03  0.7818608E-02  0.9617672E-01
         -2   -1    0    0    0  501 -0.00000000000E+00  0.00000000000E+00  0.12281686537E+03  0.12281686540E+03  0.25500000000E-02 0. -1.
          2   -1    0    0  501    0  0.00000000000E+00 -0.00000000000E+00 -0.11799929524E+04  0.11799929524E+04  0.25500000000E-02 0.  1.
    5000001    1    1    2    0    0  0.13702012660E+03  0.21470417974E+03 -0.13530548919E+03  0.33227244138E+03  0.16500000000E+03 0.  0.
   -5000001    1    1    2    0    0 -0.13702012660E+03 -0.21470417974E+03 -0.92187059785E+03  0.97053737644E+03  0.16500000000E+03 0.  0.
<mgrwt>
<rscale>  0 0.76137517E+03</rscale>
<asrwt>0</asrwt>
<pdfrwt beam="1">  1        2 0.18153737E+00 0.76137517E+03</pdfrwt>
<pdfrwt beam="2">  1       -2 0.18894903E-01 0.76137517E+03</pdfrwt>
<totfact> 0.46226951E+02</totfact>
</mgrwt>
</event>
<event>
 4    1  0.8877834E-005  0.6244209E+03  0.7818608E-02  0.9855997E-01
         -2   -1    0    0    0  501 -0.00000000000E+00  0.00000000000E+00  0.51654344792E+02  0.51654344855E+02  0.25500000000E-02 0. -1.
          2   -1    0    0  501    0  0.00000000000E+00 -0.00000000000E+00 -0.18870702564E+04  0.18870702564E+04  0.25500000000E-02 0.  1.
    5000001    1    1    2    0    0 -0.97026747288E+02  0.35557465564E+02 -0.16755160207E+04  0.16867890973E+04  0.16500000000E+03 0.  0.
   -5000001    1    1    2    0    0  0.97026747288E+02 -0.35557465564E+02 -0.15989989085E+03  0.25193550393E+03  0.16500000000E+03 0.  0.
<mgrwt>
<rscale>  0 0.62442094E+03</rscale>
<asrwt>0</asrwt>
<pdfrwt beam="1">  1        2 0.29031845E+00 0.62442094E+03</pdfrwt>
<pdfrwt beam="2">  1       -2 0.79468238E-02 0.62442094E+03</pdfrwt>
<totfact> 0.78963395E+02</totfact>
</mgrwt>
</event>
<event>
 4    1  0.8877834E-005  0.5053973E+03  0.7818608E-02  0.1012380E+00
          2   -1    0    0  501    0  0.00000000000E+00  0.00000000000E+00  0.15778499919E+04  0.15778499919E+04  0.25500000000E-02 0.  1.
         -2   -1    0    0    0  501 -0.00000000000E+00 -0.00000000000E+00 -0.40470640578E+02  0.40470640658E+02  0.25500000000E-02 0. -1.
    5000001    1    1    2    0    0  0.85327328189E+02  0.14423839230E+03  0.47267277351E+03  0.52794887780E+03  0.16500000000E+03 0.  0.
   -5000001    1    1    2    0    0 -0.85327328189E+02 -0.14423839230E+03  0.10647065778E+04  0.10903717548E+04  0.16500000000E+03 0.  0.
<mgrwt>
<rscale>  0 0.50539727E+03</rscale>
<asrwt>0</asrwt>
<pdfrwt beam="1">  1        2 0.24274613E+00 0.50539727E+03</pdfrwt>
<pdfrwt beam="2">  1       -2 0.62262530E-02 0.50539727E+03</pdfrwt>
<totfact> 0.17177567E+03</totfact>
</mgrwt>
</event>
<event>
 4    1  0.8877834E-005  0.4676899E+03  0.7818608E-02  0.1022574E+00
         -2   -1    0    0    0  501 -0.00000000000E+00  0.00000000000E+00  0.12891927738E+04  0.12891927738E+04  0.25500000000E-02 0. -1.
          2   -1    0    0  501    0  0.00000000000E+00 -0.00000000000E+00 -0.42416822893E+02  0.42416822969E+02  0.25500000000E-02 0.  1.
    5000001    1    1    2    0    0  0.10974619781E+03  0.65317686703E+02  0.32277054533E+03  0.38433898198E+03  0.16500000000E+03 0.  0.
   -5000001    1    1    2    0    0 -0.10974619781E+03 -0.65317686703E+02  0.92400540559E+03  0.94727061482E+03  0.16500000000E+03 0.  0.
<mgrwt>
<rscale>  0 0.46768990E+03</rscale>
<asrwt>0</asrwt>
<pdfrwt beam="1">  1        2 0.65256661E-02 0.46768990E+03</pdfrwt>
<pdfrwt beam="2">  1       -2 0.19833732E+00 0.46768990E+03</pdfrwt>
<totfact> 0.16249608E+02</totfact>
</mgrwt>
</event>
<event>
 4    1  0.8877834E-005  0.4584583E+03  0.7818608E-02  0.1025229E+00
          2   -1    0    0  501    0  0.00000000000E+00  0.00000000000E+00  0.28548489314E+04  0.28548489314E+04  0.25500000000E-02 0.  1.
         -2   -1    0    0    0  501 -0.00000000000E+00 -0.00000000000E+00 -0.18405880544E+02  0.18405880721E+02  0.25500000000E-02 0. -1.
    5000001    1    1    2    0    0 -0.31134831718E+02 -0.15518021055E+03  0.13151010249E+04  0.13348280718E+04  0.16500000000E+03 0.  0.
   -5000001    1    1    2    0    0  0.31134831718E+02  0.15518021055E+03  0.15213420259E+04  0.15384267403E+04  0.16500000000E+03 0.  0.
<mgrwt>
<rscale>  0 0.45845832E+03</rscale>
<asrwt>0</asrwt>
<pdfrwt beam="1">  1        2 0.43920738E+00 0.45845832E+03</pdfrwt>
<pdfrwt beam="2">  1       -2 0.28316749E-02 0.45845832E+03</pdfrwt>
<totfact> 0.11412626E+03</totfact>
</mgrwt>
</event>
<event>
 4    1  0.8877834E-005  0.4661587E+03  0.7818608E-02  0.1023010E+00
          2   -1    0    0  501    0  0.00000000000E+00  0.00000000000E+00  0.50046780446E+03  0.50046780446E+03  0.25500000000E-02 0.  1.
         -2   -1    0    0    0  501 -0.00000000000E+00 -0.00000000000E+00 -0.10855042147E+03  0.10855042150E+03  0.25500000000E-02 0. -1.
    5000001    1    1    2    0    0  0.12971060800E+02 -0.86711601587E+02  0.13924823417E+02  0.18736608811E+03  0.16500000000E+03 0.  0.
   -5000001    1    1    2    0    0 -0.12971060800E+02  0.86711601587E+02  0.37799255957E+03  0.42165213785E+03  0.16500000000E+03 0.  0.
<mgrwt>
<rscale>  0 0.46615873E+03</rscale>
<asrwt>0</asrwt>
<pdfrwt beam="1">  1        2 0.76995047E-01 0.46615873E+03</pdfrwt>
<pdfrwt beam="2">  1       -2 0.16700065E-01 0.46615873E+03</pdfrwt>
<totfact> 0.17883374E+03</totfact>
</mgrwt>
</event>
<event>
 4    1  0.8877834E-005  0.4833444E+03  0.7818608E-02  0.1018220E+00
          2   -1    0    0  501    0  0.00000000000E+00  0.00000000000E+00  0.42972875475E+03  0.42972875476E+03  0.25500000000E-02 0.  1.
         -2   -1    0    0    0  501 -0.00000000000E+00 -0.00000000000E+00 -0.13591237365E+03  0.13591237367E+03  0.25500000000E-02 0. -1.
    5000001    1    1    2    0    0  0.15647321470E+03  0.62704756578E+02  0.85375144246E+02  0.25085786548E+03  0.16500000000E+03 0.  0.
   -5000001    1    1    2    0    0 -0.15647321470E+03 -0.62704756578E+02  0.20844123686E+03  0.31478326296E+03  0.16500000000E+03 0.  0.
<mgrwt>
<rscale>  0 0.48334441E+03</rscale>
<asrwt>0</asrwt>
<pdfrwt beam="1">  1        2 0.66112116E-01 0.48334441E+03</pdfrwt>
<pdfrwt beam="2">  1       -2 0.20909596E-01 0.48334441E+03</pdfrwt>
<totfact> 0.14437956E+03</totfact>
</mgrwt>
</event>
<event>
 4    1  0.8877834E-005  0.5977577E+03  0.7818608E-02  0.9910069E-01
         -2   -1    0    0    0  501 -0.00000000000E+00  0.00000000000E+00  0.20130133609E+03  0.20130133610E+03  0.25500000000E-02 0. -1.
          2   -1    0    0  501    0  0.00000000000E+00 -0.00000000000E+00 -0.44375551543E+03  0.44375551543E+03  0.25500000000E-02 0.  1.
    5000001    1    1    2    0    0  0.21652250302E+03  0.11155881939E+03 -0.17808609128E+03  0.34389972435E+03  0.16500000000E+03 0.  0.
   -5000001    1    1    2    0    0 -0.21652250302E+03 -0.11155881939E+03 -0.64368088058E+02  0.30115712719E+03  0.16500000000E+03 0.  0.
<mgrwt>
<rscale>  0 0.59775774E+03</rscale>
<asrwt>0</asrwt>
<pdfrwt beam="1">  1        2 0.68270079E-01 0.59775774E+03</pdfrwt>
<pdfrwt beam="2">  1       -2 0.30969436E-01 0.59775774E+03</pdfrwt>
<totfact> 0.68654496E+02</totfact>
</mgrwt>
</event>
<event>
 4    1  0.8877834E-005  0.4489089E+03  0.7818608E-02  0.1028048E+00
          2   -1    0    0  501    0  0.00000000000E+00  0.00000000000E+00  0.13719624680E+04  0.13719624680E+04  0.25500000000E-02 0.  1.
         -2   -1    0    0    0  501 -0.00000000000E+00 -0.00000000000E+00 -0.36720981765E+02  0.36720981853E+02  0.25500000000E-02 0. -1.
    5000001    1    1    2    0    0 -0.31912157464E+02 -0.10789447453E+03  0.98909827866E+03  0.10090589717E+04  0.16500000000E+03 0.  0.
   -5000001    1    1    2    0    0  0.31912157464E+02  0.10789447453E+03  0.34614320758E+03  0.39962447821E+03  0.16500000000E+03 0.  0.
<mgrwt>
<rscale>  0 0.44890894E+03</rscale>
<asrwt>0</asrwt>
<pdfrwt beam="1">  1        2 0.21107113E+00 0.44890894E+03</pdfrwt>
<pdfrwt beam="2">  1       -2 0.56493824E-02 0.44890894E+03</pdfrwt>
<totfact> 0.25978358E+03</totfact>
</mgrwt>
</event>
<event>
 4    1  0.8877834E-005  0.5218809E+03  0.7818608E-02  0.1008220E+00
          2   -1    0    0  501    0  0.00000000000E+00  0.00000000000E+00  0.13421752611E+04  0.13421752611E+04  0.25500000000E-02 0.  1.
         -2   -1    0    0    0  501 -0.00000000000E+00 -0.00000000000E+00 -0.50731022714E+02  0.50731022778E+02  0.25500000000E-02 0. -1.
    5000001    1    1    2    0    0 -0.13053028098E+03  0.89813532505E+02  0.98078992534E+03  0.10071139471E+04  0.16500000000E+03 0.  0.
   -5000001    1    1    2    0    0  0.13053028098E+03 -0.89813532505E+02  0.31065431304E+03  0.38579233674E+03  0.16500000000E+03 0.  0.
<mgrwt>
<rscale>  0 0.52188092E+03</rscale>
<asrwt>0</asrwt>
<pdfrwt beam="1">  1        2 0.20648850E+00 0.52188092E+03</pdfrwt>
<pdfrwt beam="2">  1       -2 0.78047729E-02 0.52188092E+03</pdfrwt>
<totfact> 0.16235664E+03</totfact>
</mgrwt>
</event>
<event>
 4    1  0.8877834E-005  0.7162532E+03  0.7818608E-02  0.9689834E-01
         -2   -1    0    0    0  501 -0.00000000000E+00  0.00000000000E+00  0.15544855113E+03  0.15544855115E+03  0.25500000000E-02 0.  1.
          2   -1    0    0  501    0  0.00000000000E+00 -0.00000000000E+00 -0.82506169226E+03  0.82506169226E+03  0.25500000000E-02 0. -1.
    5000001    1    1    2    0    0 -0.35418906918E+02  0.30386959618E+03 -0.45287282014E+03  0.57088529643E+03  0.16500000000E+03 0.  0.
   -5000001    1    1    2    0    0  0.35418906918E+02 -0.30386959618E+03 -0.21674032099E+03  0.40962494699E+03  0.16500000000E+03 0.  0.
<mgrwt>
<rscale>  0 0.71625315E+03</rscale>
<asrwt>0</asrwt>
<pdfrwt beam="1">  1        2 0.12693257E+00 0.71625315E+03</pdfrwt>
<pdfrwt beam="2">  1       -2 0.23915162E-01 0.71625315E+03</pdfrwt>
<totfact> 0.51624165E+02</totfact>
</mgrwt>
</event>
<event>
 4    1  0.8877834E-005  0.3335630E+03  0.7818608E-02  0.1069571E+00
          2   -1    0    0  501    0  0.00000000000E+00  0.00000000000E+00  0.12761166135E+04  0.12761166135E+04  0.25500000000E-02 0.  1.
         -2   -1    0    0    0  501 -0.00000000000E+00 -0.00000000000E+00 -0.21797434101E+02  0.21797434250E+02  0.25500000000E-02 0. -1.
    5000001    1    1    2    0    0 -0.94425813530E+01 -0.19633509981E+02  0.66914535397E+03  0.68953255311E+03  0.16500000000E+03 0.  0.
   -5000001    1    1    2    0    0  0.94425813530E+01  0.19633509981E+02  0.58517382542E+03  0.60838149463E+03  0.16500000000E+03 0.  0.
<mgrwt>
<rscale>  0 0.33356299E+03</rscale>
<asrwt>0</asrwt>
<pdfrwt beam="1">  1        2 0.19632564E+00 0.33356299E+03</pdfrwt>
<pdfrwt beam="2">  1       -2 0.33534512E-02 0.33356299E+03</pdfrwt>
<totfact> 0.65074197E+03</totfact>
</mgrwt>
</event>
<event>
 4    1  0.8877834E-005  0.3812962E+03  0.7818608E-02  0.1050456E+00
          2   -1    0    0  501    0  0.00000000000E+00  0.00000000000E+00  0.18574056856E+04  0.18574056856E+04  0.25500000000E-02 0.  1.
         -2   -1    0    0    0  501 -0.00000000000E+00 -0.00000000000E+00 -0.19568527948E+02  0.19568528114E+02  0.25500000000E-02 0. -1.
    5000001    1    1    2    0    0  0.65635353458E+02  0.69359078470E+02  0.92746443788E+03  0.94685477499E+03  0.16500000000E+03 0.  0.
   -5000001    1    1    2    0    0 -0.65635353458E+02 -0.69359078470E+02  0.91037271975E+03  0.93011943870E+03  0.16500000000E+03 0.  0.
<mgrwt>
<rscale>  0 0.38129619E+03</rscale>
<asrwt>0</asrwt>
<pdfrwt beam="1">  1        2 0.28575457E+00 0.38129619E+03</pdfrwt>
<pdfrwt beam="2">  1       -2 0.30105444E-02 0.38129619E+03</pdfrwt>
<totfact> 0.37133616E+03</totfact>
</mgrwt>
</event>
<event>
 4    1  0.8877834E-005  0.7075384E+03  0.7818608E-02  0.9704427E-01
          2   -1    0    0  501    0  0.00000000000E+00  0.00000000000E+00  0.49109599460E+03  0.49109599461E+03  0.25500000000E-02 0. -1.
         -2   -1    0    0    0  501 -0.00000000000E+00 -0.00000000000E+00 -0.25484351712E+03  0.25484351713E+03  0.25500000000E-02 0.  1.
    5000001    1    1    2    0    0 -0.28960110950E+03  0.21685995613E+02  0.24102290760E+03  0.41189334422E+03  0.16500000000E+03 0.  0.
   -5000001    1    1    2    0    0  0.28960110950E+03 -0.21685995613E+02 -0.47704301142E+01  0.33404616751E+03  0.16500000000E+03 0.  0.
<mgrwt>
<rscale>  0 0.70753835E+03</rscale>
<asrwt>0</asrwt>
<pdfrwt beam="1">  1        2 0.75553229E-01 0.70753835E+03</pdfrwt>
<pdfrwt beam="2">  1       -2 0.39206695E-01 0.70753835E+03</pdfrwt>
<totfact> 0.38976099E+02</totfact>
</mgrwt>
</event>
<event>
 4    1  0.8877834E-005  0.5546117E+03  0.7818608E-02  0.1000432E+00
          2   -1    0    0  501    0  0.00000000000E+00  0.00000000000E+00  0.33211103163E+04  0.33211103163E+04  0.25500000000E-02 0.  1.
         -2   -1    0    0    0  501 -0.00000000000E+00 -0.00000000000E+00 -0.23154461995E+02  0.23154462135E+02  0.25500000000E-02 0. -1.
    5000001    1    1    2    0    0 -0.86323494561E+02  0.40476155411E+02  0.28637259056E+04  0.28700594292E+04  0.16500000000E+03 0.  0.
   -5000001    1    1    2    0    0  0.86323494561E+02 -0.40476155411E+02  0.43422994871E+03  0.47420534922E+03  0.16500000000E+03 0.  0.
<mgrwt>
<rscale>  0 0.55461166E+03</rscale>
<asrwt>0</asrwt>
<pdfrwt beam="1">  1        2 0.51093975E+00 0.55461166E+03</pdfrwt>
<pdfrwt beam="2">  1       -2 0.35622270E-02 0.55461166E+03</pdfrwt>
<totfact> 0.41108767E+02</totfact>
</mgrwt>
</event>
<event>
 4    1  0.8877834E-005  0.4393367E+03  0.7818608E-02  0.1030951E+00
          2   -1    0    0  501    0  0.00000000000E+00  0.00000000000E+00  0.46785449754E+02  0.46785449824E+02  0.25500000000E-02 0.  1.
         -2   -1    0    0    0  501 -0.00000000000E+00 -0.00000000000E+00 -0.10313931443E+04  0.10313931443E+04  0.25500000000E-02 0. -1.
    5000001    1    1    2    0    0  0.95778362764E+02 -0.75515135008E+02 -0.68480899689E+03  0.71488767832E+03  0.16500000000E+03 0.  0.
   -5000001    1    1    2    0    0 -0.95778362764E+02  0.75515135008E+02 -0.29979869762E+03  0.36329091577E+03  0.16500000000E+03 0.  0.
<mgrwt>
<rscale>  0 0.43933674E+03</rscale>
<asrwt>0</asrwt>
<pdfrwt beam="1">  1        2 0.71977623E-02 0.43933674E+03</pdfrwt>
<pdfrwt beam="2">  1       -2 0.15867585E+00 0.43933674E+03</pdfrwt>
<totfact> 0.26689467E+02</totfact>
</mgrwt>
</event>
<event>
 4    1  0.8877834E-005  0.4443574E+03  0.7818608E-02  0.1029418E+00
         -2   -1    0    0    0  501 -0.00000000000E+00  0.00000000000E+00  0.39616672354E+02  0.39616672436E+02  0.25500000000E-02 0. -1.
          2   -1    0    0  501    0  0.00000000000E+00 -0.00000000000E+00 -0.12460251878E+04  0.12460251878E+04  0.25500000000E-02 0.  1.
    5000001    1    1    2    0    0  0.89047352871E+02 -0.45609357612E+02 -0.28456798486E+03  0.34382202163E+03  0.16500000000E+03 0.  0.
   -5000001    1    1    2    0    0 -0.89047352871E+02  0.45609357612E+02 -0.92184053062E+03  0.94181983864E+03  0.16500000000E+03 0.  0.
<mgrwt>
<rscale>  0 0.44435739E+03</rscale>
<asrwt>0</asrwt>
<pdfrwt beam="1">  1        2 0.19169615E+00 0.44435739E+03</pdfrwt>
<pdfrwt beam="2">  1       -2 0.60948736E-02 0.44435739E+03</pdfrwt>
<totfact> 0.27198129E+03</totfact>
</mgrwt>
</event>
<event>
 4    1  0.8877834E-005  0.6872128E+03  0.7818608E-02  0.9739353E-01
         -2   -1    0    0    0  501 -0.00000000000E+00  0.00000000000E+00  0.19649925277E+03  0.19649925279E+03  0.25500000000E-02 0. -1.
          2   -1    0    0  501    0  0.00000000000E+00 -0.00000000000E+00 -0.60084387602E+03  0.60084387602E+03  0.25500000000E-02 0.  1.
    5000001    1    1    2    0    0  0.22970313787E+03 -0.19510498197E+03 -0.20600065513E+03  0.40061297464E+03  0.16500000000E+03 0.  0.
   -5000001    1    1    2    0    0 -0.22970313787E+03  0.19510498197E+03 -0.19834396811E+03  0.39673015417E+03  0.16500000000E+03 0.  0.
<mgrwt>
<rscale>  0 0.68721284E+03</rscale>
<asrwt>0</asrwt>
<pdfrwt beam="1">  1        2 0.92437519E-01 0.68721284E+03</pdfrwt>
<pdfrwt beam="2">  1       -2 0.30230654E-01 0.68721284E+03</pdfrwt>
<totfact> 0.50355318E+02</totfact>
</mgrwt>
</event>
<event>
 4    1  0.8877834E-005  0.4544011E+03  0.7818608E-02  0.1026418E+00
          2   -1    0    0  501    0  0.00000000000E+00  0.00000000000E+00  0.18001848879E+04  0.18001848879E+04  0.25500000000E-02 0.  1.
         -2   -1    0    0    0  501 -0.00000000000E+00 -0.00000000000E+00 -0.28674878171E+02  0.28674878284E+02  0.25500000000E-02 0. -1.
    5000001    1    1    2    0    0  0.56104755781E+02 -0.14572680693E+03  0.89912582904E+03  0.92738142224E+03  0.16500000000E+03 0.  0.
   -5000001    1    1    2    0    0 -0.56104755781E+02  0.14572680693E+03  0.87238418073E+03  0.90147834398E+03  0.16500000000E+03 0.  0.
<mgrwt>
<rscale>  0 0.45440107E+03</rscale>
<asrwt>0</asrwt>
<pdfrwt beam="1">  1        2 0.27695163E+00 0.45440107E+03</pdfrwt>
<pdfrwt beam="2">  1       -2 0.44115180E-02 0.45440107E+03</pdfrwt>
<totfact> 0.22257441E+03</totfact>
</mgrwt>
</event>
<event>
 4    1  0.8877834E-005  0.3838869E+03  0.7818608E-02  0.1049506E+00
          2   -1    0    0  501    0  0.00000000000E+00  0.00000000000E+00  0.70952601204E+03  0.70952601204E+03  0.25500000000E-02 0.  1.
         -2   -1    0    0    0  501 -0.00000000000E+00 -0.00000000000E+00 -0.51925206396E+02  0.51925206459E+02  0.25500000000E-02 0. -1.
    5000001    1    1    2    0    0  0.55066137317E+02  0.41253644251E+02  0.19019234112E+03  0.26102158774E+03  0.16500000000E+03 0.  0.
   -5000001    1    1    2    0    0 -0.55066137317E+02 -0.41253644251E+02  0.46740846452E+03  0.50042963076E+03  0.16500000000E+03 0.  0.
<mgrwt>
<rscale>  0 0.38388688E+03</rscale>
<asrwt>0</asrwt>
<pdfrwt beam="1">  1        2 0.10915785E+00 0.38388688E+03</pdfrwt>
<pdfrwt beam="2">  1       -2 0.79884934E-02 0.38388688E+03</pdfrwt>
<totfact> 0.39297514E+03</totfact>
</mgrwt>
</event>
<event>
 4    1  0.8877834E-005  0.5544105E+03  0.7818608E-02  0.1000478E+00
          2   -1    0    0  501    0  0.00000000000E+00  0.00000000000E+00  0.77582350855E+03  0.77582350855E+03  0.25500000000E-02 0.  1.
         -2   -1    0    0    0  501 -0.00000000000E+00 -0.00000000000E+00 -0.99046702347E+02  0.99046702380E+02  0.25500000000E-02 0. -1.
    5000001    1    1    2    0    0  0.69563940395E+02  0.17601988725E+03  0.15304261139E+03  0.29405642896E+03  0.16500000000E+03 0.  0.
   -5000001    1    1    2    0    0 -0.69563940395E+02 -0.17601988725E+03  0.52373419481E+03  0.58081378197E+03  0.16500000000E+03 0.  0.
<mgrwt>
<rscale>  0 0.55441053E+03</rscale>
<asrwt>0</asrwt>
<pdfrwt beam="1">  1        2 0.11935747E+00 0.55441053E+03</pdfrwt>
<pdfrwt beam="2">  1       -2 0.15237954E-01 0.55441053E+03</pdfrwt>
<totfact> 0.12289193E+03</totfact>
</mgrwt>
</event>
<event>
 4    1  0.8877834E-005  0.3568462E+03  0.7818608E-02  0.1059840E+00
          2   -1    0    0  501    0  0.00000000000E+00  0.00000000000E+00  0.13326346502E+04  0.13326346502E+04  0.25500000000E-02 0.  1.
         -2   -1    0    0    0  501 -0.00000000000E+00 -0.00000000000E+00 -0.23888620695E+02  0.23888620831E+02  0.25500000000E-02 0. -1.
    5000001    1    1    2    0    0 -0.44888596699E+02  0.46908882805E+02  0.57888108810E+03  0.60542856190E+03  0.16500000000E+03 0.  0.
   -5000001    1    1    2    0    0  0.44888596699E+02 -0.46908882805E+02  0.72986494137E+03  0.75109470910E+03  0.16500000000E+03 0.  0.
<mgrwt>
<rscale>  0 0.35684621E+03</rscale>
<asrwt>0</asrwt>
<pdfrwt beam="1">  1        2 0.20502074E+00 0.35684621E+03</pdfrwt>
<pdfrwt beam="2">  1       -2 0.36751720E-02 0.35684621E+03</pdfrwt>
<totfact> 0.52743385E+03</totfact>
</mgrwt>
</event>
<event>
 4    1  0.8877834E-005  0.9567759E+03  0.7818608E-02  0.9357265E-01
          2   -1    0    0  501    0  0.00000000000E+00  0.00000000000E+00  0.53217840161E+03  0.53217840161E+03  0.25500000000E-02 0.  1.
         -2   -1    0    0    0  501 -0.00000000000E+00 -0.00000000000E+00 -0.43003445424E+03  0.43003445425E+03  0.25500000000E-02 0. -1.
    5000001    1    1    2    0    0 -0.26159364543E+03  0.36495349957E+03  0.53872817293E+02  0.48140375219E+03  0.16500000000E+03 0.  0.
   -5000001    1    1    2    0    0  0.26159364543E+03 -0.36495349957E+03  0.48271130070E+02  0.48080910368E+03  0.16500000000E+03 0.  0.
<mgrwt>
<rscale>  0 0.95677594E+03</rscale>
<asrwt>0</asrwt>
<pdfrwt beam="1">  1        2 0.81873600E-01 0.95677594E+03</pdfrwt>
<pdfrwt beam="2">  1       -2 0.66159147E-01 0.95677594E+03</pdfrwt>
<totfact> 0.12045115E+02</totfact>
</mgrwt>
</event>
<event>
 4    1  0.8877834E-005  0.4398245E+03  0.7818608E-02  0.1030801E+00
         -2   -1    0    0    0  501 -0.00000000000E+00  0.00000000000E+00  0.25528646258E+02  0.25528646385E+02  0.25500000000E-02 0. -1.
          2   -1    0    0  501    0  0.00000000000E+00 -0.00000000000E+00 -0.18943968543E+04  0.18943968543E+04  0.25500000000E-02 0.  1.
    5000001    1    1    2    0    0 -0.47746813402E+02 -0.12970326646E+03 -0.73757859572E+03  0.76834229376E+03  0.16500000000E+03 0.  0.
   -5000001    1    1    2    0    0  0.47746813402E+02  0.12970326646E+03 -0.11312896123E+04  0.11515832069E+04  0.16500000000E+03 0.  0.
<mgrwt>
<rscale>  0 0.43982445E+03</rscale>
<asrwt>0</asrwt>
<pdfrwt beam="1">  1        2 0.29144556E+00 0.43982445E+03</pdfrwt>
<pdfrwt beam="2">  1       -2 0.39274855E-02 0.43982445E+03</pdfrwt>
<totfact> 0.23683828E+03</totfact>
</mgrwt>
</event>
<event>
 4    1  0.8877834E-005  0.5003056E+03  0.7818608E-02  0.1013699E+00
         -2   -1    0    0    0  501 -0.00000000000E+00  0.00000000000E+00  0.33098295867E+03  0.33098295868E+03  0.25500000000E-02 0. -1.
          2   -1    0    0  501    0  0.00000000000E+00 -0.00000000000E+00 -0.18906235644E+03  0.18906235646E+03  0.25500000000E-02 0.  1.
    5000001    1    1    2    0    0 -0.10302472027E+03  0.11202614016E+03  0.18571291988E+03  0.29133869924E+03  0.16500000000E+03 0.  0.
   -5000001    1    1    2    0    0  0.10302472027E+03 -0.11202614016E+03 -0.43792317653E+02  0.22870661589E+03  0.16500000000E+03 0.  0.
<mgrwt>
<rscale>  0 0.50030558E+03</rscale>
<asrwt>0</asrwt>
<pdfrwt beam="1">  1        2 0.29086517E-01 0.50030558E+03</pdfrwt>
<pdfrwt beam="2">  1       -2 0.50920455E-01 0.50030558E+03</pdfrwt>
<totfact> 0.67588934E+02</totfact>
</mgrwt>
</event>
<event>
 4    1  0.8877834E-005  0.4695945E+03  0.7818608E-02  0.1022035E+00
         -2   -1    0    0    0  501 -0.00000000000E+00  0.00000000000E+00  0.44335353452E+02  0.44335353525E+02  0.25500000000E-02 0. -1.
          2   -1    0    0  501    0  0.00000000000E+00 -0.00000000000E+00 -0.12434716377E+04  0.12434716377E+04  0.25500000000E-02 0.  1.
    5000001    1    1    2    0    0 -0.43882236247E+02 -0.15605076678E+03 -0.71019396477E+03  0.74691228405E+03  0.16500000000E+03 0.  0.
   -5000001    1    1    2    0    0  0.43882236247E+02  0.15605076678E+03 -0.48894231944E+03  0.54089470713E+03  0.16500000000E+03 0.  0.
<mgrwt>
<rscale>  0 0.46959453E+03</rscale>
<asrwt>0</asrwt>
<pdfrwt beam="1">  1        2 0.19130330E+00 0.46959453E+03</pdfrwt>
<pdfrwt beam="2">  1       -2 0.68208246E-02 0.46959453E+03</pdfrwt>
<totfact> 0.22881872E+03</totfact>
</mgrwt>
</event>
<event>
 4    1  0.8877834E-005  0.4495865E+03  0.7818608E-02  0.1027845E+00
         -2   -1    0    0    0  501 -0.00000000000E+00  0.00000000000E+00  0.61565074986E+02  0.61565075039E+02  0.25500000000E-02 0. -1.
          2   -1    0    0  501    0  0.00000000000E+00 -0.00000000000E+00 -0.82079018189E+03  0.82079018190E+03  0.25500000000E-02 0.  1.
    5000001    1    1    2    0    0  0.12287453544E+03 -0.36917324558E+01 -0.20194392911E+03  0.28830215201E+03  0.16500000000E+03 0.  0.
   -5000001    1    1    2    0    0 -0.12287453544E+03  0.36917324558E+01 -0.55728117780E+03  0.59405310493E+03  0.16500000000E+03 0.  0.
<mgrwt>
<rscale>  0 0.44958652E+03</rscale>
<asrwt>0</asrwt>
<pdfrwt beam="1">  1        2 0.12627540E+00 0.44958652E+03</pdfrwt>
<pdfrwt beam="2">  1       -2 0.94715506E-02 0.44958652E+03</pdfrwt>
<totfact> 0.24936079E+03</totfact>
</mgrwt>
</event>
<event>
 4    1  0.8877834E-005  0.3842814E+03  0.7818608E-02  0.1049363E+00
         -2   -1    0    0    0  501 -0.00000000000E+00  0.00000000000E+00  0.82155081150E+02  0.82155081190E+02  0.25500000000E-02 0. -1.
          2   -1    0    0  501    0  0.00000000000E+00 -0.00000000000E+00 -0.44937027634E+03  0.44937027634E+03  0.25500000000E-02 0.  1.
    5000001    1    1    2    0    0  0.70022141744E+02 -0.23030343681E+02 -0.93334843006E+02  0.20339589471E+03  0.16500000000E+03 0.  0.
   -5000001    1    1    2    0    0 -0.70022141744E+02  0.23030343681E+02 -0.27388035218E+03  0.32812946283E+03  0.16500000000E+03 0.  0.
<mgrwt>
<rscale>  0 0.38428142E+03</rscale>
<asrwt>0</asrwt>
<pdfrwt beam="1">  1        2 0.69133887E-01 0.38428142E+03</pdfrwt>
<pdfrwt beam="2">  1       -2 0.12639244E-01 0.38428142E+03</pdfrwt>
<totfact> 0.32052718E+03</totfact>
</mgrwt>
</event>
<event>
 4    1  0.8877834E-005  0.5427610E+03  0.7818608E-02  0.1003183E+00
          2   -1    0    0  501    0  0.00000000000E+00  0.00000000000E+00  0.31814630153E+04  0.31814630153E+04  0.25500000000E-02 0.  1.
         -2   -1    0    0    0  501 -0.00000000000E+00 -0.00000000000E+00 -0.23148901053E+02  0.23148901194E+02  0.25500000000E-02 0. -1.
    5000001    1    1    2    0    0 -0.14243393922E+03  0.12125560825E+03  0.22104462676E+04  0.22244747811E+04  0.16500000000E+03 0.  0.
   -5000001    1    1    2    0    0  0.14243393922E+03 -0.12125560825E+03  0.94786784664E+03  0.98013713544E+03  0.16500000000E+03 0.  0.
<mgrwt>
<rscale>  0 0.54276099E+03</rscale>
<asrwt>0</asrwt>
<pdfrwt beam="1">  1        2 0.48945562E+00 0.54276099E+03</pdfrwt>
<pdfrwt beam="2">  1       -2 0.35613711E-02 0.54276099E+03</pdfrwt>
<totfact> 0.50566278E+02</totfact>
</mgrwt>
</event>
<event>
 4    1  0.8877834E-005  0.1048380E+04  0.7818608E-02  0.9257018E-01
          2   -1    0    0  501    0  0.00000000000E+00  0.00000000000E+00  0.45103515774E+03  0.45103515775E+03  0.25500000000E-02 0.  1.
         -2   -1    0    0    0  501 -0.00000000000E+00 -0.00000000000E+00 -0.60921022432E+03  0.60921022432E+03  0.25500000000E-02 0. -1.
    5000001    1    1    2    0    0  0.20728676353E+03 -0.41917639182E+01  0.37831979345E+03  0.46188336118E+03  0.16500000000E+03 0.  0.
   -5000001    1    1    2    0    0 -0.20728676353E+03  0.41917639182E+01 -0.53649486002E+03  0.59836202089E+03  0.16500000000E+03 0.  0.
<mgrwt>
<rscale>  0 0.10483801E+04</rscale>
<asrwt>0</asrwt>
<pdfrwt beam="1">  1        2 0.69390024E-01 0.10483801E+04</pdfrwt>
<pdfrwt beam="2">  1       -2 0.93724650E-01 0.10483801E+04</pdfrwt>
<totfact> 0.66470834E+01</totfact>
</mgrwt>
</event>
<event>
 4    1  0.8877834E-005  0.5266608E+03  0.7818608E-02  0.1007045E+00
         -2   -1    0    0    0  501 -0.00000000000E+00  0.00000000000E+00  0.19534872793E+03  0.19534872794E+03  0.25500000000E-02 0. -1.
          2   -1    0    0  501    0  0.00000000000E+00 -0.00000000000E+00 -0.35496983185E+03  0.35496983186E+03  0.25500000000E-02 0.  1.
    5000001    1    1    2    0    0 -0.13804463199E+03  0.10088533525E+03  0.38794727151E+02  0.24075755885E+03  0.16500000000E+03 0.  0.
   -5000001    1    1    2    0    0  0.13804463199E+03 -0.10088533525E+03 -0.19841583108E+03  0.30956100095E+03  0.16500000000E+03 0.  0.
<mgrwt>
<rscale>  0 0.52666082E+03</rscale>
<asrwt>0</asrwt>
<pdfrwt beam="1">  1        2 0.54610743E-01 0.52666082E+03</pdfrwt>
<pdfrwt beam="2">  1       -2 0.30053651E-01 0.52666082E+03</pdfrwt>
<totfact> 0.93194991E+02</totfact>
</mgrwt>
</event>
<event>
 4    1  0.8877834E-005  0.5588679E+03  0.7818608E-02  0.9994619E-01
          2   -1    0    0  501    0  0.00000000000E+00  0.00000000000E+00  0.10057812841E+04  0.10057812841E+04  0.25500000000E-02 0.  1.
         -2   -1    0    0    0  501 -0.00000000000E+00 -0.00000000000E+00 -0.77634515167E+02  0.77634515209E+02  0.25500000000E-02 0. -1.
    5000001    1    1    2    0    0 -0.11240981208E+03 -0.92728076797E+02  0.13041123483E+03  0.25586432391E+03  0.16500000000E+03 0.  0.
   -5000001    1    1    2    0    0  0.11240981208E+03  0.92728076797E+02  0.79773553412E+03  0.82755147542E+03  0.16500000000E+03 0.  0.
<mgrwt>
<rscale>  0 0.55886794E+03</rscale>
<asrwt>0</asrwt>
<pdfrwt beam="1">  1        2 0.15473558E+00 0.55886794E+03</pdfrwt>
<pdfrwt beam="2">  1       -2 0.11943772E-01 0.55886794E+03</pdfrwt>
<totfact> 0.12910043E+03</totfact>
</mgrwt>
</event>
<event>
 4    1  0.8877834E-005  0.4878417E+03  0.7818608E-02  0.1017002E+00
         -2   -1    0    0    0  501 -0.00000000000E+00  0.00000000000E+00  0.27856414858E+02  0.27856414974E+02  0.25500000000E-02 0. -1.
          2   -1    0    0  501    0  0.00000000000E+00 -0.00000000000E+00 -0.21358589632E+04  0.21358589632E+04  0.25500000000E-02 0.  1.
    5000001    1    1    2    0    0  0.30002917862E+02  0.15923799441E+03 -0.13979990575E+04  0.14169979812E+04  0.16500000000E+03 0.  0.
   -5000001    1    1    2    0    0 -0.30002917862E+02 -0.15923799441E+03 -0.71000349083E+03  0.74671739697E+03  0.16500000000E+03 0.  0.
<mgrwt>
<rscale>  0 0.48784167E+03</rscale>
<asrwt>0</asrwt>
<pdfrwt beam="1">  1        2 0.32859356E+00 0.48784167E+03</pdfrwt>
<pdfrwt beam="2">  1       -2 0.42856040E-02 0.48784167E+03</pdfrwt>
<totfact> 0.15333719E+03</totfact>
</mgrwt>
</event>
<event>
 4    1  0.8877834E-005  0.5181305E+03  0.7818608E-02  0.1009152E+00
         -2   -1    0    0    0  501 -0.00000000000E+00  0.00000000000E+00  0.12300686624E+03  0.12300686627E+03  0.25500000000E-02 0. -1.
          2   -1    0    0  501    0  0.00000000000E+00 -0.00000000000E+00 -0.54561834856E+03  0.54561834856E+03  0.25500000000E-02 0.  1.
    5000001    1    1    2    0    0  0.21751626066E+02  0.17542588720E+03 -0.33127265357E+03  0.41013893517E+03  0.16500000000E+03 0.  0.
   -5000001    1    1    2    0    0 -0.21751626066E+02 -0.17542588720E+03 -0.91338828743E+02  0.25848627966E+03  0.16500000000E+03 0.  0.
<mgrwt>
<rscale>  0 0.51813050E+03</rscale>
<asrwt>0</asrwt>
<pdfrwt beam="1">  1        2 0.83941283E-01 0.51813050E+03</pdfrwt>
<pdfrwt beam="2">  1       -2 0.18924134E-01 0.51813050E+03</pdfrwt>
<totfact> 0.13074226E+03</totfact>
</mgrwt>
</event>
<event>
 4    1  0.8877834E-005  0.6040752E+03  0.7818608E-02  0.9896987E-01
          2   -1    0    0  501    0  0.00000000000E+00  0.00000000000E+00  0.74298992639E+03  0.74298992639E+03  0.25500000000E-02 0.  1.
         -2   -1    0    0    0  501 -0.00000000000E+00 -0.00000000000E+00 -0.12278325800E+03  0.12278325803E+03  0.25500000000E-02 0. -1.
    5000001    1    1    2    0    0  0.21283697599E+03 -0.13371962956E+03  0.35117470460E+03  0.46230854506E+03  0.16500000000E+03 0.  0.
   -5000001    1    1    2    0    0 -0.21283697599E+03  0.13371962956E+03  0.26903196378E+03  0.40346463936E+03  0.16500000000E+03 0.  0.
<mgrwt>
<rscale>  0 0.60407524E+03</rscale>
<asrwt>0</asrwt>
<pdfrwt beam="1">  1        2 0.11430614E+00 0.60407524E+03</pdfrwt>
<pdfrwt beam="2">  1       -2 0.18889732E-01 0.60407524E+03</pdfrwt>
<totfact> 0.89971449E+02</totfact>
</mgrwt>
</event>
<event>
 4    1  0.8877834E-005  0.4444994E+03  0.7818608E-02  0.1029375E+00
          2   -1    0    0  501    0  0.00000000000E+00  0.00000000000E+00  0.19097475141E+03  0.19097475143E+03  0.25500000000E-02 0.  1.
         -2   -1    0    0    0  501 -0.00000000000E+00 -0.00000000000E+00 -0.25864641000E+03  0.25864641001E+03  0.25500000000E-02 0. -1.
    5000001    1    1    2    0    0  0.12983955033E+02  0.13944908644E+03 -0.84968296814E+02  0.23250643488E+03  0.16500000000E+03 0.  0.
   -5000001    1    1    2    0    0 -0.12983955033E+02 -0.13944908644E+03  0.17296638231E+02  0.21711472656E+03  0.16500000000E+03 0.  0.
<mgrwt>
<rscale>  0 0.44449942E+03</rscale>
<asrwt>0</asrwt>
<pdfrwt beam="1">  1        2 0.29380731E-01 0.44449942E+03</pdfrwt>
<pdfrwt beam="2">  1       -2 0.39791755E-01 0.44449942E+03</pdfrwt>
<totfact> 0.10881102E+03</totfact>
</mgrwt>
</event>
<event>
 4    1  0.8877834E-005  0.5608276E+03  0.7818608E-02  0.9990184E-01
         -2   -1    0    0    0  501 -0.00000000000E+00  0.00000000000E+00  0.70004848492E+02  0.70004848538E+02  0.25500000000E-02 0. -1.
          2   -1    0    0  501    0  0.00000000000E+00 -0.00000000000E+00 -0.11232350793E+04  0.11232350793E+04  0.25500000000E-02 0.  1.
    5000001    1    1    2    0    0  0.12447012552E+03  0.22441074505E+02 -0.12624251774E+03  0.24322538366E+03  0.16500000000E+03 0.  0.
   -5000001    1    1    2    0    0 -0.12447012552E+03 -0.22441074505E+02 -0.92698771310E+03  0.95001454421E+03  0.16500000000E+03 0.  0.
<mgrwt>
<rscale>  0 0.56082761E+03</rscale>
<asrwt>0</asrwt>
<pdfrwt beam="1">  1        2 0.17280538E+00 0.56082761E+03</pdfrwt>
<pdfrwt beam="2">  1       -2 0.10769978E-01 0.56082761E+03</pdfrwt>
<totfact> 0.12950329E+03</totfact>
</mgrwt>
</event>
<event>
 4    1  0.8877834E-005  0.3746947E+03  0.7818608E-02  0.1052912E+00
         -2   -1    0    0    0  501 -0.00000000000E+00  0.00000000000E+00  0.62190275973E+02  0.62190276025E+02  0.25500000000E-02 0. -1.
          2   -1    0    0  501    0  0.00000000000E+00 -0.00000000000E+00 -0.56438144812E+03  0.56438144813E+03  0.25500000000E-02 0.  1.
    5000001    1    1    2    0    0 -0.29753499393E+02  0.83353470921E+02 -0.26179859718E+03  0.32186422188E+03  0.16500000000E+03 0.  0.
   -5000001    1    1    2    0    0  0.29753499393E+02 -0.83353470921E+02 -0.24039257496E+03  0.30470750227E+03  0.16500000000E+03 0.  0.
<mgrwt>
<rscale>  0 0.37469475E+03</rscale>
<asrwt>0</asrwt>
<pdfrwt beam="1">  1        2 0.86827912E-01 0.37469475E+03</pdfrwt>
<pdfrwt beam="2">  1       -2 0.95677352E-02 0.37469475E+03</pdfrwt>
<totfact> 0.38789163E+03</totfact>
</mgrwt>
</event>
<event>
 4    1  0.8877834E-005  0.3971035E+03  0.7818608E-02  0.1044787E+00
          2   -1    0    0  501    0  0.00000000000E+00  0.00000000000E+00  0.13400130638E+04  0.13400130638E+04  0.25500000000E-02 0.  1.
         -2   -1    0    0    0  501 -0.00000000000E+00 -0.00000000000E+00 -0.29419710030E+02  0.29419710141E+02  0.25500000000E-02 0. -1.
    5000001    1    1    2    0    0 -0.37918037856E+02 -0.44406881548E+02  0.33201342959E+03  0.37532341540E+03  0.16500000000E+03 0.  0.
   -5000001    1    1    2    0    0  0.37918037856E+02  0.44406881548E+02  0.97857992416E+03  0.99410935851E+03  0.16500000000E+03 0.  0.
<mgrwt>
<rscale>  0 0.39710349E+03</rscale>
<asrwt>0</asrwt>
<pdfrwt beam="1">  1        2 0.20615587E+00 0.39710349E+03</pdfrwt>
<pdfrwt beam="2">  1       -2 0.45261089E-02 0.39710349E+03</pdfrwt>
<totfact> 0.38089630E+03</totfact>
</mgrwt>
</event>
<event>
 4    1  0.8877834E-005  0.4209759E+03  0.7818608E-02  0.1036749E+00
          2   -1    0    0  501    0  0.00000000000E+00  0.00000000000E+00  0.68908154441E+03  0.68908154441E+03  0.25500000000E-02 0.  1.
         -2   -1    0    0    0  501 -0.00000000000E+00 -0.00000000000E+00 -0.64295981106E+02  0.64295981157E+02  0.25500000000E-02 0. -1.
    5000001    1    1    2    0    0 -0.89538700467E+02  0.38968438982E+02  0.46783514928E+03  0.50559909516E+03  0.16500000000E+03 0.  0.
   -5000001    1    1    2    0    0  0.89538700467E+02 -0.38968438982E+02  0.15695041402E+03  0.24777843042E+03  0.16500000000E+03 0.  0.
<mgrwt>
<rscale>  0 0.42097589E+03</rscale>
<asrwt>0</asrwt>
<pdfrwt beam="1">  1        2 0.10601255E+00 0.42097589E+03</pdfrwt>
<pdfrwt beam="2">  1       -2 0.98916888E-02 0.42097589E+03</pdfrwt>
<totfact> 0.29028775E+03</totfact>
</mgrwt>
</event>
<event>
 4    1  0.8877834E-005  0.4860199E+03  0.7818608E-02  0.1017494E+00
          2   -1    0    0  501    0  0.00000000000E+00  0.00000000000E+00  0.23471009573E+04  0.23471009573E+04  0.25500000000E-02 0.  1.
         -2   -1    0    0    0  501 -0.00000000000E+00 -0.00000000000E+00 -0.25160325272E+02  0.25160325401E+02  0.25500000000E-02 0. -1.
    5000001    1    1    2    0    0 -0.17668857231E+03  0.17220620242E+02  0.10745584289E+04  0.11015517321E+04  0.16500000000E+03 0.  0.
   -5000001    1    1    2    0    0  0.17668857231E+03 -0.17220620242E+02  0.12473822031E+04  0.12707095506E+04  0.16500000000E+03 0.  0.
<mgrwt>
<rscale>  0 0.48601985E+03</rscale>
<asrwt>0</asrwt>
<pdfrwt beam="1">  1        2 0.36109236E+00 0.48601985E+03</pdfrwt>
<pdfrwt beam="2">  1       -2 0.38708203E-02 0.48601985E+03</pdfrwt>
<totfact> 0.13745731E+03</totfact>
</mgrwt>
</event>
<event>
 4    1  0.8877834E-005  0.4784978E+03  0.7818608E-02  0.1019549E+00
          2   -1    0    0  501    0  0.00000000000E+00  0.00000000000E+00  0.18233349947E+04  0.18233349947E+04  0.25500000000E-02 0. -1.
         -2   -1    0    0    0  501 -0.00000000000E+00 -0.00000000000E+00 -0.31393040168E+02  0.31393040271E+02  0.25500000000E-02 0.  1.
    5000001    1    1    2    0    0 -0.16320124483E+02 -0.17239092013E+03  0.91722026423E+03  0.94789397557E+03  0.16500000000E+03 0.  0.
   -5000001    1    1    2    0    0  0.16320124483E+02  0.17239092013E+03  0.87472169030E+03  0.90683405940E+03  0.16500000000E+03 0.  0.
<mgrwt>
<rscale>  0 0.47849777E+03</rscale>
<asrwt>0</asrwt>
<pdfrwt beam="1">  1        2 0.28051305E+00 0.47849777E+03</pdfrwt>
<pdfrwt beam="2">  1       -2 0.48296990E-02 0.47849777E+03</pdfrwt>
<totfact> 0.18800322E+03</totfact>
</mgrwt>
</event>
<event>
 4    1  0.8877834E-005  0.4362999E+03  0.7818608E-02  0.1031888E+00
          2   -1    0    0  501    0  0.00000000000E+00  0.00000000000E+00  0.14805911718E+03  0.14805911720E+03  0.25500000000E-02 0. -1.
         -2   -1    0    0    0  501 -0.00000000000E+00 -0.00000000000E+00 -0.32142167200E+03  0.32142167201E+03  0.25500000000E-02 0.  1.
    5000001    1    1    2    0    0  0.92743620434E+02  0.65878508217E+02 -0.17939071081E+03  0.26897469045E+03  0.16500000000E+03 0.  0.
   -5000001    1    1    2    0    0 -0.92743620434E+02 -0.65878508217E+02  0.60281559918E+01  0.20050609876E+03  0.16500000000E+03 0.  0.
<mgrwt>
<rscale>  0 0.43629994E+03</rscale>
<asrwt>0</asrwt>
<pdfrwt beam="1">  1        2 0.22778326E-01 0.43629994E+03</pdfrwt>
<pdfrwt beam="2">  1       -2 0.49449488E-01 0.43629994E+03</pdfrwt>
<totfact> 0.94590852E+02</totfact>
</mgrwt>
</event>
<event>
 4    1  0.8877834E-005  0.5003255E+03  0.7818608E-02  0.1013694E+00
          2   -1    0    0  501    0  0.00000000000E+00  0.00000000000E+00  0.40029150480E+03  0.40029150481E+03  0.25500000000E-02 0.  1.
         -2   -1    0    0    0  501 -0.00000000000E+00 -0.00000000000E+00 -0.15633955762E+03  0.15633955764E+03  0.25500000000E-02 0. -1.
    5000001    1    1    2    0    0  0.18469562192E+03  0.24581105809E+02  0.15011445834E+03  0.29064764599E+03  0.16500000000E+03 0.  0.
   -5000001    1    1    2    0    0 -0.18469562192E+03 -0.24581105809E+02  0.93837488845E+02  0.26598341646E+03  0.16500000000E+03 0.  0.
<mgrwt>
<rscale>  0 0.50032548E+03</rscale>
<asrwt>0</asrwt>
<pdfrwt beam="1">  1        2 0.61583308E-01 0.50032548E+03</pdfrwt>
<pdfrwt beam="2">  1       -2 0.24052240E-01 0.50032548E+03</pdfrwt>
<totfact> 0.12211637E+03</totfact>
</mgrwt>
</event>
<event>
 4    1  0.8877834E-005  0.6864303E+03  0.7818608E-02  0.9740724E-01
          2   -1    0    0  501    0  0.00000000000E+00  0.00000000000E+00  0.11094280087E+04  0.11094280087E+04  0.25500000000E-02 0.  1.
         -2   -1    0    0    0  501 -0.00000000000E+00 -0.00000000000E+00 -0.10617779848E+03  0.10617779852E+03  0.25500000000E-02 0. -1.
    5000001    1    1    2    0    0  0.28493876777E+03  0.65508939263E+02  0.37527967102E+03  0.50352890084E+03  0.16500000000E+03 0.  0.
   -5000001    1    1    2    0    0 -0.28493876777E+03 -0.65508939263E+02  0.62797053918E+03  0.71207690637E+03  0.16500000000E+03 0.  0.
<mgrwt>
<rscale>  0 0.68643025E+03</rscale>
<asrwt>0</asrwt>
<pdfrwt beam="1">  1        2 0.17068123E+00 0.68643025E+03</pdfrwt>
<pdfrwt beam="2">  1       -2 0.16335046E-01 0.68643025E+03</pdfrwt>
<totfact> 0.65696141E+02</totfact>
</mgrwt>
</event>
<event>
 4    1  0.8877834E-005  0.5152958E+03  0.7818608E-02  0.1009862E+00
          2   -1    0    0  501    0  0.00000000000E+00  0.00000000000E+00  0.15064831619E+04  0.15064831620E+04  0.25500000000E-02 0.  1.
         -2   -1    0    0    0  501 -0.00000000000E+00 -0.00000000000E+00 -0.44064508104E+02  0.44064508178E+02  0.25500000000E-02 0. -1.
    5000001    1    1    2    0    0 -0.14102130433E+03 -0.10866288714E+02  0.31478162254E+03  0.38251477670E+03  0.16500000000E+03 0.  0.
   -5000001    1    1    2    0    0  0.14102130433E+03  0.10866288714E+02  0.11476370313E+04  0.11680328934E+04  0.16500000000E+03 0.  0.
<mgrwt>
<rscale>  0 0.51529580E+03</rscale>
<asrwt>0</asrwt>
<pdfrwt beam="1">  1        2 0.23176661E+00 0.51529580E+03</pdfrwt>
<pdfrwt beam="2">  1       -2 0.67791559E-02 0.51529580E+03</pdfrwt>
<totfact> 0.16439070E+03</totfact>
</mgrwt>
</event>
<event>
 4    1  0.8877834E-005  0.7646863E+03  0.7818608E-02  0.9612587E-01
          2   -1    0    0  501    0  0.00000000000E+00  0.00000000000E+00  0.20804935032E+04  0.20804935032E+04  0.25500000000E-02 0.  1.
         -2   -1    0    0    0  501 -0.00000000000E+00 -0.00000000000E+00 -0.70265195319E+02  0.70265195365E+02  0.25500000000E-02 0. -1.
    5000001    1    1    2    0    0 -0.99871040564E+02 -0.29253642473E+03  0.14354469355E+04  0.14775942234E+04  0.16500000000E+03 0.  0.
   -5000001    1    1    2    0    0  0.99871040564E+02  0.29253642473E+03  0.57478137245E+03  0.67316447519E+03  0.16500000000E+03 0.  0.
<mgrwt>
<rscale>  0 0.76468629E+03</rscale>
<asrwt>0</asrwt>
<pdfrwt beam="1">  1        2 0.32007596E+00 0.76468629E+03</pdfrwt>
<pdfrwt beam="2">  1       -2 0.10810029E-01 0.76468629E+03</pdfrwt>
<totfact> 0.37309846E+02</totfact>
</mgrwt>
</event>
<event>
 4    1  0.8877834E-005  0.5264767E+03  0.7818608E-02  0.1007090E+00
          2   -1    0    0  501    0  0.00000000000E+00  0.00000000000E+00  0.36478781029E+04  0.36478781029E+04  0.25500000000E-02 0.  1.
         -2   -1    0    0    0  501 -0.00000000000E+00 -0.00000000000E+00 -0.18995817388E+02  0.18995817559E+02  0.25500000000E-02 0. -1.
    5000001    1    1    2    0    0  0.12816769541E+03  0.31598943902E+02  0.72105841023E+03  0.75138251401E+03  0.16500000000E+03 0.  0.
   -5000001    1    1    2    0    0 -0.12816769541E+03 -0.31598943902E+02  0.29078238752E+04  0.29154914064E+04  0.16500000000E+03 0.  0.
<mgrwt>
<rscale>  0 0.52647669E+03</rscale>
<asrwt>0</asrwt>
<pdfrwt beam="1">  1        2 0.56121203E+00 0.52647669E+03</pdfrwt>
<pdfrwt beam="2">  1       -2 0.29224334E-02 0.52647669E+03</pdfrwt>
<totfact> 0.33583289E+02</totfact>
</mgrwt>
</event>
<event>
 4    1  0.8877834E-005  0.5173292E+03  0.7818608E-02  0.1009352E+00
          2   -1    0    0  501    0  0.00000000000E+00  0.00000000000E+00  0.25869623962E+03  0.25869623963E+03  0.25500000000E-02 0.  1.
         -2   -1    0    0    0  501 -0.00000000000E+00 -0.00000000000E+00 -0.25863300744E+03  0.25863300745E+03  0.25500000000E-02 0. -1.
    5000001    1    1    2    0    0  0.15855097362E+03 -0.11769959451E+03  0.26314323363E+02  0.25866783603E+03  0.16500000000E+03 0.  0.
   -5000001    1    1    2    0    0 -0.15855097362E+03  0.11769959451E+03 -0.26251091181E+02  0.25866141106E+03  0.16500000000E+03 0.  0.
<mgrwt>
<rscale>  0 0.51732924E+03</rscale>
<asrwt>0</asrwt>
<pdfrwt beam="1">  1        2 0.39799422E-01 0.51732924E+03</pdfrwt>
<pdfrwt beam="2">  1       -2 0.39789693E-01 0.51732924E+03</pdfrwt>
<totfact> 0.77741458E+02</totfact>
</mgrwt>
</event>
<event>
 4    1  0.8877834E-005  0.6486949E+03  0.7818608E-02  0.9809231E-01
          2   -1    0    0  501    0  0.00000000000E+00  0.00000000000E+00  0.24644082504E+04  0.24644082504E+04  0.25500000000E-02 0.  1.
         -2   -1    0    0    0  501 -0.00000000000E+00 -0.00000000000E+00 -0.42688248300E+02  0.42688248376E+02  0.25500000000E-02 0. -1.
    5000001    1    1    2    0    0  0.20626362784E+03 -0.18791203354E+03  0.12533124751E+04  0.12945550497E+04  0.16500000000E+03 0.  0.
   -5000001    1    1    2    0    0 -0.20626362784E+03  0.18791203354E+03  0.11684075270E+04  0.12125414491E+04  0.16500000000E+03 0.  0.
<mgrwt>
<rscale>  0 0.64869491E+03</rscale>
<asrwt>0</asrwt>
<pdfrwt beam="1">  1        2 0.37913972E+00 0.64869491E+03</pdfrwt>
<pdfrwt beam="2">  1       -2 0.65674230E-02 0.64869491E+03</pdfrwt>
<totfact> 0.51408946E+02</totfact>
</mgrwt>
</event>
<event>
 4    1  0.8877834E-005  0.6543164E+03  0.7818608E-02  0.9798713E-01
         -2   -1    0    0    0  501 -0.00000000000E+00  0.00000000000E+00  0.28984447119E+03  0.28984447120E+03  0.25500000000E-02 0. -1.
          2   -1    0    0  501    0  0.00000000000E+00 -0.00000000000E+00 -0.36927559239E+03  0.36927559240E+03  0.25500000000E-02 0.  1.
    5000001    1    1    2    0    0 -0.54930207109E+02  0.25951342619E+03 -0.13760377424E+03  0.34135662394E+03  0.16500000000E+03 0.  0.
   -5000001    1    1    2    0    0  0.54930207109E+02 -0.25951342619E+03  0.58172653036E+02  0.31776343966E+03  0.16500000000E+03 0.  0.
<mgrwt>
<rscale>  0 0.65431640E+03</rscale>
<asrwt>0</asrwt>
<pdfrwt beam="1">  1        2 0.56811630E-01 0.65431640E+03</pdfrwt>
<pdfrwt beam="2">  1       -2 0.44591457E-01 0.65431640E+03</pdfrwt>
<totfact> 0.41864869E+02</totfact>
</mgrwt>
</event>
<event>
 4    1  0.8877834E-005  0.3795117E+03  0.7818608E-02  0.1051114E+00
         -2   -1    0    0    0  501 -0.00000000000E+00  0.00000000000E+00  0.16598279813E+02  0.16598280009E+02  0.25500000000E-02 0. -1.
          2   -1    0    0  501    0  0.00000000000E+00 -0.00000000000E+00 -0.21693386319E+04  0.21693386319E+04  0.25500000000E-02 0.  1.
    5000001    1    1    2    0    0 -0.73620765449E+02 -0.56445052977E+02 -0.11528330755E+04  0.11682701575E+04  0.16500000000E+03 0.  0.
   -5000001    1    1    2    0    0  0.73620765449E+02  0.56445052977E+02 -0.99990727661E+03  0.10176667544E+04  0.16500000000E+03 0.  0.
<mgrwt>
<rscale>  0 0.37951174E+03</rscale>
<asrwt>0</asrwt>
<pdfrwt beam="1">  1        2 0.33374418E+00 0.37951174E+03</pdfrwt>
<pdfrwt beam="2">  1       -2 0.25535832E-02 0.37951174E+03</pdfrwt>
<totfact> 0.32400197E+03</totfact>
</mgrwt>
</event>
<event>
 4    1  0.8877834E-005  0.6608474E+03  0.7818608E-02  0.9786635E-01
         -2   -1    0    0    0  501 -0.00000000000E+00  0.00000000000E+00  0.15913861801E+03  0.15913861803E+03  0.25500000000E-02 0. -1.
          2   -1    0    0  501    0  0.00000000000E+00 -0.00000000000E+00 -0.68606751449E+03  0.68606751449E+03  0.25500000000E-02 0.  1.
    5000001    1    1    2    0    0 -0.28980840525E+02 -0.24397526612E+03 -0.45139525138E+03  0.53976521985E+03  0.16500000000E+03 0.  0.
   -5000001    1    1    2    0    0  0.28980840525E+02  0.24397526612E+03 -0.75533645098E+02  0.30544091268E+03  0.16500000000E+03 0.  0.
<mgrwt>
<rscale>  0 0.66084744E+03</rscale>
<asrwt>0</asrwt>
<pdfrwt beam="1">  1        2 0.10554885E+00 0.66084744E+03</pdfrwt>
<pdfrwt beam="2">  1       -2 0.24482865E-01 0.66084744E+03</pdfrwt>
<totfact> 0.62924267E+02</totfact>
</mgrwt>
</event>
<event>
 4    1  0.8877834E-005  0.5021424E+03  0.7818608E-02  0.1013221E+00
          2   -1    0    0  501    0  0.00000000000E+00  0.00000000000E+00  0.15635000807E+04  0.15635000807E+04  0.25500000000E-02 0.  1.
         -2   -1    0    0    0  501 -0.00000000000E+00 -0.00000000000E+00 -0.40317712454E+02  0.40317712535E+02  0.25500000000E-02 0. -1.
    5000001    1    1    2    0    0 -0.17133948753E+03  0.39918873448E+02  0.53890595730E+03  0.59041965351E+03  0.16500000000E+03 0.  0.
   -5000001    1    1    2    0    0  0.17133948753E+03 -0.39918873448E+02  0.98427641098E+03  0.10133981398E+04  0.16500000000E+03 0.  0.
<mgrwt>
<rscale>  0 0.50214240E+03</rscale>
<asrwt>0</asrwt>
<pdfrwt beam="1">  1        2 0.24053848E+00 0.50214240E+03</pdfrwt>
<pdfrwt beam="2">  1       -2 0.62027249E-02 0.50214240E+03</pdfrwt>
<totfact> 0.17595491E+03</totfact>
</mgrwt>
</event>
<event>
 4    1  0.8877834E-005  0.4934777E+03  0.7818608E-02  0.1015495E+00
          2   -1    0    0  501    0  0.00000000000E+00  0.00000000000E+00  0.40987091132E+03  0.40987091133E+03  0.25500000000E-02 0.  1.
         -2   -1    0    0    0  501 -0.00000000000E+00 -0.00000000000E+00 -0.14853470379E+03  0.14853470381E+03  0.25500000000E-02 0. -1.
    5000001    1    1    2    0    0  0.17895271495E+03 -0.33359018334E+02  0.10491007752E+03  0.26714794152E+03  0.16500000000E+03 0.  0.
   -5000001    1    1    2    0    0 -0.17895271495E+03  0.33359018334E+02  0.15642613002E+03  0.29125767363E+03  0.16500000000E+03 0.  0.
<mgrwt>
<rscale>  0 0.49347768E+03</rscale>
<asrwt>0</asrwt>
<pdfrwt beam="1">  1        2 0.63057062E-01 0.49347768E+03</pdfrwt>
<pdfrwt beam="2">  1       -2 0.22851494E-01 0.49347768E+03</pdfrwt>
<totfact> 0.13024826E+03</totfact>
</mgrwt>
</event>
<event>
 4    1  0.8877834E-005  0.4860860E+03  0.7818608E-02  0.1017476E+00
          2   -1    0    0  501    0  0.00000000000E+00  0.00000000000E+00  0.13246921884E+04  0.13246921884E+04  0.25500000000E-02 0.  1.
         -2   -1    0    0    0  501 -0.00000000000E+00 -0.00000000000E+00 -0.44591417789E+02  0.44591417862E+02  0.25500000000E-02 0. -1.
    5000001    1    1    2    0    0  0.39920450307E+02  0.16311366325E+03  0.46997534960E+03  0.52564392769E+03  0.16500000000E+03 0.  0.
   -5000001    1    1    2    0    0 -0.39920450307E+02 -0.16311366325E+03  0.81012542106E+03  0.84363967862E+03  0.16500000000E+03 0.  0.
<mgrwt>
<rscale>  0 0.48608601E+03</rscale>
<asrwt>0</asrwt>
<pdfrwt beam="1">  1        2 0.20379879E+00 0.48608601E+03</pdfrwt>
<pdfrwt beam="2">  1       -2 0.68602182E-02 0.48608601E+03</pdfrwt>
<totfact> 0.20379610E+03</totfact>
</mgrwt>
</event>
<event>
 4    1  0.8877834E-005  0.8011806E+03  0.7818608E-02  0.9558310E-01
         -2   -1    0    0    0  501 -0.00000000000E+00  0.00000000000E+00  0.20549478232E+03  0.20549478233E+03  0.25500000000E-02 0. -1.
          2   -1    0    0  501    0  0.00000000000E+00 -0.00000000000E+00 -0.78090824555E+03  0.78090824555E+03  0.25500000000E-02 0.  1.
    5000001    1    1    2    0    0 -0.28623406573E+03 -0.22606753947E+03 -0.30559487162E+03  0.50363647440E+03  0.16500000000E+03 0.  0.
   -5000001    1    1    2    0    0  0.28623406573E+03  0.22606753947E+03 -0.26981859161E+03  0.48276655349E+03  0.16500000000E+03 0.  0.
<mgrwt>
<rscale>  0 0.80118055E+03</rscale>
<asrwt>0</asrwt>
<pdfrwt beam="1">  1        2 0.12013973E+00 0.80118055E+03</pdfrwt>
<pdfrwt beam="2">  1       -2 0.31614582E-01 0.80118055E+03</pdfrwt>
<totfact> 0.33206270E+02</totfact>
</mgrwt>
</event>
<event>
 4    1  0.8877834E-005  0.7352819E+03  0.7818608E-02  0.9658728E-01
         -2   -1    0    0    0  501 -0.00000000000E+00  0.00000000000E+00  0.24893067608E+03  0.24893067609E+03  0.25500000000E-02 0. -1.
          2   -1    0    0  501    0  0.00000000000E+00 -0.00000000000E+00 -0.54296189127E+03  0.54296189128E+03  0.25500000000E-02 0.  1.
    5000001    1    1    2    0    0 -0.29124741133E+03  0.14917592520E+03 -0.17853228509E+03  0.40764848593E+03  0.16500000000E+03 0.  0.
   -5000001    1    1    2    0    0  0.29124741133E+03 -0.14917592520E+03 -0.11549893010E+03  0.38424408143E+03  0.16500000000E+03 0.  0.
<mgrwt>
<rscale>  0 0.73528191E+03</rscale>
<asrwt>0</asrwt>
<pdfrwt beam="1">  1        2 0.83532598E-01 0.73528191E+03</pdfrwt>
<pdfrwt beam="2">  1       -2 0.38297027E-01 0.73528191E+03</pdfrwt>
<totfact> 0.36250586E+02</totfact>
</mgrwt>
</event>
<event>
 4    1  0.8877834E-005  0.3934636E+03  0.7818608E-02  0.1046067E+00
          2   -1    0    0  501    0  0.00000000000E+00  0.00000000000E+00  0.18328569614E+04  0.18328569614E+04  0.25500000000E-02 0.  1.
         -2   -1    0    0    0  501 -0.00000000000E+00 -0.00000000000E+00 -0.21116429031E+02  0.21116429185E+02  0.25500000000E-02 0. -1.
    5000001    1    1    2    0    0 -0.59311595197E+02 -0.72067481157E+02  0.11537199687E+04  0.11691904692E+04  0.16500000000E+03 0.  0.
   -5000001    1    1    2    0    0  0.59311595197E+02  0.72067481157E+02  0.65802056363E+03  0.68478292131E+03  0.16500000000E+03 0.  0.
<mgrwt>
<rscale>  0 0.39346356E+03</rscale>
<asrwt>0</asrwt>
<pdfrwt beam="1">  1        2 0.28197810E+00 0.39346356E+03</pdfrwt>
<pdfrwt beam="2">  1       -2 0.32486802E-02 0.39346356E+03</pdfrwt>
<totfact> 0.34112051E+03</totfact>
</mgrwt>
</event>
<event>
 4    1  0.8877834E-005  0.6168115E+03  0.7818608E-02  0.9871129E-01
          2   -1    0    0  501    0  0.00000000000E+00  0.00000000000E+00  0.10382101382E+04  0.10382101382E+04  0.25500000000E-02 0.  1.
         -2   -1    0    0    0  501 -0.00000000000E+00 -0.00000000000E+00 -0.91613536319E+02  0.91613536355E+02  0.25500000000E-02 0. -1.
    5000001    1    1    2    0    0  0.10266415454E+02 -0.25378558302E+03  0.36686027996E+03  0.47573520623E+03  0.16500000000E+03 0.  0.
   -5000001    1    1    2    0    0 -0.10266415454E+02  0.25378558302E+03  0.57973632190E+03  0.65408846830E+03  0.16500000000E+03 0.  0.
<mgrwt>
<rscale>  0 0.61681149E+03</rscale>
<asrwt>0</asrwt>
<pdfrwt beam="1">  1        2 0.15972464E+00 0.61681149E+03</pdfrwt>
<pdfrwt beam="2">  1       -2 0.14094390E-01 0.61681149E+03</pdfrwt>
<totfact> 0.93468557E+02</totfact>
</mgrwt>
</event>
<event>
 4    1  0.8877834E-005  0.5645509E+03  0.7818608E-02  0.9981810E-01
         -2   -1    0    0    0  501 -0.00000000000E+00  0.00000000000E+00  0.50116821746E+02  0.50116821811E+02  0.25500000000E-02 0. -1.
          2   -1    0    0  501    0  0.00000000000E+00 -0.00000000000E+00 -0.15898740189E+04  0.15898740189E+04  0.25500000000E-02 0.  1.
    5000001    1    1    2    0    0 -0.10408324116E+03  0.19090633665E+03 -0.97887100649E+03  0.10162145432E+04  0.16500000000E+03 0.  0.
   -5000001    1    1    2    0    0  0.10408324116E+03 -0.19090633665E+03 -0.56088619069E+03  0.62377629754E+03  0.16500000000E+03 0.  0.
<mgrwt>
<rscale>  0 0.56455091E+03</rscale>
<asrwt>0</asrwt>
<pdfrwt beam="1">  1        2 0.24459597E+00 0.56455091E+03</pdfrwt>
<pdfrwt beam="2">  1       -2 0.77102815E-02 0.56455091E+03</pdfrwt>
<totfact> 0.12050798E+03</totfact>
</mgrwt>
</event>
<event>
 4    1  0.8877834E-005  0.1828550E+04  0.7818608E-02  0.8691263E-01
         -2   -1    0    0    0  501 -0.00000000000E+00  0.00000000000E+00  0.12731942739E+04  0.12731942739E+04  0.25500000000E-02 0. -1.
          2   -1    0    0  501    0  0.00000000000E+00 -0.00000000000E+00 -0.65653648156E+03  0.65653648156E+03  0.25500000000E-02 0.  1.
    5000001    1    1    2    0    0 -0.65768394603E+03 -0.25703569933E+03  0.89596896263E+03  0.11526495155E+04  0.16500000000E+03 0.  0.
   -5000001    1    1    2    0    0  0.65768394603E+03  0.25703569933E+03 -0.27931117031E+03  0.77708123993E+03  0.16500000000E+03 0.  0.
<mgrwt>
<rscale>  0 0.18285497E+04</rscale>
<asrwt>0</asrwt>
<pdfrwt beam="1">  1        2 0.10100561E+00 0.18285497E+04</pdfrwt>
<pdfrwt beam="2">  1       -2 0.19587604E+00 0.18285497E+04</pdfrwt>
<totfact> 0.59185914E+00</totfact>
</mgrwt>
</event>
<event>
 4    1  0.8877834E-005  0.7735551E+03  0.7818608E-02  0.9599104E-01
          2   -1    0    0  501    0  0.00000000000E+00  0.00000000000E+00  0.13347226028E+04  0.13347226028E+04  0.25500000000E-02 0.  1.
         -2   -1    0    0    0  501 -0.00000000000E+00 -0.00000000000E+00 -0.11208087033E+03  0.11208087035E+03  0.25500000000E-02 0. -1.
    5000001    1    1    2    0    0 -0.79729226394E+02 -0.31602252810E+03  0.84896973187E+03  0.92423027079E+03  0.16500000000E+03 0.  0.
   -5000001    1    1    2    0    0  0.79729226394E+02  0.31602252810E+03  0.37367200064E+03  0.52257320241E+03  0.16500000000E+03 0.  0.
<mgrwt>
<rscale>  0 0.77355509E+03</rscale>
<asrwt>0</asrwt>
<pdfrwt beam="1">  1        2 0.20534193E+00 0.77355509E+03</pdfrwt>
<pdfrwt beam="2">  1       -2 0.17243211E-01 0.77355509E+03</pdfrwt>
<totfact> 0.43954052E+02</totfact>
</mgrwt>
</event>
<event>
 4    1  0.8877834E-005  0.5963816E+03  0.7818608E-02  0.9912942E-01
         -2   -1    0    0    0  501 -0.00000000000E+00  0.00000000000E+00  0.20032359309E+03  0.20032359310E+03  0.25500000000E-02 0. -1.
          2   -1    0    0  501    0  0.00000000000E+00 -0.00000000000E+00 -0.44387061071E+03  0.44387061072E+03  0.25500000000E-02 0.  1.
    5000001    1    1    2    0    0 -0.42443497374E+02  0.17995647510E+03 -0.30092233443E+03  0.38982692924E+03  0.16500000000E+03 0.  0.
   -5000001    1    1    2    0    0  0.42443497374E+02 -0.17995647510E+03  0.57375316805E+02  0.25436727458E+03  0.16500000000E+03 0.  0.
<mgrwt>
<rscale>  0 0.59638161E+03</rscale>
<asrwt>0</asrwt>
<pdfrwt beam="1">  1        2 0.68287786E-01 0.59638161E+03</pdfrwt>
<pdfrwt beam="2">  1       -2 0.30819014E-01 0.59638161E+03</pdfrwt>
<totfact> 0.69259393E+02</totfact>
</mgrwt>
</event>
<event>
 4    1  0.8877834E-005  0.4630804E+03  0.7818608E-02  0.1023892E+00
          2   -1    0    0  501    0  0.00000000000E+00  0.00000000000E+00  0.16244629782E+04  0.16244629782E+04  0.25500000000E-02 0.  1.
         -2   -1    0    0    0  501 -0.00000000000E+00 -0.00000000000E+00 -0.33002204112E+02  0.33002204211E+02  0.25500000000E-02 0. -1.
    5000001    1    1    2    0    0 -0.13946429957E+03 -0.17161603955E+02  0.10874101677E+04  0.11087969536E+04  0.16500000000E+03 0.  0.
   -5000001    1    1    2    0    0  0.13946429957E+03  0.17161603955E+02  0.50405060640E+03  0.54866822882E+03  0.16500000000E+03 0.  0.
<mgrwt>
<rscale>  0 0.46308038E+03</rscale>
<asrwt>0</asrwt>
<pdfrwt beam="1">  1        2 0.24991731E+00 0.46308038E+03</pdfrwt>
<pdfrwt beam="2">  1       -2 0.50772636E-02 0.46308038E+03</pdfrwt>
<totfact> 0.22280780E+03</totfact>
</mgrwt>
</event>
<event>
 4    1  0.8877834E-005  0.4388028E+03  0.7818608E-02  0.1031115E+00
          2   -1    0    0  501    0  0.00000000000E+00  0.00000000000E+00  0.26902123705E+03  0.26902123706E+03  0.25500000000E-02 0.  1.
         -2   -1    0    0    0  501 -0.00000000000E+00 -0.00000000000E+00 -0.17893370405E+03  0.17893370407E+03  0.25500000000E-02 0. -1.
    5000001    1    1    2    0    0  0.86854079754E+02  0.11178816567E+03  0.14902688583E+02  0.21791584449E+03  0.16500000000E+03 0.  0.
   -5000001    1    1    2    0    0 -0.86854079754E+02 -0.11178816567E+03  0.75184844410E+02  0.23003909664E+03  0.16500000000E+03 0.  0.
<mgrwt>
<rscale>  0 0.43880276E+03</rscale>
<asrwt>0</asrwt>
<pdfrwt beam="1">  1        2 0.41387883E-01 0.43880276E+03</pdfrwt>
<pdfrwt beam="2">  1       -2 0.27528262E-01 0.43880276E+03</pdfrwt>
<totfact> 0.14829285E+03</totfact>
</mgrwt>
</event>
<event>
 4    1  0.8877834E-005  0.4231971E+03  0.7818608E-02  0.1036031E+00
          2   -1    0    0  501    0  0.00000000000E+00  0.00000000000E+00  0.34560829705E+04  0.34560829705E+04  0.25500000000E-02 0.  1.
         -2   -1    0    0    0  501 -0.00000000000E+00 -0.00000000000E+00 -0.12955114308E+02  0.12955114559E+02  0.25500000000E-02 0. -1.
    5000001    1    1    2    0    0  0.46494697607E+02  0.12052087778E+03  0.14809073702E+04  0.14956599473E+04  0.16500000000E+03 0.  0.
   -5000001    1    1    2    0    0 -0.46494697607E+02 -0.12052087778E+03  0.19622204860E+04  0.19733781377E+04  0.16500000000E+03 0.  0.
<mgrwt>
<rscale>  0 0.42319712E+03</rscale>
<asrwt>0</asrwt>
<pdfrwt beam="1">  1        2 0.53170502E+00 0.42319712E+03</pdfrwt>
<pdfrwt beam="2">  1       -2 0.19930947E-02 0.42319712E+03</pdfrwt>
<totfact> 0.81948754E+02</totfact>
</mgrwt>
</event>
<event>
 4    1  0.8877834E-005  0.3875092E+03  0.7818608E-02  0.1048193E+00
         -2   -1    0    0    0  501 -0.00000000000E+00  0.00000000000E+00  0.25381457427E+02  0.25381457555E+02  0.25500000000E-02 0. -1.
          2   -1    0    0  501    0  0.00000000000E+00 -0.00000000000E+00 -0.14790654721E+04  0.14790654721E+04  0.25500000000E-02 0.  1.
    5000001    1    1    2    0    0  0.93302216011E+02 -0.27263321205E+02 -0.84117349509E+03  0.86269718966E+03  0.16500000000E+03 0.  0.
   -5000001    1    1    2    0    0 -0.93302216011E+02  0.27263321205E+02 -0.61251051962E+03  0.64174974004E+03  0.16500000000E+03 0.  0.
<mgrwt>
<rscale>  0 0.38750916E+03</rscale>
<asrwt>0</asrwt>
<pdfrwt beam="1">  1        2 0.22754847E+00 0.38750916E+03</pdfrwt>
<pdfrwt beam="2">  1       -2 0.39048408E-02 0.38750916E+03</pdfrwt>
<totfact> 0.39984460E+03</totfact>
</mgrwt>
</event>
<event>
 4    1  0.8877834E-005  0.7010950E+03  0.7818608E-02  0.9715361E-01
         -2   -1    0    0    0  501 -0.00000000000E+00  0.00000000000E+00  0.53240849976E+02  0.53240850037E+02  0.25500000000E-02 0. -1.
          2   -1    0    0  501    0  0.00000000000E+00 -0.00000000000E+00 -0.23080691641E+04  0.23080691641E+04  0.25500000000E-02 0.  1.
    5000001    1    1    2    0    0 -0.28440394668E+03  0.46719246431E+02 -0.15053287462E+04  0.15415277899E+04  0.16500000000E+03 0.  0.
   -5000001    1    1    2    0    0  0.28440394668E+03 -0.46719246431E+02 -0.74949956796E+03  0.81978222428E+03  0.16500000000E+03 0.  0.
<mgrwt>
<rscale>  0 0.70109504E+03</rscale>
<asrwt>0</asrwt>
<pdfrwt beam="1">  1        2 0.35508748E+00 0.70109504E+03</pdfrwt>
<pdfrwt beam="2">  1       -2 0.81909018E-02 0.70109504E+03</pdfrwt>
<totfact> 0.44043476E+02</totfact>
</mgrwt>
</event>
<event>
 4    1  0.8877834E-005  0.3992306E+03  0.7818608E-02  0.1044046E+00
         -2   -1    0    0    0  501 -0.00000000000E+00  0.00000000000E+00  0.18528345855E+02  0.18528346031E+02  0.25500000000E-02 0. -1.
          2   -1    0    0  501    0  0.00000000000E+00 -0.00000000000E+00 -0.21505574908E+04  0.21505574908E+04  0.25500000000E-02 0.  1.
    5000001    1    1    2    0    0  0.72229569986E+02  0.85149957373E+02 -0.11333610883E+04  0.11507388855E+04  0.16500000000E+03 0.  0.
   -5000001    1    1    2    0    0 -0.72229569986E+02 -0.85149957373E+02 -0.99866805664E+03  0.10183469514E+04  0.16500000000E+03 0.  0.
<mgrwt>
<rscale>  0 0.39923063E+03</rscale>
<asrwt>0</asrwt>
<pdfrwt beam="1">  1        2 0.33085480E+00 0.39923063E+03</pdfrwt>
<pdfrwt beam="2">  1       -2 0.28505165E-02 0.39923063E+03</pdfrwt>
<totfact> 0.28095294E+03</totfact>
</mgrwt>
</event>
<event>
 4    1  0.8877834E-005  0.7061226E+03  0.7818608E-02  0.9706819E-01
         -2   -1    0    0    0  501 -0.00000000000E+00  0.00000000000E+00  0.81986786567E+02  0.81986786606E+02  0.25500000000E-02 0. -1.
          2   -1    0    0  501    0  0.00000000000E+00 -0.00000000000E+00 -0.15203948306E+04  0.15203948307E+04  0.25500000000E-02 0.  1.
    5000001    1    1    2    0    0 -0.98275676918E+02  0.29618203964E+03 -0.73449040875E+03  0.81491292162E+03  0.16500000000E+03 0.  0.
   -5000001    1    1    2    0    0  0.98275676918E+02 -0.29618203964E+03 -0.70391763533E+03  0.78746869564E+03  0.16500000000E+03 0.  0.
<mgrwt>
<rscale>  0 0.70612261E+03</rscale>
<asrwt>0</asrwt>
<pdfrwt beam="1">  1        2 0.23390688E+00 0.70612261E+03</pdfrwt>
<pdfrwt beam="2">  1       -2 0.12613353E-01 0.70612261E+03</pdfrwt>
<totfact> 0.58794083E+02</totfact>
</mgrwt>
</event>
<event>
 4    1  0.8877834E-005  0.4859763E+03  0.7818608E-02  0.1017506E+00
         -2   -1    0    0    0  501 -0.00000000000E+00  0.00000000000E+00  0.11544261058E+03  0.11544261061E+03  0.25500000000E-02 0.  1.
          2   -1    0    0  501    0  0.00000000000E+00 -0.00000000000E+00 -0.51145104690E+03  0.51145104691E+03  0.25500000000E-02 0. -1.
    5000001    1    1    2    0    0 -0.27265917979E+02  0.17431290785E+03 -0.16412386720E+03  0.29204462657E+03  0.16500000000E+03 0.  0.
   -5000001    1    1    2    0    0  0.27265917979E+02 -0.17431290785E+03 -0.23188456912E+03  0.33484903094E+03  0.16500000000E+03 0.  0.
<mgrwt>
<rscale>  0 0.48597631E+03</rscale>
<asrwt>0</asrwt>
<pdfrwt beam="1">  1        2 0.78684775E-01 0.48597631E+03</pdfrwt>
<pdfrwt beam="2">  1       -2 0.17760402E-01 0.48597631E+03</pdfrwt>
<totfact> 0.15712013E+03</totfact>
</mgrwt>
</event>
<event>
 4    1  0.8877834E-005  0.6522093E+03  0.7818608E-02  0.9802642E-01
          2   -1    0    0  501    0  0.00000000000E+00  0.00000000000E+00  0.61281503695E+03  0.61281503695E+03  0.25500000000E-02 0.  1.
         -2   -1    0    0    0  501 -0.00000000000E+00 -0.00000000000E+00 -0.17353400582E+03  0.17353400584E+03  0.25500000000E-02 0. -1.
    5000001    1    1    2    0    0  0.27659059244E+03 -0.51143845222E+02  0.22096096665E+03  0.39391216980E+03  0.16500000000E+03 0.  0.
   -5000001    1    1    2    0    0 -0.27659059244E+03  0.51143845222E+02  0.21832006448E+03  0.39243687299E+03  0.16500000000E+03 0.  0.
<mgrwt>
<rscale>  0 0.65220932E+03</rscale>
<asrwt>0</asrwt>
<pdfrwt beam="1">  1        2 0.94279237E-01 0.65220932E+03</pdfrwt>
<pdfrwt beam="2">  1       -2 0.26697539E-01 0.65220932E+03</pdfrwt>
<totfact> 0.61833615E+02</totfact>
</mgrwt>
</event>
<event>
 4    1  0.8877834E-005  0.5773375E+03  0.7818608E-02  0.9953572E-01
         -2   -1    0    0    0  501 -0.00000000000E+00  0.00000000000E+00  0.26023821431E+02  0.26023821556E+02  0.25500000000E-02 0. -1.
          2   -1    0    0  501    0  0.00000000000E+00 -0.00000000000E+00 -0.32020527590E+04  0.32020527590E+04  0.25500000000E-02 0.  1.
    5000001    1    1    2    0    0  0.16253859345E+03  0.90584112754E+02 -0.24074880766E+04  0.24202991787E+04  0.16500000000E+03 0.  0.
   -5000001    1    1    2    0    0 -0.16253859345E+03 -0.90584112754E+02 -0.76854086104E+03  0.80777740184E+03  0.16500000000E+03 0.  0.
<mgrwt>
<rscale>  0 0.57733751E+03</rscale>
<asrwt>0</asrwt>
<pdfrwt beam="1">  1        2 0.49262319E+00 0.57733751E+03</pdfrwt>
<pdfrwt beam="2">  1       -2 0.40036674E-02 0.57733751E+03</pdfrwt>
<totfact> 0.40848979E+02</totfact>
</mgrwt>
</event>
<event>
 4    1  0.8877834E-005  0.4814079E+03  0.7818608E-02  0.1018749E+00
          2   -1    0    0  501    0  0.00000000000E+00  0.00000000000E+00  0.74782315067E+03  0.74782315067E+03  0.25500000000E-02 0.  1.
         -2   -1    0    0    0  501 -0.00000000000E+00 -0.00000000000E+00 -0.77476046968E+02  0.77476047010E+02  0.25500000000E-02 0. -1.
    5000001    1    1    2    0    0  0.17516650089E+03  0.19379802485E+01  0.32637798234E+03  0.40550542063E+03  0.16500000000E+03 0.  0.
   -5000001    1    1    2    0    0 -0.17516650089E+03 -0.19379802485E+01  0.34396912136E+03  0.41979377705E+03  0.16500000000E+03 0.  0.
<mgrwt>
<rscale>  0 0.48140786E+03</rscale>
<asrwt>0</asrwt>
<pdfrwt beam="1">  1        2 0.11504972E+00 0.48140786E+03</pdfrwt>
<pdfrwt beam="2">  1       -2 0.11919392E-01 0.48140786E+03</pdfrwt>
<totfact> 0.19380884E+03</totfact>
</mgrwt>
</event>
<event>
 4    1  0.8877834E-005  0.1045987E+04  0.7818608E-02  0.9259497E-01
         -2   -1    0    0    0  501 -0.00000000000E+00  0.00000000000E+00  0.16479033390E+03  0.16479033392E+03  0.25500000000E-02 0. -1.
          2   -1    0    0  501    0  0.00000000000E+00 -0.00000000000E+00 -0.16598185715E+04  0.16598185715E+04  0.25500000000E-02 0.  1.
    5000001    1    1    2    0    0 -0.30806995150E+03  0.17689610681E+03 -0.13520345945E+04  0.14076298776E+04  0.16500000000E+03 0.  0.
   -5000001    1    1    2    0    0  0.30806995150E+03 -0.17689610681E+03 -0.14299364301E+03  0.41697902773E+03  0.16500000000E+03 0.  0.
<mgrwt>
<rscale>  0 0.10459867E+04</rscale>
<asrwt>0</asrwt>
<pdfrwt beam="1">  1        2 0.25535669E+00 0.10459867E+04</pdfrwt>
<pdfrwt beam="2">  1       -2 0.25352360E-01 0.10459867E+04</pdfrwt>
<totfact> 0.14381056E+02</totfact>
</mgrwt>
</event>
<event>
 4    1  0.8877834E-005  0.5134687E+03  0.7818608E-02  0.1010322E+00
          2   -1    0    0  501    0  0.00000000000E+00  0.00000000000E+00  0.28384514913E+04  0.28384514913E+04  0.25500000000E-02 0.  1.
         -2   -1    0    0    0  501 -0.00000000000E+00 -0.00000000000E+00 -0.23221300540E+02  0.23221300680E+02  0.25500000000E-02 0. -1.
    5000001    1    1    2    0    0  0.17796215824E+03  0.83744638529E+02  0.13966922965E+04  0.14200908652E+04  0.16500000000E+03 0.  0.
   -5000001    1    1    2    0    0 -0.17796215824E+03 -0.83744638529E+02  0.14185378943E+04  0.14415819268E+04  0.16500000000E+03 0.  0.
<mgrwt>
<rscale>  0 0.51346873E+03</rscale>
<asrwt>0</asrwt>
<pdfrwt beam="1">  1        2 0.43668484E+00 0.51346873E+03</pdfrwt>
<pdfrwt beam="2">  1       -2 0.35725078E-02 0.51346873E+03</pdfrwt>
<totfact> 0.81567191E+02</totfact>
</mgrwt>
</event>
<event>
 4    1  0.8877834E-005  0.1013551E+04  0.7818608E-02  0.9293806E-01
         -2   -1    0    0    0  501 -0.00000000000E+00  0.00000000000E+00  0.79411070729E+03  0.79411070729E+03  0.25500000000E-02 0. -1.
          2   -1    0    0  501    0  0.00000000000E+00 -0.00000000000E+00 -0.32340776829E+03  0.32340776830E+03  0.25500000000E-02 0.  1.
    5000001    1    1    2    0    0  0.23879961933E+03  0.30328638987E+03 -0.77649718176E+02  0.42692197320E+03  0.16500000000E+03 0.  0.
   -5000001    1    1    2    0    0 -0.23879961933E+03 -0.30328638987E+03  0.54835265718E+03  0.69059650238E+03  0.16500000000E+03 0.  0.
<mgrwt>
<rscale>  0 0.10135513E+04</rscale>
<asrwt>0</asrwt>
<pdfrwt beam="1">  1        2 0.49755042E-01 0.10135513E+04</pdfrwt>
<pdfrwt beam="2">  1       -2 0.12217088E+00 0.10135513E+04</pdfrwt>
<totfact> 0.51120172E+01</totfact>
</mgrwt>
</event>
<event>
 4    1  0.8877834E-005  0.5735809E+03  0.7818608E-02  0.9961786E-01
         -2   -1    0    0    0  501 -0.00000000000E+00  0.00000000000E+00  0.10501639929E+03  0.10501639932E+03  0.25500000000E-02 0. -1.
          2   -1    0    0  501    0  0.00000000000E+00 -0.00000000000E+00 -0.78319932097E+03  0.78319932097E+03  0.25500000000E-02 0.  1.
    5000001    1    1    2    0    0 -0.14971322334E+03 -0.16598802593E+03 -0.22896283486E+03  0.36002090737E+03  0.16500000000E+03 0.  0.
   -5000001    1    1    2    0    0  0.14971322334E+03  0.16598802593E+03 -0.44922008682E+03  0.52819481293E+03  0.16500000000E+03 0.  0.
<mgrwt>
<rscale>  0 0.57358094E+03</rscale>
<asrwt>0</asrwt>
<pdfrwt beam="1">  1        2 0.12049220E+00 0.57358094E+03</pdfrwt>
<pdfrwt beam="2">  1       -2 0.16156370E-01 0.57358094E+03</pdfrwt>
<totfact> 0.10992362E+03</totfact>
</mgrwt>
</event>
<event>
 4    1  0.8877834E-005  0.4894095E+03  0.7818608E-02  0.1016581E+00
          2   -1    0    0  501    0  0.00000000000E+00  0.00000000000E+00  0.12106875861E+04  0.12106875861E+04  0.25500000000E-02 0.  1.
         -2   -1    0    0    0  501 -0.00000000000E+00 -0.00000000000E+00 -0.49459834026E+02  0.49459834092E+02  0.25500000000E-02 0. -1.
    5000001    1    1    2    0    0  0.96798895507E+02  0.18448463387E+02  0.97063968865E+03  0.98948308584E+03  0.16500000000E+03 0.  0.
   -5000001    1    1    2    0    0 -0.96798895507E+02 -0.18448463387E+02  0.19058806341E+03  0.27066433435E+03  0.16500000000E+03 0.  0.
<mgrwt>
<rscale>  0 0.48940947E+03</rscale>
<asrwt>0</asrwt>
<pdfrwt beam="1">  1        2 0.18625963E+00 0.48940947E+03</pdfrwt>
<pdfrwt beam="2">  1       -2 0.76092051E-02 0.48940947E+03</pdfrwt>
<totfact> 0.20111959E+03</totfact>
</mgrwt>
</event>
<event>
 4    1  0.8877834E-005  0.5831383E+03  0.7818608E-02  0.9941020E-01
         -2   -1    0    0    0  501 -0.00000000000E+00  0.00000000000E+00  0.75597839225E+03  0.75597839225E+03  0.25500000000E-02 0. -1.
          2   -1    0    0  501    0  0.00000000000E+00 -0.00000000000E+00 -0.11245371059E+03  0.11245371062E+03  0.25500000000E-02 0.  1.
    5000001    1    1    2    0    0 -0.14326003651E+02 -0.23770007980E+03  0.37072666353E+03  0.47049954449E+03  0.16500000000E+03 0.  0.
   -5000001    1    1    2    0    0  0.14326003651E+02  0.23770007980E+03  0.27279801813E+03  0.39793255837E+03  0.16500000000E+03 0.  0.
<mgrwt>
<rscale>  0 0.58313832E+03</rscale>
<asrwt>0</asrwt>
<pdfrwt beam="1">  1        2 0.17300571E-01 0.58313832E+03</pdfrwt>
<pdfrwt beam="2">  1       -2 0.11630437E+00 0.58313832E+03</pdfrwt>
<totfact> 0.19621661E+02</totfact>
</mgrwt>
</event>
<event>
 4    1  0.8877834E-005  0.5892009E+03  0.7818608E-02  0.9928067E-01
          2   -1    0    0  501    0  0.00000000000E+00  0.00000000000E+00  0.84472142191E+03  0.84472142191E+03  0.25500000000E-02 0.  1.
         -2   -1    0    0    0  501 -0.00000000000E+00 -0.00000000000E+00 -0.10274325913E+03  0.10274325916E+03  0.25500000000E-02 0. -1.
    5000001    1    1    2    0    0  0.23984927359E+03  0.22326938907E+02  0.43405798649E+03  0.52312283632E+03  0.16500000000E+03 0.  0.
   -5000001    1    1    2    0    0 -0.23984927359E+03 -0.22326938907E+02  0.30792017629E+03  0.42434184475E+03  0.16500000000E+03 0.  0.
<mgrwt>
<rscale>  0 0.58920092E+03</rscale>
<asrwt>0</asrwt>
<pdfrwt beam="1">  1        2 0.12995714E+00 0.58920092E+03</pdfrwt>
<pdfrwt beam="2">  1       -2 0.15806655E-01 0.58920092E+03</pdfrwt>
<totfact> 0.10318976E+03</totfact>
</mgrwt>
</event>
<event>
 4    1  0.8877834E-005  0.5812450E+03  0.7818608E-02  0.9945099E-01
         -2   -1    0    0    0  501 -0.00000000000E+00  0.00000000000E+00  0.13811486118E+03  0.13811486121E+03  0.25500000000E-02 0. -1.
          2   -1    0    0  501    0  0.00000000000E+00 -0.00000000000E+00 -0.61153038310E+03  0.61153038310E+03  0.25500000000E-02 0.  1.
    5000001    1    1    2    0    0 -0.40222031460E+02 -0.17504140887E+03 -0.44054578480E+03  0.50355029058E+03  0.16500000000E+03 0.  0.
   -5000001    1    1    2    0    0  0.40222031460E+02  0.17504140887E+03 -0.32869737113E+02  0.24609495373E+03  0.16500000000E+03 0.  0.
<mgrwt>
<rscale>  0 0.58124499E+03</rscale>
<asrwt>0</asrwt>
<pdfrwt beam="1">  1        2 0.94081596E-01 0.58124499E+03</pdfrwt>
<pdfrwt beam="2">  1       -2 0.21248440E-01 0.58124499E+03</pdfrwt>
<totfact> 0.93319639E+02</totfact>
</mgrwt>
</event>
<event>
 4    1  0.8877834E-005  0.4252226E+03  0.7818608E-02  0.1035380E+00
          2   -1    0    0  501    0  0.00000000000E+00  0.00000000000E+00  0.95963243740E+03  0.95963243741E+03  0.25500000000E-02 0.  1.
         -2   -1    0    0    0  501 -0.00000000000E+00 -0.00000000000E+00 -0.47105089737E+02  0.47105089806E+02  0.25500000000E-02 0. -1.
    5000001    1    1    2    0    0  0.12939843509E+03 -0.32110386578E+02  0.42248637098E+03  0.47275233007E+03  0.16500000000E+03 0.  0.
   -5000001    1    1    2    0    0 -0.12939843509E+03  0.32110386578E+02  0.49004097669E+03  0.53398519714E+03  0.16500000000E+03 0.  0.
<mgrwt>
<rscale>  0 0.42522263E+03</rscale>
<asrwt>0</asrwt>
<pdfrwt beam="1">  1        2 0.14763574E+00 0.42522263E+03</pdfrwt>
<pdfrwt beam="2">  1       -2 0.72469378E-02 0.42522263E+03</pdfrwt>
<totfact> 0.30832242E+03</totfact>
</mgrwt>
</event>
<event>
 4    1  0.8877834E-005  0.7422887E+03  0.7818608E-02  0.9647526E-01
         -2   -1    0    0    0  501 -0.00000000000E+00  0.00000000000E+00  0.75419709143E+02  0.75419709186E+02  0.25500000000E-02 0. -1.
          2   -1    0    0  501    0  0.00000000000E+00 -0.00000000000E+00 -0.18264210220E+04  0.18264210220E+04  0.25500000000E-02 0.  1.
    5000001    1    1    2    0    0 -0.27788974155E+03 -0.17837631288E+03 -0.97414517702E+03  0.10417411595E+04  0.16500000000E+03 0.  0.
   -5000001    1    1    2    0    0  0.27788974155E+03  0.17837631288E+03 -0.77685613583E+03  0.86009957170E+03  0.16500000000E+03 0.  0.
<mgrwt>
<rscale>  0 0.74228874E+03</rscale>
<asrwt>0</asrwt>
<pdfrwt beam="1">  1        2 0.28098782E+00 0.74228874E+03</pdfrwt>
<pdfrwt beam="2">  1       -2 0.11603034E-01 0.74228874E+03</pdfrwt>
<totfact> 0.45771771E+02</totfact>
</mgrwt>
</event>
<event>
 4    1  0.8877834E-005  0.5533364E+03  0.7818608E-02  0.1000725E+00
          2   -1    0    0  501    0  0.00000000000E+00  0.00000000000E+00  0.94879688762E+03  0.94879688762E+03  0.25500000000E-02 0.  1.
         -2   -1    0    0    0  501 -0.00000000000E+00 -0.00000000000E+00 -0.80676160096E+02  0.80676160136E+02  0.25500000000E-02 0. -1.
    5000001    1    1    2    0    0 -0.21431717409E+03 -0.42741671329E+02  0.36053977298E+03  0.45273903022E+03  0.16500000000E+03 0.  0.
   -5000001    1    1    2    0    0  0.21431717409E+03  0.42741671329E+02  0.50758095454E+03  0.57673401754E+03  0.16500000000E+03 0.  0.
<mgrwt>
<rscale>  0 0.55333639E+03</rscale>
<asrwt>0</asrwt>
<pdfrwt beam="1">  1        2 0.14596875E+00 0.55333639E+03</pdfrwt>
<pdfrwt beam="2">  1       -2 0.12411717E-01 0.55333639E+03</pdfrwt>
<totfact> 0.13178697E+03</totfact>
</mgrwt>
</event>
<event>
 4    1  0.8877834E-005  0.7745636E+03  0.7818608E-02  0.9597583E-01
         -2   -1    0    0    0  501 -0.00000000000E+00  0.00000000000E+00  0.19058800162E+03  0.19058800164E+03  0.25500000000E-02 0. -1.
          2   -1    0    0  501    0  0.00000000000E+00 -0.00000000000E+00 -0.78697083403E+03  0.78697083403E+03  0.25500000000E-02 0.  1.
    5000001    1    1    2    0    0  0.15030854888E+03  0.12875501028E+03 -0.66308594828E+03  0.71139193652E+03  0.16500000000E+03 0.  0.
   -5000001    1    1    2    0    0 -0.15030854888E+03 -0.12875501028E+03  0.66703115875E+02  0.26616689915E+03  0.16500000000E+03 0.  0.
<mgrwt>
<rscale>  0 0.77456362E+03</rscale>
<asrwt>0</asrwt>
<pdfrwt beam="1">  1        2 0.12107243E+00 0.77456362E+03</pdfrwt>
<pdfrwt beam="2">  1       -2 0.29321231E-01 0.77456362E+03</pdfrwt>
<totfact> 0.37855941E+02</totfact>
</mgrwt>
</event>
<event>
 4    1  0.8877834E-005  0.8236159E+03  0.7818608E-02  0.9526449E-01
         -2   -1    0    0    0  501 -0.00000000000E+00  0.00000000000E+00  0.32317555281E+03  0.32317555282E+03  0.25500000000E-02 0. -1.
          2   -1    0    0  501    0  0.00000000000E+00 -0.00000000000E+00 -0.52474815777E+03  0.52474815777E+03  0.25500000000E-02 0.  1.
    5000001    1    1    2    0    0 -0.33497212104E+03 -0.17999669768E+02 -0.27859872194E+03  0.46623230031E+03  0.16500000000E+03 0.  0.
   -5000001    1    1    2    0    0  0.33497212104E+03  0.17999669768E+02  0.77026116983E+02  0.38169141028E+03  0.16500000000E+03 0.  0.
<mgrwt>
<rscale>  0 0.82361587E+03</rscale>
<asrwt>0</asrwt>
<pdfrwt beam="1">  1        2 0.80730486E-01 0.82361587E+03</pdfrwt>
<pdfrwt beam="2">  1       -2 0.49719316E-01 0.82361587E+03</pdfrwt>
<totfact> 0.22417169E+02</totfact>
</mgrwt>
</event>
<event>
 4    1  0.8877834E-005  0.6575665E+03  0.7818608E-02  0.9792684E-01
          2   -1    0    0  501    0  0.00000000000E+00  0.00000000000E+00  0.25096619010E+03  0.25096619012E+03  0.25500000000E-02 0.  1.
         -2   -1    0    0    0  501 -0.00000000000E+00 -0.00000000000E+00 -0.43072906807E+03  0.43072906808E+03  0.25500000000E-02 0. -1.
    5000001    1    1    2    0    0 -0.11741725312E+03  0.25777182441E+03 -0.11611427096E+03  0.34776522067E+03  0.16500000000E+03 0.  0.
   -5000001    1    1    2    0    0  0.11741725312E+03 -0.25777182441E+03 -0.63648607009E+02  0.33393003753E+03  0.16500000000E+03 0.  0.
<mgrwt>
<rscale>  0 0.65756652E+03</rscale>
<asrwt>0</asrwt>
<pdfrwt beam="1">  1        2 0.38610183E-01 0.65756652E+03</pdfrwt>
<pdfrwt beam="2">  1       -2 0.66266011E-01 0.65756652E+03</pdfrwt>
<totfact> 0.28346305E+02</totfact>
</mgrwt>
</event>
<event>
 4    1  0.8877834E-005  0.4264359E+03  0.7818608E-02  0.1034992E+00
          2   -1    0    0  501    0  0.00000000000E+00  0.00000000000E+00  0.72159494676E+03  0.72159494676E+03  0.25500000000E-02 0.  1.
         -2   -1    0    0    0  501 -0.00000000000E+00 -0.00000000000E+00 -0.63001964666E+02  0.63001964718E+02  0.25500000000E-02 0. -1.
    5000001    1    1    2    0    0 -0.12476655961E+03 -0.51032588147E+02  0.34423025603E+03  0.40483390251E+03  0.16500000000E+03 0.  0.
   -5000001    1    1    2    0    0  0.12476655961E+03  0.51032588147E+02  0.31436272606E+03  0.37976300897E+03  0.16500000000E+03 0.  0.
<mgrwt>
<rscale>  0 0.42643592E+03</rscale>
<asrwt>0</asrwt>
<pdfrwt beam="1">  1        2 0.11101461E+00 0.42643592E+03</pdfrwt>
<pdfrwt beam="2">  1       -2 0.96926097E-02 0.42643592E+03</pdfrwt>
<totfact> 0.28329351E+03</totfact>
</mgrwt>
</event>
<event>
 4    1  0.8877834E-005  0.4494806E+03  0.7818608E-02  0.1027877E+00
         -2   -1    0    0    0  501 -0.00000000000E+00  0.00000000000E+00  0.55913482623E+02  0.55913482681E+02  0.25500000000E-02 0.  1.
          2   -1    0    0  501    0  0.00000000000E+00 -0.00000000000E+00 -0.90332777285E+03  0.90332777285E+03  0.25500000000E-02 0. -1.
    5000001    1    1    2    0    0 -0.15241829886E+03 -0.70243267668E+01 -0.42031749045E+03  0.47662613417E+03  0.16500000000E+03 0.  0.
   -5000001    1    1    2    0    0  0.15241829886E+03  0.70243267668E+01 -0.42709679977E+03  0.48261512136E+03  0.16500000000E+03 0.  0.
<mgrwt>
<rscale>  0 0.44948060E+03</rscale>
<asrwt>0</asrwt>
<pdfrwt beam="1">  1        2 0.13897349E+00 0.44948060E+03</pdfrwt>
<pdfrwt beam="2">  1       -2 0.86020749E-02 0.44948060E+03</pdfrwt>
<totfact> 0.25575860E+03</totfact>
</mgrwt>
</event>
<event>
 4    1  0.8877834E-005  0.5210259E+03  0.7818608E-02  0.1008432E+00
          2   -1    0    0  501    0  0.00000000000E+00  0.00000000000E+00  0.18894949796E+03  0.18894949797E+03  0.25500000000E-02 0.  1.
         -2   -1    0    0    0  501 -0.00000000000E+00 -0.00000000000E+00 -0.35918060173E+03  0.35918060173E+03  0.25500000000E-02 0. -1.
    5000001    1    1    2    0    0 -0.97545845405E+02 -0.70650904254E+02  0.84958357581E+02  0.22124571126E+03  0.16500000000E+03 0.  0.
   -5000001    1    1    2    0    0  0.97545845405E+02  0.70650904254E+02 -0.25518946135E+03  0.32688438845E+03  0.16500000000E+03 0.  0.
<mgrwt>
<rscale>  0 0.52102589E+03</rscale>
<asrwt>0</asrwt>
<pdfrwt beam="1">  1        2 0.29069154E-01 0.52102589E+03</pdfrwt>
<pdfrwt beam="2">  1       -2 0.55258554E-01 0.52102589E+03</pdfrwt>
<totfact> 0.57208141E+02</totfact>
</mgrwt>
</event>
<event>
 4    1  0.8877834E-005  0.4006745E+03  0.7818608E-02  0.1043546E+00
          2   -1    0    0  501    0  0.00000000000E+00  0.00000000000E+00  0.51733747330E+03  0.51733747331E+03  0.25500000000E-02 0.  1.
         -2   -1    0    0    0  501 -0.00000000000E+00 -0.00000000000E+00 -0.77579957631E+02  0.77579957673E+02  0.25500000000E-02 0. -1.
    5000001    1    1    2    0    0 -0.35895656456E+02  0.96887945210E+02  0.29006153847E+03  0.34933718408E+03  0.16500000000E+03 0.  0.
   -5000001    1    1    2    0    0  0.35895656456E+02 -0.96887945210E+02  0.14969597720E+03  0.24558024690E+03  0.16500000000E+03 0.  0.
<mgrwt>
<rscale>  0 0.40067453E+03</rscale>
<asrwt>0</asrwt>
<pdfrwt beam="1">  1        2 0.79590381E-01 0.40067453E+03</pdfrwt>
<pdfrwt beam="2">  1       -2 0.11935378E-01 0.40067453E+03</pdfrwt>
<totfact> 0.30044405E+03</totfact>
</mgrwt>
</event>
<event>
 4    1  0.8877834E-005  0.4869230E+03  0.7818608E-02  0.1017250E+00
         -2   -1    0    0    0  501 -0.00000000000E+00  0.00000000000E+00  0.18250052511E+02  0.18250052689E+02  0.25500000000E-02 0. -1.
          2   -1    0    0  501    0  0.00000000000E+00 -0.00000000000E+00 -0.32478531118E+04  0.32478531118E+04  0.25500000000E-02 0.  1.
    5000001    1    1    2    0    0 -0.10151763095E+03 -0.13003527494E+03 -0.11484644212E+04  0.11719259912E+04  0.16500000000E+03 0.  0.
   -5000001    1    1    2    0    0  0.10151763095E+03  0.13003527494E+03 -0.20811386381E+04  0.20941771733E+04  0.16500000000E+03 0.  0.
<mgrwt>
<rscale>  0 0.48692295E+03</rscale>
<asrwt>0</asrwt>
<pdfrwt beam="1">  1        2 0.49966925E+00 0.48692295E+03</pdfrwt>
<pdfrwt beam="2">  1       -2 0.28077030E-02 0.48692295E+03</pdfrwt>
<totfact> 0.66330533E+02</totfact>
</mgrwt>
</event>
<event>
 4    1  0.8877834E-005  0.4853792E+03  0.7818608E-02  0.1017667E+00
         -2   -1    0    0    0  501 -0.00000000000E+00  0.00000000000E+00  0.19712206844E+04  0.19712206844E+04  0.25500000000E-02 0. -1.
          2   -1    0    0  501    0  0.00000000000E+00 -0.00000000000E+00 -0.29879065810E+02  0.29879065919E+02  0.25500000000E-02 0.  1.
    5000001    1    1    2    0    0  0.61196852499E+02  0.15116281360E+02  0.16568301103E+04  0.16662186445E+04  0.16500000000E+03 0.  0.
   -5000001    1    1    2    0    0 -0.61196852499E+02 -0.15116281360E+02  0.28451150827E+03  0.33488110585E+03  0.16500000000E+03 0.  0.
<mgrwt>
<rscale>  0 0.48537916E+03</rscale>
<asrwt>0</asrwt>
<pdfrwt beam="1">  1        2 0.45967770E-02 0.48537916E+03</pdfrwt>
<pdfrwt beam="2">  1       -2 0.30326487E+00 0.48537916E+03</pdfrwt>
<totfact> 0.60069135E+01</totfact>
</mgrwt>
</event>
<event>
 4    1  0.8877834E-005  0.6321377E+03  0.7818608E-02  0.9840886E-01
          2   -1    0    0  501    0  0.00000000000E+00  0.00000000000E+00  0.19167055594E+04  0.19167055594E+04  0.25500000000E-02 0.  1.
         -2   -1    0    0    0  501 -0.00000000000E+00 -0.00000000000E+00 -0.52120432516E+02  0.52120432579E+02  0.25500000000E-02 0. -1.
    5000001    1    1    2    0    0 -0.12835850362E+03 -0.23526155150E+03  0.10231296851E+04  0.10704406829E+04  0.16500000000E+03 0.  0.
   -5000001    1    1    2    0    0  0.12835850362E+03  0.23526155150E+03  0.84145544176E+03  0.89838530906E+03  0.16500000000E+03 0.  0.
<mgrwt>
<rscale>  0 0.63213772E+03</rscale>
<asrwt>0</asrwt>
<pdfrwt beam="1">  1        2 0.29487784E+00 0.63213772E+03</pdfrwt>
<pdfrwt beam="2">  1       -2 0.80185264E-02 0.63213772E+03</pdfrwt>
<totfact> 0.74977742E+02</totfact>
</mgrwt>
</event>
<event>
 4    1  0.8877834E-005  0.4761542E+03  0.7818608E-02  0.1020197E+00
         -2   -1    0    0    0  501 -0.00000000000E+00  0.00000000000E+00  0.96704065698E+03  0.96704065699E+03  0.25500000000E-02 0. -1.
          2   -1    0    0  501    0  0.00000000000E+00 -0.00000000000E+00 -0.58612539395E+02  0.58612539450E+02  0.25500000000E-02 0.  1.
    5000001    1    1    2    0    0 -0.16272345804E+02 -0.17081106829E+03  0.46241591446E+03  0.52009103841E+03  0.16500000000E+03 0.  0.
   -5000001    1    1    2    0    0  0.16272345804E+02  0.17081106829E+03  0.44601220313E+03  0.50556215803E+03  0.16500000000E+03 0.  0.
<mgrwt>
<rscale>  0 0.47615421E+03</rscale>
<asrwt>0</asrwt>
<pdfrwt beam="1">  1        2 0.90173136E-02 0.47615421E+03</pdfrwt>
<pdfrwt beam="2">  1       -2 0.14877549E+00 0.47615421E+03</pdfrwt>
<totfact> 0.23633571E+02</totfact>
</mgrwt>
</event>
<event>
 4    1  0.8877834E-005  0.4332677E+03  0.7818608E-02  0.1032833E+00
          2   -1    0    0  501    0  0.00000000000E+00  0.00000000000E+00  0.36863930015E+03  0.36863930016E+03  0.25500000000E-02 0.  1.
         -2   -1    0    0    0  501 -0.00000000000E+00 -0.00000000000E+00 -0.12730662814E+03  0.12730662816E+03  0.25500000000E-02 0. -1.
    5000001    1    1    2    0    0 -0.11332808465E+03  0.51410628652E+02  0.19501592852E+03  0.28415228291E+03  0.16500000000E+03 0.  0.
   -5000001    1    1    2    0    0  0.11332808465E+03 -0.51410628652E+02  0.46316743503E+02  0.21179364541E+03  0.16500000000E+03 0.  0.
<mgrwt>
<rscale>  0 0.43326771E+03</rscale>
<asrwt>0</asrwt>
<pdfrwt beam="1">  1        2 0.56713737E-01 0.43326771E+03</pdfrwt>
<pdfrwt beam="2">  1       -2 0.19585635E-01 0.43326771E+03</pdfrwt>
<totfact> 0.19156625E+03</totfact>
</mgrwt>
</event>
<event>
 4    1  0.8877834E-005  0.3840187E+03  0.7818608E-02  0.1049458E+00
          2   -1    0    0  501    0  0.00000000000E+00  0.00000000000E+00  0.32311194273E+04  0.32311194273E+04  0.25500000000E-02 0.  1.
         -2   -1    0    0    0  501 -0.00000000000E+00 -0.00000000000E+00 -0.11410162901E+02  0.11410163186E+02  0.25500000000E-02 0. -1.
    5000001    1    1    2    0    0  0.37477727128E+02 -0.90589889787E+02  0.15624711518E+04  0.15742147910E+04  0.16500000000E+03 0.  0.
   -5000001    1    1    2    0    0 -0.37477727128E+02  0.90589889787E+02  0.16572381126E+04  0.16683147995E+04  0.16500000000E+03 0.  0.
<mgrwt>
<rscale>  0 0.38401875E+03</rscale>
<asrwt>0</asrwt>
<pdfrwt beam="1">  1        2 0.49709491E+00 0.38401875E+03</pdfrwt>
<pdfrwt beam="2">  1       -2 0.17554111E-02 0.38401875E+03</pdfrwt>
<totfact> 0.13902529E+03</totfact>
</mgrwt>
</event>
<event>
 4    1  0.8877834E-005  0.5922898E+03  0.7818608E-02  0.9921533E-01
          2   -1    0    0  501    0  0.00000000000E+00  0.00000000000E+00  0.33230288822E+03  0.33230288823E+03  0.25500000000E-02 0.  1.
         -2   -1    0    0    0  501 -0.00000000000E+00 -0.00000000000E+00 -0.26392124861E+03  0.26392124862E+03  0.25500000000E-02 0. -1.
    5000001    1    1    2    0    0 -0.13935954512E+03  0.10037016067E+03 -0.14299413025E+03  0.27779052046E+03  0.16500000000E+03 0.  0.
   -5000001    1    1    2    0    0  0.13935954512E+03 -0.10037016067E+03  0.21137576985E+03  0.31843361639E+03  0.16500000000E+03 0.  0.
<mgrwt>
<rscale>  0 0.59228977E+03</rscale>
<asrwt>0</asrwt>
<pdfrwt beam="1">  1        2 0.51123521E-01 0.59228977E+03</pdfrwt>
<pdfrwt beam="2">  1       -2 0.40603269E-01 0.59228977E+03</pdfrwt>
<totfact> 0.56666485E+02</totfact>
</mgrwt>
</event>
<event>
 4    1  0.8877834E-005  0.3744766E+03  0.7818608E-02  0.1052994E+00
          2   -1    0    0  501    0  0.00000000000E+00  0.00000000000E+00  0.80497713707E+02  0.80497713747E+02  0.25500000000E-02 0.  1.
         -2   -1    0    0    0  501 -0.00000000000E+00 -0.00000000000E+00 -0.43551777461E+03  0.43551777462E+03  0.25500000000E-02 0. -1.
    5000001    1    1    2    0    0  0.74740828801E+02 -0.36688817268E+02 -0.21887018833E+03  0.28646364541E+03  0.16500000000E+03 0.  0.
   -5000001    1    1    2    0    0 -0.74740828801E+02  0.36688817268E+02 -0.13614987258E+03  0.22955184296E+03  0.16500000000E+03 0.  0.
<mgrwt>
<rscale>  0 0.37447662E+03</rscale>
<asrwt>0</asrwt>
<pdfrwt beam="1">  1        2 0.12384264E-01 0.37447662E+03</pdfrwt>
<pdfrwt beam="2">  1       -2 0.67002733E-01 0.37447662E+03</pdfrwt>
<totfact> 0.10364051E+03</totfact>
</mgrwt>
</event>
<event>
 4    1  0.8877834E-005  0.6449281E+03  0.7818608E-02  0.9816343E-01
          2   -1    0    0  501    0  0.00000000000E+00  0.00000000000E+00  0.14078385380E+03  0.14078385382E+03  0.25500000000E-02 0.  1.
         -2   -1    0    0    0  501 -0.00000000000E+00 -0.00000000000E+00 -0.73860087019E+03  0.73860087019E+03  0.25500000000E-02 0. -1.
    5000001    1    1    2    0    0 -0.17564463875E+03  0.15760577573E+03 -0.10099581435E+03  0.30514877385E+03  0.16500000000E+03 0.  0.
   -5000001    1    1    2    0    0  0.17564463875E+03 -0.15760577573E+03 -0.49682120204E+03  0.57423595017E+03  0.16500000000E+03 0.  0.
<mgrwt>
<rscale>  0 0.64492814E+03</rscale>
<asrwt>0</asrwt>
<pdfrwt beam="1">  1        2 0.21659055E-01 0.64492814E+03</pdfrwt>
<pdfrwt beam="2">  1       -2 0.11363090E+00 0.64492814E+03</pdfrwt>
<totfact> 0.15904990E+02</totfact>
</mgrwt>
</event>
<event>
 4    1  0.8877834E-005  0.6093380E+03  0.7818608E-02  0.9886220E-01
          2   -1    0    0  501    0  0.00000000000E+00  0.00000000000E+00  0.92536572703E+03  0.92536572703E+03  0.25500000000E-02 0. -1.
         -2   -1    0    0    0  501 -0.00000000000E+00 -0.00000000000E+00 -0.10030975063E+03  0.10030975067E+03  0.25500000000E-02 0.  1.
    5000001    1    1    2    0    0  0.22025955707E+03  0.80864208383E+02  0.23967647349E+03  0.37379553853E+03  0.16500000000E+03 0.  0.
   -5000001    1    1    2    0    0 -0.22025955707E+03 -0.80864208383E+02  0.58537950290E+03  0.65187993917E+03  0.16500000000E+03 0.  0.
<mgrwt>
<rscale>  0 0.60933802E+03</rscale>
<asrwt>0</asrwt>
<pdfrwt beam="1">  1        2 0.14236395E+00 0.60933802E+03</pdfrwt>
<pdfrwt beam="2">  1       -2 0.15432270E-01 0.60933802E+03</pdfrwt>
<totfact> 0.94773319E+02</totfact>
</mgrwt>
</event>
<event>
 4    1  0.8877834E-005  0.4786629E+03  0.7818608E-02  0.1019503E+00
         -2   -1    0    0    0  501 -0.00000000000E+00  0.00000000000E+00  0.39727573245E+02  0.39727573327E+02  0.25500000000E-02 0. -1.
          2   -1    0    0  501    0  0.00000000000E+00 -0.00000000000E+00 -0.14418083572E+04  0.14418083572E+04  0.25500000000E-02 0.  1.
    5000001    1    1    2    0    0 -0.79869161334E+02  0.12375961918E+03 -0.98402323829E+03  0.10085743700E+04  0.16500000000E+03 0.  0.
   -5000001    1    1    2    0    0  0.79869161334E+02 -0.12375961918E+03 -0.41805754564E+03  0.47296156053E+03  0.16500000000E+03 0.  0.
<mgrwt>
<rscale>  0 0.47866292E+03</rscale>
<asrwt>0</asrwt>
<pdfrwt beam="1">  1        2 0.22181663E+00 0.47866292E+03</pdfrwt>
<pdfrwt beam="2">  1       -2 0.61119355E-02 0.47866292E+03</pdfrwt>
<totfact> 0.21011225E+03</totfact>
</mgrwt>
</event>
<event>
 4    1  0.8877834E-005  0.3852660E+03  0.7818608E-02  0.1049004E+00
         -2   -1    0    0    0  501 -0.00000000000E+00  0.00000000000E+00  0.75138304123E+02  0.75138304166E+02  0.25500000000E-02 0. -1.
          2   -1    0    0  501    0  0.00000000000E+00 -0.00000000000E+00 -0.49385552065E+03  0.49385552066E+03  0.25500000000E-02 0.  1.
    5000001    1    1    2    0    0  0.70661562092E+02 -0.69923068439E+02 -0.20997548091E+03  0.28495086320E+03  0.16500000000E+03 0.  0.
   -5000001    1    1    2    0    0 -0.70661562092E+02  0.69923068439E+02 -0.20874173562E+03  0.28404296162E+03  0.16500000000E+03 0.  0.
<mgrwt>
<rscale>  0 0.38526597E+03</rscale>
<asrwt>0</asrwt>
<pdfrwt beam="1">  1        2 0.75977770E-01 0.38526597E+03</pdfrwt>
<pdfrwt beam="2">  1       -2 0.11559739E-01 0.38526597E+03</pdfrwt>
<totfact> 0.33345881E+03</totfact>
</mgrwt>
</event>
<event>
 4    1  0.8877834E-005  0.4551192E+03  0.7818608E-02  0.1026206E+00
          2   -1    0    0  501    0  0.00000000000E+00  0.00000000000E+00  0.31501020357E+03  0.31501020358E+03  0.25500000000E-02 0.  1.
         -2   -1    0    0    0  501 -0.00000000000E+00 -0.00000000000E+00 -0.16438636572E+03  0.16438636574E+03  0.25500000000E-02 0. -1.
    5000001    1    1    2    0    0  0.48586653076E+02 -0.14389351086E+03  0.34619920118E+02  0.22691307629E+03  0.16500000000E+03 0.  0.
   -5000001    1    1    2    0    0 -0.48586653076E+02  0.14389351086E+03  0.11600391773E+03  0.25248349303E+03  0.16500000000E+03 0.  0.
<mgrwt>
<rscale>  0 0.45511925E+03</rscale>
<asrwt>0</asrwt>
<pdfrwt beam="1">  1        2 0.48463108E-01 0.45511925E+03</pdfrwt>
<pdfrwt beam="2">  1       -2 0.25290210E-01 0.45511925E+03</pdfrwt>
<totfact> 0.14536934E+03</totfact>
</mgrwt>
</event>
<event>
 4    1  0.8877834E-005  0.4103144E+03  0.7818608E-02  0.1040266E+00
         -2   -1    0    0    0  501 -0.00000000000E+00  0.00000000000E+00  0.60479768331E+02  0.60479768385E+02  0.25500000000E-02 0.  1.
          2   -1    0    0  501    0  0.00000000000E+00 -0.00000000000E+00 -0.69592648269E+03  0.69592648270E+03  0.25500000000E-02 0. -1.
    5000001    1    1    2    0    0 -0.14228580835E+02 -0.12089460551E+03 -0.30515056607E+03  0.36764089289E+03  0.16500000000E+03 0.  0.
   -5000001    1    1    2    0    0  0.14228580835E+02  0.12089460551E+03 -0.33029614829E+03  0.38876535819E+03  0.16500000000E+03 0.  0.
<mgrwt>
<rscale>  0 0.41031438E+03</rscale>
<asrwt>0</asrwt>
<pdfrwt beam="1">  1        2 0.10706561E+00 0.41031438E+03</pdfrwt>
<pdfrwt beam="2">  1       -2 0.93045802E-02 0.41031438E+03</pdfrwt>
<totfact> 0.31623790E+03</totfact>
</mgrwt>
</event>
<event>
 4    1  0.8877834E-005  0.4679379E+03  0.7818608E-02  0.1022504E+00
         -2   -1    0    0    0  501 -0.00000000000E+00  0.00000000000E+00  0.19800243539E+02  0.19800243703E+02  0.25500000000E-02 0. -1.
          2   -1    0    0  501    0  0.00000000000E+00 -0.00000000000E+00 -0.27646869404E+04  0.27646869404E+04  0.25500000000E-02 0.  1.
    5000001    1    1    2    0    0  0.16055821593E+02 -0.10808096916E+03 -0.21151230155E+04  0.21243609995E+04  0.16500000000E+03 0.  0.
   -5000001    1    1    2    0    0 -0.16055821593E+02  0.10808096916E+03 -0.62976368138E+03  0.66012618467E+03  0.16500000000E+03 0.  0.
<mgrwt>
<rscale>  0 0.46793792E+03</rscale>
<asrwt>0</asrwt>
<pdfrwt beam="1">  1        2 0.42533615E+00 0.46793792E+03</pdfrwt>
<pdfrwt beam="2">  1       -2 0.30461935E-02 0.46793792E+03</pdfrwt>
<totfact> 0.11525927E+03</totfact>
</mgrwt>
</event>
<event>
 4    1  0.8877834E-005  0.4571494E+03  0.7818608E-02  0.1025611E+00
          2   -1    0    0  501    0  0.00000000000E+00  0.00000000000E+00  0.67446138922E+03  0.67446138923E+03  0.25500000000E-02 0.  1.
         -2   -1    0    0    0  501 -0.00000000000E+00 -0.00000000000E+00 -0.77463891000E+02  0.77463891042E+02  0.25500000000E-02 0. -1.
    5000001    1    1    2    0    0 -0.89486252815E+02  0.14036889578E+02  0.51179603398E+03  0.54531184116E+03  0.16500000000E+03 0.  0.
   -5000001    1    1    2    0    0  0.89486252815E+02 -0.14036889578E+02  0.85201464245E+02  0.20661343911E+03  0.16500000000E+03 0.  0.
<mgrwt>
<rscale>  0 0.45714944E+03</rscale>
<asrwt>0</asrwt>
<pdfrwt beam="1">  1        2 0.10376329E+00 0.45714944E+03</pdfrwt>
<pdfrwt beam="2">  1       -2 0.11917522E-01 0.45714944E+03</pdfrwt>
<totfact> 0.22047613E+03</totfact>
</mgrwt>
</event>
<event>
 4    1  0.8877834E-005  0.7382263E+03  0.7818608E-02  0.9654005E-01
          2   -1    0    0  501    0  0.00000000000E+00  0.00000000000E+00  0.58744419431E+03  0.58744419431E+03  0.25500000000E-02 0.  1.
         -2   -1    0    0    0  501 -0.00000000000E+00 -0.00000000000E+00 -0.23192756943E+03  0.23192756944E+03  0.25500000000E-02 0. -1.
    5000001    1    1    2    0    0  0.29938158079E+03  0.12587461553E+03  0.11166677907E+03  0.38100947403E+03  0.16500000000E+03 0.  0.
   -5000001    1    1    2    0    0 -0.29938158079E+03 -0.12587461553E+03  0.24384984581E+03  0.43836228972E+03  0.16500000000E+03 0.  0.
<mgrwt>
<rscale>  0 0.73822626E+03</rscale>
<asrwt>0</asrwt>
<pdfrwt beam="1">  1        2 0.90376028E-01 0.73822626E+03</pdfrwt>
<pdfrwt beam="2">  1       -2 0.35681165E-01 0.73822626E+03</pdfrwt>
<totfact> 0.37814309E+02</totfact>
</mgrwt>
</event>
<event>
 4    1  0.8877834E-005  0.4237829E+03  0.7818608E-02  0.1035842E+00
         -2   -1    0    0    0  501 -0.00000000000E+00  0.00000000000E+00  0.18926439705E+02  0.18926439876E+02  0.25500000000E-02 0. -1.
          2   -1    0    0  501    0  0.00000000000E+00 -0.00000000000E+00 -0.23722362173E+04  0.23722362173E+04  0.25500000000E-02 0.  1.
    5000001    1    1    2    0    0 -0.11896015324E+03  0.49327949667E+02 -0.99052149425E+03  0.10123944860E+04  0.16500000000E+03 0.  0.
   -5000001    1    1    2    0    0  0.11896015324E+03 -0.49327949667E+02 -0.13627882833E+04  0.13787681712E+04  0.16500000000E+03 0.  0.
<mgrwt>
<rscale>  0 0.42378290E+03</rscale>
<asrwt>0</asrwt>
<pdfrwt beam="1">  1        2 0.36495918E+00 0.42378290E+03</pdfrwt>
<pdfrwt beam="2">  1       -2 0.29117619E-02 0.42378290E+03</pdfrwt>
<totfact> 0.20596318E+03</totfact>
</mgrwt>
</event>
<event>
 4    1  0.8877834E-005  0.6320372E+03  0.7818608E-02  0.9841081E-01
          2   -1    0    0  501    0  0.00000000000E+00  0.00000000000E+00  0.68147438158E+03  0.68147438159E+03  0.25500000000E-02 0.  1.
         -2   -1    0    0    0  501 -0.00000000000E+00 -0.00000000000E+00 -0.14654658024E+03  0.14654658026E+03  0.25500000000E-02 0. -1.
    5000001    1    1    2    0    0 -0.24043851065E+02  0.26543494660E+03  0.32001312223E+03  0.44795894461E+03  0.16500000000E+03 0.  0.
   -5000001    1    1    2    0    0  0.24043851065E+02 -0.26543494660E+03  0.21491467911E+03  0.38006201724E+03  0.16500000000E+03 0.  0.
<mgrwt>
<rscale>  0 0.63203715E+03</rscale>
<asrwt>0</asrwt>
<pdfrwt beam="1">  1        2 0.10484221E+00 0.63203715E+03</pdfrwt>
<pdfrwt beam="2">  1       -2 0.22545628E-01 0.63203715E+03</pdfrwt>
<totfact> 0.73555822E+02</totfact>
</mgrwt>
</event>
<event>
 4    1  0.8877834E-005  0.5667068E+03  0.7818608E-02  0.9976993E-01
          2   -1    0    0  501    0  0.00000000000E+00  0.00000000000E+00  0.38663568270E+03  0.38663568271E+03  0.25500000000E-02 0.  1.
         -2   -1    0    0    0  501 -0.00000000000E+00 -0.00000000000E+00 -0.20766095693E+03  0.20766095694E+03  0.25500000000E-02 0. -1.
    5000001    1    1    2    0    0 -0.13707127728E+03 -0.14938827713E+03  0.20416735696E+03  0.33168464247E+03  0.16500000000E+03 0.  0.
   -5000001    1    1    2    0    0  0.13707127728E+03  0.14938827713E+03 -0.25192631184E+02  0.26261199719E+03  0.16500000000E+03 0.  0.
<mgrwt>
<rscale>  0 0.56670675E+03</rscale>
<asrwt>0</asrwt>
<pdfrwt beam="1">  1        2 0.59482412E-01 0.56670675E+03</pdfrwt>
<pdfrwt beam="2">  1       -2 0.31947840E-01 0.56670675E+03</pdfrwt>
<totfact> 0.75655530E+02</totfact>
</mgrwt>
</event>
<event>
 4    1  0.8877834E-005  0.4647627E+03  0.7818608E-02  0.1023409E+00
          2   -1    0    0  501    0  0.00000000000E+00  0.00000000000E+00  0.52362431251E+03  0.52362431252E+03  0.25500000000E-02 0.  1.
         -2   -1    0    0    0  501 -0.00000000000E+00 -0.00000000000E+00 -0.10312946141E+03  0.10312946144E+03  0.25500000000E-02 0. -1.
    5000001    1    1    2    0    0 -0.41531671998E+02  0.14701617623E+03  0.13118241131E+03  0.26033144430E+03  0.16500000000E+03 0.  0.
   -5000001    1    1    2    0    0  0.41531671998E+02 -0.14701617623E+03  0.28931243980E+03  0.36642232966E+03  0.16500000000E+03 0.  0.
<mgrwt>
<rscale>  0 0.46476271E+03</rscale>
<asrwt>0</asrwt>
<pdfrwt beam="1">  1        2 0.80557587E-01 0.46476271E+03</pdfrwt>
<pdfrwt beam="2">  1       -2 0.15866071E-01 0.46476271E+03</pdfrwt>
<totfact> 0.18513754E+03</totfact>
</mgrwt>
</event>
<event>
 4    1  0.8877834E-005  0.4147409E+03  0.7818608E-02  0.1038792E+00
         -2   -1    0    0    0  501 -0.00000000000E+00  0.00000000000E+00  0.40283274439E+02  0.40283274519E+02  0.25500000000E-02 0. -1.
          2   -1    0    0  501    0  0.00000000000E+00 -0.00000000000E+00 -0.10675028703E+04  0.10675028703E+04  0.25500000000E-02 0.  1.
    5000001    1    1    2    0    0 -0.50544656742E+02  0.11427133898E+03 -0.47931954659E+03  0.52209666631E+03  0.16500000000E+03 0.  0.
   -5000001    1    1    2    0    0  0.50544656742E+02 -0.11427133898E+03 -0.54790004923E+03  0.58568947847E+03  0.16500000000E+03 0.  0.
<mgrwt>
<rscale>  0 0.41474094E+03</rscale>
<asrwt>0</asrwt>
<pdfrwt beam="1">  1        2 0.16423119E+00 0.41474094E+03</pdfrwt>
<pdfrwt beam="2">  1       -2 0.61974276E-02 0.41474094E+03</pdfrwt>
<totfact> 0.33746052E+03</totfact>
</mgrwt>
</event>
<event>
 4    1  0.8877834E-005  0.4091045E+03  0.7818608E-02  0.1040672E+00
          2   -1    0    0  501    0  0.00000000000E+00  0.00000000000E+00  0.28270003729E+03  0.28270003730E+03  0.25500000000E-02 0.  1.
         -2   -1    0    0    0  501 -0.00000000000E+00 -0.00000000000E+00 -0.14800711200E+03  0.14800711202E+03  0.25500000000E-02 0. -1.
    5000001    1    1    2    0    0 -0.49621120453E+02  0.54321616629E+02 -0.33654356973E+02  0.18376808583E+03  0.16500000000E+03 0.  0.
   -5000001    1    1    2    0    0  0.49621120453E+02 -0.54321616629E+02  0.16834728227E+03  0.24693906349E+03  0.16500000000E+03 0.  0.
<mgrwt>
<rscale>  0 0.40910447E+03</rscale>
<asrwt>0</asrwt>
<pdfrwt beam="1">  1        2 0.43492313E-01 0.40910447E+03</pdfrwt>
<pdfrwt beam="2">  1       -2 0.22770325E-01 0.40910447E+03</pdfrwt>
<totfact> 0.19692357E+03</totfact>
</mgrwt>
</event>
<event>
 4    1  0.8877834E-005  0.4304635E+03  0.7818608E-02  0.1033714E+00
          2   -1    0    0  501    0  0.00000000000E+00  0.00000000000E+00  0.17017093180E+04  0.17017093180E+04  0.25500000000E-02 0.  1.
         -2   -1    0    0    0  501 -0.00000000000E+00 -0.00000000000E+00 -0.27222449189E+02  0.27222449309E+02  0.25500000000E-02 0. -1.
    5000001    1    1    2    0    0 -0.10115548704E+03 -0.94149888504E+02  0.83021582202E+03  0.85765957419E+03  0.16500000000E+03 0.  0.
   -5000001    1    1    2    0    0  0.10115548704E+03  0.94149888504E+02  0.84427104683E+03  0.87127219316E+03  0.16500000000E+03 0.  0.
<mgrwt>
<rscale>  0 0.43046345E+03</rscale>
<asrwt>0</asrwt>
<pdfrwt beam="1">  1        2 0.26180153E+00 0.43046345E+03</pdfrwt>
<pdfrwt beam="2">  1       -2 0.41880676E-02 0.43046345E+03</pdfrwt>
<totfact> 0.27235859E+03</totfact>
</mgrwt>
</event>
<event>
 4    1  0.8877834E-005  0.3992763E+03  0.7818608E-02  0.1044031E+00
         -2   -1    0    0    0  501 -0.00000000000E+00  0.00000000000E+00  0.37284519058E+02  0.37284519145E+02  0.25500000000E-02 0. -1.
          2   -1    0    0  501    0  0.00000000000E+00 -0.00000000000E+00 -0.10689528980E+04  0.10689528980E+04  0.25500000000E-02 0.  1.
    5000001    1    1    2    0    0 -0.59024895145E+02 -0.61127045253E+02 -0.71961864279E+03  0.74316649882E+03  0.16500000000E+03 0.  0.
   -5000001    1    1    2    0    0  0.59024895145E+02  0.61127045253E+02 -0.31204973616E+03  0.36307091834E+03  0.16500000000E+03 0.  0.
<mgrwt>
<rscale>  0 0.39927632E+03</rscale>
<asrwt>0</asrwt>
<pdfrwt beam="1">  1        2 0.16445427E+00 0.39927632E+03</pdfrwt>
<pdfrwt beam="2">  1       -2 0.57360807E-02 0.39927632E+03</pdfrwt>
<totfact> 0.37963197E+03</totfact>
</mgrwt>
</event>
<event>
 4    1  0.8877834E-005  0.7580985E+03  0.7818608E-02  0.9622730E-01
         -2   -1    0    0    0  501 -0.00000000000E+00  0.00000000000E+00  0.80437722586E+02  0.80437722626E+02  0.25500000000E-02 0. -1.
          2   -1    0    0  501    0  0.00000000000E+00 -0.00000000000E+00 -0.17862058204E+04  0.17862058204E+04  0.25500000000E-02 0.  1.
    5000001    1    1    2    0    0 -0.27424023694E+03 -0.20281567621E+03 -0.82689312715E+03  0.90957086024E+03  0.16500000000E+03 0.  0.
   -5000001    1    1    2    0    0  0.27424023694E+03  0.20281567621E+03 -0.87887497069E+03  0.95707268281E+03  0.16500000000E+03 0.  0.
<mgrwt>
<rscale>  0 0.75809849E+03</rscale>
<asrwt>0</asrwt>
<pdfrwt beam="1">  1        2 0.27480087E+00 0.75809849E+03</pdfrwt>
<pdfrwt beam="2">  1       -2 0.12375036E-01 0.75809849E+03</pdfrwt>
<totfact> 0.43232718E+02</totfact>
</mgrwt>
</event>
<event>
 4    1  0.8877834E-005  0.4582240E+03  0.7818608E-02  0.1025298E+00
          2   -1    0    0  501    0  0.00000000000E+00  0.00000000000E+00  0.13714098794E+04  0.13714098794E+04  0.25500000000E-02 0.  1.
         -2   -1    0    0    0  501 -0.00000000000E+00 -0.00000000000E+00 -0.38276161690E+02  0.38276161775E+02  0.25500000000E-02 0. -1.
    5000001    1    1    2    0    0 -0.83586217555E+02 -0.11861941663E+03  0.86618039436E+03  0.89361663891E+03  0.16500000000E+03 0.  0.
   -5000001    1    1    2    0    0  0.83586217555E+02  0.11861941663E+03  0.46695332335E+03  0.51606940226E+03  0.16500000000E+03 0.  0.
<mgrwt>
<rscale>  0 0.45822399E+03</rscale>
<asrwt>0</asrwt>
<pdfrwt beam="1">  1        2 0.21098612E+00 0.45822399E+03</pdfrwt>
<pdfrwt beam="2">  1       -2 0.58886406E-02 0.45822399E+03</pdfrwt>
<totfact> 0.24371553E+03</totfact>
</mgrwt>
</event>
<event>
 4    1  0.8877834E-005  0.5588312E+03  0.7818608E-02  0.9994703E-01
         -2   -1    0    0    0  501 -0.00000000000E+00  0.00000000000E+00  0.37507740048E+03  0.37507740049E+03  0.25500000000E-02 0. -1.
          2   -1    0    0  501    0  0.00000000000E+00 -0.00000000000E+00 -0.20815193531E+03  0.20815193532E+03  0.25500000000E-02 0.  1.
    5000001    1    1    2    0    0 -0.11576483871E+03 -0.19030790000E+03  0.12005771687E+03  0.30208848052E+03  0.16500000000E+03 0.  0.
   -5000001    1    1    2    0    0  0.11576483871E+03  0.19030790000E+03  0.46867748300E+02  0.28114085529E+03  0.16500000000E+03 0.  0.
<mgrwt>
<rscale>  0 0.55883123E+03</rscale>
<asrwt>0</asrwt>
<pdfrwt beam="1">  1        2 0.32023375E-01 0.55883123E+03</pdfrwt>
<pdfrwt beam="2">  1       -2 0.57704215E-01 0.55883123E+03</pdfrwt>
<totfact> 0.46897295E+02</totfact>
</mgrwt>
</event>
<event>
 4    1  0.8877834E-005  0.1667222E+04  0.7818608E-02  0.8780283E-01
         -2   -1    0    0    0  501 -0.00000000000E+00  0.00000000000E+00  0.10875595189E+04  0.10875595189E+04  0.25500000000E-02 0. -1.
          2   -1    0    0  501    0  0.00000000000E+00 -0.00000000000E+00 -0.63895998083E+03  0.63895998084E+03  0.25500000000E-02 0.  1.
    5000001    1    1    2    0    0  0.12501335894E+03 -0.78251308928E+03  0.43070498766E+03  0.91688977593E+03  0.16500000000E+03 0.  0.
   -5000001    1    1    2    0    0 -0.12501335894E+03  0.78251308928E+03  0.17894550442E+02  0.80962972385E+03  0.16500000000E+03 0.  0.
<mgrwt>
<rscale>  0 0.16672217E+04</rscale>
<asrwt>0</asrwt>
<pdfrwt beam="1">  1        2 0.98301537E-01 0.16672217E+04</pdfrwt>
<pdfrwt beam="2">  1       -2 0.16731685E+00 0.16672217E+04</pdfrwt>
<totfact> 0.97519067E+00</totfact>
</mgrwt>
</event>
<event>
 4    1  0.8877834E-005  0.4429378E+03  0.7818608E-02  0.1029849E+00
         -2   -1    0    0    0  501 -0.00000000000E+00  0.00000000000E+00  0.50551782281E+02  0.50551782345E+02  0.25500000000E-02 0. -1.
          2   -1    0    0  501    0  0.00000000000E+00 -0.00000000000E+00 -0.97026187884E+03  0.97026187885E+03  0.25500000000E-02 0.  1.
    5000001    1    1    2    0    0  0.13955861475E+03 -0.20802586447E+02 -0.35902557146E+03  0.41956372045E+03  0.16500000000E+03 0.  0.
   -5000001    1    1    2    0    0 -0.13955861475E+03  0.20802586447E+02 -0.56068452511E+03  0.60124994075E+03  0.16500000000E+03 0.  0.
<mgrwt>
<rscale>  0 0.44293777E+03</rscale>
<asrwt>0</asrwt>
<pdfrwt beam="1">  1        2 0.14927104E+00 0.44293777E+03</pdfrwt>
<pdfrwt beam="2">  1       -2 0.77771980E-02 0.44293777E+03</pdfrwt>
<totfact> 0.27163218E+03</totfact>
</mgrwt>
</event>
<event>
 4    1  0.8877834E-005  0.3595340E+03  0.7818608E-02  0.1058769E+00
         -2   -1    0    0    0  501 -0.00000000000E+00  0.00000000000E+00  0.11083435745E+04  0.11083435745E+04  0.25500000000E-02 0. -1.
          2   -1    0    0  501    0  0.00000000000E+00 -0.00000000000E+00 -0.29157184395E+02  0.29157184506E+02  0.25500000000E-02 0.  1.
    5000001    1    1    2    0    0 -0.62270430148E+02 -0.24212629077E+02  0.61883535903E+03  0.64393016661E+03  0.16500000000E+03 0.  0.
   -5000001    1    1    2    0    0  0.62270430148E+02  0.24212629077E+02  0.46035103111E+03  0.49357059244E+03  0.16500000000E+03 0.  0.
<mgrwt>
<rscale>  0 0.35953402E+03</rscale>
<asrwt>0</asrwt>
<pdfrwt beam="1">  1        2 0.44857199E-02 0.35953402E+03</pdfrwt>
<pdfrwt beam="2">  1       -2 0.17051443E+00 0.35953402E+03</pdfrwt>
<totfact> 0.41147970E+02</totfact>
</mgrwt>
</event>
<event>
 4    1  0.8877834E-005  0.1017152E+04  0.7818608E-02  0.9289930E-01
          2   -1    0    0  501    0  0.00000000000E+00  0.00000000000E+00  0.13691177266E+04  0.13691177266E+04  0.25500000000E-02 0.  1.
         -2   -1    0    0    0  501 -0.00000000000E+00 -0.00000000000E+00 -0.18891704110E+03  0.18891704112E+03  0.25500000000E-02 0. -1.
    5000001    1    1    2    0    0  0.27659448531E+03 -0.38137687764E+03  0.73917654132E+03  0.89194158516E+03  0.16500000000E+03 0.  0.
   -5000001    1    1    2    0    0 -0.27659448531E+03  0.38137687764E+03  0.44102414417E+03  0.66609318255E+03  0.16500000000E+03 0.  0.
<mgrwt>
<rscale>  0 0.10171522E+04</rscale>
<asrwt>0</asrwt>
<pdfrwt beam="1">  1        2 0.21063349E+00 0.10171522E+04</pdfrwt>
<pdfrwt beam="2">  1       -2 0.29064161E-01 0.10171522E+04</pdfrwt>
<totfact> 0.16336717E+02</totfact>
</mgrwt>
</event>
<event>
 4    1  0.8877834E-005  0.4111380E+03  0.7818608E-02  0.1039990E+00
          2   -1    0    0  501    0  0.00000000000E+00  0.00000000000E+00  0.11357157511E+04  0.11357157511E+04  0.25500000000E-02 0.  1.
         -2   -1    0    0    0  501 -0.00000000000E+00 -0.00000000000E+00 -0.37208800134E+02  0.37208800222E+02  0.25500000000E-02 0. -1.
    5000001    1    1    2    0    0  0.10999885160E+02 -0.10821000048E+03  0.38778946931E+03  0.43524254639E+03  0.16500000000E+03 0.  0.
   -5000001    1    1    2    0    0 -0.10999885160E+02  0.10821000048E+03  0.71071748161E+03  0.73768200489E+03  0.16500000000E+03 0.  0.
<mgrwt>
<rscale>  0 0.41113803E+03</rscale>
<asrwt>0</asrwt>
<pdfrwt beam="1">  1        2 0.17472548E+00 0.41113803E+03</pdfrwt>
<pdfrwt beam="2">  1       -2 0.57244314E-02 0.41113803E+03</pdfrwt>
<totfact> 0.34747818E+03</totfact>
</mgrwt>
</event>
<event>
 4    1  0.8877834E-005  0.4346909E+03  0.7818608E-02  0.1032388E+00
          2   -1    0    0  501    0  0.00000000000E+00  0.00000000000E+00  0.38034215193E+02  0.38034215279E+02  0.25500000000E-02 0.  1.
         -2   -1    0    0    0  501 -0.00000000000E+00 -0.00000000000E+00 -0.12420142454E+04  0.12420142454E+04  0.25500000000E-02 0. -1.
    5000001    1    1    2    0    0 -0.12817996385E+03  0.55459675377E+02 -0.53560876036E+03  0.57758776208E+03  0.16500000000E+03 0.  0.
   -5000001    1    1    2    0    0  0.12817996385E+03 -0.55459675377E+02 -0.66837126982E+03  0.70246069858E+03  0.16500000000E+03 0.  0.
<mgrwt>
<rscale>  0 0.43469087E+03</rscale>
<asrwt>0</asrwt>
<pdfrwt beam="1">  1        2 0.58514187E-02 0.43469087E+03</pdfrwt>
<pdfrwt beam="2">  1       -2 0.19107908E+00 0.43469087E+03</pdfrwt>
<totfact> 0.20948334E+02</totfact>
</mgrwt>
</event>
<event>
 4    1  0.8877834E-005  0.4028669E+03  0.7818608E-02  0.1042791E+00
         -2   -1    0    0    0  501 -0.00000000000E+00  0.00000000000E+00  0.45161606681E+02  0.45161606753E+02  0.25500000000E-02 0. -1.
          2   -1    0    0  501    0  0.00000000000E+00 -0.00000000000E+00 -0.89844988699E+03  0.89844988699E+03  0.25500000000E-02 0.  1.
    5000001    1    1    2    0    0  0.27531664897E+02  0.55856290020E+02 -0.65460717683E+03  0.67794798743E+03  0.16500000000E+03 0.  0.
   -5000001    1    1    2    0    0 -0.27531664897E+02 -0.55856290020E+02 -0.19868110348E+03  0.26566350631E+03  0.16500000000E+03 0.  0.
<mgrwt>
<rscale>  0 0.40286693E+03</rscale>
<asrwt>0</asrwt>
<pdfrwt beam="1">  1        2 0.13822305E+00 0.40286693E+03</pdfrwt>
<pdfrwt beam="2">  1       -2 0.69479402E-02 0.40286693E+03</pdfrwt>
<totfact> 0.36068556E+03</totfact>
</mgrwt>
</event>
<event>
 4    1  0.8877834E-005  0.4659823E+03  0.7818608E-02  0.1023060E+00
          2   -1    0    0  501    0  0.00000000000E+00  0.00000000000E+00  0.43064577640E+03  0.43064577640E+03  0.25500000000E-02 0.  1.
         -2   -1    0    0    0  501 -0.00000000000E+00 -0.00000000000E+00 -0.12605458385E+03  0.12605458388E+03  0.25500000000E-02 0. -1.
    5000001    1    1    2    0    0  0.13969158233E+03  0.71282822528E+02  0.92982401537E+02  0.24589775509E+03  0.16500000000E+03 0.  0.
   -5000001    1    1    2    0    0 -0.13969158233E+03 -0.71282822528E+02  0.21160879101E+03  0.31080260519E+03  0.16500000000E+03 0.  0.
<mgrwt>
<rscale>  0 0.46598229E+03</rscale>
<asrwt>0</asrwt>
<pdfrwt beam="1">  1        2 0.66253197E-01 0.46598229E+03</pdfrwt>
<pdfrwt beam="2">  1       -2 0.19393013E-01 0.46598229E+03</pdfrwt>
<totfact> 0.16411369E+03</totfact>
</mgrwt>
</event>
<event>
 4    1  0.8877834E-005  0.9850786E+03  0.7818608E-02  0.9325063E-01
         -2   -1    0    0    0  501 -0.00000000000E+00  0.00000000000E+00  0.98968320369E+02  0.98968320402E+02  0.25500000000E-02 0. -1.
          2   -1    0    0  501    0  0.00000000000E+00 -0.00000000000E+00 -0.24512383384E+04  0.24512383384E+04  0.25500000000E-02 0.  1.
    5000001    1    1    2    0    0  0.40356746051E+03  0.22882259629E+03 -0.12071433254E+04  0.13037049067E+04  0.16500000000E+03 0.  0.
   -5000001    1    1    2    0    0 -0.40356746051E+03 -0.22882259629E+03 -0.11451266926E+04  0.12465017520E+04  0.16500000000E+03 0.  0.
<mgrwt>
<rscale>  0 0.98507856E+03</rscale>
<asrwt>0</asrwt>
<pdfrwt beam="1">  1        2 0.37711354E+00 0.98507856E+03</pdfrwt>
<pdfrwt beam="2">  1       -2 0.15225897E-01 0.98507856E+03</pdfrwt>
<totfact> 0.12859900E+02</totfact>
</mgrwt>
</event>
<event>
 4    1  0.8877834E-005  0.4988193E+03  0.7818608E-02  0.1014088E+00
         -2   -1    0    0    0  501 -0.00000000000E+00  0.00000000000E+00  0.94386958915E+02  0.94386958949E+02  0.25500000000E-02 0. -1.
          2   -1    0    0  501    0  0.00000000000E+00 -0.00000000000E+00 -0.65904425605E+03  0.65904425605E+03  0.25500000000E-02 0.  1.
    5000001    1    1    2    0    0  0.13933460681E+03  0.11389024410E+03 -0.35927256027E+03  0.43438104576E+03  0.16500000000E+03 0.  0.
   -5000001    1    1    2    0    0 -0.13933460681E+03 -0.11389024410E+03 -0.20538473687E+03  0.31905016924E+03  0.16500000000E+03 0.  0.
<mgrwt>
<rscale>  0 0.49881934E+03</rscale>
<asrwt>0</asrwt>
<pdfrwt beam="1">  1        2 0.10139142E+00 0.49881934E+03</pdfrwt>
<pdfrwt beam="2">  1       -2 0.14521071E-01 0.49881934E+03</pdfrwt>
<totfact> 0.16363145E+03</totfact>
</mgrwt>
</event>
<event>
 4    1  0.8877834E-005  0.5790350E+03  0.7818608E-02  0.9949882E-01
          2   -1    0    0  501    0  0.00000000000E+00  0.00000000000E+00  0.10552937997E+04  0.10552937997E+04  0.25500000000E-02 0.  1.
         -2   -1    0    0    0  501 -0.00000000000E+00 -0.00000000000E+00 -0.79428488824E+02  0.79428488865E+02  0.25500000000E-02 0. -1.
    5000001    1    1    2    0    0  0.31348465252E+02 -0.23579861911E+03  0.49462912337E+03  0.57312013115E+03  0.16500000000E+03 0.  0.
   -5000001    1    1    2    0    0 -0.31348465252E+02  0.23579861911E+03  0.48123618751E+03  0.56160215742E+03  0.16500000000E+03 0.  0.
<mgrwt>
<rscale>  0 0.57903503E+03</rscale>
<asrwt>0</asrwt>
<pdfrwt beam="1">  1        2 0.16235289E+00 0.57903503E+03</pdfrwt>
<pdfrwt beam="2">  1       -2 0.12219767E-01 0.57903503E+03</pdfrwt>
<totfact> 0.11575221E+03</totfact>
</mgrwt>
</event>
<event>
 4    1  0.8877834E-005  0.5966669E+03  0.7818608E-02  0.9912345E-01
          2   -1    0    0  501    0  0.00000000000E+00  0.00000000000E+00  0.35713824659E+03  0.35713824660E+03  0.25500000000E-02 0.  1.
         -2   -1    0    0    0  501 -0.00000000000E+00 -0.00000000000E+00 -0.24921116774E+03  0.24921116776E+03  0.25500000000E-02 0. -1.
    5000001    1    1    2    0    0  0.18072151382E+03  0.70412185099E+02  0.21191977945E+03  0.33129010594E+03  0.16500000000E+03 0.  0.
   -5000001    1    1    2    0    0 -0.18072151382E+03 -0.70412185099E+02 -0.10399270061E+03  0.27505930842E+03  0.16500000000E+03 0.  0.
<mgrwt>
<rscale>  0 0.59666687E+03</rscale>
<asrwt>0</asrwt>
<pdfrwt beam="1">  1        2 0.54944345E-01 0.59666687E+03</pdfrwt>
<pdfrwt beam="2">  1       -2 0.38340180E-01 0.59666687E+03</pdfrwt>
<totfact> 0.58457003E+02</totfact>
</mgrwt>
</event>
<event>
 4    1  0.8877834E-005  0.4944128E+03  0.7818608E-02  0.1015248E+00
         -2   -1    0    0    0  501 -0.00000000000E+00  0.00000000000E+00  0.25991668878E+02  0.25991669003E+02  0.25500000000E-02 0. -1.
          2   -1    0    0  501    0  0.00000000000E+00 -0.00000000000E+00 -0.23511765648E+04  0.23511765648E+04  0.25500000000E-02 0.  1.
    5000001    1    1    2    0    0  0.10294839971E+03 -0.14612686099E+03 -0.13740691286E+04  0.13954362768E+04  0.16500000000E+03 0.  0.
   -5000001    1    1    2    0    0 -0.10294839971E+03  0.14612686099E+03 -0.95111576734E+03  0.98173195700E+03  0.16500000000E+03 0.  0.
<mgrwt>
<rscale>  0 0.49441279E+03</rscale>
<asrwt>0</asrwt>
<pdfrwt beam="1">  1        2 0.36171930E+00 0.49441279E+03</pdfrwt>
<pdfrwt beam="2">  1       -2 0.39987202E-02 0.49441279E+03</pdfrwt>
<totfact> 0.13003779E+03</totfact>
</mgrwt>
</event>
<event>
 4    1  0.8877834E-005  0.3850160E+03  0.7818608E-02  0.1049095E+00
         -2   -1    0    0    0  501 -0.00000000000E+00  0.00000000000E+00  0.22960687424E+03  0.22960687425E+03  0.25500000000E-02 0. -1.
          2   -1    0    0  501    0  0.00000000000E+00 -0.00000000000E+00 -0.16140338015E+03  0.16140338017E+03  0.25500000000E-02 0.  1.
    5000001    1    1    2    0    0  0.90889444519E+02 -0.87558102340E+01  0.73392194126E+02  0.20235851723E+03  0.16500000000E+03 0.  0.
   -5000001    1    1    2    0    0 -0.90889444519E+02  0.87558102340E+01 -0.51887000346E+01  0.18865173719E+03  0.16500000000E+03 0.  0.
<mgrwt>
<rscale>  0 0.38501598E+03</rscale>
<asrwt>0</asrwt>
<pdfrwt beam="1">  1        2 0.24831290E-01 0.38501598E+03</pdfrwt>
<pdfrwt beam="2">  1       -2 0.35324134E-01 0.38501598E+03</pdfrwt>
<totfact> 0.16472975E+03</totfact>
</mgrwt>
</event>
<event>
 4    1  0.8877834E-005  0.5082901E+03  0.7818608E-02  0.1011637E+00
         -2   -1    0    0    0  501 -0.00000000000E+00  0.00000000000E+00  0.25126749136E+03  0.25126749137E+03  0.25500000000E-02 0. -1.
          2   -1    0    0  501    0  0.00000000000E+00 -0.00000000000E+00 -0.25705551336E+03  0.25705551337E+03  0.25500000000E-02 0.  1.
    5000001    1    1    2    0    0 -0.12642426851E+03 -0.30968041683E+02 -0.14581086408E+03  0.25578882571E+03  0.16500000000E+03 0.  0.
   -5000001    1    1    2    0    0  0.12642426851E+03  0.30968041683E+02  0.14002284208E+03  0.25253417903E+03  0.16500000000E+03 0.  0.
<mgrwt>
<rscale>  0 0.50829005E+03</rscale>
<asrwt>0</asrwt>
<pdfrwt beam="1">  1        2 0.39547002E-01 0.50829005E+03</pdfrwt>
<pdfrwt beam="2">  1       -2 0.38656537E-01 0.50829005E+03</pdfrwt>
<totfact> 0.82779688E+02</totfact>
</mgrwt>
</event>
<event>
 4    1  0.8877834E-005  0.4280353E+03  0.7818608E-02  0.1034482E+00
          2   -1    0    0  501    0  0.00000000000E+00  0.00000000000E+00  0.81585893284E+03  0.81585893284E+03  0.25500000000E-02 0.  1.
         -2   -1    0    0    0  501 -0.00000000000E+00 -0.00000000000E+00 -0.56141500900E+02  0.56141500958E+02  0.25500000000E-02 0. -1.
    5000001    1    1    2    0    0  0.26175546125E+02 -0.13295415347E+03  0.40983965489E+03  0.46212066483E+03  0.16500000000E+03 0.  0.
   -5000001    1    1    2    0    0 -0.26175546125E+02  0.13295415347E+03  0.34987777705E+03  0.40987976897E+03  0.16500000000E+03 0.  0.
<mgrwt>
<rscale>  0 0.42803526E+03</rscale>
<asrwt>0</asrwt>
<pdfrwt beam="1">  1        2 0.12551675E+00 0.42803526E+03</pdfrwt>
<pdfrwt beam="2">  1       -2 0.86371545E-02 0.42803526E+03</pdfrwt>
<totfact> 0.29114760E+03</totfact>
</mgrwt>
</event>
<event>
 4    1  0.8877834E-005  0.4864328E+03  0.7818608E-02  0.1017382E+00
         -2   -1    0    0    0  501 -0.00000000000E+00  0.00000000000E+00  0.93115265782E+03  0.93115265782E+03  0.25500000000E-02 0. -1.
          2   -1    0    0  501    0  0.00000000000E+00 -0.00000000000E+00 -0.63527955779E+02  0.63527955830E+02  0.25500000000E-02 0.  1.
    5000001    1    1    2    0    0 -0.80780339749E+02 -0.15916901323E+03  0.41682819861E+03  0.48252563168E+03  0.16500000000E+03 0.  0.
   -5000001    1    1    2    0    0  0.80780339749E+02  0.15916901323E+03  0.45079650342E+03  0.51215498197E+03  0.16500000000E+03 0.  0.
<mgrwt>
<rscale>  0 0.48643283E+03</rscale>
<asrwt>0</asrwt>
<pdfrwt beam="1">  1        2 0.97735322E-02 0.48643283E+03</pdfrwt>
<pdfrwt beam="2">  1       -2 0.14325425E+00 0.48643283E+03</pdfrwt>
<totfact> 0.23529125E+02</totfact>
</mgrwt>
</event>
<event>
 4    1  0.8877834E-005  0.1167546E+04  0.7818608E-02  0.9141748E-01
          2   -1    0    0  501    0  0.00000000000E+00  0.00000000000E+00  0.14560506891E+04  0.14560506891E+04  0.25500000000E-02 0.  1.
         -2   -1    0    0    0  501 -0.00000000000E+00 -0.00000000000E+00 -0.23405138556E+03  0.23405138558E+03  0.25500000000E-02 0. -1.
    5000001    1    1    2    0    0  0.45591524437E+03 -0.15313768604E+03  0.10261662473E+04  0.11452301201E+04  0.16500000000E+03 0.  0.
   -5000001    1    1    2    0    0 -0.45591524437E+03  0.15313768604E+03  0.19583305621E+03  0.54487195453E+03  0.16500000000E+03 0.  0.
<mgrwt>
<rscale>  0 0.11675456E+04</rscale>
<asrwt>0</asrwt>
<pdfrwt beam="1">  1        2 0.22400780E+00 0.11675456E+04</pdfrwt>
<pdfrwt beam="2">  1       -2 0.36007905E-01 0.11675456E+04</pdfrwt>
<totfact> 0.96362373E+01</totfact>
</mgrwt>
</event>
<event>
 4    1  0.8877834E-005  0.7999526E+03  0.7818608E-02  0.9560086E-01
          2   -1    0    0  501    0  0.00000000000E+00  0.00000000000E+00  0.40312966961E+03  0.40312966962E+03  0.25500000000E-02 0.  1.
         -2   -1    0    0    0  501 -0.00000000000E+00 -0.00000000000E+00 -0.39684755394E+03  0.39684755395E+03  0.25500000000E-02 0. -1.
    5000001    1    1    2    0    0 -0.34648097191E+03 -0.24923877557E+02  0.11307970020E+03  0.40085194545E+03  0.16500000000E+03 0.  0.
   -5000001    1    1    2    0    0  0.34648097191E+03  0.24923877557E+02 -0.10679758453E+03  0.39912527812E+03  0.16500000000E+03 0.  0.
<mgrwt>
<rscale>  0 0.79995256E+03</rscale>
<asrwt>0</asrwt>
<pdfrwt beam="1">  1        2 0.62019949E-01 0.79995256E+03</pdfrwt>
<pdfrwt beam="2">  1       -2 0.61053470E-01 0.79995256E+03</pdfrwt>
<totfact> 0.19825148E+02</totfact>
</mgrwt>
</event>
<event>
 4    1  0.8877834E-005  0.4807995E+03  0.7818608E-02  0.1018916E+00
          2   -1    0    0  501    0  0.00000000000E+00  0.00000000000E+00  0.50395930365E+03  0.50395930366E+03  0.25500000000E-02 0.  1.
         -2   -1    0    0    0  501 -0.00000000000E+00 -0.00000000000E+00 -0.11467602079E+03  0.11467602081E+03  0.25500000000E-02 0. -1.
    5000001    1    1    2    0    0 -0.11313048316E+03 -0.68132798351E+02  0.34205761341E+03  0.40208083182E+03  0.16500000000E+03 0.  0.
   -5000001    1    1    2    0    0  0.11313048316E+03  0.68132798351E+02  0.47225669457E+02  0.21655449265E+03  0.16500000000E+03 0.  0.
<mgrwt>
<rscale>  0 0.48079953E+03</rscale>
<asrwt>0</asrwt>
<pdfrwt beam="1">  1        2 0.77532201E-01 0.48079953E+03</pdfrwt>
<pdfrwt beam="2">  1       -2 0.17642465E-01 0.48079953E+03</pdfrwt>
<totfact> 0.16162553E+03</totfact>
</mgrwt>
</event>
<event>
 4    1  0.8877834E-005  0.5155403E+03  0.7818608E-02  0.1009800E+00
          2   -1    0    0  501    0  0.00000000000E+00  0.00000000000E+00  0.23665573398E+04  0.23665573398E+04  0.25500000000E-02 0.  1.
         -2   -1    0    0    0  501 -0.00000000000E+00 -0.00000000000E+00 -0.28076844696E+02  0.28076844811E+02  0.25500000000E-02 0. -1.
    5000001    1    1    2    0    0 -0.79114211731E+01 -0.19759598087E+03  0.12187690998E+04  0.12456845029E+04  0.16500000000E+03 0.  0.
   -5000001    1    1    2    0    0  0.79114211731E+01  0.19759598087E+03  0.11197113954E+04  0.11489496817E+04  0.16500000000E+03 0.  0.
<mgrwt>
<rscale>  0 0.51554035E+03</rscale>
<asrwt>0</asrwt>
<pdfrwt beam="1">  1        2 0.36408597E+00 0.51554035E+03</pdfrwt>
<pdfrwt beam="2">  1       -2 0.43195119E-02 0.51554035E+03</pdfrwt>
<totfact> 0.11311584E+03</totfact>
</mgrwt>
</event>
<event>
 4    1  0.8877834E-005  0.4571200E+03  0.7818608E-02  0.1025620E+00
         -2   -1    0    0    0  501 -0.00000000000E+00  0.00000000000E+00  0.25428528865E+03  0.25428528866E+03  0.25500000000E-02 0. -1.
          2   -1    0    0  501    0  0.00000000000E+00 -0.00000000000E+00 -0.20543723968E+03  0.20543723970E+03  0.25500000000E-02 0.  1.
    5000001    1    1    2    0    0 -0.87098268654E+02 -0.57496806332E+02 -0.95091437780E+02  0.21716208850E+03  0.16500000000E+03 0.  0.
   -5000001    1    1    2    0    0  0.87098268654E+02  0.57496806332E+02  0.14393948674E+03  0.24256043986E+03  0.16500000000E+03 0.  0.
<mgrwt>
<rscale>  0 0.45711997E+03</rscale>
<asrwt>0</asrwt>
<pdfrwt beam="1">  1        2 0.31605729E-01 0.45711997E+03</pdfrwt>
<pdfrwt beam="2">  1       -2 0.39120813E-01 0.45711997E+03</pdfrwt>
<totfact> 0.10366126E+03</totfact>
</mgrwt>
</event>
<event>
 4    1  0.8877834E-005  0.6852923E+03  0.7818608E-02  0.9742720E-01
         -2   -1    0    0    0  501 -0.00000000000E+00  0.00000000000E+00  0.76708271195E+02  0.76708271237E+02  0.25500000000E-02 0. -1.
          2   -1    0    0  501    0  0.00000000000E+00 -0.00000000000E+00 -0.15305571294E+04  0.15305571294E+04  0.25500000000E-02 0.  1.
    5000001    1    1    2    0    0  0.18311433588E+03  0.74033479962E+02 -0.19638503607E+03  0.32373430240E+03  0.16500000000E+03 0.  0.
   -5000001    1    1    2    0    0 -0.18311433588E+03 -0.74033479962E+02 -0.12574638221E+04  0.12835310982E+04  0.16500000000E+03 0.  0.
<mgrwt>
<rscale>  0 0.68529232E+03</rscale>
<asrwt>0</asrwt>
<pdfrwt beam="1">  1        2 0.23547031E+00 0.68529232E+03</pdfrwt>
<pdfrwt beam="2">  1       -2 0.11801274E-01 0.68529232E+03</pdfrwt>
<totfact> 0.64864601E+02</totfact>
</mgrwt>
</event>
<event>
 4    1  0.8877834E-005  0.6242889E+03  0.7818608E-02  0.9856257E-01
          2   -1    0    0  501    0  0.00000000000E+00  0.00000000000E+00  0.22071853788E+04  0.22071853788E+04  0.25500000000E-02 0.  1.
         -2   -1    0    0    0  501 -0.00000000000E+00 -0.00000000000E+00 -0.44144068714E+02  0.44144068787E+02  0.25500000000E-02 0. -1.
    5000001    1    1    2    0    0  0.13371280916E+03  0.22644079826E+03  0.96441015285E+03  0.10131468272E+04  0.16500000000E+03 0.  0.
   -5000001    1    1    2    0    0 -0.13371280916E+03 -0.22644079826E+03  0.11986311572E+04  0.12381826204E+04  0.16500000000E+03 0.  0.
<mgrwt>
<rscale>  0 0.62428885E+03</rscale>
<asrwt>0</asrwt>
<pdfrwt beam="1">  1        2 0.33956694E+00 0.62428885E+03</pdfrwt>
<pdfrwt beam="2">  1       -2 0.67913960E-02 0.62428885E+03</pdfrwt>
<totfact> 0.67858241E+02</totfact>
</mgrwt>
</event>
<event>
 4    1  0.8877834E-005  0.9513985E+03  0.7818608E-02  0.9363517E-01
         -2   -1    0    0    0  501 -0.00000000000E+00  0.00000000000E+00  0.14561302501E+03  0.14561302503E+03  0.25500000000E-02 0. -1.
          2   -1    0    0  501    0  0.00000000000E+00 -0.00000000000E+00 -0.15540490805E+04  0.15540490805E+04  0.25500000000E-02 0.  1.
    5000001    1    1    2    0    0 -0.38985650010E+03 -0.87574959481E+02 -0.34957731759E+03  0.55595572231E+03  0.16500000000E+03 0.  0.
   -5000001    1    1    2    0    0  0.38985650010E+03  0.87574959481E+02 -0.10588587379E+04  0.11437063832E+04  0.16500000000E+03 0.  0.
<mgrwt>
<rscale>  0 0.95139852E+03</rscale>
<asrwt>0</asrwt>
<pdfrwt beam="1">  1        2 0.23908446E+00 0.95139852E+03</pdfrwt>
<pdfrwt beam="2">  1       -2 0.22402005E-01 0.95139852E+03</pdfrwt>
<totfact> 0.20695874E+02</totfact>
</mgrwt>
</event>
<event>
 4    1  0.8877834E-005  0.4421965E+03  0.7818608E-02  0.1030075E+00
         -2   -1    0    0    0  501 -0.00000000000E+00  0.00000000000E+00  0.32306150390E+02  0.32306150491E+02  0.25500000000E-02 0. -1.
          2   -1    0    0  501    0  0.00000000000E+00 -0.00000000000E+00 -0.15131615948E+04  0.15131615949E+04  0.25500000000E-02 0.  1.
    5000001    1    1    2    0    0 -0.66638346001E+02 -0.13112908713E+03 -0.75752081060E+03  0.78911234000E+03  0.16500000000E+03 0.  0.
   -5000001    1    1    2    0    0  0.66638346001E+02  0.13112908713E+03 -0.72333463386E+03  0.75635540534E+03  0.16500000000E+03 0.  0.
<mgrwt>
<rscale>  0 0.44219645E+03</rscale>
<asrwt>0</asrwt>
<pdfrwt beam="1">  1        2 0.23279404E+00 0.44219645E+03</pdfrwt>
<pdfrwt beam="2">  1       -2 0.49701782E-02 0.44219645E+03</pdfrwt>
<totfact> 0.26475452E+03</totfact>
</mgrwt>
</event>
<event>
 4    1  0.8877834E-005  0.3875023E+03  0.7818608E-02  0.1048195E+00
          2   -1    0    0  501    0  0.00000000000E+00  0.00000000000E+00  0.44010215853E+03  0.44010215853E+03  0.25500000000E-02 0.  1.
         -2   -1    0    0    0  501 -0.00000000000E+00 -0.00000000000E+00 -0.85297244250E+02  0.85297244288E+02  0.25500000000E-02 0. -1.
    5000001    1    1    2    0    0 -0.27068745644E+02 -0.97642627639E+02  0.16803801736E+03  0.25637584715E+03  0.16500000000E+03 0.  0.
   -5000001    1    1    2    0    0  0.27068745644E+02  0.97642627639E+02  0.18676689691E+03  0.26902355567E+03  0.16500000000E+03 0.  0.
<mgrwt>
<rscale>  0 0.38750226E+03</rscale>
<asrwt>0</asrwt>
<pdfrwt beam="1">  1        2 0.67708024E-01 0.38750226E+03</pdfrwt>
<pdfrwt beam="2">  1       -2 0.13122653E-01 0.38750226E+03</pdfrwt>
<totfact> 0.30850922E+03</totfact>
</mgrwt>
</event>
<event>
 4    1  0.8877834E-005  0.5845642E+03  0.7818608E-02  0.9937958E-01
         -2   -1    0    0    0  501 -0.00000000000E+00  0.00000000000E+00  0.53404810625E+02  0.53404810686E+02  0.25500000000E-02 0. -1.
          2   -1    0    0  501    0  0.00000000000E+00 -0.00000000000E+00 -0.15996464218E+04  0.15996464218E+04  0.25500000000E-02 0.  1.
    5000001    1    1    2    0    0  0.22024016084E+03 -0.93453663226E+02 -0.68529847805E+03  0.74437780705E+03  0.16500000000E+03 0.  0.
   -5000001    1    1    2    0    0 -0.22024016084E+03  0.93453663226E+02 -0.86094313310E+03  0.90867342541E+03  0.16500000000E+03 0.  0.
<mgrwt>
<rscale>  0 0.58456416E+03</rscale>
<asrwt>0</asrwt>
<pdfrwt beam="1">  1        2 0.24609941E+00 0.58456416E+03</pdfrwt>
<pdfrwt beam="2">  1       -2 0.82161259E-02 0.58456416E+03</pdfrwt>
<totfact> 0.10747775E+03</totfact>
</mgrwt>
</event>
<event>
 4    1  0.8877834E-005  0.6906940E+03  0.7818608E-02  0.9733280E-01
          2   -1    0    0  501    0  0.00000000000E+00  0.00000000000E+00  0.16446941652E+04  0.16446941652E+04  0.25500000000E-02 0.  1.
         -2   -1    0    0    0  501 -0.00000000000E+00 -0.00000000000E+00 -0.72514717933E+02  0.72514717978E+02  0.25500000000E-02 0. -1.
    5000001    1    1    2    0    0 -0.24089960179E+03  0.59139564045E+01  0.12443346352E+04  0.12781475961E+04  0.16500000000E+03 0.  0.
   -5000001    1    1    2    0    0  0.24089960179E+03 -0.59139564045E+01  0.32784481206E+03  0.43906128708E+03  0.16500000000E+03 0.  0.
<mgrwt>
<rscale>  0 0.69069395E+03</rscale>
<asrwt>0</asrwt>
<pdfrwt beam="1">  1        2 0.25302986E+00 0.69069395E+03</pdfrwt>
<pdfrwt beam="2">  1       -2 0.11156111E-01 0.69069395E+03</pdfrwt>
<totfact> 0.61551935E+02</totfact>
</mgrwt>
</event>
<event>
 4    1  0.8877834E-005  0.4552562E+03  0.7818608E-02  0.1026166E+00
         -2   -1    0    0    0  501 -0.00000000000E+00  0.00000000000E+00  0.45906131111E+03  0.45906131111E+03  0.25500000000E-02 0. -1.
          2   -1    0    0  501    0  0.00000000000E+00 -0.00000000000E+00 -0.11287066840E+03  0.11287066843E+03  0.25500000000E-02 0.  1.
    5000001    1    1    2    0    0 -0.15515851735E+02  0.14504092576E+03  0.24539395061E+03  0.32972837730E+03  0.16500000000E+03 0.  0.
   -5000001    1    1    2    0    0  0.15515851735E+02 -0.14504092576E+03  0.10079669210E+03  0.24220360224E+03  0.16500000000E+03 0.  0.
<mgrwt>
<rscale>  0 0.45525622E+03</rscale>
<asrwt>0</asrwt>
<pdfrwt beam="1">  1        2 0.17364718E-01 0.45525622E+03</pdfrwt>
<pdfrwt beam="2">  1       -2 0.70624819E-01 0.45525622E+03</pdfrwt>
<totfact> 0.61661536E+02</totfact>
</mgrwt>
</event>
<event>
 4    1  0.8877834E-005  0.4180218E+03  0.7818608E-02  0.1037712E+00
          2   -1    0    0  501    0  0.00000000000E+00  0.00000000000E+00  0.25868096839E+04  0.25868096839E+04  0.25500000000E-02 0.  1.
         -2   -1    0    0    0  501 -0.00000000000E+00 -0.00000000000E+00 -0.16887811106E+02  0.16887811299E+02  0.25500000000E-02 0. -1.
    5000001    1    1    2    0    0 -0.36735868009E+01 -0.12043856136E+03  0.15594169486E+04  0.15727444681E+04  0.16500000000E+03 0.  0.
   -5000001    1    1    2    0    0  0.36735868009E+01  0.12043856136E+03  0.10105049241E+04  0.10309530270E+04  0.16500000000E+03 0.  0.
<mgrwt>
<rscale>  0 0.41802179E+03</rscale>
<asrwt>0</asrwt>
<pdfrwt beam="1">  1        2 0.39797048E+00 0.41802179E+03</pdfrwt>
<pdfrwt beam="2">  1       -2 0.25981263E-02 0.41802179E+03</pdfrwt>
<totfact> 0.18587056E+03</totfact>
</mgrwt>
</event>
<event>
 4    1  0.8877834E-005  0.5645099E+03  0.7818608E-02  0.9981902E-01
         -2   -1    0    0    0  501 -0.00000000000E+00  0.00000000000E+00  0.16419918674E+03  0.16419918675E+03  0.25500000000E-02 0. -1.
          2   -1    0    0  501    0  0.00000000000E+00 -0.00000000000E+00 -0.48519029428E+03  0.48519029429E+03  0.25500000000E-02 0.  1.
    5000001    1    1    2    0    0 -0.29896006332E+02  0.19273385684E+03 -0.22439239175E+02  0.25645395341E+03  0.16500000000E+03 0.  0.
   -5000001    1    1    2    0    0  0.29896006332E+02 -0.19273385684E+03 -0.29855186837E+03  0.39293552763E+03  0.16500000000E+03 0.  0.
<mgrwt>
<rscale>  0 0.56450988E+03</rscale>
<asrwt>0</asrwt>
<pdfrwt beam="1">  1        2 0.74644660E-01 0.56450988E+03</pdfrwt>
<pdfrwt beam="2">  1       -2 0.25261414E-01 0.56450988E+03</pdfrwt>
<totfact> 0.90027548E+02</totfact>
</mgrwt>
</event>
<event>
 4    1  0.8877834E-005  0.4401410E+03  0.7818608E-02  0.1030704E+00
          2   -1    0    0  501    0  0.00000000000E+00  0.00000000000E+00  0.88998283406E+03  0.88998283407E+03  0.25500000000E-02 0.  1.
         -2   -1    0    0    0  501 -0.00000000000E+00 -0.00000000000E+00 -0.54417941623E+02  0.54417941683E+02  0.25500000000E-02 0. -1.
    5000001    1    1    2    0    0 -0.12605192538E+03  0.71066745774E+02  0.45280787733E+03  0.50318937192E+03  0.16500000000E+03 0.  0.
   -5000001    1    1    2    0    0  0.12605192538E+03 -0.71066745774E+02  0.38275701511E+03  0.44121140382E+03  0.16500000000E+03 0.  0.
<mgrwt>
<rscale>  0 0.44014104E+03</rscale>
<asrwt>0</asrwt>
<pdfrwt beam="1">  1        2 0.13692042E+00 0.44014104E+03</pdfrwt>
<pdfrwt beam="2">  1       -2 0.83719918E-02 0.44014104E+03</pdfrwt>
<totfact> 0.27248540E+03</totfact>
</mgrwt>
</event>
<event>
 4    1  0.8877834E-005  0.1044476E+04  0.7818608E-02  0.9261065E-01
         -2   -1    0    0    0  501 -0.00000000000E+00  0.00000000000E+00  0.10765991097E+03  0.10765991100E+03  0.25500000000E-02 0. -1.
          2   -1    0    0  501    0  0.00000000000E+00 -0.00000000000E+00 -0.25332801870E+04  0.25332801870E+04  0.25500000000E-02 0.  1.
    5000001    1    1    2    0    0 -0.26338887596E+03 -0.31697914747E+03 -0.19082955890E+04  0.19592515241E+04  0.16500000000E+03 0.  0.
   -5000001    1    1    2    0    0  0.26338887596E+03  0.31697914747E+03 -0.51732468704E+03  0.68168857386E+03  0.16500000000E+03 0.  0.
<mgrwt>
<rscale>  0 0.10444764E+04</rscale>
<asrwt>0</asrwt>
<pdfrwt beam="1">  1        2 0.38973537E+00 0.10444764E+04</pdfrwt>
<pdfrwt beam="2">  1       -2 0.16563065E-01 0.10444764E+04</pdfrwt>
<totfact> 0.99451421E+01</totfact>
</mgrwt>
</event>
<event>
 4    1  0.8877834E-005  0.8618024E+03  0.7818608E-02  0.9474632E-01
         -2   -1    0    0    0  501 -0.00000000000E+00  0.00000000000E+00  0.79553793636E+02  0.79553793677E+02  0.25500000000E-02 0. -1.
          2   -1    0    0  501    0  0.00000000000E+00 -0.00000000000E+00 -0.23339657276E+04  0.23339657276E+04  0.25500000000E-02 0.  1.
    5000001    1    1    2    0    0  0.39094970757E+03 -0.44524484448E+02 -0.95855050576E+03  0.10492226530E+04  0.16500000000E+03 0.  0.
   -5000001    1    1    2    0    0 -0.39094970757E+03  0.44524484448E+02 -0.12958614282E+04  0.13642968682E+04  0.16500000000E+03 0.  0.
<mgrwt>
<rscale>  0 0.86180236E+03</rscale>
<asrwt>0</asrwt>
<pdfrwt beam="1">  1        2 0.35907160E+00 0.86180236E+03</pdfrwt>
<pdfrwt beam="2">  1       -2 0.12239047E-01 0.86180236E+03</pdfrwt>
<totfact> 0.21841034E+02</totfact>
</mgrwt>
</event>
<event>
 4    1  0.8877834E-005  0.5924578E+03  0.7818608E-02  0.9921178E-01
          2   -1    0    0  501    0  0.00000000000E+00  0.00000000000E+00  0.10519802530E+04  0.10519802530E+04  0.25500000000E-02 0.  1.
         -2   -1    0    0    0  501 -0.00000000000E+00 -0.00000000000E+00 -0.83415603815E+02  0.83415603854E+02  0.25500000000E-02 0. -1.
    5000001    1    1    2    0    0  0.21678260987E+03 -0.11092032520E+03  0.55145400370E+03  0.62499962934E+03  0.16500000000E+03 0.  0.
   -5000001    1    1    2    0    0 -0.21678260987E+03  0.11092032520E+03  0.41711064548E+03  0.51039622751E+03  0.16500000000E+03 0.  0.
<mgrwt>
<rscale>  0 0.59245782E+03</rscale>
<asrwt>0</asrwt>
<pdfrwt beam="1">  1        2 0.16184312E+00 0.59245782E+03</pdfrwt>
<pdfrwt beam="2">  1       -2 0.12833170E-01 0.59245782E+03</pdfrwt>
<totfact> 0.10721679E+03</totfact>
</mgrwt>
</event>
<event>
 4    1  0.8877834E-005  0.3637687E+03  0.7818608E-02  0.1057102E+00
         -2   -1    0    0    0  501 -0.00000000000E+00  0.00000000000E+00  0.53104166391E+03  0.53104166391E+03  0.25500000000E-02 0. -1.
          2   -1    0    0  501    0  0.00000000000E+00 -0.00000000000E+00 -0.62296263128E+02  0.62296263180E+02  0.25500000000E-02 0.  1.
    5000001    1    1    2    0    0 -0.52782114891E+02  0.54943153082E+02  0.22258710106E+03  0.28735817246E+03  0.16500000000E+03 0.  0.
   -5000001    1    1    2    0    0  0.52782114891E+02 -0.54943153082E+02  0.24615829972E+03  0.30597975463E+03  0.16500000000E+03 0.  0.
<mgrwt>
<rscale>  0 0.36376867E+03</rscale>
<asrwt>0</asrwt>
<pdfrwt beam="1">  1        2 0.95840402E-02 0.36376867E+03</pdfrwt>
<pdfrwt beam="2">  1       -2 0.81698720E-01 0.36376867E+03</pdfrwt>
<totfact> 0.92427748E+02</totfact>
</mgrwt>
</event>
<event>
 4    1  0.8877834E-005  0.4340345E+03  0.7818608E-02  0.1032593E+00
         -2   -1    0    0    0  501 -0.00000000000E+00  0.00000000000E+00  0.12964897037E+02  0.12964897287E+02  0.25500000000E-02 0. -1.
          2   -1    0    0  501    0  0.00000000000E+00 -0.00000000000E+00 -0.36326148028E+04  0.36326148028E+04  0.25500000000E-02 0.  1.
    5000001    1    1    2    0    0 -0.12557936834E+03 -0.62484940690E+02 -0.16919557635E+04  0.17057590249E+04  0.16500000000E+03 0.  0.
   -5000001    1    1    2    0    0  0.12557936834E+03  0.62484940690E+02 -0.19276941423E+04  0.19398206752E+04  0.16500000000E+03 0.  0.
<mgrwt>
<rscale>  0 0.43403446E+03</rscale>
<asrwt>0</asrwt>
<pdfrwt beam="1">  1        2 0.55886300E+00 0.43403446E+03</pdfrwt>
<pdfrwt beam="2">  1       -2 0.19946025E-02 0.43403446E+03</pdfrwt>
<totfact> 0.61999724E+02</totfact>
</mgrwt>
</event>
<event>
 4    1  0.8877834E-005  0.5977323E+03  0.7818608E-02  0.9910122E-01
         -2   -1    0    0    0  501 -0.00000000000E+00  0.00000000000E+00  0.51178706499E+02  0.51178706562E+02  0.25500000000E-02 0. -1.
          2   -1    0    0  501    0  0.00000000000E+00 -0.00000000000E+00 -0.17452762634E+04  0.17452762634E+04  0.25500000000E-02 0.  1.
    5000001    1    1    2    0    0 -0.12114782852E+03 -0.21659940040E+03 -0.77958427127E+03  0.83460693300E+03  0.16500000000E+03 0.  0.
   -5000001    1    1    2    0    0  0.12114782852E+03  0.21659940040E+03 -0.91451328563E+03  0.96184803696E+03  0.16500000000E+03 0.  0.
<mgrwt>
<rscale>  0 0.59773232E+03</rscale>
<asrwt>0</asrwt>
<pdfrwt beam="1">  1        2 0.26850399E+00 0.59773232E+03</pdfrwt>
<pdfrwt beam="2">  1       -2 0.78736485E-02 0.59773232E+03</pdfrwt>
<totfact> 0.95786140E+02</totfact>
</mgrwt>
</event>
<event>
 4    1  0.8877834E-005  0.3814641E+03  0.7818608E-02  0.1050394E+00
         -2   -1    0    0    0  501 -0.00000000000E+00  0.00000000000E+00  0.22235458901E+02  0.22235459047E+02  0.25500000000E-02 0. -1.
          2   -1    0    0  501    0  0.00000000000E+00 -0.00000000000E+00 -0.16360677494E+04  0.16360677494E+04  0.25500000000E-02 0.  1.
    5000001    1    1    2    0    0  0.31651799368E+02 -0.74119547890E+02 -0.58278515003E+03  0.61103115704E+03  0.16500000000E+03 0.  0.
   -5000001    1    1    2    0    0 -0.31651799368E+02  0.74119547890E+02 -0.10310471404E+04  0.10472720514E+04  0.16500000000E+03 0.  0.
<mgrwt>
<rscale>  0 0.38146411E+03</rscale>
<asrwt>0</asrwt>
<pdfrwt beam="1">  1        2 0.25170264E+00 0.38146411E+03</pdfrwt>
<pdfrwt beam="2">  1       -2 0.34208411E-02 0.38146411E+03</pdfrwt>
<totfact> 0.40194402E+03</totfact>
</mgrwt>
</event>
<event>
 4    1  0.8877834E-005  0.4339225E+03  0.7818608E-02  0.1032628E+00
         -2   -1    0    0    0  501 -0.00000000000E+00  0.00000000000E+00  0.14934766655E+04  0.14934766655E+04  0.25500000000E-02 0. -1.
          2   -1    0    0  501    0  0.00000000000E+00 -0.00000000000E+00 -0.31518532469E+02  0.31518532572E+02  0.25500000000E-02 0.  1.
    5000001    1    1    2    0    0 -0.11420728992E+03  0.70944306006E+02  0.58308859567E+03  0.62072031546E+03  0.16500000000E+03 0.  0.
   -5000001    1    1    2    0    0  0.11420728992E+03 -0.70944306006E+02  0.87886953735E+03  0.90427488260E+03  0.16500000000E+03 0.  0.
<mgrwt>
<rscale>  0 0.43392254E+03</rscale>
<asrwt>0</asrwt>
<pdfrwt beam="1">  1        2 0.48490039E-02 0.43392254E+03</pdfrwt>
<pdfrwt beam="2">  1       -2 0.22976569E+00 0.43392254E+03</pdfrwt>
<totfact> 0.15377186E+02</totfact>
</mgrwt>
</event>
<event>
 4    1  0.8877834E-005  0.6004187E+03  0.7818608E-02  0.9904538E-01
          2   -1    0    0  501    0  0.00000000000E+00  0.00000000000E+00  0.33065908359E+04  0.33065908359E+04  0.25500000000E-02 0.  1.
         -2   -1    0    0    0  501 -0.00000000000E+00 -0.00000000000E+00 -0.27256367508E+02  0.27256367627E+02  0.25500000000E-02 0. -1.
    5000001    1    1    2    0    0  0.18391977466E+02 -0.19254048525E+03  0.75316242139E+03  0.79491429493E+03  0.16500000000E+03 0.  0.
   -5000001    1    1    2    0    0 -0.18391977466E+02  0.19254048525E+03  0.25261720470E+04  0.25389329086E+04  0.16500000000E+03 0.  0.
<mgrwt>
<rscale>  0 0.60041870E+03</rscale>
<asrwt>0</asrwt>
<pdfrwt beam="1">  1        2 0.50870661E+00 0.60041870E+03</pdfrwt>
<pdfrwt beam="2">  1       -2 0.41932847E-02 0.60041870E+03</pdfrwt>
<totfact> 0.32517028E+02</totfact>
</mgrwt>
</event>
<event>
 4    1  0.8877834E-005  0.5044963E+03  0.7818608E-02  0.1012612E+00
          2   -1    0    0  501    0  0.00000000000E+00  0.00000000000E+00  0.14030376954E+04  0.14030376954E+04  0.25500000000E-02 0.  1.
         -2   -1    0    0    0  501 -0.00000000000E+00 -0.00000000000E+00 -0.45350969851E+02  0.45350969923E+02  0.25500000000E-02 0. -1.
    5000001    1    1    2    0    0 -0.10397822861E+03  0.15762372995E+03  0.60035486155E+03  0.65062098956E+03  0.16500000000E+03 0.  0.
   -5000001    1    1    2    0    0  0.10397822861E+03 -0.15762372995E+03  0.75733186404E+03  0.79776767581E+03  0.16500000000E+03 0.  0.
<mgrwt>
<rscale>  0 0.50449626E+03</rscale>
<asrwt>0</asrwt>
<pdfrwt beam="1">  1        2 0.21585197E+00 0.50449626E+03</pdfrwt>
<pdfrwt beam="2">  1       -2 0.69770718E-02 0.50449626E+03</pdfrwt>
<totfact> 0.17928405E+03</totfact>
</mgrwt>
</event>
<event>
 4    1  0.8877834E-005  0.4301900E+03  0.7818608E-02  0.1033800E+00
         -2   -1    0    0    0  501 -0.00000000000E+00  0.00000000000E+00  0.25828794697E+03  0.25828794698E+03  0.25500000000E-02 0. -1.
          2   -1    0    0  501    0  0.00000000000E+00 -0.00000000000E+00 -0.17912511196E+03  0.17912511198E+03  0.25500000000E-02 0.  1.
    5000001    1    1    2    0    0 -0.11571643462E+03 -0.75082353289E+02  0.35886617625E+02  0.21803784612E+03  0.16500000000E+03 0.  0.
   -5000001    1    1    2    0    0  0.11571643462E+03  0.75082353289E+02  0.43276217376E+02  0.21937521284E+03  0.16500000000E+03 0.  0.
<mgrwt>
<rscale>  0 0.43018999E+03</rscale>
<asrwt>0</asrwt>
<pdfrwt beam="1">  1        2 0.27557710E-01 0.43018999E+03</pdfrwt>
<pdfrwt beam="2">  1       -2 0.39736607E-01 0.43018999E+03</pdfrwt>
<totfact> 0.11719466E+03</totfact>
</mgrwt>
</event>
<event>
 4    1  0.8877834E-005  0.4881206E+03  0.7818608E-02  0.1016927E+00
          2   -1    0    0  501    0  0.00000000000E+00  0.00000000000E+00  0.39627327748E+03  0.39627327749E+03  0.25500000000E-02 0.  1.
         -2   -1    0    0    0  501 -0.00000000000E+00 -0.00000000000E+00 -0.15031399197E+03  0.15031399199E+03  0.25500000000E-02 0. -1.
    5000001    1    1    2    0    0  0.54676980032E+02 -0.13288155323E+03  0.18914805982E+01  0.21880506629E+03  0.16500000000E+03 0.  0.
   -5000001    1    1    2    0    0 -0.54676980032E+02  0.13288155323E+03  0.24406780491E+03  0.32778220319E+03  0.16500000000E+03 0.  0.
<mgrwt>
<rscale>  0 0.48812055E+03</rscale>
<asrwt>0</asrwt>
<pdfrwt beam="1">  1        2 0.60965120E-01 0.48812055E+03</pdfrwt>
<pdfrwt beam="2">  1       -2 0.23125229E-01 0.48812055E+03</pdfrwt>
<totfact> 0.13240749E+03</totfact>
</mgrwt>
</event>
<event>
 4    1  0.8877834E-005  0.5267250E+03  0.7818608E-02  0.1007029E+00
         -2   -1    0    0    0  501 -0.00000000000E+00  0.00000000000E+00  0.57087031439E+02  0.57087031496E+02  0.25500000000E-02 0. -1.
          2   -1    0    0  501    0  0.00000000000E+00 -0.00000000000E+00 -0.12149836040E+04  0.12149836040E+04  0.25500000000E-02 0.  1.
    5000001    1    1    2    0    0 -0.17265506224E+03 -0.87455751628E+02 -0.41379429529E+03  0.48570464053E+03  0.16500000000E+03 0.  0.
   -5000001    1    1    2    0    0  0.17265506224E+03  0.87455751628E+02 -0.74410227723E+03  0.78636599494E+03  0.16500000000E+03 0.  0.
<mgrwt>
<rscale>  0 0.52672500E+03</rscale>
<asrwt>0</asrwt>
<pdfrwt beam="1">  1        2 0.18692054E+00 0.52672500E+03</pdfrwt>
<pdfrwt beam="2">  1       -2 0.87826211E-02 0.52672500E+03</pdfrwt>
<totfact> 0.15904353E+03</totfact>
</mgrwt>
</event>
<event>
 4    1  0.8877834E-005  0.8382092E+03  0.7818608E-02  0.9506300E-01
         -2   -1    0    0    0  501 -0.00000000000E+00  0.00000000000E+00  0.30679405156E+03  0.30679405157E+03  0.25500000000E-02 0. -1.
          2   -1    0    0  501    0  0.00000000000E+00 -0.00000000000E+00 -0.57252961198E+03  0.57252961199E+03  0.25500000000E-02 0.  1.
    5000001    1    1    2    0    0 -0.19114800206E+03  0.19649638684E+03 -0.41683950239E+03  0.52547936162E+03  0.16500000000E+03 0.  0.
   -5000001    1    1    2    0    0  0.19114800206E+03 -0.19649638684E+03  0.15110394197E+03  0.35384430194E+03  0.16500000000E+03 0.  0.
<mgrwt>
<rscale>  0 0.83820923E+03</rscale>
<asrwt>0</asrwt>
<pdfrwt beam="1">  1        2 0.88081479E-01 0.83820923E+03</pdfrwt>
<pdfrwt beam="2">  1       -2 0.47199085E-01 0.83820923E+03</pdfrwt>
<totfact> 0.22450942E+02</totfact>
</mgrwt>
</event>
<event>
 4    1  0.8877834E-005  0.5687676E+03  0.7818608E-02  0.9972409E-01
         -2   -1    0    0    0  501 -0.00000000000E+00  0.00000000000E+00  0.39715393084E+02  0.39715393166E+02  0.25500000000E-02 0.  1.
          2   -1    0    0  501    0  0.00000000000E+00 -0.00000000000E+00 -0.20363428459E+04  0.20363428459E+04  0.25500000000E-02 0. -1.
    5000001    1    1    2    0    0 -0.21133118253E+03  0.90759859139E+01 -0.65384966845E+03  0.70674438884E+03  0.16500000000E+03 0.  0.
   -5000001    1    1    2    0    0  0.21133118253E+03 -0.90759859139E+01 -0.13427777843E+04  0.13693138502E+04  0.16500000000E+03 0.  0.
<mgrwt>
<rscale>  0 0.56876764E+03</rscale>
<asrwt>0</asrwt>
<pdfrwt beam="1">  1        2 0.31328343E+00 0.56876764E+03</pdfrwt>
<pdfrwt beam="2">  1       -2 0.61100621E-02 0.56876764E+03</pdfrwt>
<totfact> 0.99676070E+02</totfact>
</mgrwt>
</event>
<event>
 4    1  0.8877834E-005  0.6409718E+03  0.7818608E-02  0.9823869E-01
         -2   -1    0    0    0  501 -0.00000000000E+00  0.00000000000E+00  0.43373392594E+02  0.43373392669E+02  0.25500000000E-02 0. -1.
          2   -1    0    0  501    0  0.00000000000E+00 -0.00000000000E+00 -0.23680699332E+04  0.23680699332E+04  0.25500000000E-02 0.  1.
    5000001    1    1    2    0    0  0.19672104244E+03 -0.10000079712E+02 -0.44174779941E+03  0.51104333321E+03  0.16500000000E+03 0.  0.
   -5000001    1    1    2    0    0 -0.19672104244E+03  0.10000079712E+02 -0.18829487412E+04  0.19003999926E+04  0.16500000000E+03 0.  0.
<mgrwt>
<rscale>  0 0.64097185E+03</rscale>
<asrwt>0</asrwt>
<pdfrwt beam="1">  1        2 0.36431835E+00 0.64097185E+03</pdfrwt>
<pdfrwt beam="2">  1       -2 0.66728315E-02 0.64097185E+03</pdfrwt>
<totfact> 0.56791458E+02</totfact>
</mgrwt>
</event>
<event>
 4    1  0.8877834E-005  0.6333239E+03  0.7818608E-02  0.9838584E-01
         -2   -1    0    0    0  501 -0.00000000000E+00  0.00000000000E+00  0.67228481762E+02  0.67228481811E+02  0.25500000000E-02 0. -1.
          2   -1    0    0  501    0  0.00000000000E+00 -0.00000000000E+00 -0.14915521210E+04  0.14915521210E+04  0.25500000000E-02 0.  1.
    5000001    1    1    2    0    0 -0.11245774056E+03 -0.22003119979E+03 -0.44266337377E+03  0.53313819482E+03  0.16500000000E+03 0.  0.
   -5000001    1    1    2    0    0  0.11245774056E+03  0.22003119979E+03 -0.98166026548E+03  0.10256424080E+04  0.16500000000E+03 0.  0.
<mgrwt>
<rscale>  0 0.63332388E+03</rscale>
<asrwt>0</asrwt>
<pdfrwt beam="1">  1        2 0.22946953E+00 0.63332388E+03</pdfrwt>
<pdfrwt beam="2">  1       -2 0.10342844E-01 0.63332388E+03</pdfrwt>
<totfact> 0.84841723E+02</totfact>
</mgrwt>
</event>
<event>
 4    1  0.8877834E-005  0.3660640E+03  0.7818608E-02  0.1056208E+00
          2   -1    0    0  501    0  0.00000000000E+00  0.00000000000E+00  0.10821754552E+04  0.10821754552E+04  0.25500000000E-02 0.  1.
         -2   -1    0    0    0  501 -0.00000000000E+00 -0.00000000000E+00 -0.30956829952E+02  0.30956830057E+02  0.25500000000E-02 0. -1.
    5000001    1    1    2    0    0  0.33931945917E+02  0.43275388260E+02  0.35221402659E+03  0.39281529592E+03  0.16500000000E+03 0.  0.
   -5000001    1    1    2    0    0 -0.33931945917E+02 -0.43275388260E+02  0.69900459861E+03  0.72031698929E+03  0.16500000000E+03 0.  0.
<mgrwt>
<rscale>  0 0.36606405E+03</rscale>
<asrwt>0</asrwt>
<pdfrwt beam="1">  1        2 0.16648853E+00 0.36606405E+03</pdfrwt>
<pdfrwt beam="2">  1       -2 0.47625893E-02 0.36606405E+03</pdfrwt>
<totfact> 0.49576108E+03</totfact>
</mgrwt>
</event>
<event>
 4    1  0.8877834E-005  0.5218518E+03  0.7818608E-02  0.1008228E+00
          2   -1    0    0  501    0  0.00000000000E+00  0.00000000000E+00  0.11644699315E+04  0.11644699315E+04  0.25500000000E-02 0. -1.
         -2   -1    0    0    0  501 -0.00000000000E+00 -0.00000000000E+00 -0.58466356671E+02  0.58466356726E+02  0.25500000000E-02 0.  1.
    5000001    1    1    2    0    0 -0.13531871163E+03 -0.99251287267E+02  0.28895621202E+03  0.37266964487E+03  0.16500000000E+03 0.  0.
   -5000001    1    1    2    0    0  0.13531871163E+03  0.99251287267E+02  0.81704736281E+03  0.85026664337E+03  0.16500000000E+03 0.  0.
<mgrwt>
<rscale>  0 0.52185176E+03</rscale>
<asrwt>0</asrwt>
<pdfrwt beam="1">  1        2 0.17914921E+00 0.52185176E+03</pdfrwt>
<pdfrwt beam="2">  1       -2 0.89948247E-02 0.52185176E+03</pdfrwt>
<totfact> 0.16389191E+03</totfact>
</mgrwt>
</event>
<event>
 4    1  0.8877834E-005  0.6439544E+03  0.7818608E-02  0.9818190E-01
         -2   -1    0    0    0  501 -0.00000000000E+00  0.00000000000E+00  0.89868266540E+02  0.89868266577E+02  0.25500000000E-02 0.  1.
          2   -1    0    0  501    0  0.00000000000E+00 -0.00000000000E+00 -0.11535696436E+04  0.11535696436E+04  0.25500000000E-02 0. -1.
    5000001    1    1    2    0    0 -0.52216935138E+02  0.25656055391E+03 -0.70341540531E+03  0.76848432552E+03  0.16500000000E+03 0.  0.
   -5000001    1    1    2    0    0  0.52216935138E+02 -0.25656055391E+03 -0.36028597173E+03  0.47495358464E+03  0.16500000000E+03 0.  0.
<mgrwt>
<rscale>  0 0.64395436E+03</rscale>
<asrwt>0</asrwt>
<pdfrwt beam="1">  1        2 0.17747224E+00 0.64395436E+03</pdfrwt>
<pdfrwt beam="2">  1       -2 0.13825888E-01 0.64395436E+03</pdfrwt>
<totfact> 0.82024266E+02</totfact>
</mgrwt>
</event>
<event>
 4    1  0.8877834E-005  0.6069575E+03  0.7818608E-02  0.9891076E-01
          2   -1    0    0  501    0  0.00000000000E+00  0.00000000000E+00  0.23280790530E+04  0.23280790530E+04  0.25500000000E-02 0.  1.
         -2   -1    0    0    0  501 -0.00000000000E+00 -0.00000000000E+00 -0.39560238645E+02  0.39560238727E+02  0.25500000000E-02 0. -1.
    5000001    1    1    2    0    0 -0.19931826132E+03 -0.33392242191E+02  0.53954803186E+03  0.59931618518E+03  0.16500000000E+03 0.  0.
   -5000001    1    1    2    0    0  0.19931826132E+03  0.33392242191E+02  0.17489707825E+04  0.17683231065E+04  0.16500000000E+03 0.  0.
<mgrwt>
<rscale>  0 0.60695754E+03</rscale>
<asrwt>0</asrwt>
<pdfrwt beam="1">  1        2 0.35816612E+00 0.60695754E+03</pdfrwt>
<pdfrwt beam="2">  1       -2 0.60861887E-02 0.60695754E+03</pdfrwt>
<totfact> 0.69271493E+02</totfact>
</mgrwt>
</event>
<event>
 4    1  0.8877834E-005  0.5226226E+03  0.7818608E-02  0.1008037E+00
          2   -1    0    0  501    0  0.00000000000E+00  0.00000000000E+00  0.14772051680E+04  0.14772051680E+04  0.25500000000E-02 0.  1.
         -2   -1    0    0    0  501 -0.00000000000E+00 -0.00000000000E+00 -0.46224854220E+02  0.46224854291E+02  0.25500000000E-02 0. -1.
    5000001    1    1    2    0    0  0.17973023505E+03  0.54131049392E+02  0.49300571087E+03  0.55273208596E+03  0.16500000000E+03 0.  0.
   -5000001    1    1    2    0    0 -0.17973023505E+03 -0.54131049392E+02  0.93797460293E+03  0.97069793635E+03  0.16500000000E+03 0.  0.
<mgrwt>
<rscale>  0 0.52262259E+03</rscale>
<asrwt>0</asrwt>
<pdfrwt beam="1">  1        2 0.22726230E+00 0.52262259E+03</pdfrwt>
<pdfrwt beam="2">  1       -2 0.71115170E-02 0.52262259E+03</pdfrwt>
<totfact> 0.15817378E+03</totfact>
</mgrwt>
</event>
<event>
 4    1  0.8877834E-005  0.3807977E+03  0.7818608E-02  0.1050639E+00
          2   -1    0    0  501    0  0.00000000000E+00  0.00000000000E+00  0.47143737347E+03  0.47143737348E+03  0.25500000000E-02 0.  1.
         -2   -1    0    0    0  501 -0.00000000000E+00 -0.00000000000E+00 -0.76896172308E+02  0.76896172350E+02  0.25500000000E-02 0. -1.
    5000001    1    1    2    0    0 -0.91537621282E+01  0.92172509748E+02  0.22772044895E+03  0.29607628372E+03  0.16500000000E+03 0.  0.
   -5000001    1    1    2    0    0  0.91537621282E+01 -0.92172509748E+02  0.16682075221E+03  0.25225726210E+03  0.16500000000E+03 0.  0.
<mgrwt>
<rscale>  0 0.38079774E+03</rscale>
<asrwt>0</asrwt>
<pdfrwt beam="1">  1        2 0.72528829E-01 0.38079774E+03</pdfrwt>
<pdfrwt beam="2">  1       -2 0.11830180E-01 0.38079774E+03</pdfrwt>
<totfact> 0.33836000E+03</totfact>
</mgrwt>
</event>
<event>
 4    1  0.8877834E-005  0.7284575E+03  0.7818608E-02  0.9669767E-01
         -2   -1    0    0    0  501 -0.00000000000E+00  0.00000000000E+00  0.62175568415E+02  0.62175568467E+02  0.25500000000E-02 0. -1.
          2   -1    0    0  501    0  0.00000000000E+00 -0.00000000000E+00 -0.21336768621E+04  0.21336768621E+04  0.25500000000E-02 0.  1.
    5000001    1    1    2    0    0  0.25824377215E+03 -0.96047139440E+02 -0.51781382643E+03  0.60932016026E+03  0.16500000000E+03 0.  0.
   -5000001    1    1    2    0    0 -0.25824377215E+03  0.96047139440E+02 -0.15536874672E+04  0.15865322703E+04  0.16500000000E+03 0.  0.
<mgrwt>
<rscale>  0 0.72845747E+03</rscale>
<asrwt>0</asrwt>
<pdfrwt beam="1">  1        2 0.32825792E+00 0.72845747E+03</pdfrwt>
<pdfrwt beam="2">  1       -2 0.95654737E-02 0.72845747E+03</pdfrwt>
<totfact> 0.42705499E+02</totfact>
</mgrwt>
</event>
<event>
 4    1  0.8877834E-005  0.5414937E+03  0.7818608E-02  0.1003482E+00
          2   -1    0    0  501    0  0.00000000000E+00  0.00000000000E+00  0.32984553444E+04  0.32984553444E+04  0.25500000000E-02 0.  1.
         -2   -1    0    0    0  501 -0.00000000000E+00 -0.00000000000E+00 -0.22223690179E+02  0.22223690326E+02  0.25500000000E-02 0. -1.
    5000001    1    1    2    0    0  0.13611715449E+03  0.13620722445E+03  0.22198439674E+04  0.22342812105E+04  0.16500000000E+03 0.  0.
   -5000001    1    1    2    0    0 -0.13611715449E+03 -0.13620722445E+03  0.10563876868E+04  0.10863978242E+04  0.16500000000E+03 0.  0.
<mgrwt>
<rscale>  0 0.54149367E+03</rscale>
<asrwt>0</asrwt>
<pdfrwt beam="1">  1        2 0.50745456E+00 0.54149367E+03</pdfrwt>
<pdfrwt beam="2">  1       -2 0.34190300E-02 0.54149367E+03</pdfrwt>
<totfact> 0.45342869E+02</totfact>
</mgrwt>
</event>
<event>
 4    1  0.8877834E-005  0.6851571E+03  0.7818608E-02  0.9742958E-01
          2   -1    0    0  501    0  0.00000000000E+00  0.00000000000E+00  0.12452808341E+04  0.12452808341E+04  0.25500000000E-02 0.  1.
         -2   -1    0    0    0  501 -0.00000000000E+00 -0.00000000000E+00 -0.94243851041E+02  0.94243851076E+02  0.25500000000E-02 0. -1.
    5000001    1    1    2    0    0  0.23336503014E+03 -0.96380667046E+02  0.89309780520E+03  0.94265431624E+03  0.16500000000E+03 0.  0.
   -5000001    1    1    2    0    0 -0.23336503014E+03  0.96380667046E+02  0.25793917788E+03  0.39687036896E+03  0.16500000000E+03 0.  0.
<mgrwt>
<rscale>  0 0.68515710E+03</rscale>
<asrwt>0</asrwt>
<pdfrwt beam="1">  1        2 0.19158167E+00 0.68515710E+03</pdfrwt>
<pdfrwt beam="2">  1       -2 0.14499054E-01 0.68515710E+03</pdfrwt>
<totfact> 0.66757522E+02</totfact>
</mgrwt>
</event>
<event>
 4    1  0.8877834E-005  0.8212871E+03  0.7818608E-02  0.9529706E-01
         -2   -1    0    0    0  501 -0.00000000000E+00  0.00000000000E+00  0.61031345445E+03  0.61031345446E+03  0.25500000000E-02 0. -1.
          2   -1    0    0  501    0  0.00000000000E+00 -0.00000000000E+00 -0.27629756841E+03  0.27629756842E+03  0.25500000000E-02 0.  1.
    5000001    1    1    2    0    0  0.21334013356E+02 -0.37097252760E+03  0.22927932224E+03  0.46676521289E+03  0.16500000000E+03 0.  0.
   -5000001    1    1    2    0    0 -0.21334013356E+02  0.37097252760E+03  0.10473656381E+03  0.41984580998E+03  0.16500000000E+03 0.  0.
<mgrwt>
<rscale>  0 0.82128710E+03</rscale>
<asrwt>0</asrwt>
<pdfrwt beam="1">  1        2 0.42507319E-01 0.82128710E+03</pdfrwt>
<pdfrwt beam="2">  1       -2 0.93894375E-01 0.82128710E+03</pdfrwt>
<totfact> 0.11603783E+02</totfact>
</mgrwt>
</event>
<event>
 4    1  0.8877834E-005  0.4118871E+03  0.7818608E-02  0.1039740E+00
         -2   -1    0    0    0  501 -0.00000000000E+00  0.00000000000E+00  0.85520639204E+03  0.85520639204E+03  0.25500000000E-02 0. -1.
          2   -1    0    0  501    0  0.00000000000E+00 -0.00000000000E+00 -0.49593578427E+02  0.49593578492E+02  0.25500000000E-02 0.  1.
    5000001    1    1    2    0    0  0.10127340882E+03  0.33345368954E+02  0.53856872911E+03  0.57327959404E+03  0.16500000000E+03 0.  0.
   -5000001    1    1    2    0    0 -0.10127340882E+03 -0.33345368954E+02  0.26704408449E+03  0.33152037649E+03  0.16500000000E+03 0.  0.
<mgrwt>
<rscale>  0 0.41188710E+03</rscale>
<asrwt>0</asrwt>
<pdfrwt beam="1">  1        2 0.76297813E-02 0.41188710E+03</pdfrwt>
<pdfrwt beam="2">  1       -2 0.13157021E+00 0.41188710E+03</pdfrwt>
<totfact> 0.40162463E+02</totfact>
</mgrwt>
</event>
<event>
 4    1  0.8877834E-005  0.5933560E+03  0.7818608E-02  0.9919287E-01
         -2   -1    0    0    0  501 -0.00000000000E+00  0.00000000000E+00  0.69345315832E+02  0.69345315879E+02  0.25500000000E-02 0. -1.
          2   -1    0    0  501    0  0.00000000000E+00 -0.00000000000E+00 -0.12692688670E+04  0.12692688670E+04  0.25500000000E-02 0.  1.
    5000001    1    1    2    0    0 -0.90886640239E+02  0.22831506384E+03 -0.64534622226E+03  0.70998936353E+03  0.16500000000E+03 0.  0.
   -5000001    1    1    2    0    0  0.90886640239E+02 -0.22831506384E+03 -0.55457732887E+03  0.62862481931E+03  0.16500000000E+03 0.  0.
<mgrwt>
<rscale>  0 0.59335605E+03</rscale>
<asrwt>0</asrwt>
<pdfrwt beam="1">  1        2 0.19527212E+00 0.59335605E+03</pdfrwt>
<pdfrwt beam="2">  1       -2 0.10668511E-01 0.59335605E+03</pdfrwt>
<totfact> 0.10783505E+03</totfact>
</mgrwt>
</event>
<event>
 4    1  0.8877834E-005  0.7923526E+03  0.7818608E-02  0.9571153E-01
         -2   -1    0    0    0  501 -0.00000000000E+00  0.00000000000E+00  0.81838247491E+03  0.81838247492E+03  0.25500000000E-02 0.  1.
          2   -1    0    0  501    0  0.00000000000E+00 -0.00000000000E+00 -0.19178764889E+03  0.19178764891E+03  0.25500000000E-02 0. -1.
    5000001    1    1    2    0    0  0.21514968424E+03 -0.27275877878E+03  0.19205509586E+03  0.42988009710E+03  0.16500000000E+03 0.  0.
   -5000001    1    1    2    0    0 -0.21514968424E+03  0.27275877878E+03  0.43453973016E+03  0.58029002673E+03  0.16500000000E+03 0.  0.
<mgrwt>
<rscale>  0 0.79235257E+03</rscale>
<asrwt>0</asrwt>
<pdfrwt beam="1">  1        2 0.29505793E-01 0.79235257E+03</pdfrwt>
<pdfrwt beam="2">  1       -2 0.12590499E+00 0.79235257E+03</pdfrwt>
<totfact> 0.86050880E+01</totfact>
</mgrwt>
</event>
<event>
 4    1  0.8877834E-005  0.4846525E+03  0.7818608E-02  0.1017864E+00
          2   -1    0    0  501    0  0.00000000000E+00  0.00000000000E+00  0.35373228749E+03  0.35373228750E+03  0.25500000000E-02 0.  1.
         -2   -1    0    0    0  501 -0.00000000000E+00 -0.00000000000E+00 -0.16600695386E+03  0.16600695388E+03  0.25500000000E-02 0. -1.
    5000001    1    1    2    0    0 -0.69442005056E+02 -0.11353320809E+03 -0.32046980323E+02  0.21439214154E+03  0.16500000000E+03 0.  0.
   -5000001    1    1    2    0    0  0.69442005056E+02  0.11353320809E+03  0.21977231395E+03  0.30534709985E+03  0.16500000000E+03 0.  0.
<mgrwt>
<rscale>  0 0.48465253E+03</rscale>
<asrwt>0</asrwt>
<pdfrwt beam="1">  1        2 0.54420351E-01 0.48465253E+03</pdfrwt>
<pdfrwt beam="2">  1       -2 0.25539532E-01 0.48465253E+03</pdfrwt>
<totfact> 0.12578521E+03</totfact>
</mgrwt>
</event>
<event>
 4    1  0.8877834E-005  0.1151528E+04  0.7818608E-02  0.9156375E-01
          2   -1    0    0  501    0  0.00000000000E+00  0.00000000000E+00  0.73701215407E+03  0.73701215408E+03  0.25500000000E-02 0. -1.
         -2   -1    0    0    0  501 -0.00000000000E+00 -0.00000000000E+00 -0.44979468104E+03  0.44979468105E+03  0.25500000000E-02 0.  1.
    5000001    1    1    2    0    0  0.11907413294E+02 -0.29512966059E+03 -0.33653502729E+03  0.47720449248E+03  0.16500000000E+03 0.  0.
   -5000001    1    1    2    0    0 -0.11907413294E+02  0.29512966059E+03  0.62375250031E+03  0.70960234265E+03  0.16500000000E+03 0.  0.
<mgrwt>
<rscale>  0 0.11515279E+04</rscale>
<asrwt>0</asrwt>
<pdfrwt beam="1">  1        2 0.11338648E+00 0.11515279E+04</pdfrwt>
<pdfrwt beam="2">  1       -2 0.69199183E-01 0.11515279E+04</pdfrwt>
<totfact> 0.72409311E+01</totfact>
</mgrwt>
</event>
<event>
 4    1  0.8877834E-005  0.5152068E+03  0.7818608E-02  0.1009884E+00
         -2   -1    0    0    0  501 -0.00000000000E+00  0.00000000000E+00  0.85256885484E+02  0.85256885522E+02  0.25500000000E-02 0. -1.
          2   -1    0    0  501    0  0.00000000000E+00 -0.00000000000E+00 -0.77834774439E+03  0.77834774439E+03  0.25500000000E-02 0.  1.
    5000001    1    1    2    0    0  0.39978423646E+02  0.13404479583E+03 -0.11206365492E+03  0.24361761923E+03  0.16500000000E+03 0.  0.
   -5000001    1    1    2    0    0 -0.39978423646E+02 -0.13404479583E+03 -0.58102720399E+03  0.61998701069E+03  0.16500000000E+03 0.  0.
<mgrwt>
<rscale>  0 0.51520677E+03</rscale>
<asrwt>0</asrwt>
<pdfrwt beam="1">  1        2 0.11974580E+00 0.51520677E+03</pdfrwt>
<pdfrwt beam="2">  1       -2 0.13116444E-01 0.51520677E+03</pdfrwt>
<totfact> 0.15726024E+03</totfact>
</mgrwt>
</event>
<event>
 4    1  0.8877834E-005  0.6472002E+03  0.7818608E-02  0.9812047E-01
          2   -1    0    0  501    0  0.00000000000E+00  0.00000000000E+00  0.10623325078E+04  0.10623325078E+04  0.25500000000E-02 0.  1.
         -2   -1    0    0    0  501 -0.00000000000E+00 -0.00000000000E+00 -0.98572744196E+02  0.98572744229E+02  0.25500000000E-02 0. -1.
    5000001    1    1    2    0    0 -0.33097427741E+02  0.27573127845E+03  0.51632952573E+03  0.60905201483E+03  0.16500000000E+03 0.  0.
   -5000001    1    1    2    0    0  0.33097427741E+02 -0.27573127845E+03  0.44743023788E+03  0.55185323720E+03  0.16500000000E+03 0.  0.
<mgrwt>
<rscale>  0 0.64720022E+03</rscale>
<asrwt>0</asrwt>
<pdfrwt beam="1">  1        2 0.16343578E+00 0.64720022E+03</pdfrwt>
<pdfrwt beam="2">  1       -2 0.15165037E-01 0.64720022E+03</pdfrwt>
<totfact> 0.79761508E+02</totfact>
</mgrwt>
</event>
<event>
 4    1  0.8877834E-005  0.4157638E+03  0.7818608E-02  0.1038454E+00
         -2   -1    0    0    0  501 -0.00000000000E+00  0.00000000000E+00  0.27798014971E+02  0.27798015088E+02  0.25500000000E-02 0. -1.
          2   -1    0    0  501    0  0.00000000000E+00 -0.00000000000E+00 -0.15546035536E+04  0.15546035536E+04  0.25500000000E-02 0.  1.
    5000001    1    1    2    0    0 -0.57318568080E+01  0.77677075789E+02 -0.11425416140E+04  0.11570189808E+04  0.16500000000E+03 0.  0.
   -5000001    1    1    2    0    0  0.57318568080E+01 -0.77677075789E+02 -0.38426392469E+03  0.42538258791E+03  0.16500000000E+03 0.  0.
<mgrwt>
<rscale>  0 0.41576384E+03</rscale>
<asrwt>0</asrwt>
<pdfrwt beam="1">  1        2 0.23916971E+00 0.41576384E+03</pdfrwt>
<pdfrwt beam="2">  1       -2 0.42766189E-02 0.41576384E+03</pdfrwt>
<totfact> 0.31669013E+03</totfact>
</mgrwt>
</event>
<event>
 4    1  0.8877834E-005  0.5747088E+03  0.7818608E-02  0.9959312E-01
         -2   -1    0    0    0  501 -0.00000000000E+00  0.00000000000E+00  0.16239049219E+03  0.16239049221E+03  0.25500000000E-02 0. -1.
          2   -1    0    0  501    0  0.00000000000E+00 -0.00000000000E+00 -0.50848150859E+03  0.50848150859E+03  0.25500000000E-02 0.  1.
    5000001    1    1    2    0    0  0.95800190677E+02 -0.17112349437E+03 -0.21353271232E+02  0.25718065451E+03  0.16500000000E+03 0.  0.
   -5000001    1    1    2    0    0 -0.95800190677E+02  0.17112349437E+03 -0.32473774517E+03  0.41369134629E+03  0.16500000000E+03 0.  0.
<mgrwt>
<rscale>  0 0.57470884E+03</rscale>
<asrwt>0</asrwt>
<pdfrwt beam="1">  1        2 0.78227924E-01 0.57470884E+03</pdfrwt>
<pdfrwt beam="2">  1       -2 0.24983153E-01 0.57470884E+03</pdfrwt>
<totfact> 0.87006814E+02</totfact>
</mgrwt>
</event>
<event>
 4    1  0.8877834E-005  0.5651537E+03  0.7818608E-02  0.9980460E-01
         -2   -1    0    0    0  501 -0.00000000000E+00  0.00000000000E+00  0.29571770669E+02  0.29571770778E+02  0.25500000000E-02 0. -1.
          2   -1    0    0  501    0  0.00000000000E+00 -0.00000000000E+00 -0.27001993786E+04  0.27001993786E+04  0.25500000000E-02 0.  1.
    5000001    1    1    2    0    0  0.12122765863E+02 -0.17689713918E+03 -0.20383458181E+04  0.20526856149E+04  0.16500000000E+03 0.  0.
   -5000001    1    1    2    0    0 -0.12122765863E+02  0.17689713918E+03 -0.63228178989E+03  0.67708553457E+03  0.16500000000E+03 0.  0.
<mgrwt>
<rscale>  0 0.56515370E+03</rscale>
<asrwt>0</asrwt>
<pdfrwt beam="1">  1        2 0.41541510E+00 0.56515370E+03</pdfrwt>
<pdfrwt beam="2">  1       -2 0.45495053E-02 0.56515370E+03</pdfrwt>
<totfact> 0.67420349E+02</totfact>
</mgrwt>
</event>
<event>
 4    1  0.8877834E-005  0.5168046E+03  0.7818608E-02  0.1009483E+00
         -2   -1    0    0    0  501 -0.00000000000E+00  0.00000000000E+00  0.42661077768E+02  0.42661077845E+02  0.25500000000E-02 0. -1.
          2   -1    0    0  501    0  0.00000000000E+00 -0.00000000000E+00 -0.15651677290E+04  0.15651677290E+04  0.25500000000E-02 0.  1.
    5000001    1    1    2    0    0 -0.38072843878E+02  0.18804792515E+03 -0.92396035159E+03  0.95798710581E+03  0.16500000000E+03 0.  0.
   -5000001    1    1    2    0    0  0.38072843878E+02 -0.18804792515E+03 -0.59854629969E+03  0.64984170108E+03  0.16500000000E+03 0.  0.
<mgrwt>
<rscale>  0 0.51680458E+03</rscale>
<asrwt>0</asrwt>
<pdfrwt beam="1">  1        2 0.24079499E+00 0.51680458E+03</pdfrwt>
<pdfrwt beam="2">  1       -2 0.65632440E-02 0.51680458E+03</pdfrwt>
<totfact> 0.16062849E+03</totfact>
</mgrwt>
</event>
<event>
 4    1  0.8877834E-005  0.3606831E+03  0.7818608E-02  0.1058314E+00
         -2   -1    0    0    0  501 -0.00000000000E+00  0.00000000000E+00  0.48020311223E+02  0.48020311291E+02  0.25500000000E-02 0. -1.
          2   -1    0    0  501    0  0.00000000000E+00 -0.00000000000E+00 -0.67727763783E+03  0.67727763784E+03  0.25500000000E-02 0.  1.
    5000001    1    1    2    0    0  0.60418317795E+02  0.19799755856E+02 -0.38588606890E+03  0.42447080185E+03  0.16500000000E+03 0.  0.
   -5000001    1    1    2    0    0 -0.60418317795E+02 -0.19799755856E+02 -0.24337125771E+03  0.30082714727E+03  0.16500000000E+03 0.  0.
<mgrwt>
<rscale>  0 0.36068315E+03</rscale>
<asrwt>0</asrwt>
<pdfrwt beam="1">  1        2 0.10419655E+00 0.36068315E+03</pdfrwt>
<pdfrwt beam="2">  1       -2 0.73877407E-02 0.36068315E+03</pdfrwt>
<totfact> 0.46992832E+03</totfact>
</mgrwt>
</event>
<event>
 4    1  0.8877834E-005  0.4627829E+03  0.7818608E-02  0.1023977E+00
          2   -1    0    0  501    0  0.00000000000E+00  0.00000000000E+00  0.60664197807E+03  0.60664197808E+03  0.25500000000E-02 0.  1.
         -2   -1    0    0    0  501 -0.00000000000E+00 -0.00000000000E+00 -0.88259649239E+02  0.88259649276E+02  0.25500000000E-02 0. -1.
    5000001    1    1    2    0    0  0.69113837851E+02  0.12472264482E+03  0.14302981083E+03  0.26079683184E+03  0.16500000000E+03 0.  0.
   -5000001    1    1    2    0    0 -0.69113837851E+02 -0.12472264482E+03  0.37535251801E+03  0.43410479551E+03  0.16500000000E+03 0.  0.
<mgrwt>
<rscale>  0 0.46278292E+03</rscale>
<asrwt>0</asrwt>
<pdfrwt beam="1">  1        2 0.93329535E-01 0.46278292E+03</pdfrwt>
<pdfrwt beam="2">  1       -2 0.13578408E-01 0.46278292E+03</pdfrwt>
<totfact> 0.20215313E+03</totfact>
</mgrwt>
</event>
<event>
 4    1  0.8877834E-005  0.8861579E+03  0.7818608E-02  0.9443052E-01
          2   -1    0    0  501    0  0.00000000000E+00  0.00000000000E+00  0.88100113752E+03  0.88100113752E+03  0.25500000000E-02 0.  1.
         -2   -1    0    0    0  501 -0.00000000000E+00 -0.00000000000E+00 -0.22283623546E+03  0.22283623547E+03  0.25500000000E-02 0. -1.
    5000001    1    1    2    0    0  0.40334173359E+03  0.60844202796E+02  0.26426818022E+03  0.51327306782E+03  0.16500000000E+03 0.  0.
   -5000001    1    1    2    0    0 -0.40334173359E+03 -0.60844202796E+02  0.39389672184E+03  0.59056430518E+03  0.16500000000E+03 0.  0.
<mgrwt>
<rscale>  0 0.88615795E+03</rscale>
<asrwt>0</asrwt>
<pdfrwt beam="1">  1        2 0.13553864E+00 0.88615795E+03</pdfrwt>
<pdfrwt beam="2">  1       -2 0.34282498E-01 0.88615795E+03</pdfrwt>
<totfact> 0.24128018E+02</totfact>
</mgrwt>
</event>
<event>
 4    1  0.8877834E-005  0.5577502E+03  0.7818608E-02  0.9997158E-01
          2   -1    0    0  501    0  0.00000000000E+00  0.00000000000E+00  0.31955725890E+03  0.31955725891E+03  0.25500000000E-02 0.  1.
         -2   -1    0    0    0  501 -0.00000000000E+00 -0.00000000000E+00 -0.24337209026E+03  0.24337209027E+03  0.25500000000E-02 0. -1.
    5000001    1    1    2    0    0 -0.16812224683E+03  0.14856198550E+03  0.52738175078E+02  0.28344676489E+03  0.16500000000E+03 0.  0.
   -5000001    1    1    2    0    0  0.16812224683E+03 -0.14856198550E+03  0.23446993560E+02  0.27948258429E+03  0.16500000000E+03 0.  0.
<mgrwt>
<rscale>  0 0.55775019E+03</rscale>
<asrwt>0</asrwt>
<pdfrwt beam="1">  1        2 0.49162655E-01 0.55775019E+03</pdfrwt>
<pdfrwt beam="2">  1       -2 0.37441860E-01 0.55775019E+03</pdfrwt>
<totfact> 0.69230031E+02</totfact>
</mgrwt>
</event>
<event>
 4    1  0.8877834E-005  0.7500772E+03  0.7818608E-02  0.9635229E-01
         -2   -1    0    0    0  501 -0.00000000000E+00  0.00000000000E+00  0.97320309386E+02  0.97320309419E+02  0.25500000000E-02 0. -1.
          2   -1    0    0  501    0  0.00000000000E+00 -0.00000000000E+00 -0.14452680983E+04  0.14452680983E+04  0.25500000000E-02 0.  1.
    5000001    1    1    2    0    0 -0.72131593399E+02  0.30815416254E+03 -0.43709289920E+03  0.56430236327E+03  0.16500000000E+03 0.  0.
   -5000001    1    1    2    0    0  0.72131593399E+02 -0.30815416254E+03 -0.91085488969E+03  0.97828604443E+03  0.16500000000E+03 0.  0.
<mgrwt>
<rscale>  0 0.75007717E+03</rscale>
<asrwt>0</asrwt>
<pdfrwt beam="1">  1        2 0.22234892E+00 0.75007717E+03</pdfrwt>
<pdfrwt beam="2">  1       -2 0.14972356E-01 0.75007717E+03</pdfrwt>
<totfact> 0.48465981E+02</totfact>
</mgrwt>
</event>
<event>
 4    1  0.8877834E-005  0.5555705E+03  0.7818608E-02  0.1000213E+00
         -2   -1    0    0    0  501 -0.00000000000E+00  0.00000000000E+00  0.47720856643E+02  0.47720856711E+02  0.25500000000E-02 0. -1.
          2   -1    0    0  501    0  0.00000000000E+00 -0.00000000000E+00 -0.16170004642E+04  0.16170004643E+04  0.25500000000E-02 0.  1.
    5000001    1    1    2    0    0 -0.17756292478E+03  0.78401085142E+02 -0.45280328140E+03  0.51954897175E+03  0.16500000000E+03 0.  0.
   -5000001    1    1    2    0    0  0.17756292478E+03 -0.78401085142E+02 -0.11164763262E+04  0.11451723492E+04  0.16500000000E+03 0.  0.
<mgrwt>
<rscale>  0 0.55557051E+03</rscale>
<asrwt>0</asrwt>
<pdfrwt beam="1">  1        2 0.24876926E+00 0.55557051E+03</pdfrwt>
<pdfrwt beam="2">  1       -2 0.73416715E-02 0.55557051E+03</pdfrwt>
<totfact> 0.12593283E+03</totfact>
</mgrwt>
</event>
<event>
 4    1  0.8877834E-005  0.9172406E+03  0.7818608E-02  0.9404283E-01
          2   -1    0    0  501    0  0.00000000000E+00  0.00000000000E+00  0.15159364435E+04  0.15159364435E+04  0.25500000000E-02 0.  1.
         -2   -1    0    0    0  501 -0.00000000000E+00 -0.00000000000E+00 -0.13874762696E+03  0.13874762698E+03  0.25500000000E-02 0. -1.
    5000001    1    1    2    0    0  0.42376217389E+03  0.50501820601E+02  0.63204112583E+03  0.78027290010E+03  0.16500000000E+03 0.  0.
   -5000001    1    1    2    0    0 -0.42376217389E+03 -0.50501820601E+02  0.74514769070E+03  0.87441117036E+03  0.16500000000E+03 0.  0.
<mgrwt>
<rscale>  0 0.91724061E+03</rscale>
<asrwt>0</asrwt>
<pdfrwt beam="1">  1        2 0.23322099E+00 0.91724061E+03</pdfrwt>
<pdfrwt beam="2">  1       -2 0.21345789E-01 0.91724061E+03</pdfrwt>
<totfact> 0.23732427E+02</totfact>
</mgrwt>
</event>
<event>
 4    1  0.8877834E-005  0.3841030E+03  0.7818608E-02  0.1049428E+00
         -2   -1    0    0    0  501 -0.00000000000E+00  0.00000000000E+00  0.68469783818E+02  0.68469783866E+02  0.25500000000E-02 0. -1.
          2   -1    0    0  501    0  0.00000000000E+00 -0.00000000000E+00 -0.53868708402E+03  0.53868708402E+03  0.25500000000E-02 0.  1.
    5000001    1    1    2    0    0 -0.86101014344E+02  0.40284674218E+02 -0.19566838987E+03  0.27303362145E+03  0.16500000000E+03 0.  0.
   -5000001    1    1    2    0    0  0.86101014344E+02 -0.40284674218E+02 -0.27454891033E+03  0.33412324644E+03  0.16500000000E+03 0.  0.
<mgrwt>
<rscale>  0 0.38410305E+03</rscale>
<asrwt>0</asrwt>
<pdfrwt beam="1">  1        2 0.82874933E-01 0.38410305E+03</pdfrwt>
<pdfrwt beam="2">  1       -2 0.10533813E-01 0.38410305E+03</pdfrwt>
<totfact> 0.35095480E+03</totfact>
</mgrwt>
</event>
<event>
 4    1  0.8877834E-005  0.4082902E+03  0.7818608E-02  0.1040946E+00
         -2   -1    0    0    0  501 -0.00000000000E+00  0.00000000000E+00  0.21781286406E+02  0.21781286555E+02  0.25500000000E-02 0. -1.
          2   -1    0    0  501    0  0.00000000000E+00 -0.00000000000E+00 -0.19133498104E+04  0.19133498105E+04  0.25500000000E-02 0.  1.
    5000001    1    1    2    0    0 -0.46777761242E+02  0.48047532665E+02 -0.14186406576E+04  0.14297772693E+04  0.16500000000E+03 0.  0.
   -5000001    1    1    2    0    0  0.46777761242E+02 -0.48047532665E+02 -0.47292786644E+03  0.50535382772E+03  0.16500000000E+03 0.  0.
<mgrwt>
<rscale>  0 0.40829019E+03</rscale>
<asrwt>0</asrwt>
<pdfrwt beam="1">  1        2 0.29436138E+00 0.40829019E+03</pdfrwt>
<pdfrwt beam="2">  1       -2 0.33509687E-02 0.40829019E+03</pdfrwt>
<totfact> 0.29477293E+03</totfact>
</mgrwt>
</event>
<event>
 4    1  0.8877834E-005  0.3913585E+03  0.7818608E-02  0.1046814E+00
         -2   -1    0    0    0  501 -0.00000000000E+00  0.00000000000E+00  0.66637619010E+02  0.66637619059E+02  0.25500000000E-02 0. -1.
          2   -1    0    0  501    0  0.00000000000E+00 -0.00000000000E+00 -0.57460602001E+03  0.57460602002E+03  0.25500000000E-02 0.  1.
    5000001    1    1    2    0    0 -0.92628850492E+02  0.42534362229E+02 -0.21137983625E+03  0.28687229055E+03  0.16500000000E+03 0.  0.
   -5000001    1    1    2    0    0  0.92628850492E+02 -0.42534362229E+02 -0.29658856475E+03  0.35437134852E+03  0.16500000000E+03 0.  0.
<mgrwt>
<rscale>  0 0.39135854E+03</rscale>
<asrwt>0</asrwt>
<pdfrwt beam="1">  1        2 0.88400923E-01 0.39135854E+03</pdfrwt>
<pdfrwt beam="2">  1       -2 0.10251942E-01 0.39135854E+03</pdfrwt>
<totfact> 0.34031089E+03</totfact>
</mgrwt>
</event>
<event>
 4    1  0.8877834E-005  0.5519631E+03  0.7818608E-02  0.1001041E+00
         -2   -1    0    0    0  501 -0.00000000000E+00  0.00000000000E+00  0.30694387390E+02  0.30694387496E+02  0.25500000000E-02 0. -1.
          2   -1    0    0  501    0  0.00000000000E+00 -0.00000000000E+00 -0.24814248765E+04  0.24814248765E+04  0.25500000000E-02 0.  1.
    5000001    1    1    2    0    0  0.12339862442E+03  0.72648919182E+02 -0.19928370018E+04  0.20047766464E+04  0.16500000000E+03 0.  0.
   -5000001    1    1    2    0    0 -0.12339862442E+03 -0.72648919182E+02 -0.45789348728E+03  0.50734261763E+03  0.16500000000E+03 0.  0.
<mgrwt>
<rscale>  0 0.55196310E+03</rscale>
<asrwt>0</asrwt>
<pdfrwt beam="1">  1        2 0.38175751E+00 0.55196310E+03</pdfrwt>
<pdfrwt beam="2">  1       -2 0.47222154E-02 0.55196310E+03</pdfrwt>
<totfact> 0.84858943E+02</totfact>
</mgrwt>
</event>
<event>
 4    1  0.8877834E-005  0.4062181E+03  0.7818608E-02  0.1041648E+00
         -2   -1    0    0    0  501 -0.00000000000E+00  0.00000000000E+00  0.75043046933E+02  0.75043046976E+02  0.25500000000E-02 0. -1.
          2   -1    0    0  501    0  0.00000000000E+00 -0.00000000000E+00 -0.54972822489E+03  0.54972822490E+03  0.25500000000E-02 0.  1.
    5000001    1    1    2    0    0  0.10994924956E+03  0.43998682230E+02 -0.23444087198E+03  0.31018098583E+03  0.16500000000E+03 0.  0.
   -5000001    1    1    2    0    0 -0.10994924956E+03 -0.43998682230E+02 -0.24024430598E+03  0.31459028604E+03  0.16500000000E+03 0.  0.
<mgrwt>
<rscale>  0 0.40621807E+03</rscale>
<asrwt>0</asrwt>
<pdfrwt beam="1">  1        2 0.84573571E-01 0.40621807E+03</pdfrwt>
<pdfrwt beam="2">  1       -2 0.11545084E-01 0.40621807E+03</pdfrwt>
<totfact> 0.29581905E+03</totfact>
</mgrwt>
</event>
<event>
 4    1  0.8877834E-005  0.1885373E+04  0.7818608E-02  0.8662172E-01
         -2   -1    0    0    0  501 -0.00000000000E+00  0.00000000000E+00  0.75738285994E+03  0.75738285995E+03  0.25500000000E-02 0. -1.
          2   -1    0    0  501    0  0.00000000000E+00 -0.00000000000E+00 -0.11733271945E+04  0.11733271945E+04  0.25500000000E-02 0.  1.
    5000001    1    1    2    0    0  0.74559692966E+03  0.37162650593E+03  0.21102672523E+03  0.87508760715E+03  0.16500000000E+03 0.  0.
   -5000001    1    1    2    0    0 -0.74559692966E+03 -0.37162650593E+03 -0.62697105975E+03  0.10556224473E+04  0.16500000000E+03 0.  0.
<mgrwt>
<rscale>  0 0.18853731E+04</rscale>
<asrwt>0</asrwt>
<pdfrwt beam="1">  1        2 0.18051188E+00 0.18853731E+04</pdfrwt>
<pdfrwt beam="2">  1       -2 0.11652044E+00 0.18853731E+04</pdfrwt>
<totfact> 0.10523866E+01</totfact>
</mgrwt>
</event>
<event>
 4    1  0.8877834E-005  0.6207565E+03  0.7818608E-02  0.9863255E-01
         -2   -1    0    0    0  501 -0.00000000000E+00  0.00000000000E+00  0.11159563014E+03  0.11159563017E+03  0.25500000000E-02 0. -1.
          2   -1    0    0  501    0  0.00000000000E+00 -0.00000000000E+00 -0.86324770503E+03  0.86324770504E+03  0.25500000000E-02 0.  1.
    5000001    1    1    2    0    0 -0.12956386780E+03 -0.22298606262E+03 -0.29574902716E+03  0.42567836100E+03  0.16500000000E+03 0.  0.
   -5000001    1    1    2    0    0  0.12956386780E+03  0.22298606262E+03 -0.45590304773E+03  0.54916497421E+03  0.16500000000E+03 0.  0.
<mgrwt>
<rscale>  0 0.62075654E+03</rscale>
<asrwt>0</asrwt>
<pdfrwt beam="1">  1        2 0.13280734E+00 0.62075654E+03</pdfrwt>
<pdfrwt beam="2">  1       -2 0.17168559E-01 0.62075654E+03</pdfrwt>
<totfact> 0.86991518E+02</totfact>
</mgrwt>
</event>
<event>
 4    1  0.8877834E-005  0.4800155E+03  0.7818608E-02  0.1019131E+00
         -2   -1    0    0    0  501 -0.00000000000E+00  0.00000000000E+00  0.30084193835E+03  0.30084193836E+03  0.25500000000E-02 0. -1.
          2   -1    0    0  501    0  0.00000000000E+00 -0.00000000000E+00 -0.19147504068E+03  0.19147504070E+03  0.25500000000E-02 0.  1.
    5000001    1    1    2    0    0 -0.93316116687E+01  0.16714671817E+03  0.49260654115E+01  0.23510502013E+03  0.16500000000E+03 0.  0.
   -5000001    1    1    2    0    0  0.93316116687E+01 -0.16714671817E+03  0.10444083225E+03  0.25721195892E+03  0.16500000000E+03 0.  0.
<mgrwt>
<rscale>  0 0.48001551E+03</rscale>
<asrwt>0</asrwt>
<pdfrwt beam="1">  1        2 0.29457699E-01 0.48001551E+03</pdfrwt>
<pdfrwt beam="2">  1       -2 0.46283375E-01 0.48001551E+03</pdfrwt>
<totfact> 0.80719537E+02</totfact>
</mgrwt>
</event>
<event>
 4    1  0.8877834E-005  0.5713520E+03  0.7818608E-02  0.9966691E-01
          2   -1    0    0  501    0  0.00000000000E+00  0.00000000000E+00  0.23485327537E+04  0.23485327537E+04  0.25500000000E-02 0.  1.
         -2   -1    0    0    0  501 -0.00000000000E+00 -0.00000000000E+00 -0.34749680649E+02  0.34749680742E+02  0.25500000000E-02 0. -1.
    5000001    1    1    2    0    0  0.12514730180E+03  0.19557288846E+03  0.10659646343E+04  0.11033658520E+04  0.16500000000E+03 0.  0.
   -5000001    1    1    2    0    0 -0.12514730180E+03 -0.19557288846E+03  0.12478184388E+04  0.12799165824E+04  0.16500000000E+03 0.  0.
<mgrwt>
<rscale>  0 0.57135195E+03</rscale>
<asrwt>0</asrwt>
<pdfrwt beam="1">  1        2 0.36131286E+00 0.57135195E+03</pdfrwt>
<pdfrwt beam="2">  1       -2 0.53461029E-02 0.57135195E+03</pdfrwt>
<totfact> 0.82875611E+02</totfact>
</mgrwt>
</event>
<event>
 4    1  0.8877834E-005  0.5065355E+03  0.7818608E-02  0.1012087E+00
         -2   -1    0    0    0  501 -0.00000000000E+00  0.00000000000E+00  0.45057648848E+02  0.45057648920E+02  0.25500000000E-02 0. -1.
          2   -1    0    0  501    0  0.00000000000E+00 -0.00000000000E+00 -0.14236109858E+04  0.14236109858E+04  0.25500000000E-02 0.  1.
    5000001    1    1    2    0    0  0.11379982706E+03 -0.10108839158E+03 -0.10292696788E+04  0.10534658681E+04  0.16500000000E+03 0.  0.
   -5000001    1    1    2    0    0 -0.11379982706E+03  0.10108839158E+03 -0.34928365807E+03  0.41520276654E+03  0.16500000000E+03 0.  0.
<mgrwt>
<rscale>  0 0.50653554E+03</rscale>
<asrwt>0</asrwt>
<pdfrwt beam="1">  1        2 0.21901704E+00 0.50653554E+03</pdfrwt>
<pdfrwt beam="2">  1       -2 0.69319471E-02 0.50653554E+03</pdfrwt>
<totfact> 0.17640593E+03</totfact>
</mgrwt>
</event>
<event>
 4    1  0.8877834E-005  0.4890232E+03  0.7818608E-02  0.1016684E+00
          2   -1    0    0  501    0  0.00000000000E+00  0.00000000000E+00  0.28016425734E+04  0.28016425734E+04  0.25500000000E-02 0.  1.
         -2   -1    0    0    0  501 -0.00000000000E+00 -0.00000000000E+00 -0.21339600882E+02  0.21339601034E+02  0.25500000000E-02 0. -1.
    5000001    1    1    2    0    0  0.17159030647E+03  0.53220671440E+02  0.14876504803E+04  0.15075160446E+04  0.16500000000E+03 0.  0.
   -5000001    1    1    2    0    0 -0.17159030647E+03 -0.53220671440E+02  0.12926524921E+04  0.13154661298E+04  0.16500000000E+03 0.  0.
<mgrwt>
<rscale>  0 0.48902325E+03</rscale>
<asrwt>0</asrwt>
<pdfrwt beam="1">  1        2 0.43102153E+00 0.48902325E+03</pdfrwt>
<pdfrwt beam="2">  1       -2 0.32830186E-02 0.48902325E+03</pdfrwt>
<totfact> 0.97720280E+02</totfact>
</mgrwt>
</event>
<event>
 4    1  0.8877834E-005  0.3963654E+03  0.7818608E-02  0.1045046E+00
          2   -1    0    0  501    0  0.00000000000E+00  0.00000000000E+00  0.15642181078E+03  0.15642181080E+03  0.25500000000E-02 0.  1.
         -2   -1    0    0    0  501 -0.00000000000E+00 -0.00000000000E+00 -0.25109279051E+03  0.25109279052E+03  0.25500000000E-02 0. -1.
    5000001    1    1    2    0    0 -0.90947192665E+02  0.75297894096E+01 -0.11007070360E+03  0.21833151255E+03  0.16500000000E+03 0.  0.
   -5000001    1    1    2    0    0  0.90947192665E+02 -0.75297894096E+01  0.15399723876E+02  0.18918308877E+03  0.16500000000E+03 0.  0.
<mgrwt>
<rscale>  0 0.39636543E+03</rscale>
<asrwt>0</asrwt>
<pdfrwt beam="1">  1        2 0.24064894E-01 0.39636543E+03</pdfrwt>
<pdfrwt beam="2">  1       -2 0.38629660E-01 0.39636543E+03</pdfrwt>
<totfact> 0.14408975E+03</totfact>
</mgrwt>
</event>
<event>
 4    1  0.8877834E-005  0.5472434E+03  0.7818608E-02  0.1002134E+00
         -2   -1    0    0    0  501 -0.00000000000E+00  0.00000000000E+00  0.36560267403E+03  0.36560267404E+03  0.25500000000E-02 0. -1.
          2   -1    0    0  501    0  0.00000000000E+00 -0.00000000000E+00 -0.20478198227E+03  0.20478198228E+03  0.25500000000E-02 0.  1.
    5000001    1    1    2    0    0  0.56312023333E+02  0.17636942399E+03  0.20091342076E+03  0.31916832602E+03  0.16500000000E+03 0.  0.
   -5000001    1    1    2    0    0 -0.56312023333E+02 -0.17636942399E+03 -0.40092729002E+02  0.25121633030E+03  0.16500000000E+03 0.  0.
<mgrwt>
<rscale>  0 0.54724342E+03</rscale>
<asrwt>0</asrwt>
<pdfrwt beam="1">  1        2 0.31504921E-01 0.54724342E+03</pdfrwt>
<pdfrwt beam="2">  1       -2 0.56246564E-01 0.54724342E+03</pdfrwt>
<totfact> 0.50377874E+02</totfact>
</mgrwt>
</event>
<event>
 4    1  0.8877834E-005  0.6083283E+03  0.7818608E-02  0.9888277E-01
          2   -1    0    0  501    0  0.00000000000E+00  0.00000000000E+00  0.17610300217E+03  0.17610300218E+03  0.25500000000E-02 0.  1.
         -2   -1    0    0    0  501 -0.00000000000E+00 -0.00000000000E+00 -0.52535069763E+03  0.52535069764E+03  0.25500000000E-02 0. -1.
    5000001    1    1    2    0    0  0.21517327307E+03 -0.11768089877E+03 -0.91934744276E+02  0.30955666458E+03  0.16500000000E+03 0.  0.
   -5000001    1    1    2    0    0 -0.21517327307E+03  0.11768089877E+03 -0.25731295119E+03  0.39189703524E+03  0.16500000000E+03 0.  0.
<mgrwt>
<rscale>  0 0.60832832E+03</rscale>
<asrwt>0</asrwt>
<pdfrwt beam="1">  1        2 0.27092770E-01 0.60832832E+03</pdfrwt>
<pdfrwt beam="2">  1       -2 0.80823183E-01 0.60832832E+03</pdfrwt>
<totfact> 0.27291782E+02</totfact>
</mgrwt>
</event>
<event>
 4    1  0.8877834E-005  0.5494523E+03  0.7818608E-02  0.1001621E+00
          2   -1    0    0  501    0  0.00000000000E+00  0.00000000000E+00  0.17105145821E+04  0.17105145821E+04  0.25500000000E-02 0.  1.
         -2   -1    0    0    0  501 -0.00000000000E+00 -0.00000000000E+00 -0.44123831555E+02  0.44123831629E+02  0.25500000000E-02 0. -1.
    5000001    1    1    2    0    0 -0.20755106994E+03 -0.34565066415E+02  0.63179976222E+03  0.68605257087E+03  0.16500000000E+03 0.  0.
   -5000001    1    1    2    0    0  0.20755106994E+03  0.34565066415E+02  0.10345909883E+04  0.10685858429E+04  0.16500000000E+03 0.  0.
<mgrwt>
<rscale>  0 0.54945230E+03</rscale>
<asrwt>0</asrwt>
<pdfrwt beam="1">  1        2 0.26315607E+00 0.54945230E+03</pdfrwt>
<pdfrwt beam="2">  1       -2 0.67882822E-02 0.54945230E+03</pdfrwt>
<totfact> 0.12683861E+03</totfact>
</mgrwt>
</event>
<event>
 4    1  0.8877834E-005  0.3758571E+03  0.7818608E-02  0.1052476E+00
          2   -1    0    0  501    0  0.00000000000E+00  0.00000000000E+00  0.69616530721E+03  0.69616530722E+03  0.25500000000E-02 0.  1.
         -2   -1    0    0    0  501 -0.00000000000E+00 -0.00000000000E+00 -0.50730954636E+02  0.50730954701E+02  0.25500000000E-02 0. -1.
    5000001    1    1    2    0    0 -0.79791765515E+02 -0.31892998768E+02  0.37560165753E+03  0.41914853496E+03  0.16500000000E+03 0.  0.
   -5000001    1    1    2    0    0  0.79791765515E+02  0.31892998768E+02  0.26983269504E+03  0.32774772696E+03  0.16500000000E+03 0.  0.
<mgrwt>
<rscale>  0 0.37585705E+03</rscale>
<asrwt>0</asrwt>
<pdfrwt beam="1">  1        2 0.10710235E+00 0.37585705E+03</pdfrwt>
<pdfrwt beam="2">  1       -2 0.78047628E-02 0.37585705E+03</pdfrwt>
<totfact> 0.41717043E+03</totfact>
</mgrwt>
</event>
<event>
 4    1  0.8877834E-005  0.5211101E+03  0.7818608E-02  0.1008411E+00
          2   -1    0    0  501    0  0.00000000000E+00  0.00000000000E+00  0.11301635095E+03  0.11301635098E+03  0.25500000000E-02 0. -1.
         -2   -1    0    0    0  501 -0.00000000000E+00 -0.00000000000E+00 -0.60070011681E+03  0.60070011681E+03  0.25500000000E-02 0.  1.
    5000001    1    1    2    0    0 -0.12646862657E+03  0.14584487818E+03 -0.16399370976E+03  0.30229783135E+03  0.16500000000E+03 0.  0.
   -5000001    1    1    2    0    0  0.12646862657E+03 -0.14584487818E+03 -0.32369005609E+03  0.41141863644E+03  0.16500000000E+03 0.  0.
<mgrwt>
<rscale>  0 0.52111010E+03</rscale>
<asrwt>0</asrwt>
<pdfrwt beam="1">  1        2 0.17387131E-01 0.52111010E+03</pdfrwt>
<pdfrwt beam="2">  1       -2 0.92415400E-01 0.52111010E+03</pdfrwt>
<totfact> 0.33724604E+02</totfact>
</mgrwt>
</event>
<event>
 4    1  0.8877834E-005  0.4850423E+03  0.7818608E-02  0.1017759E+00
         -2   -1    0    0    0  501 -0.00000000000E+00  0.00000000000E+00  0.64228571608E+03  0.64228571609E+03  0.25500000000E-02 0. -1.
          2   -1    0    0  501    0  0.00000000000E+00 -0.00000000000E+00 -0.91573740689E+02  0.91573740724E+02  0.25500000000E-02 0.  1.
    5000001    1    1    2    0    0 -0.14512226290E+01 -0.11525184975E+03  0.48006402333E+03  0.52054928817E+03  0.16500000000E+03 0.  0.
   -5000001    1    1    2    0    0  0.14512226290E+01  0.11525184975E+03  0.70647952068E+02  0.21331016865E+03  0.16500000000E+03 0.  0.
<mgrwt>
<rscale>  0 0.48504229E+03</rscale>
<asrwt>0</asrwt>
<pdfrwt beam="1">  1        2 0.14088267E-01 0.48504229E+03</pdfrwt>
<pdfrwt beam="2">  1       -2 0.98813192E-01 0.48504229E+03</pdfrwt>
<totfact> 0.37189071E+02</totfact>
</mgrwt>
</event>
<event>
 4    1  0.8877834E-005  0.5230923E+03  0.7818608E-02  0.1007921E+00
         -2   -1    0    0    0  501 -0.00000000000E+00  0.00000000000E+00  0.14035970512E+03  0.14035970515E+03  0.25500000000E-02 0. -1.
          2   -1    0    0  501    0  0.00000000000E+00 -0.00000000000E+00 -0.48736494628E+03  0.48736494629E+03  0.25500000000E-02 0.  1.
    5000001    1    1    2    0    0  0.19401054091E+03 -0.56265616876E+02 -0.15024901424E+03  0.30100776718E+03  0.16500000000E+03 0.  0.
   -5000001    1    1    2    0    0 -0.19401054091E+03  0.56265616876E+02 -0.19675622692E+03  0.32671688425E+03  0.16500000000E+03 0.  0.
<mgrwt>
<rscale>  0 0.52309234E+03</rscale>
<asrwt>0</asrwt>
<pdfrwt beam="1">  1        2 0.74979222E-01 0.52309234E+03</pdfrwt>
<pdfrwt beam="2">  1       -2 0.21593801E-01 0.52309234E+03</pdfrwt>
<totfact> 0.11837771E+03</totfact>
</mgrwt>
</event>
<event>
 4    1  0.8877834E-005  0.4339205E+03  0.7818608E-02  0.1032629E+00
          2   -1    0    0  501    0  0.00000000000E+00  0.00000000000E+00  0.48584115653E+03  0.48584115654E+03  0.25500000000E-02 0.  1.
         -2   -1    0    0    0  501 -0.00000000000E+00 -0.00000000000E+00 -0.96887127042E+02  0.96887127075E+02  0.25500000000E-02 0. -1.
    5000001    1    1    2    0    0 -0.10454894891E+03  0.86306408604E+02  0.24592178890E+03  0.32570201894E+03  0.16500000000E+03 0.  0.
   -5000001    1    1    2    0    0  0.10454894891E+03 -0.86306408604E+02  0.14303224059E+03  0.25702626468E+03  0.16500000000E+03 0.  0.
<mgrwt>
<rscale>  0 0.43392052E+03</rscale>
<asrwt>0</asrwt>
<pdfrwt beam="1">  1        2 0.74744794E-01 0.43392052E+03</pdfrwt>
<pdfrwt beam="2">  1       -2 0.14905712E-01 0.43392052E+03</pdfrwt>
<totfact> 0.22384735E+03</totfact>
</mgrwt>
</event>
<event>
 4    1  0.8877834E-005  0.8667276E+03  0.7818608E-02  0.9468157E-01
          2   -1    0    0  501    0  0.00000000000E+00  0.00000000000E+00  0.28135095026E+04  0.28135095026E+04  0.25500000000E-02 0.  1.
         -2   -1    0    0    0  501 -0.00000000000E+00 -0.00000000000E+00 -0.66750865986E+02  0.66750866035E+02  0.25500000000E-02 0. -1.
    5000001    1    1    2    0    0  0.19430749277E+03 -0.25699583070E+03  0.21652150358E+04  0.21952638589E+04  0.16500000000E+03 0.  0.
   -5000001    1    1    2    0    0 -0.19430749277E+03  0.25699583070E+03  0.58154360073E+03  0.68499650970E+03  0.16500000000E+03 0.  0.
<mgrwt>
<rscale>  0 0.86672763E+03</rscale>
<asrwt>0</asrwt>
<pdfrwt beam="1">  1        2 0.43284770E+00 0.86672763E+03</pdfrwt>
<pdfrwt beam="2">  1       -2 0.10269362E-01 0.86672763E+03</pdfrwt>
<totfact> 0.15442917E+02</totfact>
</mgrwt>
</event>
<event>
 4    1  0.8877834E-005  0.4409326E+03  0.7818608E-02  0.1030461E+00
         -2   -1    0    0    0  501 -0.00000000000E+00  0.00000000000E+00  0.62989829204E+02  0.62989829256E+02  0.25500000000E-02 0. -1.
          2   -1    0    0  501    0  0.00000000000E+00 -0.00000000000E+00 -0.77163873977E+03  0.77163873977E+03  0.25500000000E-02 0.  1.
    5000001    1    1    2    0    0  0.68027325821E+02 -0.12528558367E+03 -0.41584124683E+03  0.46954567094E+03  0.16500000000E+03 0.  0.
   -5000001    1    1    2    0    0 -0.68027325821E+02  0.12528558367E+03 -0.29280766374E+03  0.36508289809E+03  0.16500000000E+03 0.  0.
<mgrwt>
<rscale>  0 0.44093261E+03</rscale>
<asrwt>0</asrwt>
<pdfrwt beam="1">  1        2 0.11871365E+00 0.44093261E+03</pdfrwt>
<pdfrwt beam="2">  1       -2 0.96907435E-02 0.44093261E+03</pdfrwt>
<totfact> 0.26039732E+03</totfact>
</mgrwt>
</event>
<event>
 4    1  0.8877834E-005  0.4638245E+03  0.7818608E-02  0.1023678E+00
         -2   -1    0    0    0  501 -0.00000000000E+00  0.00000000000E+00  0.21631388468E+02  0.21631388619E+02  0.25500000000E-02 0. -1.
          2   -1    0    0  501    0  0.00000000000E+00 -0.00000000000E+00 -0.24863539593E+04  0.24863539593E+04  0.25500000000E-02 0.  1.
    5000001    1    1    2    0    0 -0.15386602182E+03 -0.45027705879E+02 -0.13905657570E+04  0.14094681166E+04  0.16500000000E+03 0.  0.
   -5000001    1    1    2    0    0  0.15386602182E+03  0.45027705879E+02 -0.10741568138E+04  0.10985172314E+04  0.16500000000E+03 0.  0.
<mgrwt>
<rscale>  0 0.46382449E+03</rscale>
<asrwt>0</asrwt>
<pdfrwt beam="1">  1        2 0.38251577E+00 0.46382449E+03</pdfrwt>
<pdfrwt beam="2">  1       -2 0.33279079E-02 0.46382449E+03</pdfrwt>
<totfact> 0.14511292E+03</totfact>
</mgrwt>
</event>
<event>
 4    1  0.8877834E-005  0.5165316E+03  0.7818608E-02  0.1009552E+00
         -2   -1    0    0    0  501 -0.00000000000E+00  0.00000000000E+00  0.29672722395E+02  0.29672722504E+02  0.25500000000E-02 0. -1.
          2   -1    0    0  501    0  0.00000000000E+00 -0.00000000000E+00 -0.22478968823E+04  0.22478968823E+04  0.25500000000E-02 0.  1.
    5000001    1    1    2    0    0 -0.16122182166E+03  0.11306083306E+03 -0.99236891302E+03  0.10250835514E+04  0.16500000000E+03 0.  0.
   -5000001    1    1    2    0    0  0.16122182166E+03 -0.11306083306E+03 -0.12258552469E+04  0.12524860535E+04  0.16500000000E+03 0.  0.
<mgrwt>
<rscale>  0 0.51653159E+03</rscale>
<asrwt>0</asrwt>
<pdfrwt beam="1">  1        2 0.34583015E+00 0.51653159E+03</pdfrwt>
<pdfrwt beam="2">  1       -2 0.45650360E-02 0.51653159E+03</pdfrwt>
<totfact> 0.12070701E+03</totfact>
</mgrwt>
</event>
<event>
 4    1  0.8877834E-005  0.9872490E+03  0.7818608E-02  0.9322641E-01
         -2   -1    0    0    0  501 -0.00000000000E+00  0.00000000000E+00  0.95085863089E+02  0.95085863123E+02  0.25500000000E-02 0. -1.
          2   -1    0    0  501    0  0.00000000000E+00 -0.00000000000E+00 -0.25625803199E+04  0.25625803199E+04  0.25500000000E-02 0.  1.
    5000001    1    1    2    0    0  0.18609950938E+03 -0.42028894986E+03 -0.14272026134E+04  0.15084456001E+04  0.16500000000E+03 0.  0.
   -5000001    1    1    2    0    0 -0.18609950938E+03  0.42028894986E+03 -0.10402918435E+04  0.11492205830E+04  0.16500000000E+03 0.  0.
<mgrwt>
<rscale>  0 0.98724903E+03</rscale>
<asrwt>0</asrwt>
<pdfrwt beam="1">  1        2 0.39424308E+00 0.98724903E+03</pdfrwt>
<pdfrwt beam="2">  1       -2 0.14628596E-01 0.98724903E+03</pdfrwt>
<totfact> 0.11884352E+02</totfact>
</mgrwt>
</event>
<event>
 4    1  0.8877834E-005  0.4820505E+03  0.7818608E-02  0.1018573E+00
          2   -1    0    0  501    0  0.00000000000E+00  0.00000000000E+00  0.26932932606E+03  0.26932932607E+03  0.25500000000E-02 0.  1.
         -2   -1    0    0    0  501 -0.00000000000E+00 -0.00000000000E+00 -0.21569566712E+03  0.21569566714E+03  0.25500000000E-02 0. -1.
    5000001    1    1    2    0    0 -0.15951837054E+03 -0.56424063201E+02 -0.20786662369E+02  0.23724854221E+03  0.16500000000E+03 0.  0.
   -5000001    1    1    2    0    0  0.15951837054E+03  0.56424063201E+02  0.74420321302E+02  0.24777645100E+03  0.16500000000E+03 0.  0.
<mgrwt>
<rscale>  0 0.48205049E+03</rscale>
<asrwt>0</asrwt>
<pdfrwt beam="1">  1        2 0.41435281E-01 0.48205049E+03</pdfrwt>
<pdfrwt beam="2">  1       -2 0.33183949E-01 0.48205049E+03</pdfrwt>
<totfact> 0.10505270E+03</totfact>
</mgrwt>
</event>
<event>
 4    1  0.8877834E-005  0.4985818E+03  0.7818608E-02  0.1014150E+00
          2   -1    0    0  501    0  0.00000000000E+00  0.00000000000E+00  0.11165993511E+04  0.11165993511E+04  0.25500000000E-02 0.  1.
         -2   -1    0    0    0  501 -0.00000000000E+00 -0.00000000000E+00 -0.55656448181E+02  0.55656448240E+02  0.25500000000E-02 0. -1.
    5000001    1    1    2    0    0  0.10039702101E+03  0.98178633133E+02  0.24057606653E+03  0.32375986413E+03  0.16500000000E+03 0.  0.
   -5000001    1    1    2    0    0 -0.10039702101E+03 -0.98178633133E+02  0.82036683639E+03  0.84849593521E+03  0.16500000000E+03 0.  0.
<mgrwt>
<rscale>  0 0.49858180E+03</rscale>
<asrwt>0</asrwt>
<pdfrwt beam="1">  1        2 0.17178451E+00 0.49858180E+03</pdfrwt>
<pdfrwt beam="2">  1       -2 0.85625307E-02 0.49858180E+03</pdfrwt>
<totfact> 0.18941976E+03</totfact>
</mgrwt>
</event>
<event>
 4    1  0.8877834E-005  0.4397473E+03  0.7818608E-02  0.1030824E+00
          2   -1    0    0  501    0  0.00000000000E+00  0.00000000000E+00  0.17630702699E+04  0.17630702699E+04  0.25500000000E-02 0.  1.
         -2   -1    0    0    0  501 -0.00000000000E+00 -0.00000000000E+00 -0.27420582324E+02  0.27420582443E+02  0.25500000000E-02 0. -1.
    5000001    1    1    2    0    0  0.13250132604E+01 -0.14531633956E+03  0.87151048419E+03  0.89881817864E+03  0.16500000000E+03 0.  0.
   -5000001    1    1    2    0    0 -0.13250132604E+01  0.14531633956E+03  0.86413920341E+03  0.89167267373E+03  0.16500000000E+03 0.  0.
<mgrwt>
<rscale>  0 0.43974726E+03</rscale>
<asrwt>0</asrwt>
<pdfrwt beam="1">  1        2 0.27124167E+00 0.43974726E+03</pdfrwt>
<pdfrwt beam="2">  1       -2 0.42185497E-02 0.43974726E+03</pdfrwt>
<totfact> 0.24964434E+03</totfact>
</mgrwt>
</event>
<event>
 4    1  0.8877834E-005  0.7161119E+03  0.7818608E-02  0.9690069E-01
         -2   -1    0    0    0  501 -0.00000000000E+00  0.00000000000E+00  0.31424747593E+03  0.31424747594E+03  0.25500000000E-02 0. -1.
          2   -1    0    0  501    0  0.00000000000E+00 -0.00000000000E+00 -0.40797163490E+03  0.40797163491E+03  0.25500000000E-02 0.  1.
    5000001    1    1    2    0    0 -0.27253448097E+03  0.12699139853E+03  0.56860524709E+02  0.34764921673E+03  0.16500000000E+03 0.  0.
   -5000001    1    1    2    0    0  0.27253448097E+03 -0.12699139853E+03 -0.15058468368E+03  0.37456989412E+03  0.16500000000E+03 0.  0.
<mgrwt>
<rscale>  0 0.71611188E+03</rscale>
<asrwt>0</asrwt>
<pdfrwt beam="1">  1        2 0.62764867E-01 0.71611188E+03</pdfrwt>
<pdfrwt beam="2">  1       -2 0.48345765E-01 0.71611188E+03</pdfrwt>
<totfact> 0.31793892E+02</totfact>
</mgrwt>
</event>
<event>
 4    1  0.8877834E-005  0.1069195E+04  0.7818608E-02  0.9235748E-01
         -2   -1    0    0    0  501 -0.00000000000E+00  0.00000000000E+00  0.21270286798E+03  0.21270286800E+03  0.25500000000E-02 0. -1.
          2   -1    0    0  501    0  0.00000000000E+00 -0.00000000000E+00 -0.13436328027E+04  0.13436328027E+04  0.25500000000E-02 0.  1.
    5000001    1    1    2    0    0 -0.43874242948E+03  0.11164096701E+03 -0.22843155528E+03  0.53325847428E+03  0.16500000000E+03 0.  0.
   -5000001    1    1    2    0    0  0.43874242948E+03 -0.11164096701E+03 -0.90249837941E+03  0.10230771964E+04  0.16500000000E+03 0.  0.
<mgrwt>
<rscale>  0 0.10691951E+04</rscale>
<asrwt>0</asrwt>
<pdfrwt beam="1">  1        2 0.20671273E+00 0.10691951E+04</pdfrwt>
<pdfrwt beam="2">  1       -2 0.32723519E-01 0.10691951E+04</pdfrwt>
<totfact> 0.13491495E+02</totfact>
</mgrwt>
</event>
<event>
 4    1  0.8877834E-005  0.4361231E+03  0.7818608E-02  0.1031943E+00
          2   -1    0    0  501    0  0.00000000000E+00  0.00000000000E+00  0.31131922668E+04  0.31131922668E+04  0.25500000000E-02 0.  1.
         -2   -1    0    0    0  501 -0.00000000000E+00 -0.00000000000E+00 -0.15273978968E+02  0.15273979181E+02  0.25500000000E-02 0. -1.
    5000001    1    1    2    0    0 -0.45799102087E+02 -0.13500531417E+03  0.15392262626E+04  0.15545952785E+04  0.16500000000E+03 0.  0.
   -5000001    1    1    2    0    0  0.45799102087E+02  0.13500531417E+03  0.15586920252E+04  0.15738709674E+04  0.16500000000E+03 0.  0.
<mgrwt>
<rscale>  0 0.43612307E+03</rscale>
<asrwt>0</asrwt>
<pdfrwt beam="1">  1        2 0.47895265E+00 0.43612307E+03</pdfrwt>
<pdfrwt beam="2">  1       -2 0.23498430E-02 0.43612307E+03</pdfrwt>
<totfact> 0.10591096E+03</totfact>
</mgrwt>
</event>
<event>
 4    1  0.8877834E-005  0.4700563E+03  0.7818608E-02  0.1021904E+00
          2   -1    0    0  501    0  0.00000000000E+00  0.00000000000E+00  0.13186502018E+03  0.13186502021E+03  0.25500000000E-02 0.  1.
         -2   -1    0    0    0  501 -0.00000000000E+00 -0.00000000000E+00 -0.41889978851E+03  0.41889978852E+03  0.25500000000E-02 0. -1.
    5000001    1    1    2    0    0 -0.19859222439E+02 -0.10783117286E+03 -0.29168657452E+03  0.35260177015E+03  0.16500000000E+03 0.  0.
   -5000001    1    1    2    0    0  0.19859222439E+02  0.10783117286E+03  0.46518062000E+01  0.19816303857E+03  0.16500000000E+03 0.  0.
<mgrwt>
<rscale>  0 0.47005629E+03</rscale>
<asrwt>0</asrwt>
<pdfrwt beam="1">  1        2 0.20286926E-01 0.47005629E+03</pdfrwt>
<pdfrwt beam="2">  1       -2 0.64446121E-01 0.47005629E+03</pdfrwt>
<totfact> 0.62538180E+02</totfact>
</mgrwt>
</event>
<event>
 4    1  0.8877834E-005  0.4823387E+03  0.7818608E-02  0.1018494E+00
         -2   -1    0    0    0  501 -0.00000000000E+00  0.00000000000E+00  0.18924143516E+02  0.18924143688E+02  0.25500000000E-02 0. -1.
          2   -1    0    0  501    0  0.00000000000E+00 -0.00000000000E+00 -0.30734631590E+04  0.30734631590E+04  0.25500000000E-02 0.  1.
    5000001    1    1    2    0    0 -0.17241746817E+03  0.23032431008E+02 -0.16943780967E+04  0.17112569681E+04  0.16500000000E+03 0.  0.
   -5000001    1    1    2    0    0  0.17241746817E+03 -0.23032431008E+02 -0.13601609188E+04  0.13811303347E+04  0.16500000000E+03 0.  0.
<mgrwt>
<rscale>  0 0.48233871E+03</rscale>
<asrwt>0</asrwt>
<pdfrwt beam="1">  1        2 0.47284009E+00 0.48233871E+03</pdfrwt>
<pdfrwt beam="2">  1       -2 0.29114091E-02 0.48233871E+03</pdfrwt>
<totfact> 0.80709620E+02</totfact>
</mgrwt>
</event>
<event>
 4    1  0.8877834E-005  0.4029240E+03  0.7818608E-02  0.1042772E+00
         -2   -1    0    0    0  501 -0.00000000000E+00  0.00000000000E+00  0.22922620724E+02  0.22922620866E+02  0.25500000000E-02 0. -1.
          2   -1    0    0  501    0  0.00000000000E+00 -0.00000000000E+00 -0.17706065695E+04  0.17706065695E+04  0.25500000000E-02 0.  1.
    5000001    1    1    2    0    0  0.10036141237E+03  0.46462289341E+02 -0.10235259840E+04  0.10426224616E+04  0.16500000000E+03 0.  0.
   -5000001    1    1    2    0    0 -0.10036141237E+03 -0.46462289341E+02 -0.72415796479E+03  0.75090672883E+03  0.16500000000E+03 0.  0.
<mgrwt>
<rscale>  0 0.40292403E+03</rscale>
<asrwt>0</asrwt>
<pdfrwt beam="1">  1        2 0.27240090E+00 0.40292403E+03</pdfrwt>
<pdfrwt beam="2">  1       -2 0.35265584E-02 0.40292403E+03</pdfrwt>
<totfact> 0.32517345E+03</totfact>
</mgrwt>
</event>
<event>
 4    1  0.8877834E-005  0.9159927E+03  0.7818608E-02  0.9405808E-01
         -2   -1    0    0    0  501 -0.00000000000E+00  0.00000000000E+00  0.29764622652E+03  0.29764622653E+03  0.25500000000E-02 0. -1.
          2   -1    0    0  501    0  0.00000000000E+00 -0.00000000000E+00 -0.70473150590E+03  0.70473150590E+03  0.25500000000E-02 0.  1.
    5000001    1    1    2    0    0 -0.34718409493E+03 -0.21855819458E+03 -0.33408757836E+03  0.55420572913E+03  0.16500000000E+03 0.  0.
   -5000001    1    1    2    0    0  0.34718409493E+03  0.21855819458E+03 -0.72997701020E+02  0.44817200330E+03  0.16500000000E+03 0.  0.
<mgrwt>
<rscale>  0 0.91599274E+03</rscale>
<asrwt>0</asrwt>
<pdfrwt beam="1">  1        2 0.10842023E+00 0.91599274E+03</pdfrwt>
<pdfrwt beam="2">  1       -2 0.45791727E-01 0.91599274E+03</pdfrwt>
<totfact> 0.18411585E+02</totfact>
</mgrwt>
</event>
<event>
 4    1  0.8877834E-005  0.6475025E+03  0.7818608E-02  0.9811477E-01
         -2   -1    0    0    0  501 -0.00000000000E+00  0.00000000000E+00  0.33617101111E+03  0.33617101112E+03  0.25500000000E-02 0. -1.
          2   -1    0    0  501    0  0.00000000000E+00 -0.00000000000E+00 -0.31179032431E+03  0.31179032432E+03  0.25500000000E-02 0.  1.
    5000001    1    1    2    0    0 -0.15810185086E+03 -0.20384297955E+03 -0.92963675776E+02  0.32002406249E+03  0.16500000000E+03 0.  0.
   -5000001    1    1    2    0    0  0.15810185086E+03  0.20384297955E+03  0.11734436257E+03  0.32793727295E+03  0.16500000000E+03 0.  0.
<mgrwt>
<rscale>  0 0.64750249E+03</rscale>
<asrwt>0</asrwt>
<pdfrwt beam="1">  1        2 0.47967742E-01 0.64750249E+03</pdfrwt>
<pdfrwt beam="2">  1       -2 0.51718617E-01 0.64750249E+03</pdfrwt>
<totfact> 0.37486342E+02</totfact>
</mgrwt>
</event>
<event>
 4    1  0.8877834E-005  0.4029803E+03  0.7818608E-02  0.1042753E+00
         -2   -1    0    0    0  501 -0.00000000000E+00  0.00000000000E+00  0.17637365667E+02  0.17637365852E+02  0.25500000000E-02 0. -1.
          2   -1    0    0  501    0  0.00000000000E+00 -0.00000000000E+00 -0.23018338569E+04  0.23018338569E+04  0.25500000000E-02 0.  1.
    5000001    1    1    2    0    0  0.48677710729E+02  0.40926248732E+02 -0.58617065336E+03  0.61226261703E+03  0.16500000000E+03 0.  0.
   -5000001    1    1    2    0    0 -0.48677710729E+02 -0.40926248732E+02 -0.16980258379E+04  0.17072086057E+04  0.16500000000E+03 0.  0.
<mgrwt>
<rscale>  0 0.40298033E+03</rscale>
<asrwt>0</asrwt>
<pdfrwt beam="1">  1        2 0.35412805E+00 0.40298033E+03</pdfrwt>
<pdfrwt beam="2">  1       -2 0.27134427E-02 0.40298033E+03</pdfrwt>
<totfact> 0.25054261E+03</totfact>
</mgrwt>
</event>
<event>
 4    1  0.8877834E-005  0.6398400E+03  0.7818608E-02  0.9826033E-01
         -2   -1    0    0    0  501 -0.00000000000E+00  0.00000000000E+00  0.75181430627E+02  0.75181430670E+02  0.25500000000E-02 0. -1.
          2   -1    0    0  501    0  0.00000000000E+00 -0.00000000000E+00 -0.13613574952E+04  0.13613574952E+04  0.25500000000E-02 0.  1.
    5000001    1    1    2    0    0 -0.17265230551E+03  0.17089380256E+03 -0.35811894824E+03  0.46312815877E+03  0.16500000000E+03 0.  0.
   -5000001    1    1    2    0    0  0.17265230551E+03 -0.17089380256E+03 -0.92805711634E+03  0.97341076712E+03  0.16500000000E+03 0.  0.
<mgrwt>
<rscale>  0 0.63983999E+03</rscale>
<asrwt>0</asrwt>
<pdfrwt beam="1">  1        2 0.20943960E+00 0.63983999E+03</pdfrwt>
<pdfrwt beam="2">  1       -2 0.11566375E-01 0.63983999E+03</pdfrwt>
<totfact> 0.83547527E+02</totfact>
</mgrwt>
</event>
<event>
 4    1  0.8877834E-005  0.5057085E+03  0.7818608E-02  0.1012300E+00
         -2   -1    0    0    0  501 -0.00000000000E+00  0.00000000000E+00  0.18375164053E+03  0.18375164055E+03  0.25500000000E-02 0. -1.
          2   -1    0    0  501    0  0.00000000000E+00 -0.00000000000E+00 -0.34794401753E+03  0.34794401754E+03  0.25500000000E-02 0.  1.
    5000001    1    1    2    0    0 -0.17946261170E+03 -0.51517326983E+02 -0.36881389848E+02  0.25188509462E+03  0.16500000000E+03 0.  0.
   -5000001    1    1    2    0    0  0.17946261170E+03  0.51517326983E+02 -0.12731098715E+03  0.27981056346E+03  0.16500000000E+03 0.  0.
<mgrwt>
<rscale>  0 0.50570855E+03</rscale>
<asrwt>0</asrwt>
<pdfrwt beam="1">  1        2 0.53529849E-01 0.50570855E+03</pdfrwt>
<pdfrwt beam="2">  1       -2 0.28269483E-01 0.50570855E+03</pdfrwt>
<totfact> 0.10660278E+03</totfact>
</mgrwt>
</event>
<event>
 4    1  0.8877834E-005  0.5599000E+03  0.7818608E-02  0.9992281E-01
         -2   -1    0    0    0  501 -0.00000000000E+00  0.00000000000E+00  0.99316843542E+02  0.99316843574E+02  0.25500000000E-02 0. -1.
          2   -1    0    0  501    0  0.00000000000E+00 -0.00000000000E+00 -0.78911086391E+03  0.78911086391E+03  0.25500000000E-02 0.  1.
    5000001    1    1    2    0    0 -0.17533477697E+03 -0.14267118068E+03 -0.35607781475E+03  0.45289486636E+03  0.16500000000E+03 0.  0.
   -5000001    1    1    2    0    0  0.17533477697E+03  0.14267118068E+03 -0.33371620561E+03  0.43553284113E+03  0.16500000000E+03 0.  0.
<mgrwt>
<rscale>  0 0.55989999E+03</rscale>
<asrwt>0</asrwt>
<pdfrwt beam="1">  1        2 0.12140167E+00 0.55989999E+03</pdfrwt>
<pdfrwt beam="2">  1       -2 0.15279515E-01 0.55989999E+03</pdfrwt>
<totfact> 0.11964832E+03</totfact>
</mgrwt>
</event>
<event>
 4    1  0.8877834E-005  0.4449622E+03  0.7818608E-02  0.1029235E+00
         -2   -1    0    0    0  501 -0.00000000000E+00  0.00000000000E+00  0.77994605047E+02  0.77994605089E+02  0.25500000000E-02 0. -1.
          2   -1    0    0  501    0  0.00000000000E+00 -0.00000000000E+00 -0.63463149096E+03  0.63463149097E+03  0.25500000000E-02 0.  1.
    5000001    1    1    2    0    0 -0.12795797641E+03 -0.76795272387E+02 -0.27601148849E+03  0.35451107087E+03  0.16500000000E+03 0.  0.
   -5000001    1    1    2    0    0  0.12795797641E+03  0.76795272387E+02 -0.28062539742E+03  0.35811502519E+03  0.16500000000E+03 0.  0.
<mgrwt>
<rscale>  0 0.44496217E+03</rscale>
<asrwt>0</asrwt>
<pdfrwt beam="1">  1        2 0.97635610E-01 0.44496217E+03</pdfrwt>
<pdfrwt beam="2">  1       -2 0.11999170E-01 0.44496217E+03</pdfrwt>
<totfact> 0.23471483E+03</totfact>
</mgrwt>
</event>
<event>
 4    1  0.8877834E-005  0.6535148E+03  0.7818608E-02  0.9800206E-01
         -2   -1    0    0    0  501 -0.00000000000E+00  0.00000000000E+00  0.45151035606E+03  0.45151035606E+03  0.25500000000E-02 0.  1.
          2   -1    0    0  501    0  0.00000000000E+00 -0.00000000000E+00 -0.23647387732E+03  0.23647387733E+03  0.25500000000E-02 0. -1.
    5000001    1    1    2    0    0 -0.19147350507E+03 -0.12432082326E+03 -0.66829861471E+02  0.28949784218E+03  0.16500000000E+03 0.  0.
   -5000001    1    1    2    0    0  0.19147350507E+03  0.12432082326E+03  0.28186634021E+03  0.39848639122E+03  0.16500000000E+03 0.  0.
<mgrwt>
<rscale>  0 0.65351482E+03</rscale>
<asrwt>0</asrwt>
<pdfrwt beam="1">  1        2 0.36380597E-01 0.65351482E+03</pdfrwt>
<pdfrwt beam="2">  1       -2 0.69463132E-01 0.65351482E+03</pdfrwt>
<totfact> 0.27354863E+02</totfact>
</mgrwt>
</event>
<event>
 4    1  0.8877834E-005  0.5703686E+03  0.7818608E-02  0.9968863E-01
         -2   -1    0    0    0  501 -0.00000000000E+00  0.00000000000E+00  0.61082205991E+03  0.61082205992E+03  0.25500000000E-02 0. -1.
          2   -1    0    0  501    0  0.00000000000E+00 -0.00000000000E+00 -0.13314857827E+03  0.13314857829E+03  0.25500000000E-02 0.  1.
    5000001    1    1    2    0    0 -0.10052511517E+03  0.13446169738E+03  0.44883531784E+03  0.50681691900E+03  0.16500000000E+03 0.  0.
   -5000001    1    1    2    0    0  0.10052511517E+03 -0.13446169738E+03  0.28838163803E+02  0.23715371921E+03  0.16500000000E+03 0.  0.
<mgrwt>
<rscale>  0 0.57036861E+03</rscale>
<asrwt>0</asrwt>
<pdfrwt beam="1">  1        2 0.20484396E-01 0.57036861E+03</pdfrwt>
<pdfrwt beam="2">  1       -2 0.93972626E-01 0.57036861E+03</pdfrwt>
<totfact> 0.26723464E+02</totfact>
</mgrwt>
</event>
<event>
 4    1  0.8877834E-005  0.3626624E+03  0.7818608E-02  0.1057535E+00
         -2   -1    0    0    0  501 -0.00000000000E+00  0.00000000000E+00  0.45287356898E+02  0.45287356970E+02  0.25500000000E-02 0. -1.
          2   -1    0    0  501    0  0.00000000000E+00 -0.00000000000E+00 -0.72605244325E+03  0.72605244325E+03  0.25500000000E-02 0.  1.
    5000001    1    1    2    0    0  0.19351413294E+02  0.38511722911E+02 -0.47146412573E+03  0.50135920441E+03  0.16500000000E+03 0.  0.
   -5000001    1    1    2    0    0 -0.19351413294E+02 -0.38511722911E+02 -0.20930096062E+03  0.26998059581E+03  0.16500000000E+03 0.  0.
<mgrwt>
<rscale>  0 0.36266236E+03</rscale>
<asrwt>0</asrwt>
<pdfrwt beam="1">  1        2 0.11170037E+00 0.36266236E+03</pdfrwt>
<pdfrwt beam="2">  1       -2 0.69672862E-02 0.36266236E+03</pdfrwt>
<totfact> 0.47286579E+03</totfact>
</mgrwt>
</event>
<event>
 4    1  0.8877834E-005  0.5706660E+03  0.7818608E-02  0.9968206E-01
          2   -1    0    0  501    0  0.00000000000E+00  0.00000000000E+00  0.13805021017E+04  0.13805021017E+04  0.25500000000E-02 0.  1.
         -2   -1    0    0    0  501 -0.00000000000E+00 -0.00000000000E+00 -0.58974866789E+02  0.58974866844E+02  0.25500000000E-02 0. -1.
    5000001    1    1    2    0    0 -0.17411478911E+03  0.26048387527E+02  0.27659304104E+03  0.36704657556E+03  0.16500000000E+03 0.  0.
   -5000001    1    1    2    0    0  0.17411478911E+03 -0.26048387527E+02  0.10449341939E+04  0.10724303930E+04  0.16500000000E+03 0.  0.
<mgrwt>
<rscale>  0 0.57066602E+03</rscale>
<asrwt>0</asrwt>
<pdfrwt beam="1">  1        2 0.21238492E+00 0.57066602E+03</pdfrwt>
<pdfrwt beam="2">  1       -2 0.90730570E-02 0.57066602E+03</pdfrwt>
<totfact> 0.12127001E+03</totfact>
</mgrwt>
</event>
<event>
 4    1  0.8877834E-005  0.6331036E+03  0.7818608E-02  0.9839011E-01
          2   -1    0    0  501    0  0.00000000000E+00  0.00000000000E+00  0.18900501306E+04  0.18900501306E+04  0.25500000000E-02 0.  1.
         -2   -1    0    0    0  501 -0.00000000000E+00 -0.00000000000E+00 -0.53017126513E+02  0.53017126574E+02  0.25500000000E-02 0. -1.
    5000001    1    1    2    0    0  0.19157468258E+03  0.19046452537E+03  0.91372974457E+03  0.96700808711E+03  0.16500000000E+03 0.  0.
   -5000001    1    1    2    0    0 -0.19157468258E+03 -0.19046452537E+03  0.92330325950E+03  0.97605917005E+03  0.16500000000E+03 0.  0.
<mgrwt>
<rscale>  0 0.63310355E+03</rscale>
<asrwt>0</asrwt>
<pdfrwt beam="1">  1        2 0.29077691E+00 0.63310355E+03</pdfrwt>
<pdfrwt beam="2">  1       -2 0.81564820E-02 0.63310355E+03</pdfrwt>
<totfact> 0.75424864E+02</totfact>
</mgrwt>
</event>
<event>
 4    1  0.8877834E-005  0.6216131E+03  0.7818608E-02  0.9861553E-01
          2   -1    0    0  501    0  0.00000000000E+00  0.00000000000E+00  0.79279308812E+03  0.79279308812E+03  0.25500000000E-02 0.  1.
         -2   -1    0    0    0  501 -0.00000000000E+00 -0.00000000000E+00 -0.12184857890E+03  0.12184857892E+03  0.25500000000E-02 0. -1.
    5000001    1    1    2    0    0  0.19501352877E+03 -0.17668264554E+03  0.31878126177E+03  0.44507698940E+03  0.16500000000E+03 0.  0.
   -5000001    1    1    2    0    0 -0.19501352877E+03  0.17668264554E+03  0.35216324745E+03  0.46956467765E+03  0.16500000000E+03 0.  0.
<mgrwt>
<rscale>  0 0.62161310E+03</rscale>
<asrwt>0</asrwt>
<pdfrwt beam="1">  1        2 0.12196817E+00 0.62161310E+03</pdfrwt>
<pdfrwt beam="2">  1       -2 0.18745935E-01 0.62161310E+03</pdfrwt>
<totfact> 0.83786994E+02</totfact>
</mgrwt>
</event>
<event>
 4    1  0.8877834E-005  0.5377246E+03  0.7818608E-02  0.1004376E+00
         -2   -1    0    0    0  501 -0.00000000000E+00  0.00000000000E+00  0.23945342260E+03  0.23945342262E+03  0.25500000000E-02 0. -1.
          2   -1    0    0  501    0  0.00000000000E+00 -0.00000000000E+00 -0.30188308573E+03  0.30188308574E+03  0.25500000000E-02 0.  1.
    5000001    1    1    2    0    0 -0.68733058450E+01 -0.94244638241E+02  0.16014786303E+03  0.24859934071E+03  0.16500000000E+03 0.  0.
   -5000001    1    1    2    0    0  0.68733058450E+01  0.94244638241E+02 -0.22257752616E+03  0.29273716764E+03  0.16500000000E+03 0.  0.
<mgrwt>
<rscale>  0 0.53772461E+03</rscale>
<asrwt>0</asrwt>
<pdfrwt beam="1">  1        2 0.46443552E-01 0.53772461E+03</pdfrwt>
<pdfrwt beam="2">  1       -2 0.36838988E-01 0.53772461E+03</pdfrwt>
<totfact> 0.76049791E+02</totfact>
</mgrwt>
</event>
<event>
 4    1  0.8877834E-005  0.4805093E+03  0.7818608E-02  0.1018995E+00
         -2   -1    0    0    0  501 -0.00000000000E+00  0.00000000000E+00  0.30531214558E+02  0.30531214664E+02  0.25500000000E-02 0. -1.
          2   -1    0    0  501    0  0.00000000000E+00 -0.00000000000E+00 -0.18905992061E+04  0.18905992061E+04  0.25500000000E-02 0.  1.
    5000001    1    1    2    0    0  0.32981834248E+02 -0.17048020726E+03 -0.85566612003E+03  0.88856109043E+03  0.16500000000E+03 0.  0.
   -5000001    1    1    2    0    0 -0.32981834248E+02  0.17048020726E+03 -0.10044018715E+04  0.10325693303E+04  0.16500000000E+03 0.  0.
<mgrwt>
<rscale>  0 0.48050927E+03</rscale>
<asrwt>0</asrwt>
<pdfrwt beam="1">  1        2 0.29086133E+00 0.48050927E+03</pdfrwt>
<pdfrwt beam="2">  1       -2 0.46971114E-02 0.48050927E+03</pdfrwt>
<totfact> 0.18057493E+03</totfact>
</mgrwt>
</event>
<event>
 4    1  0.8877834E-005  0.8448028E+03  0.7818608E-02  0.9497339E-01
          2   -1    0    0  501    0  0.00000000000E+00  0.00000000000E+00  0.99059336754E+02  0.99059336787E+02  0.25500000000E-02 0.  1.
         -2   -1    0    0    0  501 -0.00000000000E+00 -0.00000000000E+00 -0.18011725486E+04  0.18011725486E+04  0.25500000000E-02 0. -1.
    5000001    1    1    2    0    0 -0.17669514453E+03  0.23203569134E+03 -0.27259980850E+03  0.43196920232E+03  0.16500000000E+03 0.  0.
   -5000001    1    1    2    0    0  0.17669514453E+03 -0.23203569134E+03 -0.14295134033E+04  0.14682626830E+04  0.16500000000E+03 0.  0.
<mgrwt>
<rscale>  0 0.84480284E+03</rscale>
<asrwt>0</asrwt>
<pdfrwt beam="1">  1        2 0.15239899E-01 0.84480284E+03</pdfrwt>
<pdfrwt beam="2">  1       -2 0.27710344E+00 0.84480284E+03</pdfrwt>
<totfact> 0.17693552E+01</totfact>
</mgrwt>
</event>
<event>
 4    1  0.8877834E-005  0.4502677E+03  0.7818608E-02  0.1027642E+00
         -2   -1    0    0    0  501 -0.00000000000E+00  0.00000000000E+00  0.24414384079E+02  0.24414384212E+02  0.25500000000E-02 0. -1.
          2   -1    0    0  501    0  0.00000000000E+00 -0.00000000000E+00 -0.20760407956E+04  0.20760407956E+04  0.25500000000E-02 0.  1.
    5000001    1    1    2    0    0  0.99098011479E+02  0.82143464921E+02 -0.63853375521E+03  0.67195113011E+03  0.16500000000E+03 0.  0.
   -5000001    1    1    2    0    0 -0.99098011479E+02 -0.82143464921E+02 -0.14130926563E+04  0.14285040497E+04  0.16500000000E+03 0.  0.
<mgrwt>
<rscale>  0 0.45026773E+03</rscale>
<asrwt>0</asrwt>
<pdfrwt beam="1">  1        2 0.31939075E+00 0.45026773E+03</pdfrwt>
<pdfrwt beam="2">  1       -2 0.37560607E-02 0.45026773E+03</pdfrwt>
<totfact> 0.20248673E+03</totfact>
</mgrwt>
</event>
<event>
 4    1  0.8877834E-005  0.4710295E+03  0.7818608E-02  0.1021630E+00
          2   -1    0    0  501    0  0.00000000000E+00  0.00000000000E+00  0.26418350464E+03  0.26418350465E+03  0.25500000000E-02 0.  1.
         -2   -1    0    0    0  501 -0.00000000000E+00 -0.00000000000E+00 -0.20995704247E+03  0.20995704248E+03  0.25500000000E-02 0. -1.
    5000001    1    1    2    0    0 -0.50171192453E+02  0.86882346159E+02  0.16282394019E+03  0.25259122337E+03  0.16500000000E+03 0.  0.
   -5000001    1    1    2    0    0  0.50171192453E+02 -0.86882346159E+02 -0.10859747802E+03  0.22154932376E+03  0.16500000000E+03 0.  0.
<mgrwt>
<rscale>  0 0.47102946E+03</rscale>
<asrwt>0</asrwt>
<pdfrwt beam="1">  1        2 0.40643616E-01 0.47102946E+03</pdfrwt>
<pdfrwt beam="2">  1       -2 0.32301084E-01 0.47102946E+03</pdfrwt>
<totfact> 0.11283146E+03</totfact>
</mgrwt>
</event>
<event>
 4    1  0.8877834E-005  0.3689280E+03  0.7818608E-02  0.1055104E+00
          2   -1    0    0  501    0  0.00000000000E+00  0.00000000000E+00  0.66089526550E+03  0.66089526550E+03  0.25500000000E-02 0.  1.
         -2   -1    0    0    0  501 -0.00000000000E+00 -0.00000000000E+00 -0.51486178671E+02  0.51486178734E+02  0.25500000000E-02 0. -1.
    5000001    1    1    2    0    0  0.22797508862E+02 -0.65829878476E+02  0.21946514542E+03  0.28327239429E+03  0.16500000000E+03 0.  0.
   -5000001    1    1    2    0    0 -0.22797508862E+02  0.65829878476E+02  0.38994394140E+03  0.42910904995E+03  0.16500000000E+03 0.  0.
<mgrwt>
<rscale>  0 0.36892802E+03</rscale>
<asrwt>0</asrwt>
<pdfrwt beam="1">  1        2 0.10167620E+00 0.36892802E+03</pdfrwt>
<pdfrwt beam="2">  1       -2 0.79209505E-02 0.36892802E+03</pdfrwt>
<totfact> 0.43408191E+03</totfact>
</mgrwt>
</event>
<event>
 4    1  0.8877834E-005  0.5008641E+03  0.7818608E-02  0.1013554E+00
         -2   -1    0    0    0  501 -0.00000000000E+00  0.00000000000E+00  0.24886410131E+02  0.24886410262E+02  0.25500000000E-02 0. -1.
          2   -1    0    0  501    0  0.00000000000E+00 -0.00000000000E+00 -0.25200992611E+04  0.25200992611E+04  0.25500000000E-02 0.  1.
    5000001    1    1    2    0    0 -0.15038327781E+03  0.41129880978E+02 -0.71023786162E+03  0.74563370191E+03  0.16500000000E+03 0.  0.
   -5000001    1    1    2    0    0  0.15038327781E+03 -0.41129880978E+02 -0.17849749894E+04  0.17993519695E+04  0.16500000000E+03 0.  0.
<mgrwt>
<rscale>  0 0.50086415E+03</rscale>
<asrwt>0</asrwt>
<pdfrwt beam="1">  1        2 0.38770738E+00 0.50086415E+03</pdfrwt>
<pdfrwt beam="2">  1       -2 0.38286805E-02 0.50086415E+03</pdfrwt>
<totfact> 0.11189884E+03</totfact>
</mgrwt>
</event>
<event>
 4    1  0.8877834E-005  0.4676536E+03  0.7818608E-02  0.1022585E+00
          2   -1    0    0  501    0  0.00000000000E+00  0.00000000000E+00  0.35162056248E+03  0.35162056249E+03  0.25500000000E-02 0.  1.
         -2   -1    0    0    0  501 -0.00000000000E+00 -0.00000000000E+00 -0.15549421408E+03  0.15549421410E+03  0.25500000000E-02 0. -1.
    5000001    1    1    2    0    0  0.13863927005E+03 -0.52321443121E+02  0.17704868092E+02  0.22247885959E+03  0.16500000000E+03 0.  0.
   -5000001    1    1    2    0    0 -0.13863927005E+03  0.52321443121E+02  0.17842148031E+03  0.28463591700E+03  0.16500000000E+03 0.  0.
<mgrwt>
<rscale>  0 0.46765356E+03</rscale>
<asrwt>0</asrwt>
<pdfrwt beam="1">  1        2 0.54095471E-01 0.46765356E+03</pdfrwt>
<pdfrwt beam="2">  1       -2 0.23922187E-01 0.46765356E+03</pdfrwt>
<totfact> 0.14227912E+03</totfact>
</mgrwt>
</event>
<event>
 4    1  0.8877834E-005  0.4951037E+03  0.7818608E-02  0.1015065E+00
          2   -1    0    0  501    0  0.00000000000E+00  0.00000000000E+00  0.17556986375E+03  0.17556986377E+03  0.25500000000E-02 0.  1.
         -2   -1    0    0    0  501 -0.00000000000E+00 -0.00000000000E+00 -0.34904576383E+03  0.34904576384E+03  0.25500000000E-02 0. -1.
    5000001    1    1    2    0    0  0.15256280930E+03  0.65268155418E+02 -0.17230790032E+03  0.29060343323E+03  0.16500000000E+03 0.  0.
   -5000001    1    1    2    0    0 -0.15256280930E+03 -0.65268155418E+02 -0.11679997542E+01  0.23401219437E+03  0.16500000000E+03 0.  0.
<mgrwt>
<rscale>  0 0.49510370E+03</rscale>
<asrwt>0</asrwt>
<pdfrwt beam="1">  1        2 0.27010748E-01 0.49510370E+03</pdfrwt>
<pdfrwt beam="2">  1       -2 0.53699348E-01 0.49510370E+03</pdfrwt>
<totfact> 0.65923342E+02</totfact>
</mgrwt>
</event>
<event>
 4    1  0.8877834E-005  0.6833695E+03  0.7818608E-02  0.9746103E-01
          2   -1    0    0  501    0  0.00000000000E+00  0.00000000000E+00  0.23100044990E+04  0.23100044990E+04  0.25500000000E-02 0.  1.
         -2   -1    0    0    0  501 -0.00000000000E+00 -0.00000000000E+00 -0.50540368443E+02  0.50540368508E+02  0.25500000000E-02 0. -1.
    5000001    1    1    2    0    0 -0.11406290515E+03 -0.26697114108E+03  0.87969562071E+03  0.94094278338E+03  0.16500000000E+03 0.  0.
   -5000001    1    1    2    0    0  0.11406290515E+03  0.26697114108E+03  0.13797685098E+04  0.14196020841E+04  0.16500000000E+03 0.  0.
<mgrwt>
<rscale>  0 0.68336953E+03</rscale>
<asrwt>0</asrwt>
<pdfrwt beam="1">  1        2 0.35538540E+00 0.68336953E+03</pdfrwt>
<pdfrwt beam="2">  1       -2 0.77754393E-02 0.68336953E+03</pdfrwt>
<totfact> 0.47818306E+02</totfact>
</mgrwt>
</event>
<event>
 4    1  0.8877834E-005  0.6817854E+03  0.7818608E-02  0.9748899E-01
         -2   -1    0    0    0  501 -0.00000000000E+00  0.00000000000E+00  0.11353516634E+03  0.11353516637E+03  0.25500000000E-02 0. -1.
          2   -1    0    0  501    0  0.00000000000E+00 -0.00000000000E+00 -0.10235404898E+04  0.10235404898E+04  0.25500000000E-02 0.  1.
    5000001    1    1    2    0    0  0.29399083807E+03  0.26539414498E+02 -0.38330924365E+03  0.51116135384E+03  0.16500000000E+03 0.  0.
   -5000001    1    1    2    0    0 -0.29399083807E+03 -0.26539414498E+02 -0.52669607984E+03  0.62591430236E+03  0.16500000000E+03 0.  0.
<mgrwt>
<rscale>  0 0.68178542E+03</rscale>
<asrwt>0</asrwt>
<pdfrwt beam="1">  1        2 0.15746776E+00 0.68178542E+03</pdfrwt>
<pdfrwt beam="2">  1       -2 0.17466949E-01 0.68178542E+03</pdfrwt>
<totfact> 0.66209067E+02</totfact>
</mgrwt>
</event>
<event>
 4    1  0.8877834E-005  0.6199668E+03  0.7818608E-02  0.9864826E-01
          2   -1    0    0  501    0  0.00000000000E+00  0.00000000000E+00  0.14131750785E+04  0.14131750785E+04  0.25500000000E-02 0.  1.
         -2   -1    0    0    0  501 -0.00000000000E+00 -0.00000000000E+00 -0.67995625020E+02  0.67995625068E+02  0.25500000000E-02 0. -1.
    5000001    1    1    2    0    0  0.79844616786E+02  0.24348078862E+03  0.53730041810E+03  0.61771740832E+03  0.16500000000E+03 0.  0.
   -5000001    1    1    2    0    0 -0.79844616786E+02 -0.24348078862E+03  0.80787903536E+03  0.86345329522E+03  0.16500000000E+03 0.  0.
<mgrwt>
<rscale>  0 0.61996685E+03</rscale>
<asrwt>0</asrwt>
<pdfrwt beam="1">  1        2 0.21741154E+00 0.61996685E+03</pdfrwt>
<pdfrwt beam="2">  1       -2 0.10460866E-01 0.61996685E+03</pdfrwt>
<totfact> 0.92155531E+02</totfact>
</mgrwt>
</event>
<event>
 4    1  0.8877834E-005  0.6231674E+03  0.7818608E-02  0.9858473E-01
          2   -1    0    0  501    0  0.00000000000E+00  0.00000000000E+00  0.57700794277E+03  0.57700794278E+03  0.25500000000E-02 0.  1.
         -2   -1    0    0    0  501 -0.00000000000E+00 -0.00000000000E+00 -0.16825489769E+03  0.16825489771E+03  0.25500000000E-02 0. -1.
    5000001    1    1    2    0    0 -0.50729822081E+02  0.97289210259E+02  0.49194840334E+03  0.53035548157E+03  0.16500000000E+03 0.  0.
   -5000001    1    1    2    0    0  0.50729822081E+02 -0.97289210259E+02 -0.83195358260E+02  0.21490735892E+03  0.16500000000E+03 0.  0.
<mgrwt>
<rscale>  0 0.62316743E+03</rscale>
<asrwt>0</asrwt>
<pdfrwt beam="1">  1        2 0.88770452E-01 0.62316743E+03</pdfrwt>
<pdfrwt beam="2">  1       -2 0.25885369E-01 0.62316743E+03</pdfrwt>
<totfact> 0.70332875E+02</totfact>
</mgrwt>
</event>
<event>
 4    1  0.8877834E-005  0.5024475E+03  0.7818608E-02  0.1013142E+00
          2   -1    0    0  501    0  0.00000000000E+00  0.00000000000E+00  0.18906510482E+04  0.18906510482E+04  0.25500000000E-02 0.  1.
         -2   -1    0    0    0  501 -0.00000000000E+00 -0.00000000000E+00 -0.33381821068E+02  0.33381821165E+02  0.25500000000E-02 0. -1.
    5000001    1    1    2    0    0 -0.63575145153E+02 -0.11857344274E+03  0.14393419536E+04  0.14550023092E+04  0.16500000000E+03 0.  0.
   -5000001    1    1    2    0    0  0.63575145153E+02  0.11857344274E+03  0.41792727357E+03  0.46903056020E+03  0.16500000000E+03 0.  0.
<mgrwt>
<rscale>  0 0.50244751E+03</rscale>
<asrwt>0</asrwt>
<pdfrwt beam="1">  1        2 0.29086948E+00 0.50244751E+03</pdfrwt>
<pdfrwt beam="2">  1       -2 0.51356633E-02 0.50244751E+03</pdfrwt>
<totfact> 0.15714964E+03</totfact>
</mgrwt>
</event>
<event>
 4    1  0.8877834E-005  0.6780630E+03  0.7818608E-02  0.9755501E-01
         -2   -1    0    0    0  501 -0.00000000000E+00  0.00000000000E+00  0.10822174589E+03  0.10822174592E+03  0.25500000000E-02 0. -1.
          2   -1    0    0  501    0  0.00000000000E+00 -0.00000000000E+00 -0.10621004053E+04  0.10621004053E+04  0.25500000000E-02 0.  1.
    5000001    1    1    2    0    0  0.35301180651E+02  0.24686685110E+03 -0.20117169183E+03  0.36039487388E+03  0.16500000000E+03 0.  0.
   -5000001    1    1    2    0    0 -0.35301180651E+02 -0.24686685110E+03 -0.75270696759E+03  0.80992727735E+03  0.16500000000E+03 0.  0.
<mgrwt>
<rscale>  0 0.67806301E+03</rscale>
<asrwt>0</asrwt>
<pdfrwt beam="1">  1        2 0.16340006E+00 0.67806301E+03</pdfrwt>
<pdfrwt beam="2">  1       -2 0.16649500E-01 0.67806301E+03</pdfrwt>
<totfact> 0.68009799E+02</totfact>
</mgrwt>
</event>
<event>
 4    1  0.8877834E-005  0.4344885E+03  0.7818608E-02  0.1032451E+00
         -2   -1    0    0    0  501 -0.00000000000E+00  0.00000000000E+00  0.59980184602E+02  0.59980184656E+02  0.25500000000E-02 0. -1.
          2   -1    0    0  501    0  0.00000000000E+00 -0.00000000000E+00 -0.78684422905E+03  0.78684422905E+03  0.25500000000E-02 0.  1.
    5000001    1    1    2    0    0 -0.10397807457E+03 -0.95103390400E+02 -0.34262522743E+03  0.40555288351E+03  0.16500000000E+03 0.  0.
   -5000001    1    1    2    0    0  0.10397807457E+03  0.95103390400E+02 -0.38423881702E+03  0.44127153019E+03  0.16500000000E+03 0.  0.
<mgrwt>
<rscale>  0 0.43448849E+03</rscale>
<asrwt>0</asrwt>
<pdfrwt beam="1">  1        2 0.12105295E+00 0.43448849E+03</pdfrwt>
<pdfrwt beam="2">  1       -2 0.92277213E-02 0.43448849E+03</pdfrwt>
<totfact> 0.27464843E+03</totfact>
</mgrwt>
</event>
<event>
 4    1  0.8877834E-005  0.6691556E+03  0.7818608E-02  0.9771485E-01
         -2   -1    0    0    0  501 -0.00000000000E+00  0.00000000000E+00  0.66930007863E+02  0.66930007912E+02  0.25500000000E-02 0. -1.
          2   -1    0    0  501    0  0.00000000000E+00 -0.00000000000E+00 -0.16725276745E+04  0.16725276745E+04  0.25500000000E-02 0.  1.
    5000001    1    1    2    0    0 -0.17241182140E+03 -0.22502070312E+03 -0.97438702924E+03  0.10281124626E+04  0.16500000000E+03 0.  0.
   -5000001    1    1    2    0    0  0.17241182140E+03  0.22502070312E+03 -0.63121063735E+03  0.71134521977E+03  0.16500000000E+03 0.  0.
<mgrwt>
<rscale>  0 0.66915556E+03</rscale>
<asrwt>0</asrwt>
<pdfrwt beam="1">  1        2 0.25731192E+00 0.66915556E+03</pdfrwt>
<pdfrwt beam="2">  1       -2 0.10296926E-01 0.66915556E+03</pdfrwt>
<totfact> 0.67837195E+02</totfact>
</mgrwt>
</event>
<event>
 4    1  0.8877834E-005  0.4770183E+03  0.7818608E-02  0.1019958E+00
          2   -1    0    0  501    0  0.00000000000E+00  0.00000000000E+00  0.28595271624E+04  0.28595271624E+04  0.25500000000E-02 0.  1.
         -2   -1    0    0    0  501 -0.00000000000E+00 -0.00000000000E+00 -0.19893714583E+02  0.19893714746E+02  0.25500000000E-02 0. -1.
    5000001    1    1    2    0    0 -0.43595705221E+02  0.82493788985E+02  0.54599610120E+03  0.57796414530E+03  0.16500000000E+03 0.  0.
   -5000001    1    1    2    0    0  0.43595705221E+02 -0.82493788985E+02  0.22936373467E+04  0.23014567319E+04  0.16500000000E+03 0.  0.
<mgrwt>
<rscale>  0 0.47701831E+03</rscale>
<asrwt>0</asrwt>
<pdfrwt beam="1">  1        2 0.43992721E+00 0.47701831E+03</pdfrwt>
<pdfrwt beam="2">  1       -2 0.30605718E-02 0.47701831E+03</pdfrwt>
<totfact> 0.10064370E+03</totfact>
</mgrwt>
</event>
<event>
 4    1  0.8877834E-005  0.5889544E+03  0.7818608E-02  0.9928591E-01
          2   -1    0    0  501    0  0.00000000000E+00  0.00000000000E+00  0.72768238213E+03  0.72768238214E+03  0.25500000000E-02 0. -1.
         -2   -1    0    0    0  501 -0.00000000000E+00 -0.00000000000E+00 -0.11916849206E+03  0.11916849208E+03  0.25500000000E-02 0.  1.
    5000001    1    1    2    0    0 -0.21217418210E+03  0.99110498100E+02  0.20619506232E+03  0.35296200661E+03  0.16500000000E+03 0.  0.
   -5000001    1    1    2    0    0  0.21217418210E+03 -0.99110498100E+02  0.40231882776E+03  0.49388886761E+03  0.16500000000E+03 0.  0.
<mgrwt>
<rscale>  0 0.58895437E+03</rscale>
<asrwt>0</asrwt>
<pdfrwt beam="1">  1        2 0.11195114E+00 0.58895437E+03</pdfrwt>
<pdfrwt beam="2">  1       -2 0.18333614E-01 0.58895437E+03</pdfrwt>
<totfact> 0.97309125E+02</totfact>
</mgrwt>
</event>
<event>
 4    1  0.8877834E-005  0.3822545E+03  0.7818608E-02  0.1050104E+00
         -2   -1    0    0    0  501 -0.00000000000E+00  0.00000000000E+00  0.43083752440E+02  0.43083752516E+02  0.25500000000E-02 0. -1.
          2   -1    0    0  501    0  0.00000000000E+00 -0.00000000000E+00 -0.84787493165E+03  0.84787493165E+03  0.25500000000E-02 0.  1.
    5000001    1    1    2    0    0 -0.67320360833E+02  0.69076994068E+02 -0.40009812738E+03  0.44340407489E+03  0.16500000000E+03 0.  0.
   -5000001    1    1    2    0    0  0.67320360833E+02 -0.69076994068E+02 -0.40469305182E+03  0.44755460928E+03  0.16500000000E+03 0.  0.
<mgrwt>
<rscale>  0 0.38225454E+03</rscale>
<asrwt>0</asrwt>
<pdfrwt beam="1">  1        2 0.13044228E+00 0.38225454E+03</pdfrwt>
<pdfrwt beam="2">  1       -2 0.66282703E-02 0.38225454E+03</pdfrwt>
<totfact> 0.41933504E+03</totfact>
</mgrwt>
</event>
<event>
 4    1  0.8877834E-005  0.3825310E+03  0.7818608E-02  0.1050002E+00
         -2   -1    0    0    0  501 -0.00000000000E+00  0.00000000000E+00  0.33684159454E+02  0.33684159550E+02  0.25500000000E-02 0. -1.
          2   -1    0    0  501    0  0.00000000000E+00 -0.00000000000E+00 -0.10860443616E+04  0.10860443616E+04  0.25500000000E-02 0.  1.
    5000001    1    1    2    0    0  0.65987139654E+02  0.11596102209E+02 -0.32193414162E+03  0.36790673238E+03  0.16500000000E+03 0.  0.
   -5000001    1    1    2    0    0 -0.65987139654E+02 -0.11596102209E+02 -0.73042606051E+03  0.75182178876E+03  0.16500000000E+03 0.  0.
<mgrwt>
<rscale>  0 0.38253100E+03</rscale>
<asrwt>0</asrwt>
<pdfrwt beam="1">  1        2 0.16708372E+00 0.38253100E+03</pdfrwt>
<pdfrwt beam="2">  1       -2 0.51821792E-02 0.38253100E+03</pdfrwt>
<totfact> 0.43344485E+03</totfact>
</mgrwt>
</event>
<event>
 4    1  0.8877834E-005  0.4898539E+03  0.7818608E-02  0.1016462E+00
          2   -1    0    0  501    0  0.00000000000E+00  0.00000000000E+00  0.74340772942E+03  0.74340772943E+03  0.25500000000E-02 0.  1.
         -2   -1    0    0    0  501 -0.00000000000E+00 -0.00000000000E+00 -0.80694899445E+02  0.80694899485E+02  0.25500000000E-02 0. -1.
    5000001    1    1    2    0    0 -0.13444898385E+03  0.99361867779E+02  0.44809339390E+03  0.50592687187E+03  0.16500000000E+03 0.  0.
   -5000001    1    1    2    0    0  0.13444898385E+03 -0.99361867779E+02  0.21461943608E+03  0.31817575704E+03  0.16500000000E+03 0.  0.
<mgrwt>
<rscale>  0 0.48985390E+03</rscale>
<asrwt>0</asrwt>
<pdfrwt beam="1">  1        2 0.11437042E+00 0.48985390E+03</pdfrwt>
<pdfrwt beam="2">  1       -2 0.12414600E-01 0.48985390E+03</pdfrwt>
<totfact> 0.18265538E+03</totfact>
</mgrwt>
</event>
<event>
 4    1  0.8877834E-005  0.4083162E+03  0.7818608E-02  0.1040938E+00
          2   -1    0    0  501    0  0.00000000000E+00  0.00000000000E+00  0.17107075013E+03  0.17107075015E+03  0.25500000000E-02 0. -1.
         -2   -1    0    0    0  501 -0.00000000000E+00 -0.00000000000E+00 -0.24364495648E+03  0.24364495650E+03  0.25500000000E-02 0.  1.
    5000001    1    1    2    0    0 -0.11264721391E+03 -0.10047381535E+02 -0.77733291180E+02  0.21461083206E+03  0.16500000000E+03 0.  0.
   -5000001    1    1    2    0    0  0.11264721391E+03  0.10047381535E+02  0.51590848253E+01  0.20010487459E+03  0.16500000000E+03 0.  0.
<mgrwt>
<rscale>  0 0.40831618E+03</rscale>
<asrwt>0</asrwt>
<pdfrwt beam="1">  1        2 0.26318577E-01 0.40831618E+03</pdfrwt>
<pdfrwt beam="2">  1       -2 0.37483839E-01 0.40831618E+03</pdfrwt>
<totfact> 0.13796472E+03</totfact>
</mgrwt>
</event>
<event>
 4    1  0.8877834E-005  0.4359318E+03  0.7818608E-02  0.1032002E+00
          2   -1    0    0  501    0  0.00000000000E+00  0.00000000000E+00  0.24256796515E+04  0.24256796515E+04  0.25500000000E-02 0.  1.
         -2   -1    0    0    0  501 -0.00000000000E+00 -0.00000000000E+00 -0.19585909367E+02  0.19585909533E+02  0.25500000000E-02 0. -1.
    5000001    1    1    2    0    0  0.11698815428E+03 -0.32582323823E+02  0.16204132706E+04  0.16333131983E+04  0.16500000000E+03 0.  0.
   -5000001    1    1    2    0    0 -0.11698815428E+03  0.32582323823E+02  0.78568047149E+03  0.81195236273E+03  0.16500000000E+03 0.  0.
<mgrwt>
<rscale>  0 0.43593184E+03</rscale>
<asrwt>0</asrwt>
<pdfrwt beam="1">  1        2 0.37318149E+00 0.43593184E+03</pdfrwt>
<pdfrwt beam="2">  1       -2 0.30132168E-02 0.43593184E+03</pdfrwt>
<totfact> 0.18262946E+03</totfact>
</mgrwt>
</event>
<event>
 4    1  0.8877834E-005  0.8565465E+03  0.7818608E-02  0.9481592E-01
         -2   -1    0    0    0  501 -0.00000000000E+00  0.00000000000E+00  0.28903473598E+03  0.28903473599E+03  0.25500000000E-02 0. -1.
          2   -1    0    0  501    0  0.00000000000E+00 -0.00000000000E+00 -0.63458799667E+03  0.63458799668E+03  0.25500000000E-02 0.  1.
    5000001    1    1    2    0    0 -0.31834053501E+03 -0.23270456447E+03 -0.20132362553E+03  0.47249160072E+03  0.16500000000E+03 0.  0.
   -5000001    1    1    2    0    0  0.31834053501E+03  0.23270456447E+03 -0.14422963516E+03  0.45113113195E+03  0.16500000000E+03 0.  0.
<mgrwt>
<rscale>  0 0.85654649E+03</rscale>
<asrwt>0</asrwt>
<pdfrwt beam="1">  1        2 0.97628922E-01 0.85654649E+03</pdfrwt>
<pdfrwt beam="2">  1       -2 0.44466883E-01 0.85654649E+03</pdfrwt>
<totfact> 0.22315407E+02</totfact>
</mgrwt>
</event>
<event>
 4    1  0.8877834E-005  0.3984111E+03  0.7818608E-02  0.1044331E+00
         -2   -1    0    0    0  501 -0.00000000000E+00  0.00000000000E+00  0.46648143528E+02  0.46648143598E+02  0.25500000000E-02 0. -1.
          2   -1    0    0  501    0  0.00000000000E+00 -0.00000000000E+00 -0.85068468021E+03  0.85068468021E+03  0.25500000000E-02 0.  1.
    5000001    1    1    2    0    0 -0.51700829598E+02  0.91192611262E+02 -0.31570007106E+03  0.37132277468E+03  0.16500000000E+03 0.  0.
   -5000001    1    1    2    0    0  0.51700829598E+02 -0.91192611262E+02 -0.48833646562E+03  0.52601004913E+03  0.16500000000E+03 0.  0.
<mgrwt>
<rscale>  0 0.39841115E+03</rscale>
<asrwt>0</asrwt>
<pdfrwt beam="1">  1        2 0.13087455E+00 0.39841115E+03</pdfrwt>
<pdfrwt beam="2">  1       -2 0.71766381E-02 0.39841115E+03</pdfrwt>
<totfact> 0.36891623E+03</totfact>
</mgrwt>
</event>
<event>
 4    1  0.8877834E-005  0.5638805E+03  0.7818608E-02  0.9983312E-01
         -2   -1    0    0    0  501 -0.00000000000E+00  0.00000000000E+00  0.29576309029E+02  0.29576309139E+02  0.25500000000E-02 0. -1.
          2   -1    0    0  501    0  0.00000000000E+00 -0.00000000000E+00 -0.26876339088E+04  0.26876339088E+04  0.25500000000E-02 0.  1.
    5000001    1    1    2    0    0 -0.19601689288E+02  0.22344930639E+03 -0.15419002462E+04  0.15668424260E+04  0.16500000000E+03 0.  0.
   -5000001    1    1    2    0    0  0.19601689288E+02 -0.22344930639E+03 -0.11161573535E+04  0.11503677919E+04  0.16500000000E+03 0.  0.
<mgrwt>
<rscale>  0 0.56388045E+03</rscale>
<asrwt>0</asrwt>
<pdfrwt beam="1">  1        2 0.41348195E+00 0.56388045E+03</pdfrwt>
<pdfrwt beam="2">  1       -2 0.45502035E-02 0.56388045E+03</pdfrwt>
<totfact> 0.68547012E+02</totfact>
</mgrwt>
</event>
<event>
 4    1  0.8877834E-005  0.9887624E+03  0.7818608E-02  0.9320957E-01
         -2   -1    0    0    0  501 -0.00000000000E+00  0.00000000000E+00  0.28200248948E+03  0.28200248949E+03  0.25500000000E-02 0. -1.
          2   -1    0    0  501    0  0.00000000000E+00 -0.00000000000E+00 -0.86670431216E+03  0.86670431217E+03  0.25500000000E-02 0.  1.
    5000001    1    1    2    0    0 -0.28028166573E+03  0.36822106914E+03 -0.35643982456E+03  0.60697521896E+03  0.16500000000E+03 0.  0.
   -5000001    1    1    2    0    0  0.28028166573E+03 -0.36822106914E+03 -0.22826199812E+03  0.54173158270E+03  0.16500000000E+03 0.  0.
<mgrwt>
<rscale>  0 0.98876241E+03</rscale>
<asrwt>0</asrwt>
<pdfrwt beam="1">  1        2 0.13333912E+00 0.98876241E+03</pdfrwt>
<pdfrwt beam="2">  1       -2 0.43384999E-01 0.98876241E+03</pdfrwt>
<totfact> 0.15542549E+02</totfact>
</mgrwt>
</event>
<event>
 4    1  0.8877834E-005  0.6524608E+03  0.7818608E-02  0.9802173E-01
          2   -1    0    0  501    0  0.00000000000E+00  0.00000000000E+00  0.10784115871E+04  0.10784115871E+04  0.25500000000E-02 0.  1.
         -2   -1    0    0    0  501 -0.00000000000E+00 -0.00000000000E+00 -0.98688004705E+02  0.98688004738E+02  0.25500000000E-02 0. -1.
    5000001    1    1    2    0    0  0.72291665039E+02  0.26954528640E+03  0.42430241814E+03  0.53398341575E+03  0.16500000000E+03 0.  0.
   -5000001    1    1    2    0    0 -0.72291665039E+02 -0.26954528640E+03  0.55542116429E+03  0.64311617613E+03  0.16500000000E+03 0.  0.
<mgrwt>
<rscale>  0 0.65246084E+03</rscale>
<asrwt>0</asrwt>
<pdfrwt beam="1">  1        2 0.16590947E+00 0.65246084E+03</pdfrwt>
<pdfrwt beam="2">  1       -2 0.15182770E-01 0.65246084E+03</pdfrwt>
<totfact> 0.77795411E+02</totfact>
</mgrwt>
</event>
<event>
 4    1  0.8877834E-005  0.1473077E+04  0.7818608E-02  0.8902556E-01
          2   -1    0    0  501    0  0.00000000000E+00  0.00000000000E+00  0.18218749819E+04  0.18218749819E+04  0.25500000000E-02 0.  1.
         -2   -1    0    0    0  501 -0.00000000000E+00 -0.00000000000E+00 -0.29776426900E+03  0.29776426901E+03  0.25500000000E-02 0. -1.
    5000001    1    1    2    0    0  0.53678214012E+03  0.17487087653E+03  0.13999841757E+04  0.15185175606E+04  0.16500000000E+03 0.  0.
   -5000001    1    1    2    0    0 -0.53678214012E+03 -0.17487087653E+03  0.12412653719E+03  0.60112169038E+03  0.16500000000E+03 0.  0.
<mgrwt>
<rscale>  0 0.14730774E+04</rscale>
<asrwt>0</asrwt>
<pdfrwt beam="1">  1        2 0.28028846E+00 0.14730774E+04</pdfrwt>
<pdfrwt beam="2">  1       -2 0.45809888E-01 0.14730774E+04</pdfrwt>
<totfact> 0.36707081E+01</totfact>
</mgrwt>
</event>
<event>
 4    1  0.8877834E-005  0.4860293E+03  0.7818608E-02  0.1017491E+00
         -2   -1    0    0    0  501 -0.00000000000E+00  0.00000000000E+00  0.25626512704E+02  0.25626512831E+02  0.25500000000E-02 0. -1.
          2   -1    0    0  501    0  0.00000000000E+00 -0.00000000000E+00 -0.23044933527E+04  0.23044933527E+04  0.25500000000E-02 0.  1.
    5000001    1    1    2    0    0 -0.35681659569E+01 -0.15693901685E+03 -0.15459106042E+04  0.15625962956E+04  0.16500000000E+03 0.  0.
   -5000001    1    1    2    0    0  0.35681659569E+01  0.15693901685E+03 -0.73295623579E+03  0.76752356993E+03  0.16500000000E+03 0.  0.
<mgrwt>
<rscale>  0 0.48602933E+03</rscale>
<asrwt>0</asrwt>
<pdfrwt beam="1">  1        2 0.35453728E+00 0.48602933E+03</pdfrwt>
<pdfrwt beam="2">  1       -2 0.39425422E-02 0.48602933E+03</pdfrwt>
<totfact> 0.14105218E+03</totfact>
</mgrwt>
</event>
<event>
 4    1  0.8877834E-005  0.5644663E+03  0.7818608E-02  0.9981999E-01
          2   -1    0    0  501    0  0.00000000000E+00  0.00000000000E+00  0.15843406987E+04  0.15843406987E+04  0.25500000000E-02 0.  1.
         -2   -1    0    0    0  501 -0.00000000000E+00 -0.00000000000E+00 -0.50276788174E+02  0.50276788239E+02  0.25500000000E-02 0. -1.
    5000001    1    1    2    0    0 -0.31075044897E+02  0.20863471708E+03  0.10250151749E+04  0.10594221125E+04  0.16500000000E+03 0.  0.
   -5000001    1    1    2    0    0  0.31075044897E+02 -0.20863471708E+03  0.50904873565E+03  0.57519537451E+03  0.16500000000E+03 0.  0.
<mgrwt>
<rscale>  0 0.56446634E+03</rscale>
<asrwt>0</asrwt>
<pdfrwt beam="1">  1        2 0.24374473E+00 0.56446634E+03</pdfrwt>
<pdfrwt beam="2">  1       -2 0.77348903E-02 0.56446634E+03</pdfrwt>
<totfact> 0.12073727E+03</totfact>
</mgrwt>
</event>
<event>
 4    1  0.8877834E-005  0.6386994E+03  0.7818608E-02  0.9828218E-01
         -2   -1    0    0    0  501 -0.00000000000E+00  0.00000000000E+00  0.14088309050E+03  0.14088309052E+03  0.25500000000E-02 0. -1.
          2   -1    0    0  501    0  0.00000000000E+00 -0.00000000000E+00 -0.72389252563E+03  0.72389252563E+03  0.25500000000E-02 0.  1.
    5000001    1    1    2    0    0 -0.27148361558E+02 -0.22994484474E+03 -0.94608669451E+02  0.29964556645E+03  0.16500000000E+03 0.  0.
   -5000001    1    1    2    0    0  0.27148361558E+02  0.22994484474E+03 -0.48840076568E+03  0.56513004970E+03  0.16500000000E+03 0.  0.
<mgrwt>
<rscale>  0 0.63869935E+03</rscale>
<asrwt>0</asrwt>
<pdfrwt beam="1">  1        2 0.11136808E+00 0.63869935E+03</pdfrwt>
<pdfrwt beam="2">  1       -2 0.21674322E-01 0.63869935E+03</pdfrwt>
<totfact> 0.73087736E+02</totfact>
</mgrwt>
</event>
<event>
 4    1  0.8877834E-005  0.1117914E+04  0.7818608E-02  0.9187905E-01
          2   -1    0    0  501    0  0.00000000000E+00  0.00000000000E+00  0.12614977542E+04  0.12614977542E+04  0.25500000000E-02 0.  1.
         -2   -1    0    0    0  501 -0.00000000000E+00 -0.00000000000E+00 -0.24766840291E+03  0.24766840293E+03  0.25500000000E-02 0. -1.
    5000001    1    1    2    0    0 -0.52025519628E+03  0.78673655857E+02  0.38353236538E+03  0.67169717036E+03  0.16500000000E+03 0.  0.
   -5000001    1    1    2    0    0  0.52025519628E+03 -0.78673655857E+02  0.63029698595E+03  0.83746898681E+03  0.16500000000E+03 0.  0.
<mgrwt>
<rscale>  0 0.11179144E+04</rscale>
<asrwt>0</asrwt>
<pdfrwt beam="1">  1        2 0.19407658E+00 0.11179144E+04</pdfrwt>
<pdfrwt beam="2">  1       -2 0.38102831E-01 0.11179144E+04</pdfrwt>
<totfact> 0.11221350E+02</totfact>
</mgrwt>
</event>
<event>
 4    1  0.8877834E-005  0.6034432E+03  0.7818608E-02  0.9898288E-01
          2   -1    0    0  501    0  0.00000000000E+00  0.00000000000E+00  0.52247302629E+03  0.52247302630E+03  0.25500000000E-02 0.  1.
         -2   -1    0    0    0  501 -0.00000000000E+00 -0.00000000000E+00 -0.17424042675E+03  0.17424042677E+03  0.25500000000E-02 0. -1.
    5000001    1    1    2    0    0  0.25349820913E+02 -0.15339360420E+03 -0.55751197352E+02  0.23346393134E+03  0.16500000000E+03 0.  0.
   -5000001    1    1    2    0    0 -0.25349820913E+02  0.15339360420E+03  0.40398379689E+03  0.46324952173E+03  0.16500000000E+03 0.  0.
<mgrwt>
<rscale>  0 0.60344320E+03</rscale>
<asrwt>0</asrwt>
<pdfrwt beam="1">  1        2 0.80380465E-01 0.60344320E+03</pdfrwt>
<pdfrwt beam="2">  1       -2 0.26806220E-01 0.60344320E+03</pdfrwt>
<totfact> 0.74215482E+02</totfact>
</mgrwt>
</event>
<event>
 4    1  0.8877834E-005  0.4876736E+03  0.7818608E-02  0.1017047E+00
         -2   -1    0    0    0  501 -0.00000000000E+00  0.00000000000E+00  0.59499200816E+02  0.59499200871E+02  0.25500000000E-02 0. -1.
          2   -1    0    0  501    0  0.00000000000E+00 -0.00000000000E+00 -0.99928045910E+03  0.99928045911E+03  0.25500000000E-02 0.  1.
    5000001    1    1    2    0    0  0.73872474928E+01  0.17913193747E+03 -0.44945864406E+03  0.51125423731E+03  0.16500000000E+03 0.  0.
   -5000001    1    1    2    0    0 -0.73872474928E+01 -0.17913193747E+03 -0.49032261423E+03  0.54752542267E+03  0.16500000000E+03 0.  0.
<mgrwt>
<rscale>  0 0.48767362E+03</rscale>
<asrwt>0</asrwt>
<pdfrwt beam="1">  1        2 0.15373544E+00 0.48767362E+03</pdfrwt>
<pdfrwt beam="2">  1       -2 0.91537239E-02 0.48767362E+03</pdfrwt>
<totfact> 0.20091583E+03</totfact>
</mgrwt>
</event>
<event>
 4    1  0.8877834E-005  0.4827906E+03  0.7818608E-02  0.1018371E+00
         -2   -1    0    0    0  501 -0.00000000000E+00  0.00000000000E+00  0.19240773795E+02  0.19240773964E+02  0.25500000000E-02 0. -1.
          2   -1    0    0  501    0  0.00000000000E+00 -0.00000000000E+00 -0.30285517840E+04  0.30285517840E+04  0.25500000000E-02 0.  1.
    5000001    1    1    2    0    0 -0.62963873497E+02 -0.15882233714E+03 -0.12325646458E+04  0.12552408495E+04  0.16500000000E+03 0.  0.
   -5000001    1    1    2    0    0  0.62963873497E+02  0.15882233714E+03 -0.17767463644E+04  0.17925517085E+04  0.16500000000E+03 0.  0.
<mgrwt>
<rscale>  0 0.48279056E+03</rscale>
<asrwt>0</asrwt>
<pdfrwt beam="1">  1        2 0.46593067E+00 0.48279056E+03</pdfrwt>
<pdfrwt beam="2">  1       -2 0.29601215E-02 0.48279056E+03</pdfrwt>
<totfact> 0.83829124E+02</totfact>
</mgrwt>
</event>
<event>
 4    1  0.8877834E-005  0.4345061E+03  0.7818608E-02  0.1032446E+00
         -2   -1    0    0    0  501 -0.00000000000E+00  0.00000000000E+00  0.61092737205E+03  0.61092737205E+03  0.25500000000E-02 0. -1.
          2   -1    0    0  501    0  0.00000000000E+00 -0.00000000000E+00 -0.77257786376E+02  0.77257786418E+02  0.25500000000E-02 0.  1.
    5000001    1    1    2    0    0  0.12685725897E+03 -0.55126667099E+02  0.31279823847E+03  0.37973602880E+03  0.16500000000E+03 0.  0.
   -5000001    1    1    2    0    0 -0.12685725897E+03  0.55126667099E+02  0.22087134721E+03  0.30844912967E+03  0.16500000000E+03 0.  0.
<mgrwt>
<rscale>  0 0.43450614E+03</rscale>
<asrwt>0</asrwt>
<pdfrwt beam="1">  1        2 0.11885813E-01 0.43450614E+03</pdfrwt>
<pdfrwt beam="2">  1       -2 0.93988830E-01 0.43450614E+03</pdfrwt>
<totfact> 0.51472470E+02</totfact>
</mgrwt>
</event>
<event>
 4    1  0.8877834E-005  0.4249504E+03  0.7818608E-02  0.1035467E+00
         -2   -1    0    0    0  501 -0.00000000000E+00  0.00000000000E+00  0.94905198997E+02  0.94905199031E+02  0.25500000000E-02 0. -1.
          2   -1    0    0  501    0  0.00000000000E+00 -0.00000000000E+00 -0.47569268048E+03  0.47569268048E+03  0.25500000000E-02 0.  1.
    5000001    1    1    2    0    0  0.13104468401E+03  0.54282210272E+01 -0.15440095186E+03  0.26127921602E+03  0.16500000000E+03 0.  0.
   -5000001    1    1    2    0    0 -0.13104468401E+03 -0.54282210272E+01 -0.22638652962E+03  0.30931866349E+03  0.16500000000E+03 0.  0.
<mgrwt>
<rscale>  0 0.42495039E+03</rscale>
<asrwt>0</asrwt>
<pdfrwt beam="1">  1        2 0.73183488E-01 0.42495039E+03</pdfrwt>
<pdfrwt beam="2">  1       -2 0.14600800E-01 0.42495039E+03</pdfrwt>
<totfact> 0.23725659E+03</totfact>
</mgrwt>
</event>
<event>
 4    1  0.8877834E-005  0.4749100E+03  0.7818608E-02  0.1020543E+00
         -2   -1    0    0    0  501 -0.00000000000E+00  0.00000000000E+00  0.24130795702E+03  0.24130795703E+03  0.25500000000E-02 0. -1.
          2   -1    0    0  501    0  0.00000000000E+00 -0.00000000000E+00 -0.23366356950E+03  0.23366356951E+03  0.25500000000E-02 0.  1.
    5000001    1    1    2    0    0  0.15662005718E+03  0.34118063729E+02  0.62702513361E+02  0.23843340741E+03  0.16500000000E+03 0.  0.
   -5000001    1    1    2    0    0 -0.15662005718E+03 -0.34118063729E+02 -0.55058125844E+02  0.23653811914E+03  0.16500000000E+03 0.  0.
<mgrwt>
<rscale>  0 0.47491001E+03</rscale>
<asrwt>0</asrwt>
<pdfrwt beam="1">  1        2 0.35948241E-01 0.47491001E+03</pdfrwt>
<pdfrwt beam="2">  1       -2 0.37124301E-01 0.47491001E+03</pdfrwt>
<totfact> 0.99377270E+02</totfact>
</mgrwt>
</event>
<event>
 4    1  0.8877834E-005  0.4849681E+03  0.7818608E-02  0.1017779E+00
          2   -1    0    0  501    0  0.00000000000E+00  0.00000000000E+00  0.98902977779E+03  0.98902977779E+03  0.25500000000E-02 0.  1.
         -2   -1    0    0    0  501 -0.00000000000E+00 -0.00000000000E+00 -0.59450709985E+02  0.59450710040E+02  0.25500000000E-02 0. -1.
    5000001    1    1    2    0    0  0.15850398773E+03 -0.49948460774E+02  0.60075517038E+03  0.64478689316E+03  0.16500000000E+03 0.  0.
   -5000001    1    1    2    0    0 -0.15850398773E+03  0.49948460774E+02  0.32882389742E+03  0.40369359467E+03  0.16500000000E+03 0.  0.
<mgrwt>
<rscale>  0 0.48496813E+03</rscale>
<asrwt>0</asrwt>
<pdfrwt beam="1">  1        2 0.15215842E+00 0.48496813E+03</pdfrwt>
<pdfrwt beam="2">  1       -2 0.91462637E-02 0.48496813E+03</pdfrwt>
<totfact> 0.20419488E+03</totfact>
</mgrwt>
</event>
<event>
 4    1  0.8877834E-005  0.1448011E+04  0.7818608E-02  0.8919781E-01
         -2   -1    0    0    0  501 -0.00000000000E+00  0.00000000000E+00  0.32352304768E+03  0.32352304769E+03  0.25500000000E-02 0. -1.
          2   -1    0    0  501    0  0.00000000000E+00 -0.00000000000E+00 -0.16202363513E+04  0.16202363513E+04  0.25500000000E-02 0.  1.
    5000001    1    1    2    0    0  0.50967733099E+03 -0.30086845231E+03 -0.13427106394E+03  0.62892489690E+03  0.16500000000E+03 0.  0.
   -5000001    1    1    2    0    0 -0.50967733099E+03  0.30086845231E+03 -0.11624422397E+04  0.13148345021E+04  0.16500000000E+03 0.  0.
<mgrwt>
<rscale>  0 0.14480108E+04</rscale>
<asrwt>0</asrwt>
<pdfrwt beam="1">  1        2 0.24926713E+00 0.14480108E+04</pdfrwt>
<pdfrwt beam="2">  1       -2 0.49772777E-01 0.14480108E+04</pdfrwt>
<totfact> 0.40244377E+01</totfact>
</mgrwt>
</event>
<event>
 4    1  0.8877834E-005  0.3852336E+03  0.7818608E-02  0.1049016E+00
         -2   -1    0    0    0  501 -0.00000000000E+00  0.00000000000E+00  0.22705256130E+02  0.22705256273E+02  0.25500000000E-02 0. -1.
          2   -1    0    0  501    0  0.00000000000E+00 -0.00000000000E+00 -0.16340373330E+04  0.16340373330E+04  0.25500000000E-02 0.  1.
    5000001    1    1    2    0    0 -0.67955984841E+02 -0.49313529878E+02 -0.10343034894E+04  0.10507419037E+04  0.16500000000E+03 0.  0.
   -5000001    1    1    2    0    0  0.67955984841E+02  0.49313529878E+02 -0.57702858752E+03  0.60600068558E+03  0.16500000000E+03 0.  0.
<mgrwt>
<rscale>  0 0.38523362E+03</rscale>
<asrwt>0</asrwt>
<pdfrwt beam="1">  1        2 0.25139027E+00 0.38523362E+03</pdfrwt>
<pdfrwt beam="2">  1       -2 0.34931176E-02 0.38523362E+03</pdfrwt>
<totfact> 0.39040945E+03</totfact>
</mgrwt>
</event>
<event>
 4    1  0.8877834E-005  0.3562498E+03  0.7818608E-02  0.1060079E+00
          2   -1    0    0  501    0  0.00000000000E+00  0.00000000000E+00  0.10142080717E+04  0.10142080717E+04  0.25500000000E-02 0.  1.
         -2   -1    0    0    0  501 -0.00000000000E+00 -0.00000000000E+00 -0.31283988559E+02  0.31283988663E+02  0.25500000000E-02 0. -1.
    5000001    1    1    2    0    0  0.64062967799E+02  0.16795335465E+02  0.45967395028E+03  0.49286031257E+03  0.16500000000E+03 0.  0.
   -5000001    1    1    2    0    0 -0.64062967799E+02 -0.16795335465E+02  0.52325013282E+03  0.55263174776E+03  0.16500000000E+03 0.  0.
<mgrwt>
<rscale>  0 0.35624977E+03</rscale>
<asrwt>0</asrwt>
<pdfrwt beam="1">  1        2 0.15603199E+00 0.35624977E+03</pdfrwt>
<pdfrwt beam="2">  1       -2 0.48129221E-02 0.35624977E+03</pdfrwt>
<totfact> 0.53629430E+03</totfact>
</mgrwt>
</event>
<event>
 4    1  0.8877834E-005  0.5211572E+03  0.7818608E-02  0.1008399E+00
         -2   -1    0    0    0  501 -0.00000000000E+00  0.00000000000E+00  0.76290108803E+03  0.76290108804E+03  0.25500000000E-02 0. -1.
          2   -1    0    0  501    0  0.00000000000E+00 -0.00000000000E+00 -0.89003951538E+02  0.89003951575E+02  0.25500000000E-02 0.  1.
    5000001    1    1    2    0    0 -0.19430656531E+03  0.51001414271E+02  0.36619110184E+03  0.44908474551E+03  0.16500000000E+03 0.  0.
   -5000001    1    1    2    0    0  0.19430656531E+03 -0.51001414271E+02  0.30770603466E+03  0.40282029411E+03  0.16500000000E+03 0.  0.
<mgrwt>
<rscale>  0 0.52115722E+03</rscale>
<asrwt>0</asrwt>
<pdfrwt beam="1">  1        2 0.13692915E-01 0.52115722E+03</pdfrwt>
<pdfrwt beam="2">  1       -2 0.11736940E+00 0.52115722E+03</pdfrwt>
<totfact> 0.25489767E+02</totfact>
</mgrwt>
</event>
<event>
 4    1  0.8877834E-005  0.4286287E+03  0.7818608E-02  0.1034294E+00
          2   -1    0    0  501    0  0.00000000000E+00  0.00000000000E+00  0.91402639796E+03  0.91402639796E+03  0.25500000000E-02 0.  1.
         -2   -1    0    0    0  501 -0.00000000000E+00 -0.00000000000E+00 -0.50250879900E+02  0.50250879965E+02  0.25500000000E-02 0. -1.
    5000001    1    1    2    0    0  0.12802867392E+03 -0.15561329517E+02  0.53429477211E+03  0.57387228529E+03  0.16500000000E+03 0.  0.
   -5000001    1    1    2    0    0 -0.12802867392E+03  0.15561329517E+02  0.32948074594E+03  0.39040499263E+03  0.16500000000E+03 0.  0.
<mgrwt>
<rscale>  0 0.42862865E+03</rscale>
<asrwt>0</asrwt>
<pdfrwt beam="1">  1        2 0.14061945E+00 0.42862865E+03</pdfrwt>
<pdfrwt beam="2">  1       -2 0.77309046E-02 0.42862865E+03</pdfrwt>
<totfact> 0.29800987E+03</totfact>
</mgrwt>
</event>
<event>
 4    1  0.8877834E-005  0.8616557E+03  0.7818608E-02  0.9474825E-01
         -2   -1    0    0    0  501 -0.00000000000E+00  0.00000000000E+00  0.95561134076E+02  0.95561134110E+02  0.25500000000E-02 0. -1.
          2   -1    0    0  501    0  0.00000000000E+00 -0.00000000000E+00 -0.19423443068E+04  0.19423443068E+04  0.25500000000E-02 0.  1.
    5000001    1    1    2    0    0 -0.33582027457E+03 -0.84524190412E+01 -0.41867079105E+03  0.56156649782E+03  0.16500000000E+03 0.  0.
   -5000001    1    1    2    0    0  0.33582027457E+03  0.84524190412E+01 -0.14281123817E+04  0.14763389431E+04  0.16500000000E+03 0.  0.
<mgrwt>
<rscale>  0 0.86165567E+03</rscale>
<asrwt>0</asrwt>
<pdfrwt beam="1">  1        2 0.29882217E+00 0.86165567E+03</pdfrwt>
<pdfrwt beam="2">  1       -2 0.14701714E-01 0.86165567E+03</pdfrwt>
<totfact> 0.26427582E+02</totfact>
</mgrwt>
</event>
<event>
 4    1  0.8877834E-005  0.7312320E+03  0.7818608E-02  0.9665263E-01
         -2   -1    0    0    0  501 -0.00000000000E+00  0.00000000000E+00  0.32242068889E+02  0.32242068990E+02  0.25500000000E-02 0. -1.
          2   -1    0    0  501    0  0.00000000000E+00 -0.00000000000E+00 -0.41459832117E+04  0.41459832117E+04  0.25500000000E-02 0.  1.
    5000001    1    1    2    0    0  0.19307902480E+03  0.49992637599E+02 -0.35322580972E+04  0.35417299500E+04  0.16500000000E+03 0.  0.
   -5000001    1    1    2    0    0 -0.19307902480E+03 -0.49992637599E+02 -0.58148304561E+03  0.63649533067E+03  0.16500000000E+03 0.  0.
<mgrwt>
<rscale>  0 0.73123205E+03</rscale>
<asrwt>0</asrwt>
<pdfrwt beam="1">  1        2 0.63784315E+00 0.73123205E+03</pdfrwt>
<pdfrwt beam="2">  1       -2 0.49603216E-02 0.73123205E+03</pdfrwt>
<totfact> 0.60240271E+01</totfact>
</mgrwt>
</event>
<event>
 4    1  0.8877834E-005  0.4721235E+03  0.7818608E-02  0.1021323E+00
         -2   -1    0    0    0  501 -0.00000000000E+00  0.00000000000E+00  0.16579512333E+03  0.16579512335E+03  0.25500000000E-02 0. -1.
          2   -1    0    0  501    0  0.00000000000E+00 -0.00000000000E+00 -0.33610847987E+03  0.33610847988E+03  0.25500000000E-02 0.  1.
    5000001    1    1    2    0    0 -0.15335939497E+03  0.51841602981E+01 -0.10331106747E+02  0.22556088161E+03  0.16500000000E+03 0.  0.
   -5000001    1    1    2    0    0  0.15335939497E+03 -0.51841602981E+01 -0.15998224980E+03  0.27634272162E+03  0.16500000000E+03 0.  0.
<mgrwt>
<rscale>  0 0.47212349E+03</rscale>
<asrwt>0</asrwt>
<pdfrwt beam="1">  1        2 0.51708997E-01 0.47212349E+03</pdfrwt>
<pdfrwt beam="2">  1       -2 0.25506942E-01 0.47212349E+03</pdfrwt>
<totfact> 0.13335790E+03</totfact>
</mgrwt>
</event>
<event>
 4    1  0.8877834E-005  0.7135748E+03  0.7818608E-02  0.9694295E-01
         -2   -1    0    0    0  501 -0.00000000000E+00  0.00000000000E+00  0.97989541124E+02  0.97989541157E+02  0.25500000000E-02 0. -1.
          2   -1    0    0  501    0  0.00000000000E+00 -0.00000000000E+00 -0.12990902207E+04  0.12990902207E+04  0.25500000000E-02 0.  1.
    5000001    1    1    2    0    0  0.93400920568E+02  0.25369763352E+03 -0.27892429208E+03  0.42203078315E+03  0.16500000000E+03 0.  0.
   -5000001    1    1    2    0    0 -0.93400920568E+02 -0.25369763352E+03 -0.92217638753E+03  0.97504897873E+03  0.16500000000E+03 0.  0.
<mgrwt>
<rscale>  0 0.71357482E+03</rscale>
<asrwt>0</asrwt>
<pdfrwt beam="1">  1        2 0.19986002E+00 0.71357482E+03</pdfrwt>
<pdfrwt beam="2">  1       -2 0.15075315E-01 0.71357482E+03</pdfrwt>
<totfact> 0.58106273E+02</totfact>
</mgrwt>
</event>
<event>
 4    1  0.8877834E-005  0.6892050E+03  0.7818608E-02  0.9735873E-01
          2   -1    0    0  501    0  0.00000000000E+00  0.00000000000E+00  0.29909533042E+04  0.29909533042E+04  0.25500000000E-02 0.  1.
         -2   -1    0    0    0  501 -0.00000000000E+00 -0.00000000000E+00 -0.39703355837E+02  0.39703355919E+02  0.25500000000E-02 0. -1.
    5000001    1    1    2    0    0  0.26217266566E+03  0.14242998115E+03  0.16957142514E+04  0.17296510135E+04  0.16500000000E+03 0.  0.
   -5000001    1    1    2    0    0 -0.26217266566E+03 -0.14242998115E+03  0.12555356970E+04  0.13010056466E+04  0.16500000000E+03 0.  0.
<mgrwt>
<rscale>  0 0.68920500E+03</rscale>
<asrwt>0</asrwt>
<pdfrwt beam="1">  1        2 0.46014664E+00 0.68920500E+03</pdfrwt>
<pdfrwt beam="2">  1       -2 0.61082088E-02 0.68920500E+03</pdfrwt>
<totfact> 0.28284564E+02</totfact>
</mgrwt>
</event>
<event>
 4    1  0.8877834E-005  0.5681553E+03  0.7818608E-02  0.9973769E-01
         -2   -1    0    0    0  501 -0.00000000000E+00  0.00000000000E+00  0.17208193123E+03  0.17208193124E+03  0.25500000000E-02 0. -1.
          2   -1    0    0  501    0  0.00000000000E+00 -0.00000000000E+00 -0.46896325526E+03  0.46896325527E+03  0.25500000000E-02 0.  1.
    5000001    1    1    2    0    0 -0.91974405969E+02 -0.63542036724E+02  0.79960418273E+02  0.21474531491E+03  0.16500000000E+03 0.  0.
   -5000001    1    1    2    0    0  0.91974405969E+02  0.63542036724E+02 -0.37684174231E+03  0.42629987161E+03  0.16500000000E+03 0.  0.
<mgrwt>
<rscale>  0 0.56815527E+03</rscale>
<asrwt>0</asrwt>
<pdfrwt beam="1">  1        2 0.72148193E-01 0.56815527E+03</pdfrwt>
<pdfrwt beam="2">  1       -2 0.26474143E-01 0.56815527E+03</pdfrwt>
<totfact> 0.86000242E+02</totfact>
</mgrwt>
</event>
<event>
 4    1  0.8877834E-005  0.4499399E+03  0.7818608E-02  0.1027740E+00
         -2   -1    0    0    0  501 -0.00000000000E+00  0.00000000000E+00  0.38327189239E+02  0.38327189324E+02  0.25500000000E-02 0. -1.
          2   -1    0    0  501    0  0.00000000000E+00 -0.00000000000E+00 -0.13205112055E+04  0.13205112056E+04  0.25500000000E-02 0.  1.
    5000001    1    1    2    0    0 -0.64226620317E+02  0.13681992838E+03 -0.57080010952E+03  0.61309258403E+03  0.16500000000E+03 0.  0.
   -5000001    1    1    2    0    0  0.64226620317E+02 -0.13681992838E+03 -0.71138390679E+03  0.74574581085E+03  0.16500000000E+03 0.  0.
<mgrwt>
<rscale>  0 0.44993992E+03</rscale>
<asrwt>0</asrwt>
<pdfrwt beam="1">  1        2 0.20315554E+00 0.44993992E+03</pdfrwt>
<pdfrwt beam="2">  1       -2 0.58964917E-02 0.44993992E+03</pdfrwt>
<totfact> 0.25975660E+03</totfact>
</mgrwt>
</event>
<event>
 4    1  0.8877834E-005  0.4052799E+03  0.7818608E-02  0.1041967E+00
         -2   -1    0    0    0  501 -0.00000000000E+00  0.00000000000E+00  0.22821219864E+02  0.22821220007E+02  0.25500000000E-02 0. -1.
          2   -1    0    0  501    0  0.00000000000E+00 -0.00000000000E+00 -0.17993315294E+04  0.17993315294E+04  0.25500000000E-02 0.  1.
    5000001    1    1    2    0    0  0.28583106928E+02  0.10043966741E+03 -0.11317402886E+04  0.11484625382E+04  0.16500000000E+03 0.  0.
   -5000001    1    1    2    0    0 -0.28583106928E+02 -0.10043966741E+03 -0.64477002096E+03  0.67369021124E+03  0.16500000000E+03 0.  0.
<mgrwt>
<rscale>  0 0.40527986E+03</rscale>
<asrwt>0</asrwt>
<pdfrwt beam="1">  1        2 0.27682012E+00 0.40527986E+03</pdfrwt>
<pdfrwt beam="2">  1       -2 0.35109583E-02 0.40527986E+03</pdfrwt>
<totfact> 0.31599424E+03</totfact>
</mgrwt>
</event>
<event>
 4    1  0.8877834E-005  0.4547608E+03  0.7818608E-02  0.1026312E+00
         -2   -1    0    0    0  501 -0.00000000000E+00  0.00000000000E+00  0.71329099184E+02  0.71329099230E+02  0.25500000000E-02 0. -1.
          2   -1    0    0  501    0  0.00000000000E+00 -0.00000000000E+00 -0.72483517042E+03  0.72483517042E+03  0.25500000000E-02 0.  1.
    5000001    1    1    2    0    0 -0.15622693179E+03 -0.82971860896E+01 -0.32862416537E+03  0.39961799206E+03  0.16500000000E+03 0.  0.
   -5000001    1    1    2    0    0  0.15622693179E+03  0.82971860896E+01 -0.32488190586E+03  0.39654627759E+03  0.16500000000E+03 0.  0.
<mgrwt>
<rscale>  0 0.45476077E+03</rscale>
<asrwt>0</asrwt>
<pdfrwt beam="1">  1        2 0.11151310E+00 0.45476077E+03</pdfrwt>
<pdfrwt beam="2">  1       -2 0.10973708E-01 0.45476077E+03</pdfrwt>
<totfact> 0.23065446E+03</totfact>
</mgrwt>
</event>
<event>
 4    1  0.8877834E-005  0.4938205E+03  0.7818608E-02  0.1015405E+00
         -2   -1    0    0    0  501 -0.00000000000E+00  0.00000000000E+00  0.33765354342E+02  0.33765354438E+02  0.25500000000E-02 0. -1.
          2   -1    0    0  501    0  0.00000000000E+00 -0.00000000000E+00 -0.18055394952E+04  0.18055394952E+04  0.25500000000E-02 0.  1.
    5000001    1    1    2    0    0  0.28797501301E+02  0.13623376614E+03 -0.13320790954E+04  0.13494623565E+04  0.16500000000E+03 0.  0.
   -5000001    1    1    2    0    0 -0.28797501301E+02 -0.13623376614E+03 -0.43969504544E+03  0.48984249316E+03  0.16500000000E+03 0.  0.
<mgrwt>
<rscale>  0 0.49382054E+03</rscale>
<asrwt>0</asrwt>
<pdfrwt beam="1">  1        2 0.27777523E+00 0.49382054E+03</pdfrwt>
<pdfrwt beam="2">  1       -2 0.51946713E-02 0.49382054E+03</pdfrwt>
<totfact> 0.17161290E+03</totfact>
</mgrwt>
</event>
<event>
 4    1  0.8877834E-005  0.9800196E+03  0.7818608E-02  0.9330735E-01
          2   -1    0    0  501    0  0.00000000000E+00  0.00000000000E+00  0.11642058309E+04  0.11642058309E+04  0.25500000000E-02 0.  1.
         -2   -1    0    0    0  501 -0.00000000000E+00 -0.00000000000E+00 -0.20624324983E+03  0.20624324985E+03  0.25500000000E-02 0. -1.
    5000001    1    1    2    0    0 -0.24396307334E+03  0.10888922809E+03  0.10050243944E+04  0.10529358378E+04  0.16500000000E+03 0.  0.
   -5000001    1    1    2    0    0  0.24396307334E+03 -0.10888922809E+03 -0.47061813386E+02  0.31751324291E+03  0.16500000000E+03 0.  0.
<mgrwt>
<rscale>  0 0.98001958E+03</rscale>
<asrwt>0</asrwt>
<pdfrwt beam="1">  1        2 0.17910858E+00 0.98001958E+03</pdfrwt>
<pdfrwt beam="2">  1       -2 0.31729732E-01 0.98001958E+03</pdfrwt>
<totfact> 0.18333453E+02</totfact>
</mgrwt>
</event>
<event>
 4    1  0.8877834E-005  0.8567624E+03  0.7818608E-02  0.9481305E-01
         -2   -1    0    0    0  501 -0.00000000000E+00  0.00000000000E+00  0.10594537572E+03  0.10594537575E+03  0.25500000000E-02 0. -1.
          2   -1    0    0  501    0  0.00000000000E+00 -0.00000000000E+00 -0.17321231770E+04  0.17321231770E+04  0.25500000000E-02 0.  1.
    5000001    1    1    2    0    0 -0.32571630064E+03  0.22390006848E+03 -0.83012959394E+03  0.93411053517E+03  0.16500000000E+03 0.  0.
   -5000001    1    1    2    0    0  0.32571630064E+03 -0.22390006848E+03 -0.79604820737E+03  0.90395801762E+03  0.16500000000E+03 0.  0.
<mgrwt>
<rscale>  0 0.85676237E+03</rscale>
<asrwt>0</asrwt>
<pdfrwt beam="1">  1        2 0.26648047E+00 0.85676237E+03</pdfrwt>
<pdfrwt beam="2">  1       -2 0.16299290E-01 0.85676237E+03</pdfrwt>
<totfact> 0.28915241E+02</totfact>
</mgrwt>
</event>
<event>
 4    1  0.8877834E-005  0.6462921E+03  0.7818608E-02  0.9813762E-01
         -2   -1    0    0    0  501 -0.00000000000E+00  0.00000000000E+00  0.12591883377E+03  0.12591883379E+03  0.25500000000E-02 0. -1.
          2   -1    0    0  501    0  0.00000000000E+00 -0.00000000000E+00 -0.82929104648E+03  0.82929104649E+03  0.25500000000E-02 0.  1.
    5000001    1    1    2    0    0  0.17428814359E+02 -0.14535549203E+03 -0.26613778789E+01  0.22059933265E+03  0.16500000000E+03 0.  0.
   -5000001    1    1    2    0    0 -0.17428814359E+02  0.14535549203E+03 -0.70071083484E+03  0.73461054763E+03  0.16500000000E+03 0.  0.
<mgrwt>
<rscale>  0 0.64629207E+03</rscale>
<asrwt>0</asrwt>
<pdfrwt beam="1">  1        2 0.12758323E+00 0.64629207E+03</pdfrwt>
<pdfrwt beam="2">  1       -2 0.19372129E-01 0.64629207E+03</pdfrwt>
<totfact> 0.74515821E+02</totfact>
</mgrwt>
</event>
<event>
 4    1  0.8877834E-005  0.4473471E+03  0.7818608E-02  0.1028516E+00
         -2   -1    0    0    0  501 -0.00000000000E+00  0.00000000000E+00  0.11009752316E+03  0.11009752319E+03  0.25500000000E-02 0. -1.
          2   -1    0    0  501    0  0.00000000000E+00 -0.00000000000E+00 -0.45441407760E+03  0.45441407761E+03  0.25500000000E-02 0.  1.
    5000001    1    1    2    0    0 -0.14934710277E+03 -0.20999165092E+02 -0.18187927341E+03  0.28818499638E+03  0.16500000000E+03 0.  0.
   -5000001    1    1    2    0    0  0.14934710277E+03  0.20999165092E+02 -0.16243728104E+03  0.27632660442E+03  0.16500000000E+03 0.  0.
<mgrwt>
<rscale>  0 0.44734713E+03</rscale>
<asrwt>0</asrwt>
<pdfrwt beam="1">  1        2 0.69909857E-01 0.44734713E+03</pdfrwt>
<pdfrwt beam="2">  1       -2 0.16938081E-01 0.44734713E+03</pdfrwt>
<totfact> 0.19472503E+03</totfact>
</mgrwt>
</event>
<event>
 4    1  0.8877834E-005  0.4180389E+03  0.7818608E-02  0.1037706E+00
         -2   -1    0    0    0  501 -0.00000000000E+00  0.00000000000E+00  0.70404708338E+02  0.70404708385E+02  0.25500000000E-02 0. -1.
          2   -1    0    0  501    0  0.00000000000E+00 -0.00000000000E+00 -0.62054279009E+03  0.62054279010E+03  0.25500000000E-02 0.  1.
    5000001    1    1    2    0    0  0.73362426539E+02 -0.44589104076E+02 -0.11745190578E+03  0.21997768978E+03  0.16500000000E+03 0.  0.
   -5000001    1    1    2    0    0 -0.73362426539E+02  0.44589104076E+02 -0.43268617597E+03  0.47096980870E+03  0.16500000000E+03 0.  0.
<mgrwt>
<rscale>  0 0.41803892E+03</rscale>
<asrwt>0</asrwt>
<pdfrwt beam="1">  1        2 0.95468118E-01 0.41803892E+03</pdfrwt>
<pdfrwt beam="2">  1       -2 0.10831494E-01 0.41803892E+03</pdfrwt>
<totfact> 0.28466061E+03</totfact>
</mgrwt>
</event>
<event>
 4    1  0.8877834E-005  0.4996892E+03  0.7818608E-02  0.1013860E+00
         -2   -1    0    0    0  501 -0.00000000000E+00  0.00000000000E+00  0.39497876172E+02  0.39497876254E+02  0.25500000000E-02 0. -1.
          2   -1    0    0  501    0  0.00000000000E+00 -0.00000000000E+00 -0.15803972587E+04  0.15803972587E+04  0.25500000000E-02 0.  1.
    5000001    1    1    2    0    0  0.18199661853E+03 -0.30533609069E+02 -0.88001430379E+03  0.91416915575E+03  0.16500000000E+03 0.  0.
   -5000001    1    1    2    0    0 -0.18199661853E+03  0.30533609069E+02 -0.66088507877E+03  0.70572597924E+03  0.16500000000E+03 0.  0.
<mgrwt>
<rscale>  0 0.49968924E+03</rscale>
<asrwt>0</asrwt>
<pdfrwt beam="1">  1        2 0.24313799E+00 0.49968924E+03</pdfrwt>
<pdfrwt beam="2">  1       -2 0.60765976E-02 0.49968924E+03</pdfrwt>
<totfact> 0.17789973E+03</totfact>
</mgrwt>
</event>
<event>
 4    1  0.8877834E-005  0.4954221E+03  0.7818608E-02  0.1014981E+00
          2   -1    0    0  501    0  0.00000000000E+00  0.00000000000E+00  0.89801282531E+03  0.89801282531E+03  0.25500000000E-02 0.  1.
         -2   -1    0    0    0  501 -0.00000000000E+00 -0.00000000000E+00 -0.68329483989E+02  0.68329484037E+02  0.25500000000E-02 0. -1.
    5000001    1    1    2    0    0  0.10238231384E+03 -0.15352983673E+03  0.43252655566E+03  0.49835506449E+03  0.16500000000E+03 0.  0.
   -5000001    1    1    2    0    0 -0.10238231384E+03  0.15352983673E+03  0.39715678566E+03  0.46798724486E+03  0.16500000000E+03 0.  0.
<mgrwt>
<rscale>  0 0.49542205E+03</rscale>
<asrwt>0</asrwt>
<pdfrwt beam="1">  1        2 0.13815581E+00 0.49542205E+03</pdfrwt>
<pdfrwt beam="2">  1       -2 0.10512229E-01 0.49542205E+03</pdfrwt>
<totfact> 0.18682673E+03</totfact>
</mgrwt>
</event>
<event>
 4    1  0.8877834E-005  0.4920294E+03  0.7818608E-02  0.1015881E+00
          2   -1    0    0  501    0  0.00000000000E+00  0.00000000000E+00  0.10092863414E+04  0.10092863414E+04  0.25500000000E-02 0.  1.
         -2   -1    0    0    0  501 -0.00000000000E+00 -0.00000000000E+00 -0.59966372462E+02  0.59966372516E+02  0.25500000000E-02 0. -1.
    5000001    1    1    2    0    0 -0.17344486731E+02  0.17546492977E+03  0.57680875102E+03  0.62531760574E+03  0.16500000000E+03 0.  0.
   -5000001    1    1    2    0    0  0.17344486731E+02 -0.17546492977E+03  0.37251121792E+03  0.44393510818E+03  0.16500000000E+03 0.  0.
<mgrwt>
<rscale>  0 0.49202943E+03</rscale>
<asrwt>0</asrwt>
<pdfrwt beam="1">  1        2 0.15527482E+00 0.49202943E+03</pdfrwt>
<pdfrwt beam="2">  1       -2 0.92255960E-02 0.49202943E+03</pdfrwt>
<totfact> 0.19555968E+03</totfact>
</mgrwt>
</event>
<event>
 4    1  0.8877834E-005  0.5284031E+03  0.7818608E-02  0.1006620E+00
          2   -1    0    0  501    0  0.00000000000E+00  0.00000000000E+00  0.38018390449E+03  0.38018390450E+03  0.25500000000E-02 0.  1.
         -2   -1    0    0    0  501 -0.00000000000E+00 -0.00000000000E+00 -0.18360179287E+03  0.18360179288E+03  0.25500000000E-02 0. -1.
    5000001    1    1    2    0    0 -0.54343484515E+02  0.12797733228E+03 -0.64384828490E+02  0.22517064202E+03  0.16500000000E+03 0.  0.
   -5000001    1    1    2    0    0  0.54343484515E+02 -0.12797733228E+03  0.26096694011E+03  0.33861505537E+03  0.16500000000E+03 0.  0.
<mgrwt>
<rscale>  0 0.52840305E+03</rscale>
<asrwt>0</asrwt>
<pdfrwt beam="1">  1        2 0.58489831E-01 0.52840305E+03</pdfrwt>
<pdfrwt beam="2">  1       -2 0.28246430E-01 0.52840305E+03</pdfrwt>
<totfact> 0.96781583E+02</totfact>
</mgrwt>
</event>
<event>
 4    1  0.8877834E-005  0.5387174E+03  0.7818608E-02  0.1004140E+00
         -2   -1    0    0    0  501 -0.00000000000E+00  0.00000000000E+00  0.15400171571E+02  0.15400171782E+02  0.25500000000E-02 0. -1.
          2   -1    0    0  501    0  0.00000000000E+00 -0.00000000000E+00 -0.47112535789E+04  0.47112535789E+04  0.25500000000E-02 0.  1.
    5000001    1    1    2    0    0  0.16264252336E+03 -0.13607600635E+03 -0.21814896882E+04  0.21979744152E+04  0.16500000000E+03 0.  0.
   -5000001    1    1    2    0    0 -0.16264252336E+03  0.13607600635E+03 -0.25143637191E+04  0.25286793355E+04  0.16500000000E+03 0.  0.
<mgrwt>
<rscale>  0 0.53871742E+03</rscale>
<asrwt>0</asrwt>
<pdfrwt beam="1">  1        2 0.72480709E+00 0.53871742E+03</pdfrwt>
<pdfrwt beam="2">  1       -2 0.23692609E-02 0.53871742E+03</pdfrwt>
<totfact> 0.58080546E+01</totfact>
</mgrwt>
</event>
<event>
 4    1  0.8877834E-005  0.5454981E+03  0.7818608E-02  0.1002541E+00
         -2   -1    0    0    0  501 -0.00000000000E+00  0.00000000000E+00  0.61524399309E+02  0.61524399362E+02  0.25500000000E-02 0. -1.
          2   -1    0    0  501    0  0.00000000000E+00 -0.00000000000E+00 -0.12091472129E+04  0.12091472129E+04  0.25500000000E-02 0.  1.
    5000001    1    1    2    0    0  0.15316518375E+02  0.15214515334E+03 -0.21457085653E+03  0.31088325122E+03  0.16500000000E+03 0.  0.
   -5000001    1    1    2    0    0 -0.15316518375E+02 -0.15214515334E+03 -0.93305195710E+03  0.95978836108E+03  0.16500000000E+03 0.  0.
<mgrwt>
<rscale>  0 0.54549814E+03</rscale>
<asrwt>0</asrwt>
<pdfrwt beam="1">  1        2 0.18602263E+00 0.54549814E+03</pdfrwt>
<pdfrwt beam="2">  1       -2 0.94652931E-02 0.54549814E+03</pdfrwt>
<totfact> 0.14206644E+03</totfact>
</mgrwt>
</event>
<event>
 4    1  0.8877834E-005  0.8514838E+03  0.7818608E-02  0.9488348E-01
         -2   -1    0    0    0  501 -0.00000000000E+00  0.00000000000E+00  0.43446460843E+03  0.43446460844E+03  0.25500000000E-02 0. -1.
          2   -1    0    0  501    0  0.00000000000E+00 -0.00000000000E+00 -0.41719427996E+03  0.41719427996E+03  0.25500000000E-02 0.  1.
    5000001    1    1    2    0    0  0.20040346024E+03  0.31881447157E+03  0.11923337987E+03  0.42807220540E+03  0.16500000000E+03 0.  0.
   -5000001    1    1    2    0    0 -0.20040346024E+03 -0.31881447157E+03 -0.10196305140E+03  0.42358668300E+03  0.16500000000E+03 0.  0.
<mgrwt>
<rscale>  0 0.85148376E+03</rscale>
<asrwt>0</asrwt>
<pdfrwt beam="1">  1        2 0.64183736E-01 0.85148376E+03</pdfrwt>
<pdfrwt beam="2">  1       -2 0.66840709E-01 0.85148376E+03</pdfrwt>
<totfact> 0.15677357E+02</totfact>
</mgrwt>
</event>
<event>
 4    1  0.8877834E-005  0.4213035E+03  0.7818608E-02  0.1036643E+00
          2   -1    0    0  501    0  0.00000000000E+00  0.00000000000E+00  0.54623899330E+03  0.54623899331E+03  0.25500000000E-02 0.  1.
         -2   -1    0    0    0  501 -0.00000000000E+00 -0.00000000000E+00 -0.81235786673E+02  0.81235786713E+02  0.25500000000E-02 0. -1.
    5000001    1    1    2    0    0  0.14094772287E+00  0.12038158787E+03  0.30927846143E+03  0.37063447394E+03  0.16500000000E+03 0.  0.
   -5000001    1    1    2    0    0 -0.14094772287E+00 -0.12038158787E+03  0.15572474520E+03  0.25684030609E+03  0.16500000000E+03 0.  0.
<mgrwt>
<rscale>  0 0.42130347E+03</rscale>
<asrwt>0</asrwt>
<pdfrwt beam="1">  1        2 0.84036769E-01 0.42130347E+03</pdfrwt>
<pdfrwt beam="2">  1       -2 0.12497813E-01 0.42130347E+03</pdfrwt>
<totfact> 0.26192762E+03</totfact>
</mgrwt>
</event>
<event>
 4    1  0.8877834E-005  0.5043556E+03  0.7818608E-02  0.1012648E+00
         -2   -1    0    0    0  501 -0.00000000000E+00  0.00000000000E+00  0.95418437316E+02  0.95418437350E+02  0.25500000000E-02 0. -1.
          2   -1    0    0  501    0  0.00000000000E+00 -0.00000000000E+00 -0.66647112787E+03  0.66647112788E+03  0.25500000000E-02 0.  1.
    5000001    1    1    2    0    0  0.12377453720E+03 -0.13704976834E+03 -0.35743341675E+03  0.43484068631E+03  0.16500000000E+03 0.  0.
   -5000001    1    1    2    0    0 -0.12377453720E+03  0.13704976834E+03 -0.21361927380E+03  0.32704887892E+03  0.16500000000E+03 0.  0.
<mgrwt>
<rscale>  0 0.50435556E+03</rscale>
<asrwt>0</asrwt>
<pdfrwt beam="1">  1        2 0.10253402E+00 0.50435556E+03</pdfrwt>
<pdfrwt beam="2">  1       -2 0.14679760E-01 0.50435556E+03</pdfrwt>
<totfact> 0.15849231E+03</totfact>
</mgrwt>
</event>
<event>
 4    1  0.8877834E-005  0.4991662E+03  0.7818608E-02  0.1013997E+00
         -2   -1    0    0    0  501 -0.00000000000E+00  0.00000000000E+00  0.11710253010E+04  0.11710253010E+04  0.25500000000E-02 0. -1.
          2   -1    0    0  501    0  0.00000000000E+00 -0.00000000000E+00 -0.53194167344E+02  0.53194167405E+02  0.25500000000E-02 0.  1.
    5000001    1    1    2    0    0  0.63914462799E+02 -0.11155635238E+03  0.22500361743E+03  0.30721573229E+03  0.16500000000E+03 0.  0.
   -5000001    1    1    2    0    0 -0.63914462799E+02  0.11155635238E+03  0.89282751619E+03  0.91700373607E+03  0.16500000000E+03 0.  0.
<mgrwt>
<rscale>  0 0.49916617E+03</rscale>
<asrwt>0</asrwt>
<pdfrwt beam="1">  1        2 0.81837179E-02 0.49916617E+03</pdfrwt>
<pdfrwt beam="2">  1       -2 0.18015774E+00 0.49916617E+03</pdfrwt>
<totfact> 0.15930445E+02</totfact>
</mgrwt>
</event>
<event>
 4    1  0.8877834E-005  0.1237569E+04  0.7818608E-02  0.9080593E-01
          2   -1    0    0  501    0  0.00000000000E+00  0.00000000000E+00  0.16285026862E+04  0.16285026862E+04  0.25500000000E-02 0. -1.
         -2   -1    0    0    0  501 -0.00000000000E+00 -0.00000000000E+00 -0.23512051227E+03  0.23512051228E+03  0.25500000000E-02 0.  1.
    5000001    1    1    2    0    0 -0.32359452045E+03  0.25988187701E+03  0.13416155612E+04  0.14140047093E+04  0.16500000000E+03 0.  0.
   -5000001    1    1    2    0    0  0.32359452045E+03 -0.25988187701E+03  0.51766612699E+02  0.44961848922E+03  0.16500000000E+03 0.  0.
<mgrwt>
<rscale>  0 0.12375692E+04</rscale>
<asrwt>0</asrwt>
<pdfrwt beam="1">  1        2 0.25053887E+00 0.12375692E+04</pdfrwt>
<pdfrwt beam="2">  1       -2 0.36172387E-01 0.12375692E+04</pdfrwt>
<totfact> 0.76064576E+01</totfact>
</mgrwt>
</event>
<event>
 4    1  0.8877834E-005  0.7512351E+03  0.7818608E-02  0.9633415E-01
         -2   -1    0    0    0  501 -0.00000000000E+00  0.00000000000E+00  0.17260699950E+03  0.17260699951E+03  0.25500000000E-02 0. -1.
          2   -1    0    0  501    0  0.00000000000E+00 -0.00000000000E+00 -0.81739763091E+03  0.81739763092E+03  0.25500000000E-02 0.  1.
    5000001    1    1    2    0    0  0.18639019039E+03  0.66935976411E+02  0.37646103128E+02  0.26050711524E+03  0.16500000000E+03 0.  0.
   -5000001    1    1    2    0    0 -0.18639019039E+03 -0.66935976411E+02 -0.68243673455E+03  0.72949751519E+03  0.16500000000E+03 0.  0.
<mgrwt>
<rscale>  0 0.75123512E+03</rscale>
<asrwt>0</asrwt>
<pdfrwt beam="1">  1        2 0.12575348E+00 0.75123512E+03</pdfrwt>
<pdfrwt beam="2">  1       -2 0.26554924E-01 0.75123512E+03</pdfrwt>
<totfact> 0.43214636E+02</totfact>
</mgrwt>
</event>
<event>
 4    1  0.8877834E-005  0.4208897E+03  0.7818608E-02  0.1036777E+00
          2   -1    0    0  501    0  0.00000000000E+00  0.00000000000E+00  0.11294251833E+03  0.11294251836E+03  0.25500000000E-02 0. -1.
         -2   -1    0    0    0  501 -0.00000000000E+00 -0.00000000000E+00 -0.39212013998E+03  0.39212013999E+03  0.25500000000E-02 0.  1.
    5000001    1    1    2    0    0 -0.37652054988E+02 -0.11737593122E+03 -0.87735302206E+02  0.22386886726E+03  0.16500000000E+03 0.  0.
   -5000001    1    1    2    0    0  0.37652054988E+02  0.11737593122E+03 -0.19144231945E+03  0.28119379109E+03  0.16500000000E+03 0.  0.
<mgrwt>
<rscale>  0 0.42088971E+03</rscale>
<asrwt>0</asrwt>
<pdfrwt beam="1">  1        2 0.17375772E-01 0.42088971E+03</pdfrwt>
<pdfrwt beam="2">  1       -2 0.60326175E-01 0.42088971E+03</pdfrwt>
<totfact> 0.86174916E+02</totfact>
</mgrwt>
</event>
<event>
 4    1  0.8877834E-005  0.4015012E+03  0.7818608E-02  0.1043261E+00
         -2   -1    0    0    0  501 -0.00000000000E+00  0.00000000000E+00  0.24270534741E+03  0.24270534742E+03  0.25500000000E-02 0. -1.
          2   -1    0    0  501    0  0.00000000000E+00 -0.00000000000E+00 -0.16604824952E+03  0.16604824954E+03  0.25500000000E-02 0.  1.
    5000001    1    1    2    0    0  0.81309259476E+01 -0.77690746519E+02  0.12334648791E+03  0.22032094801E+03  0.16500000000E+03 0.  0.
   -5000001    1    1    2    0    0 -0.81309259476E+01  0.77690746519E+02 -0.46689390024E+02  0.18843264896E+03  0.16500000000E+03 0.  0.
<mgrwt>
<rscale>  0 0.40150117E+03</rscale>
<asrwt>0</asrwt>
<pdfrwt beam="1">  1        2 0.25545885E-01 0.40150117E+03</pdfrwt>
<pdfrwt beam="2">  1       -2 0.37339284E-01 0.40150117E+03</pdfrwt>
<totfact> 0.14370732E+03</totfact>
</mgrwt>
</event>
<event>
 4    1  0.8877834E-005  0.4514348E+03  0.7818608E-02  0.1027295E+00
          2   -1    0    0  501    0  0.00000000000E+00  0.00000000000E+00  0.18486133687E+03  0.18486133689E+03  0.25500000000E-02 0.  1.
         -2   -1    0    0    0  501 -0.00000000000E+00 -0.00000000000E+00 -0.27560303450E+03  0.27560303451E+03  0.25500000000E-02 0. -1.
    5000001    1    1    2    0    0 -0.14779366252E+03  0.28194418433E+02 -0.11765639420E+02  0.22360975422E+03  0.16500000000E+03 0.  0.
   -5000001    1    1    2    0    0  0.14779366252E+03 -0.28194418433E+02 -0.78976058203E+02  0.23685461718E+03  0.16500000000E+03 0.  0.
<mgrwt>
<rscale>  0 0.45143480E+03</rscale>
<asrwt>0</asrwt>
<pdfrwt beam="1">  1        2 0.28440206E-01 0.45143480E+03</pdfrwt>
<pdfrwt beam="2">  1       -2 0.42400467E-01 0.45143480E+03</pdfrwt>
<totfact> 0.99768698E+02</totfact>
</mgrwt>
</event>
<event>
 4    1  0.8877834E-005  0.7443640E+03  0.7818608E-02  0.9644234E-01
         -2   -1    0    0    0  501 -0.00000000000E+00  0.00000000000E+00  0.12011201488E+03  0.12011201490E+03  0.25500000000E-02 0. -1.
          2   -1    0    0  501    0  0.00000000000E+00 -0.00000000000E+00 -0.11532522556E+04  0.11532522556E+04  0.25500000000E-02 0.  1.
    5000001    1    1    2    0    0  0.20436867902E+03  0.25416495430E+03 -0.63665982189E+03  0.73411655053E+03  0.16500000000E+03 0.  0.
   -5000001    1    1    2    0    0 -0.20436867902E+03 -0.25416495430E+03 -0.39648041880E+03  0.53924771993E+03  0.16500000000E+03 0.  0.
<mgrwt>
<rscale>  0 0.74436403E+03</rscale>
<asrwt>0</asrwt>
<pdfrwt beam="1">  1        2 0.17742342E+00 0.74436403E+03</pdfrwt>
<pdfrwt beam="2">  1       -2 0.18478772E-01 0.74436403E+03</pdfrwt>
<totfact> 0.49888638E+02</totfact>
</mgrwt>
</event>
<event>
 4    1  0.8877834E-005  0.3645542E+03  0.7818608E-02  0.1056795E+00
         -2   -1    0    0    0  501 -0.00000000000E+00  0.00000000000E+00  0.37004331684E+02  0.37004331771E+02  0.25500000000E-02 0. -1.
          2   -1    0    0  501    0  0.00000000000E+00 -0.00000000000E+00 -0.89786626538E+03  0.89786626539E+03  0.25500000000E-02 0.  1.
    5000001    1    1    2    0    0  0.18313220703E+02  0.74718425373E+02 -0.40724825800E+03  0.44608783977E+03  0.16500000000E+03 0.  0.
   -5000001    1    1    2    0    0 -0.18313220703E+02 -0.74718425373E+02 -0.45361367570E+03  0.48878275739E+03  0.16500000000E+03 0.  0.
<mgrwt>
<rscale>  0 0.36455420E+03</rscale>
<asrwt>0</asrwt>
<pdfrwt beam="1">  1        2 0.13813326E+00 0.36455420E+03</pdfrwt>
<pdfrwt beam="2">  1       -2 0.56929748E-02 0.36455420E+03</pdfrwt>
<totfact> 0.49133110E+03</totfact>
</mgrwt>
</event>
<event>
 4    1  0.8877834E-005  0.5373023E+03  0.7818608E-02  0.1004476E+00
          2   -1    0    0  501    0  0.00000000000E+00  0.00000000000E+00  0.26031402830E+04  0.26031402830E+04  0.25500000000E-02 0.  1.
         -2   -1    0    0    0  501 -0.00000000000E+00 -0.00000000000E+00 -0.27725524580E+02  0.27725524698E+02  0.25500000000E-02 0. -1.
    5000001    1    1    2    0    0  0.21159770814E+03  0.42444431944E+01  0.13490252714E+04  0.13754583920E+04  0.16500000000E+03 0.  0.
   -5000001    1    1    2    0    0 -0.21159770814E+03 -0.42444431944E+01  0.12263894870E+04  0.12554074156E+04  0.16500000000E+03 0.  0.
<mgrwt>
<rscale>  0 0.53730226E+03</rscale>
<asrwt>0</asrwt>
<pdfrwt beam="1">  1        2 0.40048324E+00 0.53730226E+03</pdfrwt>
<pdfrwt beam="2">  1       -2 0.42654641E-02 0.53730226E+03</pdfrwt>
<totfact> 0.84851048E+02</totfact>
</mgrwt>
</event>
<event>
 4    1  0.8877834E-005  0.4367766E+03  0.7818608E-02  0.1031740E+00
         -2   -1    0    0    0  501 -0.00000000000E+00  0.00000000000E+00  0.33059940504E+02  0.33059940602E+02  0.25500000000E-02 0. -1.
          2   -1    0    0  501    0  0.00000000000E+00 -0.00000000000E+00 -0.14426354695E+04  0.14426354695E+04  0.25500000000E-02 0.  1.
    5000001    1    1    2    0    0  0.13198071275E+03 -0.22049706276E+02 -0.87584478603E+03  0.90124036045E+03  0.16500000000E+03 0.  0.
   -5000001    1    1    2    0    0 -0.13198071275E+03  0.22049706276E+02 -0.53373074294E+03  0.57445504963E+03  0.16500000000E+03 0.  0.
<mgrwt>
<rscale>  0 0.43677657E+03</rscale>
<asrwt>0</asrwt>
<pdfrwt beam="1">  1        2 0.22194387E+00 0.43677657E+03</pdfrwt>
<pdfrwt beam="2">  1       -2 0.50861458E-02 0.43677657E+03</pdfrwt>
<totfact> 0.27930356E+03</totfact>
</mgrwt>
</event>
<event>
 4    1  0.8877834E-005  0.6688888E+03  0.7818608E-02  0.9771967E-01
         -2   -1    0    0    0  501 -0.00000000000E+00  0.00000000000E+00  0.25638414021E+03  0.25638414022E+03  0.25500000000E-02 0. -1.
          2   -1    0    0  501    0  0.00000000000E+00 -0.00000000000E+00 -0.43627136283E+03  0.43627136284E+03  0.25500000000E-02 0.  1.
    5000001    1    1    2    0    0  0.13930294386E+03 -0.11123814737E+03  0.14811342373E+03  0.28450276253E+03  0.16500000000E+03 0.  0.
   -5000001    1    1    2    0    0 -0.13930294386E+03  0.11123814737E+03 -0.32800064635E+03  0.40815274054E+03  0.16500000000E+03 0.  0.
<mgrwt>
<rscale>  0 0.66888880E+03</rscale>
<asrwt>0</asrwt>
<pdfrwt beam="1">  1        2 0.67118671E-01 0.66888880E+03</pdfrwt>
<pdfrwt beam="2">  1       -2 0.39443714E-01 0.66888880E+03</pdfrwt>
<totfact> 0.44153252E+02</totfact>
</mgrwt>
</event>
<event>
 4    1  0.8877834E-005  0.4779766E+03  0.7818608E-02  0.1019693E+00
         -2   -1    0    0    0  501 -0.00000000000E+00  0.00000000000E+00  0.32940454506E+02  0.32940454604E+02  0.25500000000E-02 0. -1.
          2   -1    0    0  501    0  0.00000000000E+00 -0.00000000000E+00 -0.17338985059E+04  0.17338985059E+04  0.25500000000E-02 0.  1.
    5000001    1    1    2    0    0 -0.13596154512E+03 -0.14261988230E+02 -0.12417049597E+04  0.12600575991E+04  0.16500000000E+03 0.  0.
   -5000001    1    1    2    0    0  0.13596154512E+03  0.14261988230E+02 -0.45925309173E+03  0.50678136146E+03  0.16500000000E+03 0.  0.
<mgrwt>
<rscale>  0 0.47797659E+03</rscale>
<asrwt>0</asrwt>
<pdfrwt beam="1">  1        2 0.26675354E+00 0.47797659E+03</pdfrwt>
<pdfrwt beam="2">  1       -2 0.50677636E-02 0.47797659E+03</pdfrwt>
<totfact> 0.19497092E+03</totfact>
</mgrwt>
</event>
<event>
 4    1  0.8877834E-005  0.3872716E+03  0.7818608E-02  0.1048278E+00
          2   -1    0    0  501    0  0.00000000000E+00  0.00000000000E+00  0.60834085070E+03  0.60834085070E+03  0.25500000000E-02 0.  1.
         -2   -1    0    0    0  501 -0.00000000000E+00 -0.00000000000E+00 -0.61634557031E+02  0.61634557084E+02  0.25500000000E-02 0. -1.
    5000001    1    1    2    0    0  0.37483204683E+02  0.93617431612E+02  0.25600103014E+03  0.32082821192E+03  0.16500000000E+03 0.  0.
   -5000001    1    1    2    0    0 -0.37483204683E+02 -0.93617431612E+02  0.29070526353E+03  0.34914719586E+03  0.16500000000E+03 0.  0.
<mgrwt>
<rscale>  0 0.38727158E+03</rscale>
<asrwt>0</asrwt>
<pdfrwt beam="1">  1        2 0.93590899E-01 0.38727158E+03</pdfrwt>
<pdfrwt beam="2">  1       -2 0.94822396E-02 0.38727158E+03</pdfrwt>
<totfact> 0.36060353E+03</totfact>
</mgrwt>
</event>
<event>
 4    1  0.8877834E-005  0.8203010E+03  0.7818608E-02  0.9531088E-01
         -2   -1    0    0    0  501 -0.00000000000E+00  0.00000000000E+00  0.68602244262E+02  0.68602244310E+02  0.25500000000E-02 0. -1.
          2   -1    0    0  501    0  0.00000000000E+00 -0.00000000000E+00 -0.24521566918E+04  0.24521566918E+04  0.25500000000E-02 0.  1.
    5000001    1    1    2    0    0  0.21547503145E+03 -0.21308289397E+03 -0.51040488905E+03  0.61609411590E+03  0.16500000000E+03 0.  0.
   -5000001    1    1    2    0    0 -0.21547503145E+03  0.21308289397E+03 -0.18731495585E+04  0.19046648202E+04  0.16500000000E+03 0.  0.
<mgrwt>
<rscale>  0 0.82030105E+03</rscale>
<asrwt>0</asrwt>
<pdfrwt beam="1">  1        2 0.37725481E+00 0.82030105E+03</pdfrwt>
<pdfrwt beam="2">  1       -2 0.10554193E-01 0.82030105E+03</pdfrwt>
<totfact> 0.24013444E+02</totfact>
</mgrwt>
</event>
<event>
 4    1  0.8877834E-005  0.3626332E+03  0.7818608E-02  0.1057546E+00
         -2   -1    0    0    0  501 -0.00000000000E+00  0.00000000000E+00  0.24721154614E+02  0.24721154746E+02  0.25500000000E-02 0. -1.
          2   -1    0    0  501    0  0.00000000000E+00 -0.00000000000E+00 -0.13298614094E+04  0.13298614094E+04  0.25500000000E-02 0.  1.
    5000001    1    1    2    0    0  0.34519249194E+02  0.58877373605E+02 -0.77025536079E+03  0.79068100048E+03  0.16500000000E+03 0.  0.
   -5000001    1    1    2    0    0 -0.34519249194E+02 -0.58877373605E+02 -0.53488489399E+03  0.56390156367E+03  0.16500000000E+03 0.  0.
<mgrwt>
<rscale>  0 0.36263320E+03</rscale>
<asrwt>0</asrwt>
<pdfrwt beam="1">  1        2 0.20459401E+00 0.36263320E+03</pdfrwt>
<pdfrwt beam="2">  1       -2 0.38032556E-02 0.36263320E+03</pdfrwt>
<totfact> 0.50264568E+03</totfact>
</mgrwt>
</event>
<event>
 4    1  0.8877834E-005  0.4516862E+03  0.7818608E-02  0.1027220E+00
         -2   -1    0    0    0  501 -0.00000000000E+00  0.00000000000E+00  0.77661660030E+03  0.77661660030E+03  0.25500000000E-02 0.  1.
          2   -1    0    0  501    0  0.00000000000E+00 -0.00000000000E+00 -0.65676045355E+02  0.65676045405E+02  0.25500000000E-02 0. -1.
    5000001    1    1    2    0    0 -0.59313861033E+02  0.12880982344E+03  0.24250125958E+03  0.32579436094E+03  0.16500000000E+03 0.  0.
   -5000001    1    1    2    0    0  0.59313861033E+02 -0.12880982344E+03  0.46843929536E+03  0.51649828477E+03  0.16500000000E+03 0.  0.
<mgrwt>
<rscale>  0 0.45168621E+03</rscale>
<asrwt>0</asrwt>
<pdfrwt beam="1">  1        2 0.10104007E-01 0.45168621E+03</pdfrwt>
<pdfrwt beam="2">  1       -2 0.11947947E+00 0.45168621E+03</pdfrwt>
<totfact> 0.35628312E+02</totfact>
</mgrwt>
</event>
<event>
 4    1  0.8877834E-005  0.7177628E+03  0.7818608E-02  0.9687329E-01
         -2   -1    0    0    0  501 -0.00000000000E+00  0.00000000000E+00  0.10720102664E+04  0.10720102664E+04  0.25500000000E-02 0. -1.
          2   -1    0    0  501    0  0.00000000000E+00 -0.00000000000E+00 -0.12014423571E+03  0.12014423574E+03  0.25500000000E-02 0.  1.
    5000001    1    1    2    0    0  0.28196443116E+03 -0.15429970352E+02  0.23053738095E+03  0.40014310995E+03  0.16500000000E+03 0.  0.
   -5000001    1    1    2    0    0 -0.28196443116E+03  0.15429970352E+02  0.72132864972E+03  0.79201139217E+03  0.16500000000E+03 0.  0.
<mgrwt>
<rscale>  0 0.71776279E+03</rscale>
<asrwt>0</asrwt>
<pdfrwt beam="1">  1        2 0.18483728E-01 0.71776279E+03</pdfrwt>
<pdfrwt beam="2">  1       -2 0.16492466E+00 0.71776279E+03</pdfrwt>
<totfact> 0.73315486E+01</totfact>
</mgrwt>
</event>
<event>
 4    1  0.8877834E-005  0.4023760E+03  0.7818608E-02  0.1042960E+00
         -2   -1    0    0    0  501 -0.00000000000E+00  0.00000000000E+00  0.23437844550E+02  0.23437844689E+02  0.25500000000E-02 0. -1.
          2   -1    0    0  501    0  0.00000000000E+00 -0.00000000000E+00 -0.17269765766E+04  0.17269765766E+04  0.25500000000E-02 0.  1.
    5000001    1    1    2    0    0 -0.95310690956E+02  0.23310428464E+02 -0.11136535079E+04  0.11300781564E+04  0.16500000000E+03 0.  0.
   -5000001    1    1    2    0    0  0.95310690956E+02 -0.23310428464E+02 -0.58988522418E+03  0.62033626493E+03  0.16500000000E+03 0.  0.
<mgrwt>
<rscale>  0 0.40237599E+03</rscale>
<asrwt>0</asrwt>
<pdfrwt beam="1">  1        2 0.26568860E+00 0.40237599E+03</pdfrwt>
<pdfrwt beam="2">  1       -2 0.36058236E-02 0.40237599E+03</pdfrwt>
<totfact> 0.33173796E+03</totfact>
</mgrwt>
</event>
<event>
 4    1  0.8877834E-005  0.5030176E+03  0.7818608E-02  0.1012994E+00
          2   -1    0    0  501    0  0.00000000000E+00  0.00000000000E+00  0.32359765745E+03  0.32359765746E+03  0.25500000000E-02 0.  1.
         -2   -1    0    0    0  501 -0.00000000000E+00 -0.00000000000E+00 -0.19547936999E+03  0.19547937001E+03  0.25500000000E-02 0. -1.
    5000001    1    1    2    0    0 -0.99995978743E+02 -0.12100649898E+03  0.17418988800E+03  0.28672091944E+03  0.16500000000E+03 0.  0.
   -5000001    1    1    2    0    0  0.99995978743E+02  0.12100649898E+03 -0.46071600547E+02  0.23235610803E+03  0.16500000000E+03 0.  0.
<mgrwt>
<rscale>  0 0.50301756E+03</rscale>
<asrwt>0</asrwt>
<pdfrwt beam="1">  1        2 0.49784255E-01 0.50301756E+03</pdfrwt>
<pdfrwt beam="2">  1       -2 0.30073749E-01 0.50301756E+03</pdfrwt>
<totfact> 0.10308975E+03</totfact>
</mgrwt>
</event>
<event>
 4    1  0.8877834E-005  0.5713814E+03  0.7818608E-02  0.9966626E-01
          2   -1    0    0  501    0  0.00000000000E+00  0.00000000000E+00  0.22584670137E+03  0.22584670138E+03  0.25500000000E-02 0.  1.
         -2   -1    0    0    0  501 -0.00000000000E+00 -0.00000000000E+00 -0.36139190339E+03  0.36139190339E+03  0.25500000000E-02 0. -1.
    5000001    1    1    2    0    0  0.22790871909E+03  0.12744628067E+02 -0.18597471139E+02  0.28226880046E+03  0.16500000000E+03 0.  0.
   -5000001    1    1    2    0    0 -0.22790871909E+03 -0.12744628067E+02 -0.11694773088E+03  0.30496980431E+03  0.16500000000E+03 0.  0.
<mgrwt>
<rscale>  0 0.57138138E+03</rscale>
<asrwt>0</asrwt>
<pdfrwt beam="1">  1        2 0.34745646E-01 0.57138138E+03</pdfrwt>
<pdfrwt beam="2">  1       -2 0.55598754E-01 0.57138138E+03</pdfrwt>
<totfact> 0.46246922E+02</totfact>
</mgrwt>
</event>
<event>
 4    1  0.8877834E-005  0.1145568E+04  0.7818608E-02  0.9161882E-01
          2   -1    0    0  501    0  0.00000000000E+00  0.00000000000E+00  0.15190883052E+04  0.15190883052E+04  0.25500000000E-02 0.  1.
         -2   -1    0    0    0  501 -0.00000000000E+00 -0.00000000000E+00 -0.21597277743E+03  0.21597277744E+03  0.25500000000E-02 0. -1.
    5000001    1    1    2    0    0  0.10358809287E+03  0.45919481935E+03  0.22513716704E+03  0.54726786777E+03  0.16500000000E+03 0.  0.
   -5000001    1    1    2    0    0 -0.10358809287E+03 -0.45919481935E+03  0.10779783607E+04  0.11877932149E+04  0.16500000000E+03 0.  0.
<mgrwt>
<rscale>  0 0.11455684E+04</rscale>
<asrwt>0</asrwt>
<pdfrwt beam="1">  1        2 0.23370589E+00 0.11455684E+04</pdfrwt>
<pdfrwt beam="2">  1       -2 0.33226582E-01 0.11455684E+04</pdfrwt>
<totfact> 0.10365248E+02</totfact>
</mgrwt>
</event>
<event>
 4    1  0.8877834E-005  0.4124359E+03  0.7818608E-02  0.1039557E+00
          2   -1    0    0  501    0  0.00000000000E+00  0.00000000000E+00  0.21885562696E+04  0.21885562696E+04  0.25500000000E-02 0.  1.
         -2   -1    0    0    0  501 -0.00000000000E+00 -0.00000000000E+00 -0.19430998995E+02  0.19430999162E+02  0.25500000000E-02 0. -1.
    5000001    1    1    2    0    0  0.72716074938E+02  0.86198170635E+02  0.13566505796E+04  0.13712926556E+04  0.16500000000E+03 0.  0.
   -5000001    1    1    2    0    0 -0.72716074938E+02 -0.86198170635E+02  0.81247469106E+03  0.83669461322E+03  0.16500000000E+03 0.  0.
<mgrwt>
<rscale>  0 0.41243586E+03</rscale>
<asrwt>0</asrwt>
<pdfrwt beam="1">  1        2 0.33670077E+00 0.41243586E+03</pdfrwt>
<pdfrwt beam="2">  1       -2 0.29893862E-02 0.41243586E+03</pdfrwt>
<totfact> 0.24933738E+03</totfact>
</mgrwt>
</event>
<event>
 4    1  0.8877834E-005  0.5014454E+03  0.7818608E-02  0.1013402E+00
         -2   -1    0    0    0  501 -0.00000000000E+00  0.00000000000E+00  0.20903191451E+03  0.20903191453E+03  0.25500000000E-02 0. -1.
          2   -1    0    0  501    0  0.00000000000E+00 -0.00000000000E+00 -0.30072859737E+03  0.30072859738E+03  0.25500000000E-02 0.  1.
    5000001    1    1    2    0    0 -0.19530204151E+02 -0.16176594485E+03  0.51059331315E+02  0.23744832090E+03  0.16500000000E+03 0.  0.
   -5000001    1    1    2    0    0  0.19530204151E+02  0.16176594485E+03 -0.14275601417E+03  0.27231219100E+03  0.16500000000E+03 0.  0.
<mgrwt>
<rscale>  0 0.50144541E+03</rscale>
<asrwt>0</asrwt>
<pdfrwt beam="1">  1        2 0.46265938E-01 0.50144541E+03</pdfrwt>
<pdfrwt beam="2">  1       -2 0.32158756E-01 0.50144541E+03</pdfrwt>
<totfact> 0.98691622E+02</totfact>
</mgrwt>
</event>
<event>
 4    1  0.8877834E-005  0.6277878E+03  0.7818608E-02  0.9849375E-01
          2   -1    0    0  501    0  0.00000000000E+00  0.00000000000E+00  0.35690910103E+03  0.35690910104E+03  0.25500000000E-02 0.  1.
         -2   -1    0    0    0  501 -0.00000000000E+00 -0.00000000000E+00 -0.27606296668E+03  0.27606296669E+03  0.25500000000E-02 0. -1.
    5000001    1    1    2    0    0 -0.19727159530E+03  0.14091766439E+03 -0.72441110207E+02  0.30207049657E+03  0.16500000000E+03 0.  0.
   -5000001    1    1    2    0    0  0.19727159530E+03 -0.14091766439E+03  0.15328724456E+03  0.33090157116E+03  0.16500000000E+03 0.  0.
<mgrwt>
<rscale>  0 0.62778782E+03</rscale>
<asrwt>0</asrwt>
<pdfrwt beam="1">  1        2 0.54909092E-01 0.62778782E+03</pdfrwt>
<pdfrwt beam="2">  1       -2 0.42471226E-01 0.62778782E+03</pdfrwt>
<totfact> 0.47906020E+02</totfact>
</mgrwt>
</event>
<event>
 4    1  0.8877834E-005  0.3781768E+03  0.7818608E-02  0.1051610E+00
          2   -1    0    0  501    0  0.00000000000E+00  0.00000000000E+00  0.10691129518E+04  0.10691129518E+04  0.25500000000E-02 0.  1.
         -2   -1    0    0    0  501 -0.00000000000E+00 -0.00000000000E+00 -0.33443079944E+02  0.33443080042E+02  0.25500000000E-02 0. -1.
    5000001    1    1    2    0    0  0.62139197770E+02  0.50940588306E+02  0.65058264323E+03  0.67597263192E+03  0.16500000000E+03 0.  0.
   -5000001    1    1    2    0    0 -0.62139197770E+02 -0.50940588306E+02  0.38508722860E+03  0.42658339990E+03  0.16500000000E+03 0.  0.
<mgrwt>
<rscale>  0 0.37817684E+03</rscale>
<asrwt>0</asrwt>
<pdfrwt beam="1">  1        2 0.16447890E+00 0.37817684E+03</pdfrwt>
<pdfrwt beam="2">  1       -2 0.51450898E-02 0.37817684E+03</pdfrwt>
<totfact> 0.44859839E+03</totfact>
</mgrwt>
</event>
<event>
 4    1  0.8877834E-005  0.4615140E+03  0.7818608E-02  0.1024343E+00
         -2   -1    0    0    0  501 -0.00000000000E+00  0.00000000000E+00  0.44593561393E+02  0.44593561466E+02  0.25500000000E-02 0. -1.
          2   -1    0    0  501    0  0.00000000000E+00 -0.00000000000E+00 -0.11940916262E+04  0.11940916262E+04  0.25500000000E-02 0.  1.
    5000001    1    1    2    0    0  0.24156549544E+02  0.14227721315E+03 -0.38125330886E+03  0.43977884190E+03  0.16500000000E+03 0.  0.
   -5000001    1    1    2    0    0 -0.24156549544E+02 -0.14227721315E+03 -0.76824475599E+03  0.79890634581E+03  0.16500000000E+03 0.  0.
<mgrwt>
<rscale>  0 0.46151402E+03</rscale>
<asrwt>0</asrwt>
<pdfrwt beam="1">  1        2 0.18370638E+00 0.46151402E+03</pdfrwt>
<pdfrwt beam="2">  1       -2 0.68605488E-02 0.46151402E+03</pdfrwt>
<totfact> 0.24217779E+03</totfact>
</mgrwt>
</event>
<event>
 4    1  0.8877834E-005  0.4426927E+03  0.7818608E-02  0.1029924E+00
         -2   -1    0    0    0  501 -0.00000000000E+00  0.00000000000E+00  0.19838525405E+02  0.19838525569E+02  0.25500000000E-02 0. -1.
          2   -1    0    0  501    0  0.00000000000E+00 -0.00000000000E+00 -0.24696497534E+04  0.24696497534E+04  0.25500000000E-02 0.  1.
    5000001    1    1    2    0    0 -0.10974025897E+03 -0.86535232605E+02 -0.14909363412E+04  0.15065349131E+04  0.16500000000E+03 0.  0.
   -5000001    1    1    2    0    0  0.10974025897E+03  0.86535232605E+02 -0.95887488674E+03  0.98295336581E+03  0.16500000000E+03 0.  0.
<mgrwt>
<rscale>  0 0.44269271E+03</rscale>
<asrwt>0</asrwt>
<pdfrwt beam="1">  1        2 0.37994587E+00 0.44269271E+03</pdfrwt>
<pdfrwt beam="2">  1       -2 0.30520828E-02 0.44269271E+03</pdfrwt>
<totfact> 0.16927545E+03</totfact>
</mgrwt>
</event>
<event>
 4    1  0.8877834E-005  0.4312177E+03  0.7818608E-02  0.1033476E+00
          2   -1    0    0  501    0  0.00000000000E+00  0.00000000000E+00  0.16080288096E+04  0.16080288096E+04  0.25500000000E-02 0.  1.
         -2   -1    0    0    0  501 -0.00000000000E+00 -0.00000000000E+00 -0.28909411061E+02  0.28909411173E+02  0.25500000000E-02 0. -1.
    5000001    1    1    2    0    0  0.12178196627E+03 -0.63651390314E+02  0.71557801964E+03  0.74710056150E+03  0.16500000000E+03 0.  0.
   -5000001    1    1    2    0    0 -0.12178196627E+03  0.63651390314E+02  0.86354137893E+03  0.88983765931E+03  0.16500000000E+03 0.  0.
<mgrwt>
<rscale>  0 0.43121765E+03</rscale>
<asrwt>0</asrwt>
<pdfrwt beam="1">  1        2 0.24738915E+00 0.43121765E+03</pdfrwt>
<pdfrwt beam="2">  1       -2 0.44475999E-02 0.43121765E+03</pdfrwt>
<totfact> 0.27899064E+03</totfact>
</mgrwt>
</event>
<event>
 4    1  0.8877834E-005  0.5846298E+03  0.7818608E-02  0.9937818E-01
          2   -1    0    0  501    0  0.00000000000E+00  0.00000000000E+00  0.11563515062E+04  0.11563515062E+04  0.25500000000E-02 0.  1.
         -2   -1    0    0    0  501 -0.00000000000E+00 -0.00000000000E+00 -0.73894492912E+02  0.73894492956E+02  0.25500000000E-02 0. -1.
    5000001    1    1    2    0    0  0.21207382404E+03  0.77710659572E+02  0.71989417950E+03  0.77232563283E+03  0.16500000000E+03 0.  0.
   -5000001    1    1    2    0    0 -0.21207382404E+03 -0.77710659572E+02  0.36256283379E+03  0.45792036633E+03  0.16500000000E+03 0.  0.
<mgrwt>
<rscale>  0 0.58462983E+03</rscale>
<asrwt>0</asrwt>
<pdfrwt beam="1">  1        2 0.17790022E+00 0.58462983E+03</pdfrwt>
<pdfrwt beam="2">  1       -2 0.11368384E-01 0.58462983E+03</pdfrwt>
<totfact> 0.11319714E+03</totfact>
</mgrwt>
</event>
<event>
 4    1  0.8877834E-005  0.1426310E+04  0.7818608E-02  0.8934991E-01
         -2   -1    0    0    0  501 -0.00000000000E+00  0.00000000000E+00  0.13241729737E+03  0.13241729740E+03  0.25500000000E-02 0. -1.
          2   -1    0    0  501    0  0.00000000000E+00 -0.00000000000E+00 -0.38408137772E+04  0.38408137772E+04  0.25500000000E-02 0.  1.
    5000001    1    1    2    0    0  0.42679806478E+03  0.50417610857E+03 -0.12631693909E+04  0.14349815493E+04  0.16500000000E+03 0.  0.
   -5000001    1    1    2    0    0 -0.42679806478E+03 -0.50417610857E+03 -0.24452270889E+04  0.25382495254E+04  0.16500000000E+03 0.  0.
<mgrwt>
<rscale>  0 0.14263102E+04</rscale>
<asrwt>0</asrwt>
<pdfrwt beam="1">  1        2 0.59089434E+00 0.14263102E+04</pdfrwt>
<pdfrwt beam="2">  1       -2 0.20371895E-01 0.14263102E+04</pdfrwt>
<totfact> 0.94033421E+00</totfact>
</mgrwt>
</event>
<event>
 4    1  0.8877834E-005  0.4852351E+03  0.7818608E-02  0.1017706E+00
         -2   -1    0    0    0  501 -0.00000000000E+00  0.00000000000E+00  0.44636857952E+02  0.44636858025E+02  0.25500000000E-02 0. -1.
          2   -1    0    0  501    0  0.00000000000E+00 -0.00000000000E+00 -0.13187144873E+04  0.13187144873E+04  0.25500000000E-02 0.  1.
    5000001    1    1    2    0    0 -0.13288894852E+03  0.40246162960E+02 -0.94939352210E+03  0.97357705708E+03  0.16500000000E+03 0.  0.
   -5000001    1    1    2    0    0  0.13288894852E+03 -0.40246162960E+02 -0.32468410720E+03  0.38977428820E+03  0.16500000000E+03 0.  0.
<mgrwt>
<rscale>  0 0.48523508E+03</rscale>
<asrwt>0</asrwt>
<pdfrwt beam="1">  1        2 0.20287912E+00 0.48523508E+03</pdfrwt>
<pdfrwt beam="2">  1       -2 0.68672099E-02 0.48523508E+03</pdfrwt>
<totfact> 0.20506184E+03</totfact>
</mgrwt>
</event>
<event>
 4    1  0.8877834E-005  0.4175543E+03  0.7818608E-02  0.1037865E+00
         -2   -1    0    0    0  501 -0.00000000000E+00  0.00000000000E+00  0.21377828126E+02  0.21377828278E+02  0.25500000000E-02 0. -1.
          2   -1    0    0  501    0  0.00000000000E+00 -0.00000000000E+00 -0.20389297064E+04  0.20389297064E+04  0.25500000000E-02 0.  1.
    5000001    1    1    2    0    0  0.10183645949E+03 -0.77069557709E+02 -0.10445304583E+04  0.10651663060E+04  0.16500000000E+03 0.  0.
   -5000001    1    1    2    0    0 -0.10183645949E+03  0.77069557709E+02 -0.97302141994E+03  0.99514122861E+03  0.16500000000E+03 0.  0.
<mgrwt>
<rscale>  0 0.41755426E+03</rscale>
<asrwt>0</asrwt>
<pdfrwt beam="1">  1        2 0.31368134E+00 0.41755426E+03</pdfrwt>
<pdfrwt beam="2">  1       -2 0.32888982E-02 0.41755426E+03</pdfrwt>
<totfact> 0.25972431E+03</totfact>
</mgrwt>
</event>
<event>
 4    1  0.8877834E-005  0.3651501E+03  0.7818608E-02  0.1056563E+00
         -2   -1    0    0    0  501 -0.00000000000E+00  0.00000000000E+00  0.74292373208E+01  0.74292377584E+01  0.25500000000E-02 0. -1.
          2   -1    0    0  501    0  0.00000000000E+00 -0.00000000000E+00 -0.44868205750E+04  0.44868205750E+04  0.25500000000E-02 0.  1.
    5000001    1    1    2    0    0  0.19050116723E+02  0.23845809869E+02 -0.13541109420E+04  0.13644680183E+04  0.16500000000E+03 0.  0.
   -5000001    1    1    2    0    0 -0.19050116723E+02 -0.23845809869E+02 -0.31252803956E+04  0.31297817945E+04  0.16500000000E+03 0.  0.
<mgrwt>
<rscale>  0 0.36515014E+03</rscale>
<asrwt>0</asrwt>
<pdfrwt beam="1">  1        2 0.69027792E+00 0.36515014E+03</pdfrwt>
<pdfrwt beam="2">  1       -2 0.11429632E-02 0.36515014E+03</pdfrwt>
<totfact> 0.29813770E+02</totfact>
</mgrwt>
</event>
<event>
 4    1  0.8877834E-005  0.8049455E+03  0.7818608E-02  0.9552886E-01
          2   -1    0    0  501    0  0.00000000000E+00  0.00000000000E+00  0.34143310768E+04  0.34143310768E+04  0.25500000000E-02 0.  1.
         -2   -1    0    0    0  501 -0.00000000000E+00 -0.00000000000E+00 -0.47442472428E+02  0.47442472497E+02  0.25500000000E-02 0. -1.
    5000001    1    1    2    0    0  0.19463634721E+03  0.31013528190E+03  0.17965850173E+04  0.18409263769E+04  0.16500000000E+03 0.  0.
   -5000001    1    1    2    0    0 -0.19463634721E+03 -0.31013528190E+03  0.15703035870E+04  0.16208471724E+04  0.16500000000E+03 0.  0.
<mgrwt>
<rscale>  0 0.80494548E+03</rscale>
<asrwt>0</asrwt>
<pdfrwt beam="1">  1        2 0.52528179E+00 0.80494548E+03</pdfrwt>
<pdfrwt beam="2">  1       -2 0.72988408E-02 0.80494548E+03</pdfrwt>
<totfact> 0.11303891E+02</totfact>
</mgrwt>
</event>
<event>
 4    1  0.8877834E-005  0.1099247E+04  0.7818608E-02  0.9205926E-01
         -2   -1    0    0    0  501 -0.00000000000E+00  0.00000000000E+00  0.28751857173E+03  0.28751857174E+03  0.25500000000E-02 0. -1.
          2   -1    0    0  501    0  0.00000000000E+00 -0.00000000000E+00 -0.10506659151E+04  0.10506659151E+04  0.25500000000E-02 0.  1.
    5000001    1    1    2    0    0 -0.49637022853E+03  0.99984127374E+02 -0.21608040522E+03  0.57471381662E+03  0.16500000000E+03 0.  0.
   -5000001    1    1    2    0    0  0.49637022853E+03 -0.99984127374E+02 -0.54706693818E+03  0.76347067026E+03  0.16500000000E+03 0.  0.
<mgrwt>
<rscale>  0 0.10992469E+04</rscale>
<asrwt>0</asrwt>
<pdfrwt beam="1">  1        2 0.16164091E+00 0.10992469E+04</pdfrwt>
<pdfrwt beam="2">  1       -2 0.44233627E-01 0.10992469E+04</pdfrwt>
<totfact> 0.11248397E+02</totfact>
</mgrwt>
</event>
<event>
 4    1  0.8877834E-005  0.3783070E+03  0.7818608E-02  0.1051561E+00
          2   -1    0    0  501    0  0.00000000000E+00  0.00000000000E+00  0.12685018806E+04  0.12685018806E+04  0.25500000000E-02 0.  1.
         -2   -1    0    0    0  501 -0.00000000000E+00 -0.00000000000E+00 -0.28205749582E+02  0.28205749697E+02  0.25500000000E-02 0. -1.
    5000001    1    1    2    0    0  0.10200349709E+02 -0.91767007088E+02  0.63854784319E+03  0.66595313556E+03  0.16500000000E+03 0.  0.
   -5000001    1    1    2    0    0 -0.10200349709E+02  0.91767007088E+02  0.60174828780E+03  0.63075449471E+03  0.16500000000E+03 0.  0.
<mgrwt>
<rscale>  0 0.37830700E+03</rscale>
<asrwt>0</asrwt>
<pdfrwt beam="1">  1        2 0.19515414E+00 0.37830700E+03</pdfrwt>
<pdfrwt beam="2">  1       -2 0.43393460E-02 0.37830700E+03</pdfrwt>
<totfact> 0.44549464E+03</totfact>
</mgrwt>
</event>
<event>
 4    1  0.8877834E-005  0.4553961E+03  0.7818608E-02  0.1026125E+00
         -2   -1    0    0    0  501 -0.00000000000E+00  0.00000000000E+00  0.43654862742E+03  0.43654862743E+03  0.25500000000E-02 0. -1.
          2   -1    0    0  501    0  0.00000000000E+00 -0.00000000000E+00 -0.11876433863E+03  0.11876433866E+03  0.25500000000E-02 0.  1.
    5000001    1    1    2    0    0 -0.11365027712E+03  0.10735342555E+03  0.14252002682E+03  0.26828734878E+03  0.16500000000E+03 0.  0.
   -5000001    1    1    2    0    0  0.11365027712E+03 -0.10735342555E+03  0.17526426197E+03  0.28702561731E+03  0.16500000000E+03 0.  0.
<mgrwt>
<rscale>  0 0.45539613E+03</rscale>
<asrwt>0</asrwt>
<pdfrwt beam="1">  1        2 0.18271437E-01 0.45539613E+03</pdfrwt>
<pdfrwt beam="2">  1       -2 0.67161327E-01 0.45539613E+03</pdfrwt>
<totfact> 0.64716341E+02</totfact>
</mgrwt>
</event>
<event>
 4    1  0.8877834E-005  0.4860059E+03  0.7818608E-02  0.1017498E+00
         -2   -1    0    0    0  501 -0.00000000000E+00  0.00000000000E+00  0.44071934849E+02  0.44071934923E+02  0.25500000000E-02 0. -1.
          2   -1    0    0  501    0  0.00000000000E+00 -0.00000000000E+00 -0.13398648291E+04  0.13398648291E+04  0.25500000000E-02 0.  1.
    5000001    1    1    2    0    0 -0.82400914176E+02  0.15539433338E+03 -0.56303469559E+03  0.61251153291E+03  0.16500000000E+03 0.  0.
   -5000001    1    1    2    0    0  0.82400914176E+02 -0.15539433338E+03 -0.73275819871E+03  0.77142523117E+03  0.16500000000E+03 0.  0.
<mgrwt>
<rscale>  0 0.48600591E+03</rscale>
<asrwt>0</asrwt>
<pdfrwt beam="1">  1        2 0.20613302E+00 0.48600591E+03</pdfrwt>
<pdfrwt beam="2">  1       -2 0.67802987E-02 0.48600591E+03</pdfrwt>
<totfact> 0.20353526E+03</totfact>
</mgrwt>
</event>
<event>
 4    1  0.8877834E-005  0.7188890E+03  0.7818608E-02  0.9685464E-01
          2   -1    0    0  501    0  0.00000000000E+00  0.00000000000E+00  0.15213976362E+04  0.15213976362E+04  0.25500000000E-02 0.  1.
         -2   -1    0    0    0  501 -0.00000000000E+00 -0.00000000000E+00 -0.84922133592E+02  0.84922133631E+02  0.25500000000E-02 0. -1.
    5000001    1    1    2    0    0  0.15315453094E+03  0.25465883379E+03  0.97946658408E+03  0.10367676795E+04  0.16500000000E+03 0.  0.
   -5000001    1    1    2    0    0 -0.15315453094E+03 -0.25465883379E+03  0.45700891856E+03  0.56955209035E+03  0.16500000000E+03 0.  0.
<mgrwt>
<rscale>  0 0.71888896E+03</rscale>
<asrwt>0</asrwt>
<pdfrwt beam="1">  1        2 0.23406117E+00 0.71888896E+03</pdfrwt>
<pdfrwt beam="2">  1       -2 0.13064944E-01 0.71888896E+03</pdfrwt>
<totfact> 0.55343257E+02</totfact>
</mgrwt>
</event>
<event>
 4    1  0.8877834E-005  0.4684779E+03  0.7818608E-02  0.1022351E+00
         -2   -1    0    0    0  501 -0.00000000000E+00  0.00000000000E+00  0.22967686305E+02  0.22967686447E+02  0.25500000000E-02 0. -1.
          2   -1    0    0  501    0  0.00000000000E+00 -0.00000000000E+00 -0.23889168623E+04  0.23889168623E+04  0.25500000000E-02 0.  1.
    5000001    1    1    2    0    0  0.11873962231E+03 -0.98045460257E+02 -0.86019025964E+03  0.88930551160E+03  0.16500000000E+03 0.  0.
   -5000001    1    1    2    0    0 -0.11873962231E+03  0.98045460257E+02 -0.15057589164E+04  0.15225790372E+04  0.16500000000E+03 0.  0.
<mgrwt>
<rscale>  0 0.46847793E+03</rscale>
<asrwt>0</asrwt>
<pdfrwt beam="1">  1        2 0.36752548E+00 0.46847793E+03</pdfrwt>
<pdfrwt beam="2">  1       -2 0.35334921E-02 0.46847793E+03</pdfrwt>
<totfact> 0.14998407E+03</totfact>
</mgrwt>
</event>
<event>
 4    1  0.8877834E-005  0.5584315E+03  0.7818608E-02  0.9995610E-01
         -2   -1    0    0    0  501 -0.00000000000E+00  0.00000000000E+00  0.14198098929E+04  0.14198098929E+04  0.25500000000E-02 0. -1.
          2   -1    0    0  501    0  0.00000000000E+00 -0.00000000000E+00 -0.54909763863E+02  0.54909763922E+02  0.25500000000E-02 0.  1.
    5000001    1    1    2    0    0  0.57708333702E+02 -0.16187864768E+03  0.29792677280E+03  0.38147124440E+03  0.16500000000E+03 0.  0.
   -5000001    1    1    2    0    0 -0.57708333702E+02  0.16187864768E+03  0.10669733563E+04  0.10932484125E+04  0.16500000000E+03 0.  0.
<mgrwt>
<rscale>  0 0.55843147E+03</rscale>
<asrwt>0</asrwt>
<pdfrwt beam="1">  1        2 0.84476569E-02 0.55843147E+03</pdfrwt>
<pdfrwt beam="2">  1       -2 0.21843227E+00 0.55843147E+03</pdfrwt>
<totfact> 0.86181467E+01</totfact>
</mgrwt>
</event>
<event>
 4    1  0.8877834E-005  0.6969291E+03  0.7818608E-02  0.9722498E-01
          2   -1    0    0  501    0  0.00000000000E+00  0.00000000000E+00  0.22800711995E+04  0.22800711995E+04  0.25500000000E-02 0.  1.
         -2   -1    0    0    0  501 -0.00000000000E+00 -0.00000000000E+00 -0.53256027623E+02  0.53256027684E+02  0.25500000000E-02 0. -1.
    5000001    1    1    2    0    0 -0.14202559920E+03  0.25513639159E+03  0.79690642572E+03  0.86461014364E+03  0.16500000000E+03 0.  0.
   -5000001    1    1    2    0    0  0.14202559920E+03 -0.25513639159E+03  0.14299087462E+04  0.14687170835E+04  0.16500000000E+03 0.  0.
<mgrwt>
<rscale>  0 0.69692908E+03</rscale>
<asrwt>0</asrwt>
<pdfrwt beam="1">  1        2 0.35078024E+00 0.69692908E+03</pdfrwt>
<pdfrwt beam="2">  1       -2 0.81932338E-02 0.69692908E+03</pdfrwt>
<totfact> 0.45639983E+02</totfact>
</mgrwt>
</event>
<event>
 4    1  0.8877834E-005  0.5299294E+03  0.7818608E-02  0.1006249E+00
          2   -1    0    0  501    0  0.00000000000E+00  0.00000000000E+00  0.41926841929E+04  0.41926841929E+04  0.25500000000E-02 0.  1.
         -2   -1    0    0    0  501 -0.00000000000E+00 -0.00000000000E+00 -0.16744950381E+02  0.16744950575E+02  0.25500000000E-02 0. -1.
    5000001    1    1    2    0    0 -0.81017455417E+02  0.18878680344E+03  0.18665496392E+04  0.18850561904E+04  0.16500000000E+03 0.  0.
   -5000001    1    1    2    0    0  0.81017455417E+02 -0.18878680344E+03  0.23093896033E+04  0.23243729531E+04  0.16500000000E+03 0.  0.
<mgrwt>
<rscale>  0 0.52992939E+03</rscale>
<asrwt>0</asrwt>
<pdfrwt beam="1">  1        2 0.64502788E+00 0.52992939E+03</pdfrwt>
<pdfrwt beam="2">  1       -2 0.25761480E-02 0.52992939E+03</pdfrwt>
<totfact> 0.15576623E+02</totfact>
</mgrwt>
</event>
<event>
 4    1  0.8877834E-005  0.4429846E+03  0.7818608E-02  0.1029835E+00
         -2   -1    0    0    0  501 -0.00000000000E+00  0.00000000000E+00  0.53257959405E+02  0.53257959466E+02  0.25500000000E-02 0. -1.
          2   -1    0    0  501    0  0.00000000000E+00 -0.00000000000E+00 -0.92115496925E+03  0.92115496926E+03  0.25500000000E-02 0.  1.
    5000001    1    1    2    0    0  0.32242052251E+02 -0.13976846767E+03 -0.51199934080E+03  0.55672533575E+03  0.16500000000E+03 0.  0.
   -5000001    1    1    2    0    0 -0.32242052251E+02  0.13976846767E+03 -0.35589766904E+03  0.41768759297E+03  0.16500000000E+03 0.  0.
<mgrwt>
<rscale>  0 0.44298458E+03</rscale>
<asrwt>0</asrwt>
<pdfrwt beam="1">  1        2 0.14171614E+00 0.44298458E+03</pdfrwt>
<pdfrwt beam="2">  1       -2 0.81935329E-02 0.44298458E+03</pdfrwt>
<totfact> 0.26897138E+03</totfact>
</mgrwt>
</event>
<event>
 4    1  0.8877834E-005  0.8119637E+03  0.7818608E-02  0.9542860E-01
         -2   -1    0    0    0  501 -0.00000000000E+00  0.00000000000E+00  0.22052907772E+03  0.22052907773E+03  0.25500000000E-02 0. -1.
          2   -1    0    0  501    0  0.00000000000E+00 -0.00000000000E+00 -0.74739009190E+03  0.74739009190E+03  0.25500000000E-02 0.  1.
    5000001    1    1    2    0    0  0.75238834387E+02  0.33432361722E+03 -0.43270089178E+03  0.57609740928E+03  0.16500000000E+03 0.  0.
   -5000001    1    1    2    0    0 -0.75238834387E+02 -0.33432361722E+03 -0.94160122401E+02  0.39182176035E+03  0.16500000000E+03 0.  0.
<mgrwt>
<rscale>  0 0.81196366E+03</rscale>
<asrwt>0</asrwt>
<pdfrwt beam="1">  1        2 0.11498309E+00 0.81196366E+03</pdfrwt>
<pdfrwt beam="2">  1       -2 0.33927551E-01 0.81196366E+03</pdfrwt>
<totfact> 0.30767390E+02</totfact>
</mgrwt>
</event>
<event>
 4    1  0.8877834E-005  0.5592899E+03  0.7818608E-02  0.9993663E-01
         -2   -1    0    0    0  501 -0.00000000000E+00  0.00000000000E+00  0.53309760931E+02  0.53309760992E+02  0.25500000000E-02 0. -1.
          2   -1    0    0  501    0  0.00000000000E+00 -0.00000000000E+00 -0.14669224940E+04  0.14669224940E+04  0.25500000000E-02 0.  1.
    5000001    1    1    2    0    0 -0.20105189229E+03 -0.92092900996E+02 -0.83057378758E+03  0.87520328063E+03  0.16500000000E+03 0.  0.
   -5000001    1    1    2    0    0  0.20105189229E+03  0.92092900996E+02 -0.58303894544E+03  0.64502897431E+03  0.16500000000E+03 0.  0.
<mgrwt>
<rscale>  0 0.55928986E+03</rscale>
<asrwt>0</asrwt>
<pdfrwt beam="1">  1        2 0.22568035E+00 0.55928986E+03</pdfrwt>
<pdfrwt beam="2">  1       -2 0.82015028E-02 0.55928986E+03</pdfrwt>
<totfact> 0.12764069E+03</totfact>
</mgrwt>
</event>
<event>
 4    1  0.8877834E-005  0.4397693E+03  0.7818608E-02  0.1030818E+00
         -2   -1    0    0    0  501 -0.00000000000E+00  0.00000000000E+00  0.39107041031E+02  0.39107041115E+02  0.25500000000E-02 0. -1.
          2   -1    0    0  501    0  0.00000000000E+00 -0.00000000000E+00 -0.12363315754E+04  0.12363315754E+04  0.25500000000E-02 0.  1.
    5000001    1    1    2    0    0  0.96316092135E+02 -0.82347595904E+02 -0.80504680224E+03  0.83149460008E+03  0.16500000000E+03 0.  0.
   -5000001    1    1    2    0    0 -0.96316092135E+02  0.82347595904E+02 -0.39217773210E+03  0.44394401642E+03  0.16500000000E+03 0.  0.
<mgrwt>
<rscale>  0 0.43976935E+03</rscale>
<asrwt>0</asrwt>
<pdfrwt beam="1">  1        2 0.19020483E+00 0.43976935E+03</pdfrwt>
<pdfrwt beam="2">  1       -2 0.60164688E-02 0.43976935E+03</pdfrwt>
<totfact> 0.28110018E+03</totfact>
</mgrwt>
</event>
<event>
 4    1  0.8877834E-005  0.8132880E+03  0.7818608E-02  0.9540980E-01
          2   -1    0    0  501    0  0.00000000000E+00  0.00000000000E+00  0.32573231327E+04  0.32573231327E+04  0.25500000000E-02 0.  1.
         -2   -1    0    0    0  501 -0.00000000000E+00 -0.00000000000E+00 -0.50765414444E+02  0.50765414508E+02  0.25500000000E-02 0. -1.
    5000001    1    1    2    0    0 -0.18061282211E+03 -0.29286090024E+03  0.21748506315E+04  0.22080735422E+04  0.16500000000E+03 0.  0.
   -5000001    1    1    2    0    0  0.18061282211E+03  0.29286090024E+03  0.10317070867E+04  0.11000150050E+04  0.16500000000E+03 0.  0.
<mgrwt>
<rscale>  0 0.81328804E+03</rscale>
<asrwt>0</asrwt>
<pdfrwt beam="1">  1        2 0.50112667E+00 0.81328804E+03</pdfrwt>
<pdfrwt beam="2">  1       -2 0.78100632E-02 0.81328804E+03</pdfrwt>
<totfact> 0.12853987E+02</totfact>
</mgrwt>
</event>
<event>
 4    1  0.8877834E-005  0.5375450E+03  0.7818608E-02  0.1004419E+00
         -2   -1    0    0    0  501 -0.00000000000E+00  0.00000000000E+00  0.43131767966E+02  0.43131768041E+02  0.25500000000E-02 0. -1.
          2   -1    0    0  501    0  0.00000000000E+00 -0.00000000000E+00 -0.16748367379E+04  0.16748367380E+04  0.25500000000E-02 0.  1.
    5000001    1    1    2    0    0  0.20437444900E+03 -0.35774599792E+02 -0.67418371568E+03  0.72442903026E+03  0.16500000000E+03 0.  0.
   -5000001    1    1    2    0    0 -0.20437444900E+03  0.35774599792E+02 -0.95752125430E+03  0.99353947573E+03  0.16500000000E+03 0.  0.
<mgrwt>
<rscale>  0 0.53754505E+03</rscale>
<asrwt>0</asrwt>
<pdfrwt beam="1">  1        2 0.25766714E+00 0.53754505E+03</pdfrwt>
<pdfrwt beam="2">  1       -2 0.66356579E-02 0.53754505E+03</pdfrwt>
<totfact> 0.13751676E+03</totfact>
</mgrwt>
</event>
<event>
 4    1  0.8877834E-005  0.4873732E+03  0.7818608E-02  0.1017128E+00
          2   -1    0    0  501    0  0.00000000000E+00  0.00000000000E+00  0.89064154173E+03  0.89064154173E+03  0.25500000000E-02 0.  1.
         -2   -1    0    0    0  501 -0.00000000000E+00 -0.00000000000E+00 -0.66674595310E+02  0.66674595359E+02  0.25500000000E-02 0. -1.
    5000001    1    1    2    0    0  0.85676410791E+02 -0.24635852344E+02  0.71761504320E+03  0.74171674028E+03  0.16500000000E+03 0.  0.
   -5000001    1    1    2    0    0 -0.85676410791E+02  0.24635852344E+02  0.10635190322E+03  0.21559939681E+03  0.16500000000E+03 0.  0.
<mgrwt>
<rscale>  0 0.48737322E+03</rscale>
<asrwt>0</asrwt>
<pdfrwt beam="1">  1        2 0.13702177E+00 0.48737322E+03</pdfrwt>
<pdfrwt beam="2">  1       -2 0.10257630E-01 0.48737322E+03</pdfrwt>
<totfact> 0.19660601E+03</totfact>
</mgrwt>
</event>
<event>
 4    1  0.8877834E-005  0.5885484E+03  0.7818608E-02  0.9929453E-01
         -2   -1    0    0    0  501 -0.00000000000E+00  0.00000000000E+00  0.17599300044E+03  0.17599300046E+03  0.25500000000E-02 0. -1.
          2   -1    0    0  501    0  0.00000000000E+00 -0.00000000000E+00 -0.49204971371E+03  0.49204971372E+03  0.25500000000E-02 0.  1.
    5000001    1    1    2    0    0  0.16834281274E+03 -0.52843486139E+01  0.41837433424E+02  0.23946314492E+03  0.16500000000E+03 0.  0.
   -5000001    1    1    2    0    0 -0.16834281274E+03  0.52843486139E+01 -0.35789414670E+03  0.42857956925E+03  0.16500000000E+03 0.  0.
<mgrwt>
<rscale>  0 0.58854840E+03</rscale>
<asrwt>0</asrwt>
<pdfrwt beam="1">  1        2 0.75699956E-01 0.58854840E+03</pdfrwt>
<pdfrwt beam="2">  1       -2 0.27075846E-01 0.58854840E+03</pdfrwt>
<totfact> 0.78129494E+02</totfact>
</mgrwt>
</event>
<event>
 4    1  0.8877834E-005  0.4723448E+03  0.7818608E-02  0.1021260E+00
         -2   -1    0    0    0  501 -0.00000000000E+00  0.00000000000E+00  0.56831439482E+02  0.56831439539E+02  0.25500000000E-02 0. -1.
          2   -1    0    0  501    0  0.00000000000E+00 -0.00000000000E+00 -0.98145348130E+03  0.98145348130E+03  0.25500000000E-02 0.  1.
    5000001    1    1    2    0    0 -0.10109614048E+02  0.13565044622E+03 -0.24195628976E+03  0.32291034981E+03  0.16500000000E+03 0.  0.
   -5000001    1    1    2    0    0  0.10109614048E+02 -0.13565044622E+03 -0.68266575205E+03  0.71537457103E+03  0.16500000000E+03 0.  0.
<mgrwt>
<rscale>  0 0.47234485E+03</rscale>
<asrwt>0</asrwt>
<pdfrwt beam="1">  1        2 0.15099283E+00 0.47234485E+03</pdfrwt>
<pdfrwt beam="2">  1       -2 0.87432991E-02 0.47234485E+03</pdfrwt>
<totfact> 0.22189810E+03</totfact>
</mgrwt>
</event>
<event>
 4    1  0.8877834E-005  0.3952921E+03  0.7818608E-02  0.1045422E+00
         -2   -1    0    0    0  501 -0.00000000000E+00  0.00000000000E+00  0.18405412592E+03  0.18405412593E+03  0.25500000000E-02 0. -1.
          2   -1    0    0  501    0  0.00000000000E+00 -0.00000000000E+00 -0.21224171270E+03  0.21224171272E+03  0.25500000000E-02 0.  1.
    5000001    1    1    2    0    0  0.50735287577E+02 -0.68948079192E+02  0.53241145573E+02  0.19335854419E+03  0.16500000000E+03 0.  0.
   -5000001    1    1    2    0    0 -0.50735287577E+02  0.68948079192E+02 -0.81428732361E+02  0.20293729446E+03  0.16500000000E+03 0.  0.
<mgrwt>
<rscale>  0 0.39529211E+03</rscale>
<asrwt>0</asrwt>
<pdfrwt beam="1">  1        2 0.32652571E-01 0.39529211E+03</pdfrwt>
<pdfrwt beam="2">  1       -2 0.28316019E-01 0.39529211E+03</pdfrwt>
<totfact> 0.18264642E+03</totfact>
</mgrwt>
</event>
<event>
 4    1  0.8877834E-005  0.8912806E+03  0.7818608E-02  0.9436547E-01
          2   -1    0    0  501    0  0.00000000000E+00  0.00000000000E+00  0.11453752313E+04  0.11453752313E+04  0.25500000000E-02 0.  1.
         -2   -1    0    0    0  501 -0.00000000000E+00 -0.00000000000E+00 -0.17338885214E+03  0.17338885215E+03  0.25500000000E-02 0. -1.
    5000001    1    1    2    0    0 -0.31667016859E+03  0.15873761519E+03  0.16901870779E+03  0.42575808828E+03  0.16500000000E+03 0.  0.
   -5000001    1    1    2    0    0  0.31667016859E+03 -0.15873761519E+03  0.80296767140E+03  0.89300599520E+03  0.16500000000E+03 0.  0.
<mgrwt>
<rscale>  0 0.89128064E+03</rscale>
<asrwt>0</asrwt>
<pdfrwt beam="1">  1        2 0.17621158E+00 0.89128064E+03</pdfrwt>
<pdfrwt beam="2">  1       -2 0.26675207E-01 0.89128064E+03</pdfrwt>
<totfact> 0.26078093E+02</totfact>
</mgrwt>
</event>
<event>
 4    1  0.8877834E-005  0.5881716E+03  0.7818608E-02  0.9930255E-01
         -2   -1    0    0    0  501 -0.00000000000E+00  0.00000000000E+00  0.41037933053E+03  0.41037933054E+03  0.25500000000E-02 0. -1.
          2   -1    0    0  501    0  0.00000000000E+00 -0.00000000000E+00 -0.21074756766E+03  0.21074756768E+03  0.25500000000E-02 0.  1.
    5000001    1    1    2    0    0  0.17991131962E+03  0.32803593477E+02  0.26949625763E+03  0.36509915304E+03  0.16500000000E+03 0.  0.
   -5000001    1    1    2    0    0 -0.17991131962E+03 -0.32803593477E+02 -0.69864494765E+02  0.25602774518E+03  0.16500000000E+03 0.  0.
<mgrwt>
<rscale>  0 0.58817156E+03</rscale>
<asrwt>0</asrwt>
<pdfrwt beam="1">  1        2 0.32422703E-01 0.58817156E+03</pdfrwt>
<pdfrwt beam="2">  1       -2 0.63135282E-01 0.58817156E+03</pdfrwt>
<totfact> 0.38256439E+02</totfact>
</mgrwt>
</event>
<event>
 4    1  0.8877834E-005  0.3942204E+03  0.7818608E-02  0.1045800E+00
          2   -1    0    0  501    0  0.00000000000E+00  0.00000000000E+00  0.69298720522E+02  0.69298720569E+02  0.25500000000E-02 0.  1.
         -2   -1    0    0    0  501 -0.00000000000E+00 -0.00000000000E+00 -0.56065150464E+03  0.56065150465E+03  0.25500000000E-02 0. -1.
    5000001    1    1    2    0    0  0.72055947441E+02  0.58865931506E+02 -0.33276435211E+03  0.38290256135E+03  0.16500000000E+03 0.  0.
   -5000001    1    1    2    0    0 -0.72055947441E+02 -0.58865931506E+02 -0.15858843200E+03  0.24704766386E+03  0.16500000000E+03 0.  0.
<mgrwt>
<rscale>  0 0.39422041E+03</rscale>
<asrwt>0</asrwt>
<pdfrwt beam="1">  1        2 0.10661342E-01 0.39422041E+03</pdfrwt>
<pdfrwt beam="2">  1       -2 0.86254075E-01 0.39422041E+03</pdfrwt>
<totfact> 0.71654302E+02</totfact>
</mgrwt>
</event>
<event>
 4    1  0.8877834E-005  0.4962010E+03  0.7818608E-02  0.1014775E+00
         -2   -1    0    0    0  501 -0.00000000000E+00  0.00000000000E+00  0.95873098965E+02  0.95873098999E+02  0.25500000000E-02 0. -1.
          2   -1    0    0  501    0  0.00000000000E+00 -0.00000000000E+00 -0.64203473136E+03  0.64203473136E+03  0.25500000000E-02 0.  1.
    5000001    1    1    2    0    0 -0.34236265924E+01  0.11485140716E+03 -0.48923125553E+03  0.52893741438E+03  0.16500000000E+03 0.  0.
   -5000001    1    1    2    0    0  0.34236265924E+01 -0.11485140716E+03 -0.56930376862E+02  0.20897041598E+03  0.16500000000E+03 0.  0.
<mgrwt>
<rscale>  0 0.49620101E+03</rscale>
<asrwt>0</asrwt>
<pdfrwt beam="1">  1        2 0.98774571E-01 0.49620101E+03</pdfrwt>
<pdfrwt beam="2">  1       -2 0.14749708E-01 0.49620101E+03</pdfrwt>
<totfact> 0.16456379E+03</totfact>
</mgrwt>
</event>
<event>
 4    1  0.8877834E-005  0.5060657E+03  0.7818608E-02  0.1012208E+00
          2   -1    0    0  501    0  0.00000000000E+00  0.00000000000E+00  0.10438969677E+04  0.10438969677E+04  0.25500000000E-02 0.  1.
         -2   -1    0    0    0  501 -0.00000000000E+00 -0.00000000000E+00 -0.61333276663E+02  0.61333276716E+02  0.25500000000E-02 0. -1.
    5000001    1    1    2    0    0 -0.11272654115E+03 -0.11859536047E+03  0.70998931397E+03  0.74704883278E+03  0.16500000000E+03 0.  0.
   -5000001    1    1    2    0    0  0.11272654115E+03  0.11859536047E+03  0.27257437703E+03  0.35818141160E+03  0.16500000000E+03 0.  0.
<mgrwt>
<rscale>  0 0.50606569E+03</rscale>
<asrwt>0</asrwt>
<pdfrwt beam="1">  1        2 0.16059953E+00 0.50606569E+03</pdfrwt>
<pdfrwt beam="2">  1       -2 0.94358891E-02 0.50606569E+03</pdfrwt>
<totfact> 0.17946785E+03</totfact>
</mgrwt>
</event>
<event>
 4    1  0.8877834E-005  0.6495572E+03  0.7818608E-02  0.9807610E-01
         -2   -1    0    0    0  501 -0.00000000000E+00  0.00000000000E+00  0.10651175669E+04  0.10651175669E+04  0.25500000000E-02 0. -1.
          2   -1    0    0  501    0  0.00000000000E+00 -0.00000000000E+00 -0.99032394183E+02  0.99032394216E+02  0.25500000000E-02 0.  1.
    5000001    1    1    2    0    0 -0.38093806378E+02 -0.21189340643E+03  0.80317451120E+03  0.84774067332E+03  0.16500000000E+03 0.  0.
   -5000001    1    1    2    0    0  0.38093806378E+02  0.21189340643E+03  0.16291066154E+03  0.31640928782E+03  0.16500000000E+03 0.  0.
<mgrwt>
<rscale>  0 0.64955721E+03</rscale>
<asrwt>0</asrwt>
<pdfrwt beam="1">  1        2 0.15235752E-01 0.64955721E+03</pdfrwt>
<pdfrwt beam="2">  1       -2 0.16386425E+00 0.64955721E+03</pdfrwt>
<totfact> 0.94413017E+01</totfact>
</mgrwt>
</event>
<event>
 4    1  0.8877834E-005  0.5067050E+03  0.7818608E-02  0.1012043E+00
         -2   -1    0    0    0  501 -0.00000000000E+00  0.00000000000E+00  0.32350369320E+02  0.32350369420E+02  0.25500000000E-02 0. -1.
          2   -1    0    0  501    0  0.00000000000E+00 -0.00000000000E+00 -0.19841346026E+04  0.19841346026E+04  0.25500000000E-02 0.  1.
    5000001    1    1    2    0    0  0.40830765303E+02  0.17933803460E+03 -0.75313364586E+03  0.79263142164E+03  0.16500000000E+03 0.  0.
   -5000001    1    1    2    0    0 -0.40830765303E+02 -0.17933803460E+03 -0.11986505874E+04  0.12238535504E+04  0.16500000000E+03 0.  0.
<mgrwt>
<rscale>  0 0.50670499E+03</rscale>
<asrwt>0</asrwt>
<pdfrwt beam="1">  1        2 0.30525138E+00 0.50670499E+03</pdfrwt>
<pdfrwt beam="2">  1       -2 0.49769814E-02 0.50670499E+03</pdfrwt>
<totfact> 0.14689877E+03</totfact>
</mgrwt>
</event>
<event>
 4    1  0.8877834E-005  0.5491968E+03  0.7818608E-02  0.1001680E+00
          2   -1    0    0  501    0  0.00000000000E+00  0.00000000000E+00  0.44132306615E+03  0.44132306616E+03  0.25500000000E-02 0. -1.
         -2   -1    0    0    0  501 -0.00000000000E+00 -0.00000000000E+00 -0.17085956847E+03  0.17085956849E+03  0.25500000000E-02 0.  1.
    5000001    1    1    2    0    0  0.17584937854E+03  0.12376673329E+03  0.18430408157E+03  0.32777157090E+03  0.16500000000E+03 0.  0.
   -5000001    1    1    2    0    0 -0.17584937854E+03 -0.12376673329E+03  0.86159416100E+02  0.28441106375E+03  0.16500000000E+03 0.  0.
<mgrwt>
<rscale>  0 0.54919675E+03</rscale>
<asrwt>0</asrwt>
<pdfrwt beam="1">  1        2 0.67895856E-01 0.54919675E+03</pdfrwt>
<pdfrwt beam="2">  1       -2 0.26286087E-01 0.54919675E+03</pdfrwt>
<totfact> 0.93341354E+02</totfact>
</mgrwt>
</event>
<event>
 4    1  0.8877834E-005  0.5642091E+03  0.7818608E-02  0.9982575E-01
          2   -1    0    0  501    0  0.00000000000E+00  0.00000000000E+00  0.40008671765E+04  0.40008671765E+04  0.25500000000E-02 0.  1.
         -2   -1    0    0    0  501 -0.00000000000E+00 -0.00000000000E+00 -0.19891435145E+02  0.19891435308E+02  0.25500000000E-02 0. -1.
    5000001    1    1    2    0    0  0.13830044485E+03  0.18228018635E+03  0.20062803014E+04  0.20260154805E+04  0.16500000000E+03 0.  0.
   -5000001    1    1    2    0    0 -0.13830044485E+03 -0.18228018635E+03  0.19746954400E+04  0.19947431314E+04  0.16500000000E+03 0.  0.
<mgrwt>
<rscale>  0 0.56420915E+03</rscale>
<asrwt>0</asrwt>
<pdfrwt beam="1">  1        2 0.61551789E+00 0.56420915E+03</pdfrwt>
<pdfrwt beam="2">  1       -2 0.30602215E-02 0.56420915E+03</pdfrwt>
<totfact> 0.17044649E+02</totfact>
</mgrwt>
</event>
<event>
 4    1  0.8877834E-005  0.4141361E+03  0.7818608E-02  0.1038992E+00
         -2   -1    0    0    0  501 -0.00000000000E+00  0.00000000000E+00  0.11768465750E+02  0.11768466027E+02  0.25500000000E-02 0. -1.
          2   -1    0    0  501    0  0.00000000000E+00 -0.00000000000E+00 -0.36433950404E+04  0.36433950404E+04  0.25500000000E-02 0.  1.
    5000001    1    1    2    0    0 -0.37332834997E+02  0.92572709942E+02 -0.24815019360E+04  0.24889837897E+04  0.16500000000E+03 0.  0.
   -5000001    1    1    2    0    0  0.37332834997E+02 -0.92572709942E+02 -0.11501246387E+04  0.11661797167E+04  0.16500000000E+03 0.  0.
<mgrwt>
<rscale>  0 0.41413607E+03</rscale>
<asrwt>0</asrwt>
<pdfrwt beam="1">  1        2 0.56052142E+00 0.41413607E+03</pdfrwt>
<pdfrwt beam="2">  1       -2 0.18105361E-02 0.41413607E+03</pdfrwt>
<totfact> 0.70604179E+02</totfact>
</mgrwt>
</event>
<event>
 4    1  0.8877834E-005  0.4966995E+03  0.7818608E-02  0.1014644E+00
          2   -1    0    0  501    0  0.00000000000E+00  0.00000000000E+00  0.36181093079E+03  0.36181093080E+03  0.25500000000E-02 0.  1.
         -2   -1    0    0    0  501 -0.00000000000E+00 -0.00000000000E+00 -0.17046912298E+03  0.17046912300E+03  0.25500000000E-02 0. -1.
    5000001    1    1    2    0    0  0.12994867549E+03  0.84384068047E+02  0.20519411750E+03  0.30551097371E+03  0.16500000000E+03 0.  0.
   -5000001    1    1    2    0    0 -0.12994867549E+03 -0.84384068047E+02 -0.13852309690E+02  0.22676908009E+03  0.16500000000E+03 0.  0.
<mgrwt>
<rscale>  0 0.49669947E+03</rscale>
<asrwt>0</asrwt>
<pdfrwt beam="1">  1        2 0.55663219E-01 0.49669947E+03</pdfrwt>
<pdfrwt beam="2">  1       -2 0.26226019E-01 0.49669947E+03</pdfrwt>
<totfact> 0.11698060E+03</totfact>
</mgrwt>
</event>
<event>
 4    1  0.8877834E-005  0.3726378E+03  0.7818608E-02  0.1053689E+00
         -2   -1    0    0    0  501 -0.00000000000E+00  0.00000000000E+00  0.25105540915E+03  0.25105540916E+03  0.25500000000E-02 0. -1.
          2   -1    0    0  501    0  0.00000000000E+00 -0.00000000000E+00 -0.13827516376E+03  0.13827516378E+03  0.25500000000E-02 0.  1.
    5000001    1    1    2    0    0  0.38150527172E+02  0.75283990887E+02  0.76394242983E+02  0.20046002686E+03  0.16500000000E+03 0.  0.
   -5000001    1    1    2    0    0 -0.38150527172E+02 -0.75283990887E+02  0.36386002409E+02  0.18887054609E+03  0.16500000000E+03 0.  0.
<mgrwt>
<rscale>  0 0.37263777E+03</rscale>
<asrwt>0</asrwt>
<pdfrwt beam="1">  1        2 0.21273102E-01 0.37263777E+03</pdfrwt>
<pdfrwt beam="2">  1       -2 0.38623909E-01 0.37263777E+03</pdfrwt>
<totfact> 0.16579382E+03</totfact>
</mgrwt>
</event>
<event>
 4    1  0.8877834E-005  0.4628773E+03  0.7818608E-02  0.1023950E+00
         -2   -1    0    0    0  501 -0.00000000000E+00  0.00000000000E+00  0.75469341543E+02  0.75469341586E+02  0.25500000000E-02 0. -1.
          2   -1    0    0  501    0  0.00000000000E+00 -0.00000000000E+00 -0.70974305831E+03  0.70974305831E+03  0.25500000000E-02 0.  1.
    5000001    1    1    2    0    0 -0.71823578156E+02 -0.39685434777E+02 -0.55466104196E+03  0.58447192540E+03  0.16500000000E+03 0.  0.
   -5000001    1    1    2    0    0  0.71823578156E+02  0.39685434777E+02 -0.79612674806E+02  0.20074047450E+03  0.16500000000E+03 0.  0.
<mgrwt>
<rscale>  0 0.46287727E+03</rscale>
<asrwt>0</asrwt>
<pdfrwt beam="1">  1        2 0.10919123E+00 0.46287727E+03</pdfrwt>
<pdfrwt beam="2">  1       -2 0.11610668E-01 0.46287727E+03</pdfrwt>
<totfact> 0.21603708E+03</totfact>
</mgrwt>
</event>
<event>
 4    1  0.8877834E-005  0.1040142E+04  0.7818608E-02  0.9265581E-01
          2   -1    0    0  501    0  0.00000000000E+00  0.00000000000E+00  0.75031460640E+03  0.75031460641E+03  0.25500000000E-02 0.  1.
         -2   -1    0    0    0  501 -0.00000000000E+00 -0.00000000000E+00 -0.36048077017E+03  0.36048077018E+03  0.25500000000E-02 0. -1.
    5000001    1    1    2    0    0 -0.17606125151E+03 -0.17700758998E+03  0.64915578188E+03  0.71481289883E+03  0.16500000000E+03 0.  0.
   -5000001    1    1    2    0    0  0.17606125151E+03  0.17700758998E+03 -0.25932194564E+03  0.39598247775E+03  0.16500000000E+03 0.  0.
<mgrwt>
<rscale>  0 0.10401423E+04</rscale>
<asrwt>0</asrwt>
<pdfrwt beam="1">  1        2 0.11543301E+00 0.10401423E+04</pdfrwt>
<pdfrwt beam="2">  1       -2 0.55458581E-01 0.10401423E+04</pdfrwt>
<totfact> 0.11412893E+02</totfact>
</mgrwt>
</event>
<event>
 4    1  0.8877834E-005  0.6573715E+03  0.7818608E-02  0.9793045E-01
          2   -1    0    0  501    0  0.00000000000E+00  0.00000000000E+00  0.83683644409E+03  0.83683644409E+03  0.25500000000E-02 0.  1.
         -2   -1    0    0    0  501 -0.00000000000E+00 -0.00000000000E+00 -0.12909847318E+03  0.12909847320E+03  0.25500000000E-02 0. -1.
    5000001    1    1    2    0    0  0.11709898897E+03 -0.10474034083E+03  0.57550794768E+01  0.22790531621E+03  0.16500000000E+03 0.  0.
   -5000001    1    1    2    0    0 -0.11709898897E+03  0.10474034083E+03  0.70198289143E+03  0.73802960109E+03  0.16500000000E+03 0.  0.
<mgrwt>
<rscale>  0 0.65737145E+03</rscale>
<asrwt>0</asrwt>
<pdfrwt beam="1">  1        2 0.12874407E+00 0.65737145E+03</pdfrwt>
<pdfrwt beam="2">  1       -2 0.19861303E-01 0.65737145E+03</pdfrwt>
<totfact> 0.70465247E+02</totfact>
</mgrwt>
</event>
<event>
 4    1  0.8877834E-005  0.4333196E+03  0.7818608E-02  0.1032816E+00
          2   -1    0    0  501    0  0.00000000000E+00  0.00000000000E+00  0.49326165203E+04  0.49326165203E+04  0.25500000000E-02 0.  1.
         -2   -1    0    0    0  501 -0.00000000000E+00 -0.00000000000E+00 -0.95165432072E+01  0.95165435488E+01  0.25500000000E-02 0. -1.
    5000001    1    1    2    0    0 -0.37052354301E+02  0.11339895473E+03  0.33061773229E+04  0.33124410471E+04  0.16500000000E+03 0.  0.
   -5000001    1    1    2    0    0  0.37052354301E+02 -0.11339895473E+03  0.16169226542E+04  0.16296920168E+04  0.16500000000E+03 0.  0.
<mgrwt>
<rscale>  0 0.43331955E+03</rscale>
<asrwt>0</asrwt>
<pdfrwt beam="1">  1        2 0.75886481E+00 0.43331955E+03</pdfrwt>
<pdfrwt beam="2">  1       -2 0.14640822E-02 0.43331955E+03</pdfrwt>
<totfact> 0.69852902E+01</totfact>
</mgrwt>
</event>
<event>
 4    1  0.8877834E-005  0.7152750E+03  0.7818608E-02  0.9691461E-01
          2   -1    0    0  501    0  0.00000000000E+00  0.00000000000E+00  0.14594384352E+04  0.14594384352E+04  0.25500000000E-02 0.  1.
         -2   -1    0    0    0  501 -0.00000000000E+00 -0.00000000000E+00 -0.87639581723E+02  0.87639581760E+02  0.25500000000E-02 0. -1.
    5000001    1    1    2    0    0  0.13550849700E+03  0.27280948898E+03  0.49375277101E+03  0.60316197569E+03  0.16500000000E+03 0.  0.
   -5000001    1    1    2    0    0 -0.13550849700E+03 -0.27280948898E+03  0.87804608249E+03  0.94391604129E+03  0.16500000000E+03 0.  0.
<mgrwt>
<rscale>  0 0.71527498E+03</rscale>
<asrwt>0</asrwt>
<pdfrwt beam="1">  1        2 0.22452900E+00 0.71527498E+03</pdfrwt>
<pdfrwt beam="2">  1       -2 0.13483012E-01 0.71527498E+03</pdfrwt>
<totfact> 0.56860913E+02</totfact>
</mgrwt>
</event>
<event>
 4    1  0.8877834E-005  0.5746712E+03  0.7818608E-02  0.9959395E-01
         -2   -1    0    0    0  501 -0.00000000000E+00  0.00000000000E+00  0.41034678068E+02  0.41034678147E+02  0.25500000000E-02 0. -1.
          2   -1    0    0  501    0  0.00000000000E+00 -0.00000000000E+00 -0.20119993728E+04  0.20119993728E+04  0.25500000000E-02 0.  1.
    5000001    1    1    2    0    0 -0.84812453088E+02  0.20646474223E+03 -0.72015311819E+03  0.77179424436E+03  0.16500000000E+03 0.  0.
   -5000001    1    1    2    0    0  0.84812453088E+02 -0.20646474223E+03 -0.12508115765E+04  0.12812398066E+04  0.16500000000E+03 0.  0.
<mgrwt>
<rscale>  0 0.57467120E+03</rscale>
<asrwt>0</asrwt>
<pdfrwt beam="1">  1        2 0.30953829E+00 0.57467120E+03</pdfrwt>
<pdfrwt beam="2">  1       -2 0.63130290E-02 0.57467120E+03</pdfrwt>
<totfact> 0.97576325E+02</totfact>
</mgrwt>
</event>
<event>
 4    1  0.8877834E-005  0.5138508E+03  0.7818608E-02  0.1010226E+00
         -2   -1    0    0    0  501 -0.00000000000E+00  0.00000000000E+00  0.72639569860E+02  0.72639569905E+02  0.25500000000E-02 0. -1.
          2   -1    0    0  501    0  0.00000000000E+00 -0.00000000000E+00 -0.90874236054E+03  0.90874236054E+03  0.25500000000E-02 0.  1.
    5000001    1    1    2    0    0  0.14126735964E+03  0.70303898875E+02 -0.19299144929E+03  0.29894782922E+03  0.16500000000E+03 0.  0.
   -5000001    1    1    2    0    0 -0.14126735964E+03 -0.70303898875E+02 -0.64311134139E+03  0.68243410123E+03  0.16500000000E+03 0.  0.
<mgrwt>
<rscale>  0 0.51385077E+03</rscale>
<asrwt>0</asrwt>
<pdfrwt beam="1">  1        2 0.13980651E+00 0.51385077E+03</pdfrwt>
<pdfrwt beam="2">  1       -2 0.11175319E-01 0.51385077E+03</pdfrwt>
<totfact> 0.16636566E+03</totfact>
</mgrwt>
</event>
<event>
 4    1  0.8877834E-005  0.1945451E+04  0.7818608E-02  0.8632558E-01
          2   -1    0    0  501    0  0.00000000000E+00  0.00000000000E+00  0.16427171248E+04  0.16427171248E+04  0.25500000000E-02 0.  1.
         -2   -1    0    0    0  501 -0.00000000000E+00 -0.00000000000E+00 -0.57599362021E+03  0.57599362022E+03  0.25500000000E-02 0. -1.
    5000001    1    1    2    0    0  0.63465042757E+03  0.70340002869E+03  0.70026236702E+03  0.11895987341E+04  0.16500000000E+03 0.  0.
   -5000001    1    1    2    0    0 -0.63465042757E+03 -0.70340002869E+03  0.36646113755E+03  0.10291120109E+04  0.16500000000E+03 0.  0.
<mgrwt>
<rscale>  0 0.19454507E+04</rscale>
<asrwt>0</asrwt>
<pdfrwt beam="1">  1        2 0.25272571E+00 0.19454507E+04</pdfrwt>
<pdfrwt beam="2">  1       -2 0.88614403E-01 0.19454507E+04</pdfrwt>
<totfact> 0.10788264E+01</totfact>
</mgrwt>
</event>
<event>
 4    1  0.8877834E-005  0.6115995E+03  0.7818608E-02  0.9881629E-01
          2   -1    0    0  501    0  0.00000000000E+00  0.00000000000E+00  0.19989581680E+04  0.19989581680E+04  0.25500000000E-02 0.  1.
         -2   -1    0    0    0  501 -0.00000000000E+00 -0.00000000000E+00 -0.46781116477E+02  0.46781116546E+02  0.25500000000E-02 0. -1.
    5000001    1    1    2    0    0  0.36167913192E+02  0.11031156224E+03  0.17447734577E+04  0.17563986385E+04  0.16500000000E+03 0.  0.
   -5000001    1    1    2    0    0 -0.36167913192E+02 -0.11031156224E+03  0.20740359380E+03  0.28934064600E+03  0.16500000000E+03 0.  0.
<mgrwt>
<rscale>  0 0.61159953E+03</rscale>
<asrwt>0</asrwt>
<pdfrwt beam="1">  1        2 0.30753198E+00 0.61159953E+03</pdfrwt>
<pdfrwt beam="2">  1       -2 0.71970960E-02 0.61159953E+03</pdfrwt>
<totfact> 0.80460883E+02</totfact>
</mgrwt>
</event>
<event>
 4    1  0.8877834E-005  0.5723948E+03  0.7818608E-02  0.9964393E-01
         -2   -1    0    0    0  501 -0.00000000000E+00  0.00000000000E+00  0.86510493826E+02  0.86510493864E+02  0.25500000000E-02 0. -1.
          2   -1    0    0  501    0  0.00000000000E+00 -0.00000000000E+00 -0.94680930876E+03  0.94680930877E+03  0.25500000000E-02 0.  1.
    5000001    1    1    2    0    0  0.44350428408E+02 -0.10575910403E+03 -0.79804999710E+03  0.82295853265E+03  0.16500000000E+03 0.  0.
   -5000001    1    1    2    0    0 -0.44350428408E+02  0.10575910403E+03 -0.62248817832E+02  0.21036126998E+03  0.16500000000E+03 0.  0.
<mgrwt>
<rscale>  0 0.57239476E+03</rscale>
<asrwt>0</asrwt>
<pdfrwt beam="1">  1        2 0.14566296E+00 0.57239476E+03</pdfrwt>
<pdfrwt beam="2">  1       -2 0.13309307E-01 0.57239476E+03</pdfrwt>
<totfact> 0.11770214E+03</totfact>
</mgrwt>
</event>
<event>
 4    1  0.8877834E-005  0.8689775E+03  0.7818608E-02  0.9465214E-01
         -2   -1    0    0    0  501 -0.00000000000E+00  0.00000000000E+00  0.35479458741E+03  0.35479458742E+03  0.25500000000E-02 0. -1.
          2   -1    0    0  501    0  0.00000000000E+00 -0.00000000000E+00 -0.53208385375E+03  0.53208385375E+03  0.25500000000E-02 0.  1.
    5000001    1    1    2    0    0 -0.71507561559E+02 -0.36131687651E+03  0.75580833584E+02  0.41061013019E+03  0.16500000000E+03 0.  0.
   -5000001    1    1    2    0    0  0.71507561559E+02  0.36131687651E+03 -0.25287009992E+03  0.47626831098E+03  0.16500000000E+03 0.  0.
<mgrwt>
<rscale>  0 0.86897749E+03</rscale>
<asrwt>0</asrwt>
<pdfrwt beam="1">  1        2 0.81859055E-01 0.86897749E+03</pdfrwt>
<pdfrwt beam="2">  1       -2 0.54583782E-01 0.86897749E+03</pdfrwt>
<totfact> 0.18172299E+02</totfact>
</mgrwt>
</event>
<event>
 4    1  0.8877834E-005  0.4287463E+03  0.7818608E-02  0.1034257E+00
         -2   -1    0    0    0  501 -0.00000000000E+00  0.00000000000E+00  0.22820832410E+02  0.22820832552E+02  0.25500000000E-02 0. -1.
          2   -1    0    0  501    0  0.00000000000E+00 -0.00000000000E+00 -0.20137674811E+04  0.20137674811E+04  0.25500000000E-02 0.  1.
    5000001    1    1    2    0    0 -0.11994908549E+03 -0.65146335150E+02 -0.94820510445E+03  0.97208525768E+03  0.16500000000E+03 0.  0.
   -5000001    1    1    2    0    0  0.11994908549E+03  0.65146335150E+02 -0.10427415443E+04  0.10645030560E+04  0.16500000000E+03 0.  0.
<mgrwt>
<rscale>  0 0.42874631E+03</rscale>
<asrwt>0</asrwt>
<pdfrwt beam="1">  1        2 0.30981024E+00 0.42874631E+03</pdfrwt>
<pdfrwt beam="2">  1       -2 0.35108989E-02 0.42874631E+03</pdfrwt>
<totfact> 0.24256009E+03</totfact>
</mgrwt>
</event>
<event>
 4    1  0.8877834E-005  0.4554566E+03  0.7818608E-02  0.1026107E+00
         -2   -1    0    0    0  501 -0.00000000000E+00  0.00000000000E+00  0.25446313617E+02  0.25446313745E+02  0.25500000000E-02 0. -1.
          2   -1    0    0  501    0  0.00000000000E+00 -0.00000000000E+00 -0.20380231555E+04  0.20380231555E+04  0.25500000000E-02 0.  1.
    5000001    1    1    2    0    0 -0.15126611931E+03 -0.35632680446E+02 -0.11059656722E+04  0.11289535840E+04  0.16500000000E+03 0.  0.
   -5000001    1    1    2    0    0  0.15126611931E+03  0.35632680446E+02 -0.90661116975E+03  0.93451588530E+03  0.16500000000E+03 0.  0.
<mgrwt>
<rscale>  0 0.45545659E+03</rscale>
<asrwt>0</asrwt>
<pdfrwt beam="1">  1        2 0.31354189E+00 0.45545659E+03</pdfrwt>
<pdfrwt beam="2">  1       -2 0.39148191E-02 0.45545659E+03</pdfrwt>
<totfact> 0.19921379E+03</totfact>
</mgrwt>
</event>
<event>
 4    1  0.8877834E-005  0.7996711E+03  0.7818608E-02  0.9560493E-01
          2   -1    0    0  501    0  0.00000000000E+00  0.00000000000E+00  0.13906875821E+04  0.13906875821E+04  0.25500000000E-02 0.  1.
         -2   -1    0    0    0  501 -0.00000000000E+00 -0.00000000000E+00 -0.11495643014E+03  0.11495643017E+03  0.25500000000E-02 0. -1.
    5000001    1    1    2    0    0  0.14354404844E+03  0.30234142233E+03  0.36744353870E+03  0.52369359709E+03  0.16500000000E+03 0.  0.
   -5000001    1    1    2    0    0 -0.14354404844E+03 -0.30234142233E+03  0.90828761328E+03  0.98195041521E+03  0.16500000000E+03 0.  0.
<mgrwt>
<rscale>  0 0.79967113E+03</rscale>
<asrwt>0</asrwt>
<pdfrwt beam="1">  1        2 0.21395194E+00 0.79967113E+03</pdfrwt>
<pdfrwt beam="2">  1       -2 0.17685605E-01 0.79967113E+03</pdfrwt>
<totfact> 0.39043950E+02</totfact>
</mgrwt>
</event>
<event>
 4    1  0.8877834E-005  0.1124806E+04  0.7818608E-02  0.9181346E-01
          2   -1    0    0  501    0  0.00000000000E+00  0.00000000000E+00  0.73377940808E+03  0.73377940808E+03  0.25500000000E-02 0.  1.
         -2   -1    0    0    0  501 -0.00000000000E+00 -0.00000000000E+00 -0.43105181103E+03  0.43105181104E+03  0.25500000000E-02 0. -1.
    5000001    1    1    2    0    0  0.15948085498E+03  0.46599668810E+03  0.37463946570E+03  0.64044264824E+03  0.16500000000E+03 0.  0.
   -5000001    1    1    2    0    0 -0.15948085498E+03 -0.46599668810E+03 -0.71911868647E+02  0.52438857089E+03  0.16500000000E+03 0.  0.
<mgrwt>
<rscale>  0 0.11248057E+04</rscale>
<asrwt>0</asrwt>
<pdfrwt beam="1">  1        2 0.11288914E+00 0.11248057E+04</pdfrwt>
<pdfrwt beam="2">  1       -2 0.66315664E-01 0.11248057E+04</pdfrwt>
<totfact> 0.80002447E+01</totfact>
</mgrwt>
</event>
<event>
 4    1  0.8877834E-005  0.9907581E+03  0.7818608E-02  0.9318740E-01
          2   -1    0    0  501    0  0.00000000000E+00  0.00000000000E+00  0.87261246852E+03  0.87261246852E+03  0.25500000000E-02 0.  1.
         -2   -1    0    0    0  501 -0.00000000000E+00 -0.00000000000E+00 -0.28122493698E+03  0.28122493699E+03  0.25500000000E-02 0. -1.
    5000001    1    1    2    0    0 -0.15693044543E+03 -0.40918944226E+03  0.10750273855E+03  0.48046332134E+03  0.16500000000E+03 0.  0.
   -5000001    1    1    2    0    0  0.15693044543E+03  0.40918944226E+03  0.48388479298E+03  0.67337408417E+03  0.16500000000E+03 0.  0.
<mgrwt>
<rscale>  0 0.99075807E+03</rscale>
<asrwt>0</asrwt>
<pdfrwt beam="1">  1        2 0.13424807E+00 0.99075807E+03</pdfrwt>
<pdfrwt beam="2">  1       -2 0.43265374E-01 0.99075807E+03</pdfrwt>
<totfact> 0.15480309E+02</totfact>
</mgrwt>
</event>
<event>
 4    1  0.8877834E-005  0.4645991E+03  0.7818608E-02  0.1023456E+00
         -2   -1    0    0    0  501 -0.00000000000E+00  0.00000000000E+00  0.36548130326E+03  0.36548130327E+03  0.25500000000E-02 0. -1.
          2   -1    0    0  501    0  0.00000000000E+00 -0.00000000000E+00 -0.14764934142E+03  0.14764934144E+03  0.25500000000E-02 0.  1.
    5000001    1    1    2    0    0  0.18243045287E+02 -0.16124141590E+03  0.13118311426E+03  0.26601806775E+03  0.16500000000E+03 0.  0.
   -5000001    1    1    2    0    0 -0.18243045287E+02  0.16124141590E+03  0.86648847585E+02  0.24711257696E+03  0.16500000000E+03 0.  0.
<mgrwt>
<rscale>  0 0.46459907E+03</rscale>
<asrwt>0</asrwt>
<pdfrwt beam="1">  1        2 0.22715283E-01 0.46459907E+03</pdfrwt>
<pdfrwt beam="2">  1       -2 0.56227893E-01 0.46459907E+03</pdfrwt>
<totfact> 0.73043488E+02</totfact>
</mgrwt>
</event>
<event>
 4    1  0.8877834E-005  0.4085946E+03  0.7818608E-02  0.1040844E+00
         -2   -1    0    0    0  501 -0.00000000000E+00  0.00000000000E+00  0.56183513701E+03  0.56183513701E+03  0.25500000000E-02 0. -1.
          2   -1    0    0  501    0  0.00000000000E+00 -0.00000000000E+00 -0.74287618494E+02  0.74287618538E+02  0.25500000000E-02 0.  1.
    5000001    1    1    2    0    0 -0.71418304018E+01 -0.10793901333E+03  0.32630997351E+03  0.38132012162E+03  0.16500000000E+03 0.  0.
   -5000001    1    1    2    0    0  0.71418304018E+01  0.10793901333E+03  0.16123754500E+03  0.25480263393E+03  0.16500000000E+03 0.  0.
<mgrwt>
<rscale>  0 0.40859464E+03</rscale>
<asrwt>0</asrwt>
<pdfrwt beam="1">  1        2 0.11428864E-01 0.40859464E+03</pdfrwt>
<pdfrwt beam="2">  1       -2 0.86436177E-01 0.40859464E+03</pdfrwt>
<totfact> 0.65420477E+02</totfact>
</mgrwt>
</event>
<event>
 4    1  0.8877834E-005  0.5782606E+03  0.7818608E-02  0.9951564E-01
         -2   -1    0    0    0  501 -0.00000000000E+00  0.00000000000E+00  0.11271489446E+03  0.11271489448E+03  0.25500000000E-02 0. -1.
          2   -1    0    0  501    0  0.00000000000E+00 -0.00000000000E+00 -0.74166182758E+03  0.74166182759E+03  0.25500000000E-02 0.  1.
    5000001    1    1    2    0    0 -0.20069742728E+03  0.83484017498E+02 -0.17335694037E+03  0.32330584169E+03  0.16500000000E+03 0.  0.
   -5000001    1    1    2    0    0  0.20069742728E+03 -0.83484017498E+02 -0.45558999276E+03  0.53107088039E+03  0.16500000000E+03 0.  0.
<mgrwt>
<rscale>  0 0.57826061E+03</rscale>
<asrwt>0</asrwt>
<pdfrwt beam="1">  1        2 0.11410182E+00 0.57826061E+03</pdfrwt>
<pdfrwt beam="2">  1       -2 0.17340753E-01 0.57826061E+03</pdfrwt>
<totfact> 0.10452551E+03</totfact>
</mgrwt>
</event>
<event>
 4    1  0.8877834E-005  0.4669787E+03  0.7818608E-02  0.1022776E+00
         -2   -1    0    0    0  501 -0.00000000000E+00  0.00000000000E+00  0.56442899408E+02  0.56442899465E+02  0.25500000000E-02 0. -1.
          2   -1    0    0  501    0  0.00000000000E+00 -0.00000000000E+00 -0.96588375292E+03  0.96588375293E+03  0.25500000000E-02 0.  1.
    5000001    1    1    2    0    0 -0.11614817548E+03 -0.47313985436E+02 -0.21930610045E+03  0.30174356261E+03  0.16500000000E+03 0.  0.
   -5000001    1    1    2    0    0  0.11614817548E+03  0.47313985436E+02 -0.69013475307E+03  0.72058308978E+03  0.16500000000E+03 0.  0.
<mgrwt>
<rscale>  0 0.46697871E+03</rscale>
<asrwt>0</asrwt>
<pdfrwt beam="1">  1        2 0.14859749E+00 0.46697871E+03</pdfrwt>
<pdfrwt beam="2">  1       -2 0.86835237E-02 0.46697871E+03</pdfrwt>
<totfact> 0.22950940E+03</totfact>
</mgrwt>
</event>
<event>
 4    1  0.8877834E-005  0.3986246E+03  0.7818608E-02  0.1044257E+00
         -2   -1    0    0    0  501 -0.00000000000E+00  0.00000000000E+00  0.10033979842E+03  0.10033979845E+03  0.25500000000E-02 0. -1.
          2   -1    0    0  501    0  0.00000000000E+00 -0.00000000000E+00 -0.39590865393E+03  0.39590865394E+03  0.25500000000E-02 0.  1.
    5000001    1    1    2    0    0 -0.10583571225E+03  0.21058614638E+02 -0.11136746106E+03  0.22643404033E+03  0.16500000000E+03 0.  0.
   -5000001    1    1    2    0    0  0.10583571225E+03 -0.21058614638E+02 -0.18420139445E+03  0.26981441206E+03  0.16500000000E+03 0.  0.
<mgrwt>
<rscale>  0 0.39862461E+03</rscale>
<asrwt>0</asrwt>
<pdfrwt beam="1">  1        2 0.60909023E-01 0.39862461E+03</pdfrwt>
<pdfrwt beam="2">  1       -2 0.15436892E-01 0.39862461E+03</pdfrwt>
<totfact> 0.26506669E+03</totfact>
</mgrwt>
</event>
<event>
 4    1  0.8877834E-005  0.3476527E+03  0.7818608E-02  0.1063583E+00
         -2   -1    0    0    0  501 -0.00000000000E+00  0.00000000000E+00  0.31313484797E+02  0.31313484901E+02  0.25500000000E-02 0. -1.
          2   -1    0    0  501    0  0.00000000000E+00 -0.00000000000E+00 -0.96493874337E+03  0.96493874338E+03  0.25500000000E-02 0.  1.
    5000001    1    1    2    0    0  0.22837086955E+01  0.45300153504E+02 -0.55435708908E+03  0.58016730470E+03  0.16500000000E+03 0.  0.
   -5000001    1    1    2    0    0 -0.22837086955E+01 -0.45300153504E+02 -0.37926816950E+03  0.41608492358E+03  0.16500000000E+03 0.  0.
<mgrwt>
<rscale>  0 0.34765267E+03</rscale>
<asrwt>0</asrwt>
<pdfrwt beam="1">  1        2 0.14845209E+00 0.34765267E+03</pdfrwt>
<pdfrwt beam="2">  1       -2 0.48174600E-02 0.34765267E+03</pdfrwt>
<totfact> 0.57450264E+03</totfact>
</mgrwt>
</event>
<event>
 4    1  0.8877834E-005  0.4847552E+03  0.7818608E-02  0.1017836E+00
         -2   -1    0    0    0  501 -0.00000000000E+00  0.00000000000E+00  0.16385642764E+02  0.16385642962E+02  0.25500000000E-02 0. -1.
          2   -1    0    0  501    0  0.00000000000E+00 -0.00000000000E+00 -0.35852664873E+04  0.35852664873E+04  0.25500000000E-02 0.  1.
    5000001    1    1    2    0    0 -0.13660745999E+03 -0.11332335666E+03 -0.17528178065E+04  0.17694911822E+04  0.16500000000E+03 0.  0.
   -5000001    1    1    2    0    0  0.13660745999E+03  0.11332335666E+03 -0.18160630381E+04  0.18321609481E+04  0.16500000000E+03 0.  0.
<mgrwt>
<rscale>  0 0.48475518E+03</rscale>
<asrwt>0</asrwt>
<pdfrwt beam="1">  1        2 0.55157883E+00 0.48475518E+03</pdfrwt>
<pdfrwt beam="2">  1       -2 0.25208710E-02 0.48475518E+03</pdfrwt>
<totfact> 0.46704370E+02</totfact>
</mgrwt>
</event>
<event>
 4    1  0.8877834E-005  0.6894111E+03  0.7818608E-02  0.9735514E-01
         -2   -1    0    0    0  501 -0.00000000000E+00  0.00000000000E+00  0.37304670122E+02  0.37304670209E+02  0.25500000000E-02 0. -1.
          2   -1    0    0  501    0  0.00000000000E+00 -0.00000000000E+00 -0.31851749853E+04  0.31851749853E+04  0.25500000000E-02 0.  1.
    5000001    1    1    2    0    0  0.21566524534E+03  0.19955208951E+03 -0.19130798688E+04  0.19425323985E+04  0.16500000000E+03 0.  0.
   -5000001    1    1    2    0    0 -0.21566524534E+03 -0.19955208951E+03 -0.12347904463E+04  0.12799472570E+04  0.16500000000E+03 0.  0.
<mgrwt>
<rscale>  0 0.68941106E+03</rscale>
<asrwt>0</asrwt>
<pdfrwt beam="1">  1        2 0.49002671E+00 0.68941106E+03</pdfrwt>
<pdfrwt beam="2">  1       -2 0.57391825E-02 0.68941106E+03</pdfrwt>
<totfact> 0.23627730E+02</totfact>
</mgrwt>
</event>
<event>
 4    1  0.8877834E-005  0.3735074E+03  0.7818608E-02  0.1053360E+00
         -2   -1    0    0    0  501 -0.00000000000E+00  0.00000000000E+00  0.76776135104E+02  0.76776135146E+02  0.25500000000E-02 0. -1.
          2   -1    0    0  501    0  0.00000000000E+00 -0.00000000000E+00 -0.45426808197E+03  0.45426808197E+03  0.25500000000E-02 0.  1.
    5000001    1    1    2    0    0  0.54802556373E+02 -0.68045857191E+02 -0.19484285745E+03  0.26985606898E+03  0.16500000000E+03 0.  0.
   -5000001    1    1    2    0    0 -0.54802556373E+02  0.68045857191E+02 -0.18264908942E+03  0.26118814814E+03  0.16500000000E+03 0.  0.
<mgrwt>
<rscale>  0 0.37350742E+03</rscale>
<asrwt>0</asrwt>
<pdfrwt beam="1">  1        2 0.69887396E-01 0.37350742E+03</pdfrwt>
<pdfrwt beam="2">  1       -2 0.11811713E-01 0.37350742E+03</pdfrwt>
<totfact> 0.35348595E+03</totfact>
</mgrwt>
</event>
<event>
 4    1  0.8877834E-005  0.6988065E+03  0.7818608E-02  0.9719275E-01
          2   -1    0    0  501    0  0.00000000000E+00  0.00000000000E+00  0.97706510526E+03  0.97706510526E+03  0.25500000000E-02 0.  1.
         -2   -1    0    0    0  501 -0.00000000000E+00 -0.00000000000E+00 -0.12494832392E+03  0.12494832395E+03  0.25500000000E-02 0. -1.
    5000001    1    1    2    0    0  0.23915020472E+03  0.18768270519E+03  0.50395659009E+03  0.61124042973E+03  0.16500000000E+03 0.  0.
   -5000001    1    1    2    0    0 -0.23915020472E+03 -0.18768270519E+03  0.34816019125E+03  0.49077299947E+03  0.16500000000E+03 0.  0.
<mgrwt>
<rscale>  0 0.69880655E+03</rscale>
<asrwt>0</asrwt>
<pdfrwt beam="1">  1        2 0.15031771E+00 0.69880655E+03</pdfrwt>
<pdfrwt beam="2">  1       -2 0.19222818E-01 0.69880655E+03</pdfrwt>
<totfact> 0.60024897E+02</totfact>
</mgrwt>
</event>
<event>
 4    1  0.8877834E-005  0.4166042E+03  0.7818608E-02  0.1038177E+00
          2   -1    0    0  501    0  0.00000000000E+00  0.00000000000E+00  0.21019958674E+03  0.21019958676E+03  0.25500000000E-02 0.  1.
         -2   -1    0    0    0  501 -0.00000000000E+00 -0.00000000000E+00 -0.20642173923E+03  0.20642173924E+03  0.25500000000E-02 0. -1.
    5000001    1    1    2    0    0 -0.77340473342E+02 -0.10075848421E+03 -0.36739778117E+01  0.20826021961E+03  0.16500000000E+03 0.  0.
   -5000001    1    1    2    0    0  0.77340473342E+02  0.10075848421E+03  0.74518253247E+01  0.20836110639E+03  0.16500000000E+03 0.  0.
<mgrwt>
<rscale>  0 0.41660420E+03</rscale>
<asrwt>0</asrwt>
<pdfrwt beam="1">  1        2 0.32338398E-01 0.41660420E+03</pdfrwt>
<pdfrwt beam="2">  1       -2 0.31757191E-01 0.41660420E+03</pdfrwt>
<totfact> 0.14969519E+03</totfact>
</mgrwt>
</event>
<event>
 4    1  0.8877834E-005  0.7691788E+03  0.7818608E-02  0.9605733E-01
         -2   -1    0    0    0  501 -0.00000000000E+00  0.00000000000E+00  0.13056471971E+03  0.13056471973E+03  0.25500000000E-02 0. -1.
          2   -1    0    0  501    0  0.00000000000E+00 -0.00000000000E+00 -0.11328406442E+04  0.11328406442E+04  0.25500000000E-02 0.  1.
    5000001    1    1    2    0    0 -0.18423091709E+03  0.29243767433E+03 -0.55858446521E+03  0.67727574071E+03  0.16500000000E+03 0.  0.
   -5000001    1    1    2    0    0  0.18423091709E+03 -0.29243767433E+03 -0.44369145928E+03  0.58612962322E+03  0.16500000000E+03 0.  0.
<mgrwt>
<rscale>  0 0.76917884E+03</rscale>
<asrwt>0</asrwt>
<pdfrwt beam="1">  1        2 0.17428317E+00 0.76917884E+03</pdfrwt>
<pdfrwt beam="2">  1       -2 0.20086881E-01 0.76917884E+03</pdfrwt>
<totfact> 0.44328829E+02</totfact>
</mgrwt>
</event>
<event>
 4    1  0.8877834E-005  0.6314075E+03  0.7818608E-02  0.9842306E-01
         -2   -1    0    0    0  501 -0.00000000000E+00  0.00000000000E+00  0.62272415542E+02  0.62272415594E+02  0.25500000000E-02 0. -1.
          2   -1    0    0  501    0  0.00000000000E+00 -0.00000000000E+00 -0.16005297656E+04  0.16005297656E+04  0.25500000000E-02 0.  1.
    5000001    1    1    2    0    0  0.26205274060E+03  0.60330100796E+02 -0.79944176675E+03  0.85944371447E+03  0.16500000000E+03 0.  0.
   -5000001    1    1    2    0    0 -0.26205274060E+03 -0.60330100796E+02 -0.73881558328E+03  0.80335846670E+03  0.16500000000E+03 0.  0.
<mgrwt>
<rscale>  0 0.63140749E+03</rscale>
<asrwt>0</asrwt>
<pdfrwt beam="1">  1        2 0.24623532E+00 0.63140749E+03</pdfrwt>
<pdfrwt beam="2">  1       -2 0.95803728E-02 0.63140749E+03</pdfrwt>
<totfact> 0.83675238E+02</totfact>
</mgrwt>
</event>
<event>
 4    1  0.8877834E-005  0.5642792E+03  0.7818608E-02  0.9982418E-01
         -2   -1    0    0    0  501 -0.00000000000E+00  0.00000000000E+00  0.30242314632E+02  0.30242314740E+02  0.25500000000E-02 0. -1.
          2   -1    0    0  501    0  0.00000000000E+00 -0.00000000000E+00 -0.26321645329E+04  0.26321645329E+04  0.25500000000E-02 0.  1.
    5000001    1    1    2    0    0 -0.15586916045E+03 -0.16740096164E+03 -0.12645752251E+04  0.12956441552E+04  0.16500000000E+03 0.  0.
   -5000001    1    1    2    0    0  0.15586916045E+03  0.16740096164E+03 -0.13373469932E+04  0.13667626924E+04  0.16500000000E+03 0.  0.
<mgrwt>
<rscale>  0 0.56427918E+03</rscale>
<asrwt>0</asrwt>
<pdfrwt beam="1">  1        2 0.40494821E+00 0.56427918E+03</pdfrwt>
<pdfrwt beam="2">  1       -2 0.46526659E-02 0.56427918E+03</pdfrwt>
<totfact> 0.71264383E+02</totfact>
</mgrwt>
</event>
<event>
 4    1  0.8877834E-005  0.3731553E+03  0.7818608E-02  0.1053493E+00
         -2   -1    0    0    0  501 -0.00000000000E+00  0.00000000000E+00  0.56189670343E+03  0.56189670344E+03  0.25500000000E-02 0. -1.
          2   -1    0    0  501    0  0.00000000000E+00 -0.00000000000E+00 -0.61953062348E+02  0.61953062400E+02  0.25500000000E-02 0.  1.
    5000001    1    1    2    0    0 -0.13318012051E+02  0.84777007094E+02  0.22507842450E+03  0.29197569685E+03  0.16500000000E+03 0.  0.
   -5000001    1    1    2    0    0  0.13318012051E+02 -0.84777007094E+02  0.27486521658E+03  0.33187406898E+03  0.16500000000E+03 0.  0.
<mgrwt>
<rscale>  0 0.37315531E+03</rscale>
<asrwt>0</asrwt>
<pdfrwt beam="1">  1        2 0.95312409E-02 0.37315531E+03</pdfrwt>
<pdfrwt beam="2">  1       -2 0.86445642E-01 0.37315531E+03</pdfrwt>
<totfact> 0.82021628E+02</totfact>
</mgrwt>
</event>
<event>
 4    1  0.8877834E-005  0.6266007E+03  0.7818608E-02  0.9851705E-01
          2   -1    0    0  501    0  0.00000000000E+00  0.00000000000E+00  0.10850970340E+04  0.10850970341E+04  0.25500000000E-02 0.  1.
         -2   -1    0    0    0  501 -0.00000000000E+00 -0.00000000000E+00 -0.90459283141E+02  0.90459283177E+02  0.25500000000E-02 0. -1.
    5000001    1    1    2    0    0  0.25045928809E+03  0.81403307464E+02  0.57179134363E+03  0.65078928549E+03  0.16500000000E+03 0.  0.
   -5000001    1    1    2    0    0 -0.25045928809E+03 -0.81403307464E+02  0.42284640728E+03  0.52476703174E+03  0.16500000000E+03 0.  0.
<mgrwt>
<rscale>  0 0.62660067E+03</rscale>
<asrwt>0</asrwt>
<pdfrwt beam="1">  1        2 0.16693799E+00 0.62660067E+03</pdfrwt>
<pdfrwt beam="2">  1       -2 0.13916814E-01 0.62660067E+03</pdfrwt>
<totfact> 0.89292154E+02</totfact>
</mgrwt>
</event>
<event>
 4    1  0.8877834E-005  0.6179484E+03  0.7818608E-02  0.9868853E-01
          2   -1    0    0  501    0  0.00000000000E+00  0.00000000000E+00  0.10039637422E+04  0.10039637422E+04  0.25500000000E-02 0. -1.
         -2   -1    0    0    0  501 -0.00000000000E+00 -0.00000000000E+00 -0.95088158561E+02  0.95088158595E+02  0.25500000000E-02 0.  1.
    5000001    1    1    2    0    0 -0.11212332287E+03 -0.22783805842E+03  0.56347090425E+03  0.63969233255E+03  0.16500000000E+03 0.  0.
   -5000001    1    1    2    0    0  0.11212332287E+03  0.22783805842E+03  0.34540467940E+03  0.45935956825E+03  0.16500000000E+03 0.  0.
<mgrwt>
<rscale>  0 0.61794842E+03</rscale>
<asrwt>0</asrwt>
<pdfrwt beam="1">  1        2 0.15445596E+00 0.61794842E+03</pdfrwt>
<pdfrwt beam="2">  1       -2 0.14628947E-01 0.61794842E+03</pdfrwt>
<totfact> 0.92261593E+02</totfact>
</mgrwt>
</event>
<event>
 4    1  0.8877834E-005  0.3502747E+03  0.7818608E-02  0.1062502E+00
          2   -1    0    0  501    0  0.00000000000E+00  0.00000000000E+00  0.79704554155E+02  0.79704554196E+02  0.25500000000E-02 0.  1.
         -2   -1    0    0    0  501 -0.00000000000E+00 -0.00000000000E+00 -0.38483493630E+03  0.38483493631E+03  0.25500000000E-02 0. -1.
    5000001    1    1    2    0    0  0.46672597016E+02  0.28650114701E+02 -0.18066519361E+03  0.25072708782E+03  0.16500000000E+03 0.  0.
   -5000001    1    1    2    0    0 -0.46672597016E+02 -0.28650114701E+02 -0.12446518853E+03  0.21381240268E+03  0.16500000000E+03 0.  0.
<mgrwt>
<rscale>  0 0.35027473E+03</rscale>
<asrwt>0</asrwt>
<pdfrwt beam="1">  1        2 0.12262239E-01 0.35027473E+03</pdfrwt>
<pdfrwt beam="2">  1       -2 0.59205374E-01 0.35027473E+03</pdfrwt>
<totfact> 0.13600625E+03</totfact>
</mgrwt>
</event>
<event>
 4    1  0.8877834E-005  0.8425810E+03  0.7818608E-02  0.9500349E-01
         -2   -1    0    0    0  501 -0.00000000000E+00  0.00000000000E+00  0.36158959719E+03  0.36158959719E+03  0.25500000000E-02 0. -1.
          2   -1    0    0  501    0  0.00000000000E+00 -0.00000000000E+00 -0.49084840733E+03  0.49084840734E+03  0.25500000000E-02 0.  1.
    5000001    1    1    2    0    0 -0.60199670556E+01 -0.38236644750E+03 -0.12877730154E+03  0.43594602139E+03  0.16500000000E+03 0.  0.
   -5000001    1    1    2    0    0  0.60199670556E+01  0.38236644750E+03 -0.48150861067E+00  0.41649198315E+03  0.16500000000E+03 0.  0.
<mgrwt>
<rscale>  0 0.84258098E+03</rscale>
<asrwt>0</asrwt>
<pdfrwt beam="1">  1        2 0.75515139E-01 0.84258098E+03</pdfrwt>
<pdfrwt beam="2">  1       -2 0.55629169E-01 0.84258098E+03</pdfrwt>
<totfact> 0.19217682E+02</totfact>
</mgrwt>
</event>
<event>
 4    1  0.8877834E-005  0.5776367E+03  0.7818608E-02  0.9952921E-01
         -2   -1    0    0    0  501 -0.00000000000E+00  0.00000000000E+00  0.99828475242E+02  0.99828475275E+02  0.25500000000E-02 0. -1.
          2   -1    0    0  501    0  0.00000000000E+00 -0.00000000000E+00 -0.83559373524E+03  0.83559373524E+03  0.25500000000E-02 0.  1.
    5000001    1    1    2    0    0 -0.72516633311E+02 -0.14863088129E+03 -0.64289985546E+03  0.68402852655E+03  0.16500000000E+03 0.  0.
   -5000001    1    1    2    0    0  0.72516633311E+02  0.14863088129E+03 -0.92865404533E+02  0.25139368397E+03  0.16500000000E+03 0.  0.
<mgrwt>
<rscale>  0 0.57763673E+03</rscale>
<asrwt>0</asrwt>
<pdfrwt beam="1">  1        2 0.12855288E+00 0.57763673E+03</pdfrwt>
<pdfrwt beam="2">  1       -2 0.15358228E-01 0.57763673E+03</pdfrwt>
<totfact> 0.10994827E+03</totfact>
</mgrwt>
</event>
<event>
 4    1  0.8877834E-005  0.5938757E+03  0.7818608E-02  0.9918194E-01
          2   -1    0    0  501    0  0.00000000000E+00  0.00000000000E+00  0.30717974021E+04  0.30717974021E+04  0.25500000000E-02 0.  1.
         -2   -1    0    0    0  501 -0.00000000000E+00 -0.00000000000E+00 -0.28703746678E+02  0.28703746791E+02  0.25500000000E-02 0. -1.
    5000001    1    1    2    0    0  0.17436276223E+03  0.31008035344E+02  0.62358253074E+03  0.66891258304E+03  0.16500000000E+03 0.  0.
   -5000001    1    1    2    0    0 -0.17436276223E+03 -0.31008035344E+02  0.24195111246E+04  0.24315885658E+04  0.16500000000E+03 0.  0.
<mgrwt>
<rscale>  0 0.59387573E+03</rscale>
<asrwt>0</asrwt>
<pdfrwt beam="1">  1        2 0.47258402E+00 0.59387573E+03</pdfrwt>
<pdfrwt beam="2">  1       -2 0.44159629E-02 0.59387573E+03</pdfrwt>
<totfact> 0.42273493E+02</totfact>
</mgrwt>
</event>
<event>
 4    1  0.8877834E-005  0.3971238E+03  0.7818608E-02  0.1044780E+00
         -2   -1    0    0    0  501 -0.00000000000E+00  0.00000000000E+00  0.21478840482E+03  0.21478840484E+03  0.25500000000E-02 0. -1.
          2   -1    0    0  501    0  0.00000000000E+00 -0.00000000000E+00 -0.18356123283E+03  0.18356123285E+03  0.25500000000E-02 0.  1.
    5000001    1    1    2    0    0  0.73910546430E+02 -0.79882925170E+02 -0.33597103792E+01  0.19768747624E+03  0.16500000000E+03 0.  0.
   -5000001    1    1    2    0    0 -0.73910546430E+02  0.79882925170E+02  0.34586882369E+02  0.20066216145E+03  0.16500000000E+03 0.  0.
<mgrwt>
<rscale>  0 0.39712378E+03</rscale>
<asrwt>0</asrwt>
<pdfrwt beam="1">  1        2 0.28240190E-01 0.39712378E+03</pdfrwt>
<pdfrwt beam="2">  1       -2 0.33044370E-01 0.39712378E+03</pdfrwt>
<totfact> 0.16157669E+03</totfact>
</mgrwt>
</event>
<event>
 4    1  0.8877834E-005  0.6331374E+03  0.7818608E-02  0.9838945E-01
          2   -1    0    0  501    0  0.00000000000E+00  0.00000000000E+00  0.27057919406E+02  0.27057919527E+02  0.25500000000E-02 0.  1.
         -2   -1    0    0    0  501 -0.00000000000E+00 -0.00000000000E+00 -0.37037490176E+04  0.37037490176E+04  0.25500000000E-02 0. -1.
    5000001    1    1    2    0    0 -0.88886842404E+02  0.18273807148E+03 -0.28874328225E+04  0.28992735949E+04  0.16500000000E+03 0.  0.
   -5000001    1    1    2    0    0  0.88886842404E+02 -0.18273807148E+03 -0.78925827573E+03  0.83153334228E+03  0.16500000000E+03 0.  0.
<mgrwt>
<rscale>  0 0.63313740E+03</rscale>
<asrwt>0</asrwt>
<pdfrwt beam="1">  1        2 0.41627598E-02 0.63313740E+03</pdfrwt>
<pdfrwt beam="2">  1       -2 0.56980714E+00 0.63313740E+03</pdfrwt>
<totfact> 0.15189443E+00</totfact>
</mgrwt>
</event>
<event>
 4    1  0.8877834E-005  0.5338413E+03  0.7818608E-02  0.1005305E+00
         -2   -1    0    0    0  501 -0.00000000000E+00  0.00000000000E+00  0.45520865511E+02  0.45520865582E+02  0.25500000000E-02 0. -1.
          2   -1    0    0  501    0  0.00000000000E+00 -0.00000000000E+00 -0.15651422510E+04  0.15651422510E+04  0.25500000000E-02 0.  1.
    5000001    1    1    2    0    0 -0.14788675287E+03 -0.56495123940E+02 -0.11752478130E+04  0.11972863536E+04  0.16500000000E+03 0.  0.
   -5000001    1    1    2    0    0  0.14788675287E+03  0.56495123940E+02 -0.34437357255E+03  0.41337676298E+03  0.16500000000E+03 0.  0.
<mgrwt>
<rscale>  0 0.53384129E+03</rscale>
<asrwt>0</asrwt>
<pdfrwt beam="1">  1        2 0.24079107E+00 0.53384129E+03</pdfrwt>
<pdfrwt beam="2">  1       -2 0.70032113E-02 0.53384129E+03</pdfrwt>
<totfact> 0.14494862E+03</totfact>
</mgrwt>
</event>
<event>
 4    1  0.8877834E-005  0.7321880E+03  0.7818608E-02  0.9663717E-01
          2   -1    0    0  501    0  0.00000000000E+00  0.00000000000E+00  0.11475918058E+03  0.11475918060E+03  0.25500000000E-02 0.  1.
         -2   -1    0    0    0  501 -0.00000000000E+00 -0.00000000000E+00 -0.11678787928E+04  0.11678787928E+04  0.25500000000E-02 0. -1.
    5000001    1    1    2    0    0  0.20950774724E+03  0.72648037091E+02 -0.10602644827E+03  0.29603689159E+03  0.16500000000E+03 0.  0.
   -5000001    1    1    2    0    0 -0.20950774724E+03 -0.72648037091E+02 -0.94709316393E+03  0.98660108180E+03  0.16500000000E+03 0.  0.
<mgrwt>
<rscale>  0 0.73218799E+03</rscale>
<asrwt>0</asrwt>
<pdfrwt beam="1">  1        2 0.17655259E-01 0.73218799E+03</pdfrwt>
<pdfrwt beam="2">  1       -2 0.17967365E+00 0.73218799E+03</pdfrwt>
<totfact> 0.60955389E+01</totfact>
</mgrwt>
</event>
<event>
 4    1  0.8877834E-005  0.8592360E+03  0.7818608E-02  0.9478024E-01
         -2   -1    0    0    0  501 -0.00000000000E+00  0.00000000000E+00  0.11368109797E+03  0.11368109800E+03  0.25500000000E-02 0. -1.
          2   -1    0    0  501    0  0.00000000000E+00 -0.00000000000E+00 -0.16235909767E+04  0.16235909767E+04  0.25500000000E-02 0.  1.
    5000001    1    1    2    0    0  0.24247184311E+03  0.27400735542E+03 -0.10647316460E+04  0.11378713036E+04  0.16500000000E+03 0.  0.
   -5000001    1    1    2    0    0 -0.24247184311E+03 -0.27400735542E+03 -0.44517823273E+03  0.59940077112E+03  0.16500000000E+03 0.  0.
<mgrwt>
<rscale>  0 0.85923595E+03</rscale>
<asrwt>0</asrwt>
<pdfrwt beam="1">  1        2 0.24978321E+00 0.85923595E+03</pdfrwt>
<pdfrwt beam="2">  1       -2 0.17489401E-01 0.85923595E+03</pdfrwt>
<totfact> 0.29392771E+02</totfact>
</mgrwt>
</event>
<event>
 4    1  0.8877834E-005  0.4050928E+03  0.7818608E-02  0.1042030E+00
         -2   -1    0    0    0  501 -0.00000000000E+00  0.00000000000E+00  0.35375780758E+02  0.35375780850E+02  0.25500000000E-02 0. -1.
          2   -1    0    0  501    0  0.00000000000E+00 -0.00000000000E+00 -0.11596931268E+04  0.11596931268E+04  0.25500000000E-02 0.  1.
    5000001    1    1    2    0    0 -0.38976206897E+02 -0.10742051899E+03 -0.64250452096E+03  0.67312359345E+03  0.16500000000E+03 0.  0.
   -5000001    1    1    2    0    0  0.38976206897E+02  0.10742051899E+03 -0.48181282506E+03  0.52194531418E+03  0.16500000000E+03 0.  0.
<mgrwt>
<rscale>  0 0.40509283E+03</rscale>
<asrwt>0</asrwt>
<pdfrwt beam="1">  1        2 0.17841430E+00 0.40509283E+03</pdfrwt>
<pdfrwt beam="2">  1       -2 0.54424287E-02 0.40509283E+03</pdfrwt>
<totfact> 0.36368078E+03</totfact>
</mgrwt>
</event>
<event>
 4    1  0.8877834E-005  0.6641387E+03  0.7818608E-02  0.9780605E-01
         -2   -1    0    0    0  501 -0.00000000000E+00  0.00000000000E+00  0.77585180954E+03  0.77585180954E+03  0.25500000000E-02 0. -1.
          2   -1    0    0  501    0  0.00000000000E+00 -0.00000000000E+00 -0.14212771632E+03  0.14212771634E+03  0.25500000000E-02 0.  1.
    5000001    1    1    2    0    0 -0.20064125456E+03 -0.17652293224E+03  0.16781521084E+03  0.35609577872E+03  0.16500000000E+03 0.  0.
   -5000001    1    1    2    0    0  0.20064125456E+03  0.17652293224E+03  0.46590888238E+03  0.56188374716E+03  0.16500000000E+03 0.  0.
<mgrwt>
<rscale>  0 0.66413868E+03</rscale>
<asrwt>0</asrwt>
<pdfrwt beam="1">  1        2 0.21865803E-01 0.66413868E+03</pdfrwt>
<pdfrwt beam="2">  1       -2 0.11936181E+00 0.66413868E+03</pdfrwt>
<totfact> 0.13938050E+02</totfact>
</mgrwt>
</event>
<event>
 4    1  0.8877834E-005  0.4941579E+03  0.7818608E-02  0.1015315E+00
         -2   -1    0    0    0  501 -0.00000000000E+00  0.00000000000E+00  0.32858186468E+02  0.32858186567E+02  0.25500000000E-02 0. -1.
          2   -1    0    0  501    0  0.00000000000E+00 -0.00000000000E+00 -0.18579238508E+04  0.18579238508E+04  0.25500000000E-02 0.  1.
    5000001    1    1    2    0    0  0.11126760564E+03  0.11073569345E+03 -0.54592626079E+03  0.59152629366E+03  0.16500000000E+03 0.  0.
   -5000001    1    1    2    0    0 -0.11126760564E+03 -0.11073569345E+03 -0.12791394035E+04  0.12992557437E+04  0.16500000000E+03 0.  0.
<mgrwt>
<rscale>  0 0.49415790E+03</rscale>
<asrwt>0</asrwt>
<pdfrwt beam="1">  1        2 0.28583436E+00 0.49415790E+03</pdfrwt>
<pdfrwt beam="2">  1       -2 0.50551071E-02 0.49415790E+03</pdfrwt>
<totfact> 0.16776277E+03</totfact>
</mgrwt>
</event>
<event>
 4    1  0.8877834E-005  0.5099628E+03  0.7818608E-02  0.1011211E+00
         -2   -1    0    0    0  501 -0.00000000000E+00  0.00000000000E+00  0.27085029169E+02  0.27085029289E+02  0.25500000000E-02 0. -1.
          2   -1    0    0  501    0  0.00000000000E+00 -0.00000000000E+00 -0.24004222380E+04  0.24004222380E+04  0.25500000000E-02 0.  1.
    5000001    1    1    2    0    0 -0.21950854152E+02  0.85851327206E+02 -0.36303316070E+03  0.40849769417E+03  0.16500000000E+03 0.  0.
   -5000001    1    1    2    0    0  0.21950854152E+02 -0.85851327206E+02 -0.20103040481E+04  0.20190095731E+04  0.16500000000E+03 0.  0.
<mgrwt>
<rscale>  0 0.50996277E+03</rscale>
<asrwt>0</asrwt>
<pdfrwt beam="1">  1        2 0.36929556E+00 0.50996277E+03</pdfrwt>
<pdfrwt beam="2">  1       -2 0.41669295E-02 0.50996277E+03</pdfrwt>
<totfact> 0.11453947E+03</totfact>
</mgrwt>
</event>
<event>
 4    1  0.8877834E-005  0.3816893E+03  0.7818608E-02  0.1050311E+00
          2   -1    0    0  501    0  0.00000000000E+00  0.00000000000E+00  0.45537518999E+03  0.45537519000E+03  0.25500000000E-02 0.  1.
         -2   -1    0    0    0  501 -0.00000000000E+00 -0.00000000000E+00 -0.79981691278E+02  0.79981691319E+02  0.25500000000E-02 0. -1.
    5000001    1    1    2    0    0  0.43954301253E+01 -0.54543149583E+02  0.29815887757E+03  0.34513474361E+03  0.16500000000E+03 0.  0.
   -5000001    1    1    2    0    0 -0.43954301253E+01  0.54543149583E+02  0.77234621149E+02  0.19022213771E+03  0.16500000000E+03 0.  0.
<mgrwt>
<rscale>  0 0.38168929E+03</rscale>
<asrwt>0</asrwt>
<pdfrwt beam="1">  1        2 0.70057722E-01 0.38168929E+03</pdfrwt>
<pdfrwt beam="2">  1       -2 0.12304875E-01 0.38168929E+03</pdfrwt>
<totfact> 0.32992491E+03</totfact>
</mgrwt>
</event>
<event>
 4    1  0.8877834E-005  0.4243323E+03  0.7818608E-02  0.1035665E+00
          2   -1    0    0  501    0  0.00000000000E+00  0.00000000000E+00  0.20767826913E+04  0.20767826913E+04  0.25500000000E-02 0.  1.
         -2   -1    0    0    0  501 -0.00000000000E+00 -0.00000000000E+00 -0.21675099064E+02  0.21675099214E+02  0.25500000000E-02 0. -1.
    5000001    1    1    2    0    0  0.11689348618E+03 -0.45845446126E+02  0.12500149658E+04  0.12670944348E+04  0.16500000000E+03 0.  0.
   -5000001    1    1    2    0    0 -0.11689348618E+03  0.45845446126E+02  0.80509262646E+03  0.83136335571E+03  0.16500000000E+03 0.  0.
<mgrwt>
<rscale>  0 0.42433228E+03</rscale>
<asrwt>0</asrwt>
<pdfrwt beam="1">  1        2 0.31950500E+00 0.42433228E+03</pdfrwt>
<pdfrwt beam="2">  1       -2 0.33346309E-02 0.42433228E+03</pdfrwt>
<totfact> 0.24266764E+03</totfact>
</mgrwt>
</event>
<event>
 4    1  0.8877834E-005  0.1261768E+04  0.7818608E-02  0.9060445E-01
         -2   -1    0    0    0  501 -0.00000000000E+00  0.00000000000E+00  0.88434311635E+03  0.88434311635E+03  0.25500000000E-02 0. -1.
          2   -1    0    0  501    0  0.00000000000E+00 -0.00000000000E+00 -0.45006799406E+03  0.45006799406E+03  0.25500000000E-02 0.  1.
    5000001    1    1    2    0    0  0.30977331014E+03  0.10407000540E+03 -0.32625252464E+03  0.49036290596E+03  0.16500000000E+03 0.  0.
   -5000001    1    1    2    0    0 -0.30977331014E+03 -0.10407000540E+03  0.76052764693E+03  0.84404820446E+03  0.16500000000E+03 0.  0.
<mgrwt>
<rscale>  0 0.12617679E+04</rscale>
<asrwt>0</asrwt>
<pdfrwt beam="1">  1        2 0.69241231E-01 0.12617679E+04</pdfrwt>
<pdfrwt beam="2">  1       -2 0.13605278E+00 0.12617679E+04</pdfrwt>
<totfact> 0.26408718E+01</totfact>
</mgrwt>
</event>
<event>
 4    1  0.8877834E-005  0.3767903E+03  0.7818608E-02  0.1052127E+00
         -2   -1    0    0    0  501 -0.00000000000E+00  0.00000000000E+00  0.18301744588E+02  0.18301744765E+02  0.25500000000E-02 0. -1.
          2   -1    0    0  501    0  0.00000000000E+00 -0.00000000000E+00 -0.19393082150E+04  0.19393082150E+04  0.25500000000E-02 0.  1.
    5000001    1    1    2    0    0 -0.50030962961E+02  0.71981506961E+02 -0.10859814915E+04  0.11019370374E+04  0.16500000000E+03 0.  0.
   -5000001    1    1    2    0    0  0.50030962961E+02 -0.71981506961E+02 -0.83502497895E+03  0.85567292237E+03  0.16500000000E+03 0.  0.
<mgrwt>
<rscale>  0 0.37679025E+03</rscale>
<asrwt>0</asrwt>
<pdfrwt beam="1">  1        2 0.29835495E+00 0.37679025E+03</pdfrwt>
<pdfrwt beam="2">  1       -2 0.28156546E-02 0.37679025E+03</pdfrwt>
<totfact> 0.37145598E+03</totfact>
</mgrwt>
</event>
<event>
 4    1  0.8877834E-005  0.9332970E+03  0.7818608E-02  0.9384890E-01
         -2   -1    0    0    0  501 -0.00000000000E+00  0.00000000000E+00  0.59275871423E+02  0.59275871478E+02  0.25500000000E-02 0. -1.
          2   -1    0    0  501    0  0.00000000000E+00 -0.00000000000E+00 -0.36736838689E+04  0.36736838689E+04  0.25500000000E-02 0.  1.
    5000001    1    1    2    0    0  0.35290656320E+02  0.43217319996E+03 -0.16065490733E+04  0.16721973658E+04  0.16500000000E+03 0.  0.
   -5000001    1    1    2    0    0 -0.35290656320E+02 -0.43217319996E+03 -0.20078589242E+04  0.20607623746E+04  0.16500000000E+03 0.  0.
<mgrwt>
<rscale>  0 0.93329698E+03</rscale>
<asrwt>0</asrwt>
<pdfrwt beam="1">  1        2 0.56518196E+00 0.93329698E+03</pdfrwt>
<pdfrwt beam="2">  1       -2 0.91193677E-02 0.93329698E+03</pdfrwt>
<totfact> 0.51409660E+01</totfact>
</mgrwt>
</event>
<event>
 4    1  0.8877834E-005  0.6687183E+03  0.7818608E-02  0.9772276E-01
         -2   -1    0    0    0  501 -0.00000000000E+00  0.00000000000E+00  0.14085787202E+03  0.14085787205E+03  0.25500000000E-02 0. -1.
          2   -1    0    0  501    0  0.00000000000E+00 -0.00000000000E+00 -0.79367967159E+03  0.79367967159E+03  0.25500000000E-02 0.  1.
    5000001    1    1    2    0    0 -0.26288464856E+03 -0.10501824245E+03 -0.41946693653E+03  0.53227312588E+03  0.16500000000E+03 0.  0.
   -5000001    1    1    2    0    0  0.26288464856E+03  0.10501824245E+03 -0.23335486304E+03  0.40226441776E+03  0.16500000000E+03 0.  0.
<mgrwt>
<rscale>  0 0.66871827E+03</rscale>
<asrwt>0</asrwt>
<pdfrwt beam="1">  1        2 0.12210456E+00 0.66871827E+03</pdfrwt>
<pdfrwt beam="2">  1       -2 0.21670442E-01 0.66871827E+03</pdfrwt>
<totfact> 0.64859951E+02</totfact>
</mgrwt>
</event>
<event>
 4    1  0.8877834E-005  0.3743306E+03  0.7818608E-02  0.1053049E+00
         -2   -1    0    0    0  501 -0.00000000000E+00  0.00000000000E+00  0.30989271390E+02  0.30989271495E+02  0.25500000000E-02 0.  1.
          2   -1    0    0  501    0  0.00000000000E+00 -0.00000000000E+00 -0.11304183328E+04  0.11304183328E+04  0.25500000000E-02 0. -1.
    5000001    1    1    2    0    0  0.47816263352E+02 -0.69241489605E+02 -0.46617022501E+03  0.50161784021E+03  0.16500000000E+03 0.  0.
   -5000001    1    1    2    0    0 -0.47816263352E+02  0.69241489605E+02 -0.63325883636E+03  0.65978976406E+03  0.16500000000E+03 0.  0.
<mgrwt>
<rscale>  0 0.37433055E+03</rscale>
<asrwt>0</asrwt>
<pdfrwt beam="1">  1        2 0.17391048E+00 0.37433055E+03</pdfrwt>
<pdfrwt beam="2">  1       -2 0.47675811E-02 0.37433055E+03</pdfrwt>
<totfact> 0.46347270E+03</totfact>
</mgrwt>
</event>
<event>
 4    1  0.8877834E-005  0.4986141E+03  0.7818608E-02  0.1014141E+00
          2   -1    0    0  501    0  0.00000000000E+00  0.00000000000E+00  0.19360899173E+04  0.19360899173E+04  0.25500000000E-02 0.  1.
         -2   -1    0    0    0  501 -0.00000000000E+00 -0.00000000000E+00 -0.32102848720E+02  0.32102848822E+02  0.25500000000E-02 0. -1.
    5000001    1    1    2    0    0 -0.17207654066E+03 -0.61048169554E+02  0.79450622587E+03  0.83174657066E+03  0.16500000000E+03 0.  0.
   -5000001    1    1    2    0    0  0.17207654066E+03  0.61048169554E+02  0.11094808427E+04  0.11364461955E+04  0.16500000000E+03 0.  0.
<mgrwt>
<rscale>  0 0.49861409E+03</rscale>
<asrwt>0</asrwt>
<pdfrwt beam="1">  1        2 0.29785998E+00 0.49861409E+03</pdfrwt>
<pdfrwt beam="2">  1       -2 0.49388999E-02 0.49861409E+03</pdfrwt>
<totfact> 0.15783700E+03</totfact>
</mgrwt>
</event>
<event>
 4    1  0.8877834E-005  0.4420731E+03  0.7818608E-02  0.1030113E+00
         -2   -1    0    0    0  501 -0.00000000000E+00  0.00000000000E+00  0.54929575769E+02  0.54929575829E+02  0.25500000000E-02 0. -1.
          2   -1    0    0  501    0  0.00000000000E+00 -0.00000000000E+00 -0.88945076835E+03  0.88945076836E+03  0.25500000000E-02 0.  1.
    5000001    1    1    2    0    0  0.87239318887E+02 -0.10820076190E+03 -0.31449701968E+03  0.38138101555E+03  0.16500000000E+03 0.  0.
   -5000001    1    1    2    0    0 -0.87239318887E+02  0.10820076190E+03 -0.52002417291E+03  0.56299932863E+03  0.16500000000E+03 0.  0.
<mgrwt>
<rscale>  0 0.44207309E+03</rscale>
<asrwt>0</asrwt>
<pdfrwt beam="1">  1        2 0.13683857E+00 0.44207309E+03</pdfrwt>
<pdfrwt beam="2">  1       -2 0.84507046E-02 0.44207309E+03</pdfrwt>
<totfact> 0.26868766E+03</totfact>
</mgrwt>
</event>
<event>
 4    1  0.8877834E-005  0.3908645E+03  0.7818608E-02  0.1046990E+00
          2   -1    0    0  501    0  0.00000000000E+00  0.00000000000E+00  0.43478532139E+03  0.43478532140E+03  0.25500000000E-02 0.  1.
         -2   -1    0    0    0  501 -0.00000000000E+00 -0.00000000000E+00 -0.87845117763E+02  0.87845117800E+02  0.25500000000E-02 0. -1.
    5000001    1    1    2    0    0  0.15788114466E+02 -0.89056825768E+02  0.24407662426E+03  0.30818627692E+03  0.16500000000E+03 0.  0.
   -5000001    1    1    2    0    0 -0.15788114466E+02  0.89056825768E+02  0.10286357937E+03  0.21444416228E+03  0.16500000000E+03 0.  0.
<mgrwt>
<rscale>  0 0.39086452E+03</rscale>
<asrwt>0</asrwt>
<pdfrwt beam="1">  1        2 0.66890049E-01 0.39086452E+03</pdfrwt>
<pdfrwt beam="2">  1       -2 0.13514634E-01 0.39086452E+03</pdfrwt>
<totfact> 0.29795484E+03</totfact>
</mgrwt>
</event>
<event>
 4    1  0.8877834E-005  0.8082809E+03  0.7818608E-02  0.9548108E-01
         -2   -1    0    0    0  501 -0.00000000000E+00  0.00000000000E+00  0.49459815823E+03  0.49459815824E+03  0.25500000000E-02 0. -1.
          2   -1    0    0  501    0  0.00000000000E+00 -0.00000000000E+00 -0.33022666511E+03  0.33022666512E+03  0.25500000000E-02 0.  1.
    5000001    1    1    2    0    0  0.33767986067E+03 -0.10020389819E+03  0.19413993211E+03  0.43472269639E+03  0.16500000000E+03 0.  0.
   -5000001    1    1    2    0    0 -0.33767986067E+03  0.10020389819E+03 -0.29768438994E+02  0.39010212698E+03  0.16500000000E+03 0.  0.
<mgrwt>
<rscale>  0 0.80828089E+03</rscale>
<asrwt>0</asrwt>
<pdfrwt beam="1">  1        2 0.50804102E-01 0.80828089E+03</pdfrwt>
<pdfrwt beam="2">  1       -2 0.76092024E-01 0.80828089E+03</pdfrwt>
<totfact> 0.15364040E+02</totfact>
</mgrwt>
</event>
<event>
 4    1  0.8877834E-005  0.4311661E+03  0.7818608E-02  0.1033492E+00
         -2   -1    0    0    0  501 -0.00000000000E+00  0.00000000000E+00  0.31671195439E+02  0.31671195541E+02  0.25500000000E-02 0. -1.
          2   -1    0    0  501    0  0.00000000000E+00 -0.00000000000E+00 -0.14674550878E+04  0.14674550878E+04  0.25500000000E-02 0.  1.
    5000001    1    1    2    0    0 -0.77376703745E+02 -0.48916445149E+02 -0.35537358138E+03  0.40236221894E+03  0.16500000000E+03 0.  0.
   -5000001    1    1    2    0    0  0.77376703745E+02  0.48916445149E+02 -0.10804103109E+04  0.10967640644E+04  0.16500000000E+03 0.  0.
<mgrwt>
<rscale>  0 0.43116613E+03</rscale>
<asrwt>0</asrwt>
<pdfrwt beam="1">  1        2 0.22576227E+00 0.43116613E+03</pdfrwt>
<pdfrwt beam="2">  1       -2 0.48724928E-02 0.43116613E+03</pdfrwt>
<totfact> 0.28918698E+03</totfact>
</mgrwt>
</event>
<event>
 4    1  0.8877834E-005  0.4478397E+03  0.7818608E-02  0.1028368E+00
         -2   -1    0    0    0  501 -0.00000000000E+00  0.00000000000E+00  0.13676387385E+03  0.13676387387E+03  0.25500000000E-02 0. -1.
          2   -1    0    0  501    0  0.00000000000E+00 -0.00000000000E+00 -0.36661809006E+03  0.36661809007E+03  0.25500000000E-02 0.  1.
    5000001    1    1    2    0    0 -0.67474363317E+02 -0.94754650968E+02 -0.22381163239E+03  0.30140982130E+03  0.16500000000E+03 0.  0.
   -5000001    1    1    2    0    0  0.67474363317E+02  0.94754650968E+02 -0.60425838237E+01  0.20197214264E+03  0.16500000000E+03 0.  0.
<mgrwt>
<rscale>  0 0.44783975E+03</rscale>
<asrwt>0</asrwt>
<pdfrwt beam="1">  1        2 0.56402783E-01 0.44783975E+03</pdfrwt>
<pdfrwt beam="2">  1       -2 0.21040596E-01 0.44783975E+03</pdfrwt>
<totfact> 0.17025456E+03</totfact>
</mgrwt>
</event>
<event>
 4    1  0.8877834E-005  0.5428169E+03  0.7818608E-02  0.1003170E+00
          2   -1    0    0  501    0  0.00000000000E+00  0.00000000000E+00  0.21810153730E+04  0.21810153730E+04  0.25500000000E-02 0.  1.
         -2   -1    0    0    0  501 -0.00000000000E+00 -0.00000000000E+00 -0.33774432017E+02  0.33774432113E+02  0.25500000000E-02 0. -1.
    5000001    1    1    2    0    0  0.21020140161E+03 -0.47440107225E+02  0.10673490097E+04  0.11013147150E+04  0.16500000000E+03 0.  0.
   -5000001    1    1    2    0    0 -0.21020140161E+03  0.47440107225E+02  0.10798919313E+04  0.11134750901E+04  0.16500000000E+03 0.  0.
<mgrwt>
<rscale>  0 0.54281693E+03</rscale>
<asrwt>0</asrwt>
<pdfrwt beam="1">  1        2 0.33554083E+00 0.54281693E+03</pdfrwt>
<pdfrwt beam="2">  1       -2 0.51960665E-02 0.54281693E+03</pdfrwt>
<totfact> 0.10727430E+03</totfact>
</mgrwt>
</event>
<event>
 4    1  0.8877834E-005  0.5538350E+03  0.7818608E-02  0.1000610E+00
         -2   -1    0    0    0  501 -0.00000000000E+00  0.00000000000E+00  0.87011323293E+02  0.87011323330E+02  0.25500000000E-02 0. -1.
          2   -1    0    0  501    0  0.00000000000E+00 -0.00000000000E+00 -0.88130244398E+03  0.88130244398E+03  0.25500000000E-02 0.  1.
    5000001    1    1    2    0    0  0.16353361199E+03  0.13393281715E+03 -0.27630419144E+03  0.38503278817E+03  0.16500000000E+03 0.  0.
   -5000001    1    1    2    0    0 -0.16353361199E+03 -0.13393281715E+03 -0.51798692925E+03  0.58328097914E+03  0.16500000000E+03 0.  0.
<mgrwt>
<rscale>  0 0.55383496E+03</rscale>
<asrwt>0</asrwt>
<pdfrwt beam="1">  1        2 0.13558499E+00 0.55383496E+03</pdfrwt>
<pdfrwt beam="2">  1       -2 0.13386358E-01 0.55383496E+03</pdfrwt>
<totfact> 0.12884173E+03</totfact>
</mgrwt>
</event>
<event>
 4    1  0.8877834E-005  0.1337680E+04  0.7818608E-02  0.9000207E-01
         -2   -1    0    0    0  501 -0.00000000000E+00  0.00000000000E+00  0.15254854207E+03  0.15254854209E+03  0.25500000000E-02 0. -1.
          2   -1    0    0  501    0  0.00000000000E+00 -0.00000000000E+00 -0.29324910015E+04  0.29324910015E+04  0.25500000000E-02 0.  1.
    5000001    1    1    2    0    0 -0.15053330709E+03 -0.54489449591E+03 -0.65865773232E+03  0.88353002019E+03  0.16500000000E+03 0.  0.
   -5000001    1    1    2    0    0  0.15053330709E+03  0.54489449591E+03 -0.21212847271E+04  0.22015095234E+04  0.16500000000E+03 0.  0.
<mgrwt>
<rscale>  0 0.13376804E+04</rscale>
<asrwt>0</asrwt>
<pdfrwt beam="1">  1        2 0.45115242E+00 0.13376804E+04</pdfrwt>
<pdfrwt beam="2">  1       -2 0.23469009E-01 0.13376804E+04</pdfrwt>
<totfact> 0.30448274E+01</totfact>
</mgrwt>
</event>
<event>
 4    1  0.8877834E-005  0.3493468E+03  0.7818608E-02  0.1062883E+00
          2   -1    0    0  501    0  0.00000000000E+00  0.00000000000E+00  0.65345878193E+03  0.65345878194E+03  0.25500000000E-02 0.  1.
         -2   -1    0    0    0  501 -0.00000000000E+00 -0.00000000000E+00 -0.46691244501E+02  0.46691244570E+02  0.25500000000E-02 0. -1.
    5000001    1    1    2    0    0 -0.49196626875E+02 -0.29417910012E+02  0.30395858042E+03  0.35057315947E+03  0.16500000000E+03 0.  0.
   -5000001    1    1    2    0    0  0.49196626875E+02  0.29417910012E+02  0.30280895701E+03  0.34957686704E+03  0.16500000000E+03 0.  0.
<mgrwt>
<rscale>  0 0.34934684E+03</rscale>
<asrwt>0</asrwt>
<pdfrwt beam="1">  1        2 0.10053212E+00 0.34934684E+03</pdfrwt>
<pdfrwt beam="2">  1       -2 0.71832685E-02 0.34934684E+03</pdfrwt>
<totfact> 0.51240068E+03</totfact>
</mgrwt>
</event>
<event>
 4    1  0.8877834E-005  0.4348246E+03  0.7818608E-02  0.1032347E+00
          2   -1    0    0  501    0  0.00000000000E+00  0.00000000000E+00  0.83578874939E+03  0.83578874940E+03  0.25500000000E-02 0.  1.
         -2   -1    0    0    0  501 -0.00000000000E+00 -0.00000000000E+00 -0.56555087456E+02  0.56555087514E+02  0.25500000000E-02 0. -1.
    5000001    1    1    2    0    0  0.61940260979E+02 -0.86823453925E+02  0.58068244690E+03  0.61301876988E+03  0.16500000000E+03 0.  0.
   -5000001    1    1    2    0    0 -0.61940260979E+02  0.86823453925E+02  0.19855121504E+03  0.27932506703E+03  0.16500000000E+03 0.  0.
<mgrwt>
<rscale>  0 0.43482459E+03</rscale>
<asrwt>0</asrwt>
<pdfrwt beam="1">  1        2 0.12858287E+00 0.43482459E+03</pdfrwt>
<pdfrwt beam="2">  1       -2 0.87007834E-02 0.43482459E+03</pdfrwt>
<totfact> 0.27880372E+03</totfact>
</mgrwt>
</event>
<event>
 4    1  0.8877834E-005  0.7388132E+03  0.7818608E-02  0.9653066E-01
         -2   -1    0    0    0  501 -0.00000000000E+00  0.00000000000E+00  0.19806248862E+03  0.19806248864E+03  0.25500000000E-02 0. -1.
          2   -1    0    0  501    0  0.00000000000E+00 -0.00000000000E+00 -0.68898071840E+03  0.68898071841E+03  0.25500000000E-02 0.  1.
    5000001    1    1    2    0    0  0.34251369856E+02  0.20482454245E+03  0.63245884002E+02  0.27267433207E+03  0.16500000000E+03 0.  0.
   -5000001    1    1    2    0    0 -0.34251369856E+02 -0.20482454245E+03 -0.55416411379E+03  0.61436887497E+03  0.16500000000E+03 0.  0.
<mgrwt>
<rscale>  0 0.73881320E+03</rscale>
<asrwt>0</asrwt>
<pdfrwt beam="1">  1        2 0.10599703E+00 0.73881320E+03</pdfrwt>
<pdfrwt beam="2">  1       -2 0.30471152E-01 0.73881320E+03</pdfrwt>
<totfact> 0.41871618E+02</totfact>
</mgrwt>
</event>
<event>
 4    1  0.8877834E-005  0.5987456E+03  0.7818608E-02  0.9908012E-01
          2   -1    0    0  501    0  0.00000000000E+00  0.00000000000E+00  0.17452491796E+03  0.17452491798E+03  0.25500000000E-02 0. -1.
         -2   -1    0    0    0  501 -0.00000000000E+00 -0.00000000000E+00 -0.51353169809E+03  0.51353169810E+03  0.25500000000E-02 0.  1.
    5000001    1    1    2    0    0  0.15234748322E+03 -0.71271059412E+02 -0.38174041489E+03  0.44859788666E+03  0.16500000000E+03 0.  0.
   -5000001    1    1    2    0    0 -0.15234748322E+03  0.71271059412E+02  0.42733634759E+02  0.23945872941E+03  0.16500000000E+03 0.  0.
<mgrwt>
<rscale>  0 0.59874561E+03</rscale>
<asrwt>0</asrwt>
<pdfrwt beam="1">  1        2 0.26849988E-01 0.59874561E+03</pdfrwt>
<pdfrwt beam="2">  1       -2 0.79004876E-01 0.59874561E+03</pdfrwt>
<totfact> 0.29020851E+02</totfact>
</mgrwt>
</event>
<event>
 4    1  0.8877834E-005  0.7723933E+03  0.7818608E-02  0.9600859E-01
         -2   -1    0    0    0  501 -0.00000000000E+00  0.00000000000E+00  0.92952758140E+03  0.92952758140E+03  0.25500000000E-02 0. -1.
          2   -1    0    0  501    0  0.00000000000E+00 -0.00000000000E+00 -0.16045552820E+03  0.16045552822E+03  0.25500000000E-02 0.  1.
    5000001    1    1    2    0    0 -0.23692382046E+03 -0.25518739546E+03  0.42104530398E+03  0.57075183005E+03  0.16500000000E+03 0.  0.
   -5000001    1    1    2    0    0  0.23692382046E+03  0.25518739546E+03  0.34802674922E+03  0.51923127956E+03  0.16500000000E+03 0.  0.
<mgrwt>
<rscale>  0 0.77239327E+03</rscale>
<asrwt>0</asrwt>
<pdfrwt beam="1">  1        2 0.24685466E-01 0.77239327E+03</pdfrwt>
<pdfrwt beam="2">  1       -2 0.14300424E+00 0.77239327E+03</pdfrwt>
<totfact> 0.76267880E+01</totfact>
</mgrwt>
</event>
<event>
 4    1  0.8877834E-005  0.3812205E+03  0.7818608E-02  0.1050484E+00
         -2   -1    0    0    0  501 -0.00000000000E+00  0.00000000000E+00  0.14552033442E+02  0.14552033666E+02  0.25500000000E-02 0. -1.
          2   -1    0    0  501    0  0.00000000000E+00 -0.00000000000E+00 -0.24967145316E+04  0.24967145316E+04  0.25500000000E-02 0.  1.
    5000001    1    1    2    0    0  0.85378512449E+02  0.21555486958E+02 -0.14834008676E+04  0.14951445627E+04  0.16500000000E+03 0.  0.
   -5000001    1    1    2    0    0 -0.85378512449E+02 -0.21555486958E+02 -0.99876163055E+03  0.10161220025E+04  0.16500000000E+03 0.  0.
<mgrwt>
<rscale>  0 0.38122053E+03</rscale>
<asrwt>0</asrwt>
<pdfrwt beam="1">  1        2 0.38410959E+00 0.38122053E+03</pdfrwt>
<pdfrwt beam="2">  1       -2 0.22387764E-02 0.38122053E+03</pdfrwt>
<totfact> 0.26145446E+03</totfact>
</mgrwt>
</event>
<event>
 4    1  0.8877834E-005  0.3910966E+03  0.7818608E-02  0.1046907E+00
          2   -1    0    0  501    0  0.00000000000E+00  0.00000000000E+00  0.91465196196E+03  0.91465196196E+03  0.25500000000E-02 0.  1.
         -2   -1    0    0    0  501 -0.00000000000E+00 -0.00000000000E+00 -0.41807314304E+02  0.41807314382E+02  0.25500000000E-02 0. -1.
    5000001    1    1    2    0    0 -0.10280595503E+03  0.41668461233E+01  0.48700009726E+03  0.52438585195E+03  0.16500000000E+03 0.  0.
   -5000001    1    1    2    0    0  0.10280595503E+03 -0.41668461233E+01  0.38584455040E+03  0.43207342439E+03  0.16500000000E+03 0.  0.
<mgrwt>
<rscale>  0 0.39109662E+03</rscale>
<asrwt>0</asrwt>
<pdfrwt beam="1">  1        2 0.14071569E+00 0.39109662E+03</pdfrwt>
<pdfrwt beam="2">  1       -2 0.64318944E-02 0.39109662E+03</pdfrwt>
<totfact> 0.39692004E+03</totfact>
</mgrwt>
</event>
<event>
 4    1  0.8877834E-005  0.8343643E+03  0.7818608E-02  0.9511566E-01
         -2   -1    0    0    0  501 -0.00000000000E+00  0.00000000000E+00  0.28535223119E+03  0.28535223120E+03  0.25500000000E-02 0. -1.
          2   -1    0    0  501    0  0.00000000000E+00 -0.00000000000E+00 -0.60991618273E+03  0.60991618273E+03  0.25500000000E-02 0.  1.
    5000001    1    1    2    0    0  0.33522152244E+03  0.14978562372E+03 -0.27985566092E+03  0.49025849624E+03  0.16500000000E+03 0.  0.
   -5000001    1    1    2    0    0 -0.33522152244E+03 -0.14978562372E+03 -0.44708290622E+02  0.40500991770E+03  0.16500000000E+03 0.  0.
<mgrwt>
<rscale>  0 0.83436429E+03</rscale>
<asrwt>0</asrwt>
<pdfrwt beam="1">  1        2 0.93833259E-01 0.83436429E+03</pdfrwt>
<pdfrwt beam="2">  1       -2 0.43900343E-01 0.83436429E+03</pdfrwt>
<totfact> 0.24050439E+02</totfact>
</mgrwt>
</event>
<event>
 4    1  0.8877834E-005  0.4921346E+03  0.7818608E-02  0.1015853E+00
          2   -1    0    0  501    0  0.00000000000E+00  0.00000000000E+00  0.14525854022E+03  0.14525854024E+03  0.25500000000E-02 0.  1.
         -2   -1    0    0    0  501 -0.00000000000E+00 -0.00000000000E+00 -0.41683681445E+03  0.41683681445E+03  0.25500000000E-02 0. -1.
    5000001    1    1    2    0    0  0.98356101586E+02  0.14925346581E+03 -0.17811972298E+03  0.30149984327E+03  0.16500000000E+03 0.  0.
   -5000001    1    1    2    0    0 -0.98356101586E+02 -0.14925346581E+03 -0.93458551248E+02  0.26059551143E+03  0.16500000000E+03 0.  0.
<mgrwt>
<rscale>  0 0.49213456E+03</rscale>
<asrwt>0</asrwt>
<pdfrwt beam="1">  1        2 0.22347468E-01 0.49213456E+03</pdfrwt>
<pdfrwt beam="2">  1       -2 0.64128740E-01 0.49213456E+03</pdfrwt>
<totfact> 0.56501820E+02</totfact>
</mgrwt>
</event>
<event>
 4    1  0.8877834E-005  0.7554147E+03  0.7818608E-02  0.9626894E-01
         -2   -1    0    0    0  501 -0.00000000000E+00  0.00000000000E+00  0.50441805497E+02  0.50441805562E+02  0.25500000000E-02 0. -1.
          2   -1    0    0  501    0  0.00000000000E+00 -0.00000000000E+00 -0.28282660092E+04  0.28282660092E+04  0.25500000000E-02 0.  1.
    5000001    1    1    2    0    0  0.24097126781E+03  0.13529708867E+03 -0.63571570459E+03  0.71255309359E+03  0.16500000000E+03 0.  0.
   -5000001    1    1    2    0    0 -0.24097126781E+03 -0.13529708867E+03 -0.21421084991E+04  0.21661547211E+04  0.16500000000E+03 0.  0.
<mgrwt>
<rscale>  0 0.75541470E+03</rscale>
<asrwt>0</asrwt>
<pdfrwt beam="1">  1        2 0.43511773E+00 0.75541470E+03</pdfrwt>
<pdfrwt beam="2">  1       -2 0.77602800E-02 0.75541470E+03</pdfrwt>
<totfact> 0.24073227E+02</totfact>
</mgrwt>
</event>
<event>
 4    1  0.8877834E-005  0.5371191E+03  0.7818608E-02  0.1004520E+00
          2   -1    0    0  501    0  0.00000000000E+00  0.00000000000E+00  0.26813961857E+03  0.26813961858E+03  0.25500000000E-02 0.  1.
         -2   -1    0    0    0  501 -0.00000000000E+00 -0.00000000000E+00 -0.26898014681E+03  0.26898014682E+03  0.25500000000E-02 0. -1.
    5000001    1    1    2    0    0 -0.96665782350E+02  0.15850499676E+03  0.10171274741E+03  0.26840005674E+03  0.16500000000E+03 0.  0.
   -5000001    1    1    2    0    0  0.96665782350E+02 -0.15850499676E+03 -0.10255327565E+03  0.26871970866E+03  0.16500000000E+03 0.  0.
<mgrwt>
<rscale>  0 0.53711911E+03</rscale>
<asrwt>0</asrwt>
<pdfrwt beam="1">  1        2 0.41252249E-01 0.53711911E+03</pdfrwt>
<pdfrwt beam="2">  1       -2 0.41381561E-01 0.53711911E+03</pdfrwt>
<totfact> 0.69237209E+02</totfact>
</mgrwt>
</event>
<event>
 4    1  0.8877834E-005  0.5022894E+03  0.7818608E-02  0.1013183E+00
         -2   -1    0    0    0  501 -0.00000000000E+00  0.00000000000E+00  0.63152318262E+02  0.63152318313E+02  0.25500000000E-02 0. -1.
          2   -1    0    0  501    0  0.00000000000E+00 -0.00000000000E+00 -0.99875452485E+03  0.99875452486E+03  0.25500000000E-02 0.  1.
    5000001    1    1    2    0    0  0.34765071707E+02 -0.18611318875E+03 -0.46486070264E+03  0.52836275616E+03  0.16500000000E+03 0.  0.
   -5000001    1    1    2    0    0 -0.34765071707E+02  0.18611318875E+03 -0.47074150396E+03  0.53354408701E+03  0.16500000000E+03 0.  0.
<mgrwt>
<rscale>  0 0.50228941E+03</rscale>
<asrwt>0</asrwt>
<pdfrwt beam="1">  1        2 0.15365453E+00 0.50228941E+03</pdfrwt>
<pdfrwt beam="2">  1       -2 0.97157420E-02 0.50228941E+03</pdfrwt>
<totfact> 0.18267938E+03</totfact>
</mgrwt>
</event>
<event>
 4    1  0.8877834E-005  0.7967343E+03  0.7818608E-02  0.9564756E-01
         -2   -1    0    0    0  501 -0.00000000000E+00  0.00000000000E+00  0.15097001831E+03  0.15097001833E+03  0.25500000000E-02 0. -1.
          2   -1    0    0  501    0  0.00000000000E+00 -0.00000000000E+00 -0.10511781991E+04  0.10511781991E+04  0.25500000000E-02 0.  1.
    5000001    1    1    2    0    0 -0.23329196365E+03  0.95929093829E+02 -0.57097556032E+02  0.30677787119E+03  0.16500000000E+03 0.  0.
   -5000001    1    1    2    0    0  0.23329196365E+03 -0.95929093829E+02 -0.84311062473E+03  0.89537034621E+03  0.16500000000E+03 0.  0.
<mgrwt>
<rscale>  0 0.79673431E+03</rscale>
<asrwt>0</asrwt>
<pdfrwt beam="1">  1        2 0.16171972E+00 0.79673431E+03</pdfrwt>
<pdfrwt beam="2">  1       -2 0.23226157E-01 0.79673431E+03</pdfrwt>
<totfact> 0.38438905E+02</totfact>
</mgrwt>
</event>
<event>
 4    1  0.8877834E-005  0.3872880E+03  0.7818608E-02  0.1048272E+00
          2   -1    0    0  501    0  0.00000000000E+00  0.00000000000E+00  0.64745757477E+03  0.64745757477E+03  0.25500000000E-02 0.  1.
         -2   -1    0    0    0  501 -0.00000000000E+00 -0.00000000000E+00 -0.57915769047E+02  0.57915769103E+02  0.25500000000E-02 0. -1.
    5000001    1    1    2    0    0  0.84888975923E+02  0.30934223866E+02  0.21111050595E+03  0.28276440752E+03  0.16500000000E+03 0.  0.
   -5000001    1    1    2    0    0 -0.84888975923E+02 -0.30934223866E+02  0.37843129977E+03  0.42260893635E+03  0.16500000000E+03 0.  0.
<mgrwt>
<rscale>  0 0.38728802E+03</rscale>
<asrwt>0</asrwt>
<pdfrwt beam="1">  1        2 0.99608853E-01 0.38728802E+03</pdfrwt>
<pdfrwt beam="2">  1       -2 0.89101187E-02 0.38728802E+03</pdfrwt>
<totfact> 0.36968447E+03</totfact>
</mgrwt>
</event>
<event>
 4    1  0.8877834E-005  0.8041465E+03  0.7818608E-02  0.9554034E-01
         -2   -1    0    0    0  501 -0.00000000000E+00  0.00000000000E+00  0.83639968021E+02  0.83639968060E+02  0.25500000000E-02 0. -1.
          2   -1    0    0  501    0  0.00000000000E+00 -0.00000000000E+00 -0.19328428500E+04  0.19328428500E+04  0.25500000000E-02 0.  1.
    5000001    1    1    2    0    0 -0.23119027195E+02 -0.35564536303E+03 -0.70860059908E+03  0.81015919588E+03  0.16500000000E+03 0.  0.
   -5000001    1    1    2    0    0  0.23119027195E+02  0.35564536303E+03 -0.11406022829E+04  0.12063236222E+04  0.16500000000E+03 0.  0.
<mgrwt>
<rscale>  0 0.80414654E+03</rscale>
<asrwt>0</asrwt>
<pdfrwt beam="1">  1        2 0.29736040E+00 0.80414654E+03</pdfrwt>
<pdfrwt beam="2">  1       -2 0.12867689E-01 0.80414654E+03</pdfrwt>
<totfact> 0.33591762E+02</totfact>
</mgrwt>
</event>
<event>
 4    1  0.8877834E-005  0.4151724E+03  0.7818608E-02  0.1038649E+00
         -2   -1    0    0    0  501 -0.00000000000E+00  0.00000000000E+00  0.92025158537E+02  0.92025158572E+02  0.25500000000E-02 0. -1.
          2   -1    0    0  501    0  0.00000000000E+00 -0.00000000000E+00 -0.46826360804E+03  0.46826360805E+03  0.25500000000E-02 0.  1.
    5000001    1    1    2    0    0  0.87049355001E+02 -0.45051184007E+02 -0.81345396023E+02  0.20844489162E+03  0.16500000000E+03 0.  0.
   -5000001    1    1    2    0    0 -0.87049355001E+02  0.45051184007E+02 -0.29489305348E+03  0.35184387500E+03  0.16500000000E+03 0.  0.
<mgrwt>
<rscale>  0 0.41517241E+03</rscale>
<asrwt>0</asrwt>
<pdfrwt beam="1">  1        2 0.72040553E-01 0.41517241E+03</pdfrwt>
<pdfrwt beam="2">  1       -2 0.14157717E-01 0.41517241E+03</pdfrwt>
<totfact> 0.25414242E+03</totfact>
</mgrwt>
</event>
<event>
 4    1  0.8877834E-005  0.5789012E+03  0.7818608E-02  0.9950173E-01
         -2   -1    0    0    0  501 -0.00000000000E+00  0.00000000000E+00  0.19892792326E+03  0.19892792327E+03  0.25500000000E-02 0. -1.
          2   -1    0    0  501    0  0.00000000000E+00 -0.00000000000E+00 -0.42116580017E+03  0.42116580018E+03  0.25500000000E-02 0.  1.
    5000001    1    1    2    0    0  0.10868905471E+03  0.19697860148E+03 -0.19369362551E+03  0.33964113505E+03  0.16500000000E+03 0.  0.
   -5000001    1    1    2    0    0 -0.10868905471E+03 -0.19697860148E+03 -0.28544251407E+02  0.28045258840E+03  0.16500000000E+03 0.  0.
<mgrwt>
<rscale>  0 0.57890116E+03</rscale>
<asrwt>0</asrwt>
<pdfrwt beam="1">  1        2 0.64794738E-01 0.57890116E+03</pdfrwt>
<pdfrwt beam="2">  1       -2 0.30604296E-01 0.57890116E+03</pdfrwt>
<totfact> 0.74460573E+02</totfact>
</mgrwt>
</event>
<event>
 4    1  0.8877834E-005  0.4032135E+03  0.7818608E-02  0.1042673E+00
          2   -1    0    0  501    0  0.00000000000E+00  0.00000000000E+00  0.61400231373E+03  0.61400231373E+03  0.25500000000E-02 0.  1.
         -2   -1    0    0    0  501 -0.00000000000E+00 -0.00000000000E+00 -0.66197292724E+02  0.66197292774E+02  0.25500000000E-02 0. -1.
    5000001    1    1    2    0    0  0.75944253625E+02 -0.58932318774E+02  0.38296516282E+03  0.42793441529E+03  0.16500000000E+03 0.  0.
   -5000001    1    1    2    0    0 -0.75944253625E+02  0.58932318774E+02  0.16483985819E+03  0.25226519122E+03  0.16500000000E+03 0.  0.
<mgrwt>
<rscale>  0 0.40321355E+03</rscale>
<asrwt>0</asrwt>
<pdfrwt beam="1">  1        2 0.94461897E-01 0.40321355E+03</pdfrwt>
<pdfrwt beam="2">  1       -2 0.10184199E-01 0.40321355E+03</pdfrwt>
<totfact> 0.31827182E+03</totfact>
</mgrwt>
</event>
<event>
 4    1  0.8877834E-005  0.5920823E+03  0.7818608E-02  0.9921970E-01
          2   -1    0    0  501    0  0.00000000000E+00  0.00000000000E+00  0.86556939954E+03  0.86556939955E+03  0.25500000000E-02 0. -1.
         -2   -1    0    0    0  501 -0.00000000000E+00 -0.00000000000E+00 -0.10125169972E+03  0.10125169975E+03  0.25500000000E-02 0.  1.
    5000001    1    1    2    0    0  0.79249354578E+02  0.22818811526E+03  0.45636402981E+03  0.54207324583E+03  0.16500000000E+03 0.  0.
   -5000001    1    1    2    0    0 -0.79249354578E+02 -0.22818811526E+03  0.30795367002E+03  0.42474785347E+03  0.16500000000E+03 0.  0.
<mgrwt>
<rscale>  0 0.59208234E+03</rscale>
<asrwt>0</asrwt>
<pdfrwt beam="1">  1        2 0.13316451E+00 0.59208234E+03</pdfrwt>
<pdfrwt beam="2">  1       -2 0.15577186E-01 0.59208234E+03</pdfrwt>
<totfact> 0.10234097E+03</totfact>
</mgrwt>
</event>
<event>
 4    1  0.8877834E-005  0.5139483E+03  0.7818608E-02  0.1010201E+00
          2   -1    0    0  501    0  0.00000000000E+00  0.00000000000E+00  0.12429750270E+04  0.12429750270E+04  0.25500000000E-02 0.  1.
         -2   -1    0    0    0  501 -0.00000000000E+00 -0.00000000000E+00 -0.53127139086E+02  0.53127139147E+02  0.25500000000E-02 0. -1.
    5000001    1    1    2    0    0 -0.15234622449E+03 -0.48011166835E+02  0.30413049300E+03  0.38109683944E+03  0.16500000000E+03 0.  0.
   -5000001    1    1    2    0    0  0.15234622449E+03  0.48011166835E+02  0.88571739495E+03  0.91500532674E+03  0.16500000000E+03 0.  0.
<mgrwt>
<rscale>  0 0.51394827E+03</rscale>
<asrwt>0</asrwt>
<pdfrwt beam="1">  1        2 0.19122692E+00 0.51394827E+03</pdfrwt>
<pdfrwt beam="2">  1       -2 0.81734061E-02 0.51394827E+03</pdfrwt>
<totfact> 0.17189403E+03</totfact>
</mgrwt>
</event>
<event>
 4    1  0.8877834E-005  0.4901214E+03  0.7818608E-02  0.1016390E+00
         -2   -1    0    0    0  501 -0.00000000000E+00  0.00000000000E+00  0.33459270419E+02  0.33459270517E+02  0.25500000000E-02 0. -1.
          2   -1    0    0  501    0  0.00000000000E+00 -0.00000000000E+00 -0.17948615501E+04  0.17948615501E+04  0.25500000000E-02 0.  1.
    5000001    1    1    2    0    0  0.59886654202E+02  0.16429156211E+03 -0.10577108727E+04  0.10846913934E+04  0.16500000000E+03 0.  0.
   -5000001    1    1    2    0    0 -0.59886654202E+02 -0.16429156211E+03 -0.70369140693E+03  0.74362942715E+03  0.16500000000E+03 0.  0.
<mgrwt>
<rscale>  0 0.49012145E+03</rscale>
<asrwt>0</asrwt>
<pdfrwt beam="1">  1        2 0.27613247E+00 0.49012145E+03</pdfrwt>
<pdfrwt beam="2">  1       -2 0.51475815E-02 0.49012145E+03</pdfrwt>
<totfact> 0.17639330E+03</totfact>
</mgrwt>
</event>
<event>
 4    1  0.8877834E-005  0.3961935E+03  0.7818608E-02  0.1045106E+00
          2   -1    0    0  501    0  0.00000000000E+00  0.00000000000E+00  0.17388179285E+03  0.17388179287E+03  0.25500000000E-02 0. -1.
         -2   -1    0    0    0  501 -0.00000000000E+00 -0.00000000000E+00 -0.22568385901E+03  0.22568385903E+03  0.25500000000E-02 0.  1.
    5000001    1    1    2    0    0 -0.22817796576E+02  0.88515955685E+02 -0.86927126917E+02  0.20769461150E+03  0.16500000000E+03 0.  0.
   -5000001    1    1    2    0    0  0.22817796576E+02 -0.88515955685E+02  0.35125060757E+02  0.19187104040E+03  0.16500000000E+03 0.  0.
<mgrwt>
<rscale>  0 0.39619346E+03</rscale>
<asrwt>0</asrwt>
<pdfrwt beam="1">  1        2 0.26751045E-01 0.39619346E+03</pdfrwt>
<pdfrwt beam="2">  1       -2 0.34720594E-01 0.39619346E+03</pdfrwt>
<totfact> 0.15650962E+03</totfact>
</mgrwt>
</event>
<event>
 4    1  0.8877834E-005  0.6530369E+03  0.7818608E-02  0.9801097E-01
          2   -1    0    0  501    0  0.00000000000E+00  0.00000000000E+00  0.12489075903E+04  0.12489075903E+04  0.25500000000E-02 0.  1.
         -2   -1    0    0    0  501 -0.00000000000E+00 -0.00000000000E+00 -0.85366038394E+02  0.85366038432E+02  0.25500000000E-02 0. -1.
    5000001    1    1    2    0    0  0.27261627155E+03 -0.44274339609E+02  0.46783801884E+03  0.56778275822E+03  0.16500000000E+03 0.  0.
   -5000001    1    1    2    0    0 -0.27261627155E+03  0.44274339609E+02  0.69570353308E+03  0.76649087053E+03  0.16500000000E+03 0.  0.
<mgrwt>
<rscale>  0 0.65303689E+03</rscale>
<asrwt>0</asrwt>
<pdfrwt beam="1">  1        2 0.19213962E+00 0.65303689E+03</pdfrwt>
<pdfrwt beam="2">  1       -2 0.13133237E-01 0.65303689E+03</pdfrwt>
<totfact> 0.78505215E+02</totfact>
</mgrwt>
</event>
<event>
 4    1  0.8877834E-005  0.4470459E+03  0.7818608E-02  0.1028607E+00
          2   -1    0    0  501    0  0.00000000000E+00  0.00000000000E+00  0.19160646344E+03  0.19160646345E+03  0.25500000000E-02 0.  1.
         -2   -1    0    0    0  501 -0.00000000000E+00 -0.00000000000E+00 -0.26075587764E+03  0.26075587765E+03  0.25500000000E-02 0. -1.
    5000001    1    1    2    0    0  0.62044151146E+02 -0.12511941436E+03 -0.92111862299E+02  0.23497646630E+03  0.16500000000E+03 0.  0.
   -5000001    1    1    2    0    0 -0.62044151146E+02  0.12511941436E+03  0.22962448097E+02  0.21738587480E+03  0.16500000000E+03 0.  0.
<mgrwt>
<rscale>  0 0.44704591E+03</rscale>
<asrwt>0</asrwt>
<pdfrwt beam="1">  1        2 0.29477917E-01 0.44704591E+03</pdfrwt>
<pdfrwt beam="2">  1       -2 0.40116289E-01 0.44704591E+03</pdfrwt>
<totfact> 0.10672643E+03</totfact>
</mgrwt>
</event>
<event>
 4    1  0.8877834E-005  0.7677567E+03  0.7818608E-02  0.9607898E-01
         -2   -1    0    0    0  501 -0.00000000000E+00  0.00000000000E+00  0.60271037623E+02  0.60271037677E+02  0.25500000000E-02 0. -1.
          2   -1    0    0  501    0  0.00000000000E+00 -0.00000000000E+00 -0.24449980877E+04  0.24449980877E+04  0.25500000000E-02 0.  1.
    5000001    1    1    2    0    0  0.34550853367E+03  0.77697201761E+01 -0.12787622389E+04  0.13348761662E+04  0.16500000000E+03 0.  0.
   -5000001    1    1    2    0    0 -0.34550853367E+03 -0.77697201761E+01 -0.11059648112E+04  0.11703929592E+04  0.16500000000E+03 0.  0.
<mgrwt>
<rscale>  0 0.76775666E+03</rscale>
<asrwt>0</asrwt>
<pdfrwt beam="1">  1        2 0.37615348E+00 0.76775666E+03</pdfrwt>
<pdfrwt beam="2">  1       -2 0.92724692E-02 0.76775666E+03</pdfrwt>
<totfact> 0.30067256E+02</totfact>
</mgrwt>
</event>
<event>
 4    1  0.8877834E-005  0.3758846E+03  0.7818608E-02  0.1052465E+00
         -2   -1    0    0    0  501 -0.00000000000E+00  0.00000000000E+00  0.83524399926E+01  0.83524403818E+01  0.25500000000E-02 0. -1.
          2   -1    0    0  501    0  0.00000000000E+00 -0.00000000000E+00 -0.42289811285E+04  0.42289811285E+04  0.25500000000E-02 0.  1.
    5000001    1    1    2    0    0  0.87477921790E+02 -0.20844713779E+02 -0.21467088030E+04  0.21549177649E+04  0.16500000000E+03 0.  0.
   -5000001    1    1    2    0    0 -0.87477921790E+02  0.20844713779E+02 -0.20739198855E+04  0.20824158039E+04  0.16500000000E+03 0.  0.
<mgrwt>
<rscale>  0 0.37588462E+03</rscale>
<asrwt>0</asrwt>
<pdfrwt beam="1">  1        2 0.65061077E+00 0.37588462E+03</pdfrwt>
<pdfrwt beam="2">  1       -2 0.12849942E-02 0.37588462E+03</pdfrwt>
<totfact> 0.42274994E+02</totfact>
</mgrwt>
</event>
<event>
 4    1  0.8877834E-005  0.4002363E+03  0.7818608E-02  0.1043698E+00
         -2   -1    0    0    0  501 -0.00000000000E+00  0.00000000000E+00  0.25727755108E+03  0.25727755109E+03  0.25500000000E-02 0. -1.
          2   -1    0    0  501    0  0.00000000000E+00 -0.00000000000E+00 -0.15565786145E+03  0.15565786147E+03  0.25500000000E-02 0.  1.
    5000001    1    1    2    0    0  0.10468752693E+03  0.33697017127E+02  0.78634147344E+02  0.21331501679E+03  0.16500000000E+03 0.  0.
   -5000001    1    1    2    0    0 -0.10468752693E+03 -0.33697017127E+02  0.22985542285E+02  0.19962039578E+03  0.16500000000E+03 0.  0.
<mgrwt>
<rscale>  0 0.40023630E+03</rscale>
<asrwt>0</asrwt>
<pdfrwt beam="1">  1        2 0.23947363E-01 0.40023630E+03</pdfrwt>
<pdfrwt beam="2">  1       -2 0.39581162E-01 0.40023630E+03</pdfrwt>
<totfact> 0.13830129E+03</totfact>
</mgrwt>
</event>
<event>
 4    1  0.8877834E-005  0.5729667E+03  0.7818608E-02  0.9963135E-01
          2   -1    0    0  501    0  0.00000000000E+00  0.00000000000E+00  0.34813421177E+02  0.34813421271E+02  0.25500000000E-02 0.  1.
         -2   -1    0    0    0  501 -0.00000000000E+00 -0.00000000000E+00 -0.23575018187E+04  0.23575018187E+04  0.25500000000E-02 0. -1.
    5000001    1    1    2    0    0 -0.33351876424E+02 -0.20445364636E+03 -0.70521991134E+03  0.75330854536E+03  0.16500000000E+03 0.  0.
   -5000001    1    1    2    0    0  0.33351876424E+02  0.20445364636E+03 -0.16174684862E+04  0.16390066946E+04  0.16500000000E+03 0.  0.
<mgrwt>
<rscale>  0 0.57296668E+03</rscale>
<asrwt>0</asrwt>
<pdfrwt beam="1">  1        2 0.53559128E-02 0.57296668E+03</pdfrwt>
<pdfrwt beam="2">  1       -2 0.36269246E+00 0.57296668E+03</pdfrwt>
<totfact> 0.21055859E+01</totfact>
</mgrwt>
</event>
<event>
 4    1  0.8877834E-005  0.5041486E+03  0.7818608E-02  0.1012702E+00
         -2   -1    0    0    0  501 -0.00000000000E+00  0.00000000000E+00  0.12595562421E+03  0.12595562423E+03  0.25500000000E-02 0. -1.
          2   -1    0    0  501    0  0.00000000000E+00 -0.00000000000E+00 -0.50447488407E+03  0.50447488408E+03  0.25500000000E-02 0.  1.
    5000001    1    1    2    0    0 -0.97267864848E+02 -0.16364069894E+03 -0.20024207183E+03  0.32180926527E+03  0.16500000000E+03 0.  0.
   -5000001    1    1    2    0    0  0.97267864848E+02  0.16364069894E+03 -0.17827718803E+03  0.30862124304E+03  0.16500000000E+03 0.  0.
<mgrwt>
<rscale>  0 0.50414858E+03</rscale>
<asrwt>0</asrwt>
<pdfrwt beam="1">  1        2 0.77611519E-01 0.50414858E+03</pdfrwt>
<pdfrwt beam="2">  1       -2 0.19377789E-01 0.50414858E+03</pdfrwt>
<totfact> 0.13741998E+03</totfact>
</mgrwt>
</event>
<event>
 4    1  0.8877834E-005  0.5164255E+03  0.7818608E-02  0.1009578E+00
          2   -1    0    0  501    0  0.00000000000E+00  0.00000000000E+00  0.11545701240E+04  0.11545701240E+04  0.25500000000E-02 0.  1.
         -2   -1    0    0    0  501 -0.00000000000E+00 -0.00000000000E+00 -0.57747753616E+02  0.57747753672E+02  0.25500000000E-02 0. -1.
    5000001    1    1    2    0    0  0.48531593326E+02  0.18581821599E+03  0.42951676342E+03  0.49859139082E+03  0.16500000000E+03 0.  0.
   -5000001    1    1    2    0    0 -0.48531593326E+02 -0.18581821599E+03  0.66730560692E+03  0.71372648681E+03  0.16500000000E+03 0.  0.
<mgrwt>
<rscale>  0 0.51642553E+03</rscale>
<asrwt>0</asrwt>
<pdfrwt beam="1">  1        2 0.17762617E+00 0.51642553E+03</pdfrwt>
<pdfrwt beam="2">  1       -2 0.88842701E-02 0.51642553E+03</pdfrwt>
<totfact> 0.16946030E+03</totfact>
</mgrwt>
</event>
<event>
 4    1  0.8877834E-005  0.3848941E+03  0.7818608E-02  0.1049140E+00
         -2   -1    0    0    0  501 -0.00000000000E+00  0.00000000000E+00  0.60940261231E+03  0.60940261232E+03  0.25500000000E-02 0. -1.
          2   -1    0    0  501    0  0.00000000000E+00 -0.00000000000E+00 -0.60774042922E+02  0.60774042975E+02  0.25500000000E-02 0.  1.
    5000001    1    1    2    0    0 -0.13402405465E+01  0.97725623600E+02  0.30232359045E+03  0.35801766310E+03  0.16500000000E+03 0.  0.
   -5000001    1    1    2    0    0  0.13402405465E+01 -0.97725623600E+02  0.24630497894E+03  0.31215899219E+03  0.16500000000E+03 0.  0.
<mgrwt>
<rscale>  0 0.38489407E+03</rscale>
<asrwt>0</asrwt>
<pdfrwt beam="1">  1        2 0.93498526E-02 0.38489407E+03</pdfrwt>
<pdfrwt beam="2">  1       -2 0.93754249E-01 0.38489407E+03</pdfrwt>
<totfact> 0.69863064E+02</totfact>
</mgrwt>
</event>
<event>
 4    1  0.8877834E-005  0.5016916E+03  0.7818608E-02  0.1013338E+00
         -2   -1    0    0    0  501 -0.00000000000E+00  0.00000000000E+00  0.63362568538E+02  0.63362568589E+02  0.25500000000E-02 0. -1.
          2   -1    0    0  501    0  0.00000000000E+00 -0.00000000000E+00 -0.99307251101E+03  0.99307251102E+03  0.25500000000E-02 0.  1.
    5000001    1    1    2    0    0 -0.12472202896E+03 -0.10785768989E+03 -0.27060337837E+03  0.35726748265E+03  0.16500000000E+03 0.  0.
   -5000001    1    1    2    0    0  0.12472202896E+03  0.10785768989E+03 -0.65910656411E+03  0.69916759695E+03  0.16500000000E+03 0.  0.
<mgrwt>
<rscale>  0 0.50169164E+03</rscale>
<asrwt>0</asrwt>
<pdfrwt beam="1">  1        2 0.15278038E+00 0.50169164E+03</pdfrwt>
<pdfrwt beam="2">  1       -2 0.97480882E-02 0.50169164E+03</pdfrwt>
<totfact> 0.18320860E+03</totfact>
</mgrwt>
</event>
<event>
 4    1  0.8877834E-005  0.4993204E+03  0.7818608E-02  0.1013956E+00
         -2   -1    0    0    0  501 -0.00000000000E+00  0.00000000000E+00  0.58507068886E+02  0.58507068942E+02  0.25500000000E-02 0. -1.
          2   -1    0    0  501    0  0.00000000000E+00 -0.00000000000E+00 -0.10653448813E+04  0.10653448813E+04  0.25500000000E-02 0.  1.
    5000001    1    1    2    0    0 -0.11896121470E+03  0.69070970903E+02 -0.78974074105E+03  0.81843631866E+03  0.16500000000E+03 0.  0.
   -5000001    1    1    2    0    0  0.11896121470E+03 -0.69070970903E+02 -0.21709707138E+03  0.30541563160E+03  0.16500000000E+03 0.  0.
<mgrwt>
<rscale>  0 0.49932036E+03</rscale>
<asrwt>0</asrwt>
<pdfrwt beam="1">  1        2 0.16389920E+00 0.49932036E+03</pdfrwt>
<pdfrwt beam="2">  1       -2 0.90010883E-02 0.49932036E+03</pdfrwt>
<totfact> 0.18782235E+03</totfact>
</mgrwt>
</event>
<event>
 4    1  0.8877834E-005  0.4201870E+03  0.7818608E-02  0.1037005E+00
          2   -1    0    0  501    0  0.00000000000E+00  0.00000000000E+00  0.21719822239E+04  0.21719822239E+04  0.25500000000E-02 0.  1.
         -2   -1    0    0    0  501 -0.00000000000E+00 -0.00000000000E+00 -0.20322117648E+02  0.20322117808E+02  0.25500000000E-02 0. -1.
    5000001    1    1    2    0    0 -0.67617970144E+02 -0.95128448598E+02  0.77644361141E+03  0.80231620532E+03  0.16500000000E+03 0.  0.
   -5000001    1    1    2    0    0  0.67617970144E+02  0.95128448598E+02  0.13752164949E+04  0.13899881364E+04  0.16500000000E+03 0.  0.
<mgrwt>
<rscale>  0 0.42018700E+03</rscale>
<asrwt>0</asrwt>
<pdfrwt beam="1">  1        2 0.33415115E+00 0.42018700E+03</pdfrwt>
<pdfrwt beam="2">  1       -2 0.31264793E-02 0.42018700E+03</pdfrwt>
<totfact> 0.23778746E+03</totfact>
</mgrwt>
</event>
<event>
 4    1  0.8877834E-005  0.3833760E+03  0.7818608E-02  0.1049693E+00
         -2   -1    0    0    0  501 -0.00000000000E+00  0.00000000000E+00  0.15718241541E+03  0.15718241543E+03  0.25500000000E-02 0. -1.
          2   -1    0    0  501    0  0.00000000000E+00 -0.00000000000E+00 -0.23376849716E+03  0.23376849717E+03  0.25500000000E-02 0.  1.
    5000001    1    1    2    0    0  0.15767466486E+02  0.77753301010E+02  0.19619071991E+02  0.18413065145E+03  0.16500000000E+03 0.  0.
   -5000001    1    1    2    0    0 -0.15767466486E+02 -0.77753301010E+02 -0.96205153743E+02  0.20682026115E+03  0.16500000000E+03 0.  0.
<mgrwt>
<rscale>  0 0.38337604E+03</rscale>
<asrwt>0</asrwt>
<pdfrwt beam="1">  1        2 0.35964384E-01 0.38337604E+03</pdfrwt>
<pdfrwt beam="2">  1       -2 0.24181910E-01 0.38337604E+03</pdfrwt>
<totfact> 0.21780697E+03</totfact>
</mgrwt>
</event>
<event>
 4    1  0.8877834E-005  0.3891337E+03  0.7818608E-02  0.1047609E+00
          2   -1    0    0  501    0  0.00000000000E+00  0.00000000000E+00  0.33041239886E+03  0.33041239887E+03  0.25500000000E-02 0.  1.
         -2   -1    0    0    0  501 -0.00000000000E+00 -0.00000000000E+00 -0.11457273922E+03  0.11457273925E+03  0.25500000000E-02 0. -1.
    5000001    1    1    2    0    0  0.79173890460E+02 -0.10434772910E+02  0.18250259919E+03  0.25866887738E+03  0.16500000000E+03 0.  0.
   -5000001    1    1    2    0    0 -0.79173890460E+02  0.10434772910E+02  0.33337060450E+02  0.18631626074E+03  0.16500000000E+03 0.  0.
<mgrwt>
<rscale>  0 0.38913367E+03</rscale>
<asrwt>0</asrwt>
<pdfrwt beam="1">  1        2 0.50832676E-01 0.38913367E+03</pdfrwt>
<pdfrwt beam="2">  1       -2 0.17626576E-01 0.38913367E+03</pdfrwt>
<totfact> 0.25833257E+03</totfact>
</mgrwt>
</event>
<event>
 4    1  0.8877834E-005  0.4564600E+03  0.7818608E-02  0.1025813E+00
          2   -1    0    0  501    0  0.00000000000E+00  0.00000000000E+00  0.11115578747E+03  0.11115578750E+03  0.25500000000E-02 0.  1.
         -2   -1    0    0    0  501 -0.00000000000E+00 -0.00000000000E+00 -0.46861195921E+03  0.46861195922E+03  0.25500000000E-02 0. -1.
    5000001    1    1    2    0    0 -0.78165467708E+02 -0.14073679908E+01 -0.47973210940E+01  0.18264675008E+03  0.16500000000E+03 0.  0.
   -5000001    1    1    2    0    0  0.78165467708E+02  0.14073679908E+01 -0.35265885065E+03  0.39712099663E+03  0.16500000000E+03 0.  0.
<mgrwt>
<rscale>  0 0.45645999E+03</rscale>
<asrwt>0</asrwt>
<pdfrwt beam="1">  1        2 0.17100891E-01 0.45645999E+03</pdfrwt>
<pdfrwt beam="2">  1       -2 0.72094147E-01 0.45645999E+03</pdfrwt>
<totfact> 0.60042592E+02</totfact>
</mgrwt>
</event>
<event>
 4    1  0.8877834E-005  0.5062190E+03  0.7818608E-02  0.1012168E+00
         -2   -1    0    0    0  501 -0.00000000000E+00  0.00000000000E+00  0.18213342267E+03  0.18213342269E+03  0.25500000000E-02 0. -1.
          2   -1    0    0  501    0  0.00000000000E+00 -0.00000000000E+00 -0.35174444052E+03  0.35174444053E+03  0.25500000000E-02 0.  1.
    5000001    1    1    2    0    0  0.24380559806E+02  0.18972180731E+03 -0.68108785134E+02  0.26163444436E+03  0.16500000000E+03 0.  0.
   -5000001    1    1    2    0    0 -0.24380559806E+02 -0.18972180731E+03 -0.10150223271E+03  0.27224341885E+03  0.16500000000E+03 0.  0.
<mgrwt>
<rscale>  0 0.50621900E+03</rscale>
<asrwt>0</asrwt>
<pdfrwt beam="1">  1        2 0.54114529E-01 0.50621900E+03</pdfrwt>
<pdfrwt beam="2">  1       -2 0.28020527E-01 0.50621900E+03</pdfrwt>
<totfact> 0.10704467E+03</totfact>
</mgrwt>
</event>
<event>
 4    1  0.8877834E-005  0.6592546E+03  0.7818608E-02  0.9789567E-01
          2   -1    0    0  501    0  0.00000000000E+00  0.00000000000E+00  0.21183547382E+04  0.21183547382E+04  0.25500000000E-02 0.  1.
         -2   -1    0    0    0  501 -0.00000000000E+00 -0.00000000000E+00 -0.51291773354E+02  0.51291773418E+02  0.25500000000E-02 0. -1.
    5000001    1    1    2    0    0 -0.25204252724E+03 -0.12501065291E+03  0.87652094053E+03  0.93523636481E+03  0.16500000000E+03 0.  0.
   -5000001    1    1    2    0    0  0.25204252724E+03  0.12501065291E+03  0.11905420243E+04  0.12344101468E+04  0.16500000000E+03 0.  0.
<mgrwt>
<rscale>  0 0.65925464E+03</rscale>
<asrwt>0</asrwt>
<pdfrwt beam="1">  1        2 0.32590069E+00 0.65925464E+03</pdfrwt>
<pdfrwt beam="2">  1       -2 0.78910431E-02 0.65925464E+03</pdfrwt>
<totfact> 0.59648191E+02</totfact>
</mgrwt>
</event>
<event>
 4    1  0.8877834E-005  0.6947808E+03  0.7818608E-02  0.9726200E-01
         -2   -1    0    0    0  501 -0.00000000000E+00  0.00000000000E+00  0.25465570080E+03  0.25465570082E+03  0.25500000000E-02 0. -1.
          2   -1    0    0  501    0  0.00000000000E+00 -0.00000000000E+00 -0.47389504696E+03  0.47389504696E+03  0.25500000000E-02 0.  1.
    5000001    1    1    2    0    0  0.19579538056E+03 -0.22995900308E+03 -0.60011654394E+02  0.34934706641E+03  0.16500000000E+03 0.  0.
   -5000001    1    1    2    0    0 -0.19579538056E+03  0.22995900308E+03 -0.15922769176E+03  0.37920368137E+03  0.16500000000E+03 0.  0.
<mgrwt>
<rscale>  0 0.69478076E+03</rscale>
<asrwt>0</asrwt>
<pdfrwt beam="1">  1        2 0.72906930E-01 0.69478076E+03</pdfrwt>
<pdfrwt beam="2">  1       -2 0.39177800E-01 0.69478076E+03</pdfrwt>
<totfact> 0.40682151E+02</totfact>
</mgrwt>
</event>
<event>
 4    1  0.8877834E-005  0.4128669E+03  0.7818608E-02  0.1039413E+00
          2   -1    0    0  501    0  0.00000000000E+00  0.00000000000E+00  0.41521714390E+03  0.41521714391E+03  0.25500000000E-02 0.  1.
         -2   -1    0    0    0  501 -0.00000000000E+00 -0.00000000000E+00 -0.10263246601E+03  0.10263246604E+03  0.25500000000E-02 0. -1.
    5000001    1    1    2    0    0  0.26922254933E+02 -0.99245451364E+02  0.24332954689E+03  0.31146225424E+03  0.16500000000E+03 0.  0.
   -5000001    1    1    2    0    0 -0.26922254933E+02  0.99245451364E+02  0.69255131010E+02  0.20638735571E+03  0.16500000000E+03 0.  0.
<mgrwt>
<rscale>  0 0.41286685E+03</rscale>
<asrwt>0</asrwt>
<pdfrwt beam="1">  1        2 0.63879561E-01 0.41286685E+03</pdfrwt>
<pdfrwt beam="2">  1       -2 0.15789610E-01 0.41286685E+03</pdfrwt>
<totfact> 0.24225021E+03</totfact>
</mgrwt>
</event>
<event>
 4    1  0.8877834E-005  0.5447539E+03  0.7818608E-02  0.1002716E+00
         -2   -1    0    0    0  501 -0.00000000000E+00  0.00000000000E+00  0.19983170440E+03  0.19983170442E+03  0.25500000000E-02 0. -1.
          2   -1    0    0  501    0  0.00000000000E+00 -0.00000000000E+00 -0.37125845456E+03  0.37125845457E+03  0.25500000000E-02 0.  1.
    5000001    1    1    2    0    0 -0.20670420639E+03  0.10808439453E+02 -0.18416811614E+02  0.26534436164E+03  0.16500000000E+03 0.  0.
   -5000001    1    1    2    0    0  0.20670420639E+03 -0.10808439453E+02 -0.15300993855E+03  0.30574579735E+03  0.16500000000E+03 0.  0.
<mgrwt>
<rscale>  0 0.54475393E+03</rscale>
<asrwt>0</asrwt>
<pdfrwt beam="1">  1        2 0.57116685E-01 0.54475393E+03</pdfrwt>
<pdfrwt beam="2">  1       -2 0.30743339E-01 0.54475393E+03</pdfrwt>
<totfact> 0.85023231E+02</totfact>
</mgrwt>
</event>
<event>
 4    1  0.8877834E-005  0.5198984E+03  0.7818608E-02  0.1008712E+00
          2   -1    0    0  501    0  0.00000000000E+00  0.00000000000E+00  0.99422935313E+03  0.99422935314E+03  0.25500000000E-02 0.  1.
         -2   -1    0    0    0  501 -0.00000000000E+00 -0.00000000000E+00 -0.67965782348E+02  0.67965782396E+02  0.25500000000E-02 0. -1.
    5000001    1    1    2    0    0  0.54259648182E+02  0.19325811899E+03  0.47838881919E+03  0.54440212371E+03  0.16500000000E+03 0.  0.
   -5000001    1    1    2    0    0 -0.54259648182E+02 -0.19325811899E+03  0.44787475159E+03  0.51779301182E+03  0.16500000000E+03 0.  0.
<mgrwt>
<rscale>  0 0.51989836E+03</rscale>
<asrwt>0</asrwt>
<pdfrwt beam="1">  1        2 0.15295836E+00 0.51989836E+03</pdfrwt>
<pdfrwt beam="2">  1       -2 0.10456274E-01 0.51989836E+03</pdfrwt>
<totfact> 0.16325059E+03</totfact>
</mgrwt>
</event>
<event>
 4    1  0.8877834E-005  0.6180715E+03  0.7818608E-02  0.9868607E-01
         -2   -1    0    0    0  501 -0.00000000000E+00  0.00000000000E+00  0.96199661561E+02  0.96199661594E+02  0.25500000000E-02 0. -1.
          2   -1    0    0  501    0  0.00000000000E+00 -0.00000000000E+00 -0.99275908704E+03  0.99275908705E+03  0.25500000000E-02 0.  1.
    5000001    1    1    2    0    0 -0.25578366643E+03 -0.52991949125E+02 -0.43650582099E+03  0.53478571638E+03  0.16500000000E+03 0.  0.
   -5000001    1    1    2    0    0  0.25578366643E+03  0.52991949125E+02 -0.46005360449E+03  0.55417303226E+03  0.16500000000E+03 0.  0.
<mgrwt>
<rscale>  0 0.61807148E+03</rscale>
<asrwt>0</asrwt>
<pdfrwt beam="1">  1        2 0.15273216E+00 0.61807148E+03</pdfrwt>
<pdfrwt beam="2">  1       -2 0.14799949E-01 0.61807148E+03</pdfrwt>
<totfact> 0.91967937E+02</totfact>
</mgrwt>
</event>
<event>
 4    1  0.8877834E-005  0.4501126E+03  0.7818608E-02  0.1027688E+00
          2   -1    0    0  501    0  0.00000000000E+00  0.00000000000E+00  0.70604874026E+03  0.70604874027E+03  0.25500000000E-02 0.  1.
         -2   -1    0    0    0  501 -0.00000000000E+00 -0.00000000000E+00 -0.71737735009E+02  0.71737735055E+02  0.25500000000E-02 0. -1.
    5000001    1    1    2    0    0  0.42852695172E+01 -0.14536702785E+03  0.23472874729E+03  0.32167144903E+03  0.16500000000E+03 0.  0.
   -5000001    1    1    2    0    0 -0.42852695172E+01  0.14536702785E+03  0.39958225797E+03  0.45611502629E+03  0.16500000000E+03 0.  0.
<mgrwt>
<rscale>  0 0.45011260E+03</rscale>
<asrwt>0</asrwt>
<pdfrwt beam="1">  1        2 0.10862288E+00 0.45011260E+03</pdfrwt>
<pdfrwt beam="2">  1       -2 0.11036575E-01 0.45011260E+03</pdfrwt>
<totfact> 0.23612943E+03</totfact>
</mgrwt>
</event>
<event>
 4    1  0.8877834E-005  0.6610059E+03  0.7818608E-02  0.9786344E-01
         -2   -1    0    0    0  501 -0.00000000000E+00  0.00000000000E+00  0.94001031217E+02  0.94001031251E+02  0.25500000000E-02 0. -1.
          2   -1    0    0  501    0  0.00000000000E+00 -0.00000000000E+00 -0.11620320743E+04  0.11620320743E+04  0.25500000000E-02 0.  1.
    5000001    1    1    2    0    0 -0.27792405957E+03  0.19655259209E+02 -0.40827124823E+03  0.52109358491E+03  0.16500000000E+03 0.  0.
   -5000001    1    1    2    0    0  0.27792405957E+03 -0.19655259209E+02 -0.65975979484E+03  0.73493952063E+03  0.16500000000E+03 0.  0.
<mgrwt>
<rscale>  0 0.66100594E+03</rscale>
<asrwt>0</asrwt>
<pdfrwt beam="1">  1        2 0.17877415E+00 0.66100594E+03</pdfrwt>
<pdfrwt beam="2">  1       -2 0.14461698E-01 0.66100594E+03</pdfrwt>
<totfact> 0.75138750E+02</totfact>
</mgrwt>
</event>
<event>
 4    1  0.8877834E-005  0.5273793E+03  0.7818608E-02  0.1006870E+00
          2   -1    0    0  501    0  0.00000000000E+00  0.00000000000E+00  0.31391200930E+03  0.31391200931E+03  0.25500000000E-02 0.  1.
         -2   -1    0    0    0  501 -0.00000000000E+00 -0.00000000000E+00 -0.22150226924E+03  0.22150226926E+03  0.25500000000E-02 0. -1.
    5000001    1    1    2    0    0 -0.87630863697E+02  0.13998933316E+03  0.17067393407E+03  0.28918985709E+03  0.16500000000E+03 0.  0.
   -5000001    1    1    2    0    0  0.87630863697E+02 -0.13998933316E+03 -0.78264194008E+02  0.24622442148E+03  0.16500000000E+03 0.  0.
<mgrwt>
<rscale>  0 0.52737927E+03</rscale>
<asrwt>0</asrwt>
<pdfrwt beam="1">  1        2 0.48294155E-01 0.52737927E+03</pdfrwt>
<pdfrwt beam="2">  1       -2 0.34077272E-01 0.52737927E+03</pdfrwt>
<totfact> 0.84452698E+02</totfact>
</mgrwt>
</event>
<event>
 4    1  0.8877834E-005  0.8465850E+03  0.7818608E-02  0.9494932E-01
         -2   -1    0    0    0  501 -0.00000000000E+00  0.00000000000E+00  0.11501072864E+03  0.11501072867E+03  0.25500000000E-02 0. -1.
          2   -1    0    0  501    0  0.00000000000E+00 -0.00000000000E+00 -0.15579116748E+04  0.15579116748E+04  0.25500000000E-02 0.  1.
    5000001    1    1    2    0    0  0.36563843235E+03  0.78736000222E+02 -0.50443429381E+03  0.64928405010E+03  0.16500000000E+03 0.  0.
   -5000001    1    1    2    0    0 -0.36563843235E+03 -0.78736000222E+02 -0.93846665239E+03  0.10236383534E+04  0.16500000000E+03 0.  0.
<mgrwt>
<rscale>  0 0.84658504E+03</rscale>
<asrwt>0</asrwt>
<pdfrwt beam="1">  1        2 0.23967870E+00 0.84658504E+03</pdfrwt>
<pdfrwt beam="2">  1       -2 0.17693959E-01 0.84658504E+03</pdfrwt>
<totfact> 0.31350607E+02</totfact>
</mgrwt>
</event>
<event>
 4    1  0.8877834E-005  0.6076420E+03  0.7818608E-02  0.9889677E-01
         -2   -1    0    0    0  501 -0.00000000000E+00  0.00000000000E+00  0.66679872804E+02  0.66679872853E+02  0.25500000000E-02 0. -1.
          2   -1    0    0  501    0  0.00000000000E+00 -0.00000000000E+00 -0.13843336517E+04  0.13843336517E+04  0.25500000000E-02 0.  1.
    5000001    1    1    2    0    0  0.19905173427E+03  0.35704170247E+02 -0.28745927833E+03  0.38827080419E+03  0.16500000000E+03 0.  0.
   -5000001    1    1    2    0    0 -0.19905173427E+03 -0.35704170247E+02 -0.10301945006E+04  0.10627427204E+04  0.16500000000E+03 0.  0.
<mgrwt>
<rscale>  0 0.60764197E+03</rscale>
<asrwt>0</asrwt>
<pdfrwt beam="1">  1        2 0.21297439E+00 0.60764197E+03</pdfrwt>
<pdfrwt beam="2">  1       -2 0.10258443E-01 0.60764197E+03</pdfrwt>
<totfact> 0.98799080E+02</totfact>
</mgrwt>
</event>
<event>
 4    1  0.8877834E-005  0.7085899E+03  0.7818608E-02  0.9702654E-01
         -2   -1    0    0    0  501 -0.00000000000E+00  0.00000000000E+00  0.49133872886E+02  0.49133872952E+02  0.25500000000E-02 0. -1.
          2   -1    0    0  501    0  0.00000000000E+00 -0.00000000000E+00 -0.25547527935E+04  0.25547527935E+04  0.25500000000E-02 0.  1.
    5000001    1    1    2    0    0 -0.65702664143E+02 -0.21433895975E+03 -0.20582566871E+04  0.20769938902E+04  0.16500000000E+03 0.  0.
   -5000001    1    1    2    0    0  0.65702664143E+02  0.21433895975E+03 -0.44736223353E+03  0.52689277631E+03  0.16500000000E+03 0.  0.
<mgrwt>
<rscale>  0 0.70858986E+03</rscale>
<asrwt>0</asrwt>
<pdfrwt beam="1">  1        2 0.39303879E+00 0.70858986E+03</pdfrwt>
<pdfrwt beam="2">  1       -2 0.75590594E-02 0.70858986E+03</pdfrwt>
<totfact> 0.36367193E+02</totfact>
</mgrwt>
</event>
<event>
 4    1  0.8877834E-005  0.4298076E+03  0.7818608E-02  0.1033921E+00
         -2   -1    0    0    0  501 -0.00000000000E+00  0.00000000000E+00  0.30438835558E+02  0.30438835665E+02  0.25500000000E-02 0. -1.
          2   -1    0    0  501    0  0.00000000000E+00 -0.00000000000E+00 -0.15172606022E+04  0.15172606022E+04  0.25500000000E-02 0.  1.
    5000001    1    1    2    0    0 -0.11984222199E+03 -0.66006642366E+02 -0.68767101477E+03  0.72030233899E+03  0.16500000000E+03 0.  0.
   -5000001    1    1    2    0    0  0.11984222199E+03  0.66006642366E+02 -0.79915075190E+03  0.82739709890E+03  0.16500000000E+03 0.  0.
<mgrwt>
<rscale>  0 0.42980761E+03</rscale>
<asrwt>0</asrwt>
<pdfrwt beam="1">  1        2 0.23342465E+00 0.42980761E+03</pdfrwt>
<pdfrwt beam="2">  1       -2 0.46828990E-02 0.42980761E+03</pdfrwt>
<totfact> 0.28871319E+03</totfact>
</mgrwt>
</event>
<event>
 4    1  0.8877834E-005  0.9004138E+03  0.7818608E-02  0.9425064E-01
         -2   -1    0    0    0  501 -0.00000000000E+00  0.00000000000E+00  0.12097391523E+03  0.12097391525E+03  0.25500000000E-02 0. -1.
          2   -1    0    0  501    0  0.00000000000E+00 -0.00000000000E+00 -0.16754542393E+04  0.16754542393E+04  0.25500000000E-02 0.  1.
    5000001    1    1    2    0    0 -0.36020494298E+03  0.41071955840E+02 -0.11958660005E+04  0.12604582491E+04  0.16500000000E+03 0.  0.
   -5000001    1    1    2    0    0  0.36020494298E+03 -0.41071955840E+02 -0.35861432357E+03  0.53596990547E+03  0.16500000000E+03 0.  0.
<mgrwt>
<rscale>  0 0.90041381E+03</rscale>
<asrwt>0</asrwt>
<pdfrwt beam="1">  1        2 0.25776217E+00 0.90041381E+03</pdfrwt>
<pdfrwt beam="2">  1       -2 0.18611373E-01 0.90041381E+03</pdfrwt>
<totfact> 0.24645392E+02</totfact>
</mgrwt>
</event>
<event>
 4    1  0.8877834E-005  0.5093584E+03  0.7818608E-02  0.1011365E+00
         -2   -1    0    0    0  501 -0.00000000000E+00  0.00000000000E+00  0.61088650141E+02  0.61088650195E+02  0.25500000000E-02 0. -1.
          2   -1    0    0  501    0  0.00000000000E+00 -0.00000000000E+00 -0.10617603551E+04  0.10617603551E+04  0.25500000000E-02 0.  1.
    5000001    1    1    2    0    0  0.11129142815E+03  0.33616030666E+02 -0.15796823077E+03  0.25630993237E+03  0.16500000000E+03 0.  0.
   -5000001    1    1    2    0    0 -0.11129142815E+03 -0.33616030666E+02 -0.84270347415E+03  0.86653907289E+03  0.16500000000E+03 0.  0.
<mgrwt>
<rscale>  0 0.50935845E+03</rscale>
<asrwt>0</asrwt>
<pdfrwt beam="1">  1        2 0.16334773E+00 0.50935845E+03</pdfrwt>
<pdfrwt beam="2">  1       -2 0.93982547E-02 0.50935845E+03</pdfrwt>
<totfact> 0.17610799E+03</totfact>
</mgrwt>
</event>
<event>
 4    1  0.8877834E-005  0.7333939E+03  0.7818608E-02  0.9661769E-01
          2   -1    0    0  501    0  0.00000000000E+00  0.00000000000E+00  0.37745053388E+04  0.37745053388E+04  0.25500000000E-02 0.  1.
         -2   -1    0    0    0  501 -0.00000000000E+00 -0.00000000000E+00 -0.35624971579E+02  0.35624971670E+02  0.25500000000E-02 0. -1.
    5000001    1    1    2    0    0  0.23212019786E+03  0.22224711241E+03  0.21967000719E+04  0.22262052401E+04  0.16500000000E+03 0.  0.
   -5000001    1    1    2    0    0 -0.23212019786E+03 -0.22224711241E+03  0.15421802954E+04  0.15839250704E+04  0.16500000000E+03 0.  0.
<mgrwt>
<rscale>  0 0.73339388E+03</rscale>
<asrwt>0</asrwt>
<pdfrwt beam="1">  1        2 0.58069307E+00 0.73339388E+03</pdfrwt>
<pdfrwt beam="2">  1       -2 0.54807654E-02 0.73339388E+03</pdfrwt>
<totfact> 0.10034977E+02</totfact>
</mgrwt>
</event>
<event>
 4    1  0.8877834E-005  0.5503270E+03  0.7818608E-02  0.1001418E+00
         -2   -1    0    0    0  501 -0.00000000000E+00  0.00000000000E+00  0.66764115937E+02  0.66764115985E+02  0.25500000000E-02 0.  1.
          2   -1    0    0  501    0  0.00000000000E+00 -0.00000000000E+00 -0.11340665617E+04  0.11340665617E+04  0.25500000000E-02 0. -1.
    5000001    1    1    2    0    0 -0.17221560860E+03  0.12651513455E+03 -0.41766120282E+03  0.49732300918E+03  0.16500000000E+03 0.  0.
   -5000001    1    1    2    0    0  0.17221560860E+03 -0.12651513455E+03 -0.64964124294E+03  0.70350766851E+03  0.16500000000E+03 0.  0.
<mgrwt>
<rscale>  0 0.55032700E+03</rscale>
<asrwt>0</asrwt>
<pdfrwt beam="1">  1        2 0.17447177E+00 0.55032700E+03</pdfrwt>
<pdfrwt beam="2">  1       -2 0.10271403E-01 0.55032700E+03</pdfrwt>
<totfact> 0.13783970E+03</totfact>
</mgrwt>
</event>
<event>
 4    1  0.8877834E-005  0.5009947E+03  0.7818608E-02  0.1013520E+00
          2   -1    0    0  501    0  0.00000000000E+00  0.00000000000E+00  0.42700562777E+03  0.42700562777E+03  0.25500000000E-02 0.  1.
         -2   -1    0    0    0  501 -0.00000000000E+00 -0.00000000000E+00 -0.14695103474E+03  0.14695103476E+03  0.25500000000E-02 0. -1.
    5000001    1    1    2    0    0 -0.14995162017E+03  0.11342003921E+03  0.15515336359E+03  0.29435889645E+03  0.16500000000E+03 0.  0.
   -5000001    1    1    2    0    0  0.14995162017E+03 -0.11342003921E+03  0.12490122944E+03  0.27959776609E+03  0.16500000000E+03 0.  0.
<mgrwt>
<rscale>  0 0.50099469E+03</rscale>
<asrwt>0</asrwt>
<pdfrwt beam="1">  1        2 0.65693174E-01 0.50099469E+03</pdfrwt>
<pdfrwt beam="2">  1       -2 0.22607851E-01 0.50099469E+03</pdfrwt>
<totfact> 0.12680276E+03</totfact>
</mgrwt>
</event>
<event>
 4    1  0.8877834E-005  0.6227000E+03  0.7818608E-02  0.9859399E-01
          2   -1    0    0  501    0  0.00000000000E+00  0.00000000000E+00  0.28355899472E+04  0.28355899472E+04  0.25500000000E-02 0.  1.
         -2   -1    0    0    0  501 -0.00000000000E+00 -0.00000000000E+00 -0.34186469685E+02  0.34186469780E+02  0.25500000000E-02 0. -1.
    5000001    1    1    2    0    0 -0.81199780024E+02  0.20287835670E+03  0.71774517098E+03  0.76820320382E+03  0.16500000000E+03 0.  0.
   -5000001    1    1    2    0    0  0.81199780024E+02 -0.20287835670E+03  0.20836583066E+04  0.21015732132E+04  0.16500000000E+03 0.  0.
<mgrwt>
<rscale>  0 0.62269996E+03</rscale>
<asrwt>0</asrwt>
<pdfrwt beam="1">  1        2 0.43624466E+00 0.62269996E+03</pdfrwt>
<pdfrwt beam="2">  1       -2 0.52594563E-02 0.62269996E+03</pdfrwt>
<totfact> 0.44622441E+02</totfact>
</mgrwt>
</event>
<event>
 4    1  0.8877834E-005  0.9459406E+03  0.7818608E-02  0.9369908E-01
          2   -1    0    0  501    0  0.00000000000E+00  0.00000000000E+00  0.20621178157E+04  0.20621178157E+04  0.25500000000E-02 0.  1.
         -2   -1    0    0    0  501 -0.00000000000E+00 -0.00000000000E+00 -0.10848115462E+03  0.10848115465E+03  0.25500000000E-02 0. -1.
    5000001    1    1    2    0    0 -0.16712140467E+03 -0.39505674890E+03  0.12331265266E+04  0.13159883849E+04  0.16500000000E+03 0.  0.
   -5000001    1    1    2    0    0  0.16712140467E+03  0.39505674890E+03  0.72051013446E+03  0.85461058536E+03  0.16500000000E+03 0.  0.
<mgrwt>
<rscale>  0 0.94594064E+03</rscale>
<asrwt>0</asrwt>
<pdfrwt beam="1">  1        2 0.31724893E+00 0.94594064E+03</pdfrwt>
<pdfrwt beam="2">  1       -2 0.16689407E-01 0.94594064E+03</pdfrwt>
<totfact> 0.18186100E+02</totfact>
</mgrwt>
</event>
<event>
 4    1  0.8877834E-005  0.4198031E+03  0.7818608E-02  0.1037130E+00
         -2   -1    0    0    0  501 -0.00000000000E+00  0.00000000000E+00  0.88083270847E+02  0.88083270884E+02  0.25500000000E-02 0. -1.
          2   -1    0    0  501    0  0.00000000000E+00 -0.00000000000E+00 -0.50019323460E+03  0.50019323460E+03  0.25500000000E-02 0.  1.
    5000001    1    1    2    0    0 -0.52244697199E+02 -0.11430222272E+03 -0.16088239762E+03  0.26249314728E+03  0.16500000000E+03 0.  0.
   -5000001    1    1    2    0    0  0.52244697199E+02  0.11430222272E+03 -0.25122756613E+03  0.32578335821E+03  0.16500000000E+03 0.  0.
<mgrwt>
<rscale>  0 0.41980308E+03</rscale>
<asrwt>0</asrwt>
<pdfrwt beam="1">  1        2 0.76952804E-01 0.41980308E+03</pdfrwt>
<pdfrwt beam="2">  1       -2 0.13551273E-01 0.41980308E+03</pdfrwt>
<totfact> 0.25362858E+03</totfact>
</mgrwt>
</event>
<event>
 4    1  0.8877834E-005  0.3906362E+03  0.7818608E-02  0.1047071E+00
         -2   -1    0    0    0  501 -0.00000000000E+00  0.00000000000E+00  0.11430030205E+03  0.11430030208E+03  0.25500000000E-02 0. -1.
          2   -1    0    0  501    0  0.00000000000E+00 -0.00000000000E+00 -0.33376255790E+03  0.33376255791E+03  0.25500000000E-02 0.  1.
    5000001    1    1    2    0    0  0.33579992274E+01 -0.96410020187E+02 -0.63593551389E+02  0.20143313513E+03  0.16500000000E+03 0.  0.
   -5000001    1    1    2    0    0 -0.33579992274E+01  0.96410020187E+02 -0.15586870447E+03  0.24662972486E+03  0.16500000000E+03 0.  0.
<mgrwt>
<rscale>  0 0.39063621E+03</rscale>
<asrwt>0</asrwt>
<pdfrwt beam="1">  1        2 0.51348086E-01 0.39063621E+03</pdfrwt>
<pdfrwt beam="2">  1       -2 0.17584662E-01 0.39063621E+03</pdfrwt>
<totfact> 0.25655391E+03</totfact>
</mgrwt>
</event>
<event>
 4    1  0.8877834E-005  0.1001053E+04  0.7818608E-02  0.9307391E-01
         -2   -1    0    0    0  501 -0.00000000000E+00  0.00000000000E+00  0.11955414418E+03  0.11955414421E+03  0.25500000000E-02 0. -1.
          2   -1    0    0  501    0  0.00000000000E+00 -0.00000000000E+00 -0.20955075981E+04  0.20955075981E+04  0.25500000000E-02 0.  1.
    5000001    1    1    2    0    0 -0.20157989337E+03 -0.13037226136E+03 -0.87336894260E+02  0.30411200739E+03  0.16500000000E+03 0.  0.
   -5000001    1    1    2    0    0  0.20157989337E+03  0.13037226136E+03 -0.18886165597E+04  0.19109497350E+04  0.16500000000E+03 0.  0.
<mgrwt>
<rscale>  0 0.10010527E+04</rscale>
<asrwt>0</asrwt>
<pdfrwt beam="1">  1        2 0.32238576E+00 0.10010527E+04</pdfrwt>
<pdfrwt beam="2">  1       -2 0.18392947E-01 0.10010527E+04</pdfrwt>
<totfact> 0.14674758E+02</totfact>
</mgrwt>
</event>
<event>
 4    1  0.8877834E-005  0.1013437E+04  0.7818608E-02  0.9293929E-01
         -2   -1    0    0    0  501 -0.00000000000E+00  0.00000000000E+00  0.17869796666E+03  0.17869796668E+03  0.25500000000E-02 0. -1.
          2   -1    0    0  501    0  0.00000000000E+00 -0.00000000000E+00 -0.14368584688E+04  0.14368584688E+04  0.25500000000E-02 0.  1.
    5000001    1    1    2    0    0  0.12015983330E+03 -0.37232228105E+03 -0.18823201029E+03  0.46445511753E+03  0.16500000000E+03 0.  0.
   -5000001    1    1    2    0    0 -0.12015983330E+03  0.37232228105E+03 -0.10699284919E+04  0.11511013180E+04  0.16500000000E+03 0.  0.
<mgrwt>
<rscale>  0 0.10134371E+04</rscale>
<asrwt>0</asrwt>
<pdfrwt beam="1">  1        2 0.22105514E+00 0.10134371E+04</pdfrwt>
<pdfrwt beam="2">  1       -2 0.27491996E-01 0.10134371E+04</pdfrwt>
<totfact> 0.16565873E+02</totfact>
</mgrwt>
</event>
<event>
 4    1  0.8877834E-005  0.5621946E+03  0.7818608E-02  0.9987101E-01
          2   -1    0    0  501    0  0.00000000000E+00  0.00000000000E+00  0.49490591585E+03  0.49490591585E+03  0.25500000000E-02 0.  1.
         -2   -1    0    0    0  501 -0.00000000000E+00 -0.00000000000E+00 -0.15965801371E+03  0.15965801373E+03  0.25500000000E-02 0. -1.
    5000001    1    1    2    0    0 -0.84287009584E+02  0.19733000622E+03  0.25589046406E+03  0.37248941050E+03  0.16500000000E+03 0.  0.
   -5000001    1    1    2    0    0  0.84287009584E+02 -0.19733000622E+03  0.79357438081E+02  0.28207451908E+03  0.16500000000E+03 0.  0.
<mgrwt>
<rscale>  0 0.56219461E+03</rscale>
<asrwt>0</asrwt>
<pdfrwt beam="1">  1        2 0.76139371E-01 0.56219461E+03</pdfrwt>
<pdfrwt beam="2">  1       -2 0.24562772E-01 0.56219461E+03</pdfrwt>
<totfact> 0.92545891E+02</totfact>
</mgrwt>
</event>
<event>
 4    1  0.8877834E-005  0.4621939E+03  0.7818608E-02  0.1024147E+00
          2   -1    0    0  501    0  0.00000000000E+00  0.00000000000E+00  0.71972670425E+03  0.71972670425E+03  0.25500000000E-02 0.  1.
         -2   -1    0    0    0  501 -0.00000000000E+00 -0.00000000000E+00 -0.74202883399E+02  0.74202883442E+02  0.25500000000E-02 0. -1.
    5000001    1    1    2    0    0  0.68638950145E+02 -0.11930361158E+03  0.46888244700E+03  0.51577166103E+03  0.16500000000E+03 0.  0.
   -5000001    1    1    2    0    0 -0.68638950145E+02  0.11930361158E+03  0.17664137384E+03  0.27815792666E+03  0.16500000000E+03 0.  0.
<mgrwt>
<rscale>  0 0.46219388E+03</rscale>
<asrwt>0</asrwt>
<pdfrwt beam="1">  1        2 0.11072718E+00 0.46219388E+03</pdfrwt>
<pdfrwt beam="2">  1       -2 0.11415829E-01 0.46219388E+03</pdfrwt>
<totfact> 0.21824068E+03</totfact>
</mgrwt>
</event>
<event>
 4    1  0.8877834E-005  0.4402723E+03  0.7818608E-02  0.1030663E+00
         -2   -1    0    0    0  501 -0.00000000000E+00  0.00000000000E+00  0.16505503119E+03  0.16505503121E+03  0.25500000000E-02 0. -1.
          2   -1    0    0  501    0  0.00000000000E+00 -0.00000000000E+00 -0.29359859667E+03  0.29359859668E+03  0.25500000000E-02 0.  1.
    5000001    1    1    2    0    0  0.11776782020E+03 -0.79704159201E+02 -0.31116742950E+02  0.22003468854E+03  0.16500000000E+03 0.  0.
   -5000001    1    1    2    0    0 -0.11776782020E+03  0.79704159201E+02 -0.97426822535E+02  0.23861893935E+03  0.16500000000E+03 0.  0.
<mgrwt>
<rscale>  0 0.44027230E+03</rscale>
<asrwt>0</asrwt>
<pdfrwt beam="1">  1        2 0.45169015E-01 0.44027230E+03</pdfrwt>
<pdfrwt beam="2">  1       -2 0.25393082E-01 0.44027230E+03</pdfrwt>
<totfact> 0.15584400E+03</totfact>
</mgrwt>
</event>
<event>
 4    1  0.8877834E-005  0.4372589E+03  0.7818608E-02  0.1031591E+00
         -2   -1    0    0    0  501 -0.00000000000E+00  0.00000000000E+00  0.10499812723E+03  0.10499812726E+03  0.25500000000E-02 0. -1.
          2   -1    0    0  501    0  0.00000000000E+00 -0.00000000000E+00 -0.45523519295E+03  0.45523519295E+03  0.25500000000E-02 0.  1.
    5000001    1    1    2    0    0  0.92784509733E+02  0.82809153795E+02 -0.26668476656E+03  0.33736046881E+03  0.16500000000E+03 0.  0.
   -5000001    1    1    2    0    0 -0.92784509733E+02 -0.82809153795E+02 -0.83552299157E+02  0.22287285140E+03  0.16500000000E+03 0.  0.
<mgrwt>
<rscale>  0 0.43725893E+03</rscale>
<asrwt>0</asrwt>
<pdfrwt beam="1">  1        2 0.70036182E-01 0.43725893E+03</pdfrwt>
<pdfrwt beam="2">  1       -2 0.16153558E-01 0.43725893E+03</pdfrwt>
<totfact> 0.21051451E+03</totfact>
</mgrwt>
</event>
<event>
 4    1  0.8877834E-005  0.9740673E+03  0.7818608E-02  0.9337454E-01
          2   -1    0    0  501    0  0.00000000000E+00  0.00000000000E+00  0.39996640085E+03  0.39996640085E+03  0.25500000000E-02 0.  1.
         -2   -1    0    0    0  501 -0.00000000000E+00 -0.00000000000E+00 -0.59305422074E+03  0.59305422075E+03  0.25500000000E-02 0. -1.
    5000001    1    1    2    0    0  0.25945782824E+03 -0.33961930408E+03  0.71951012421E+02  0.46374732833E+03  0.16500000000E+03 0.  0.
   -5000001    1    1    2    0    0 -0.25945782824E+03  0.33961930408E+03 -0.26503883232E+03  0.52927329328E+03  0.16500000000E+03 0.  0.
<mgrwt>
<rscale>  0 0.97406727E+03</rscale>
<asrwt>0</asrwt>
<pdfrwt beam="1">  1        2 0.61533293E-01 0.97406727E+03</pdfrwt>
<pdfrwt beam="2">  1       -2 0.91239110E-01 0.97406727E+03</pdfrwt>
<totfact> 0.81445800E+01</totfact>
</mgrwt>
</event>
<event>
 4    1  0.8877834E-005  0.6036395E+03  0.7818608E-02  0.9897884E-01
         -2   -1    0    0    0  501 -0.00000000000E+00  0.00000000000E+00  0.23975290342E+03  0.23975290344E+03  0.25500000000E-02 0. -1.
          2   -1    0    0  501    0  0.00000000000E+00 -0.00000000000E+00 -0.37995430908E+03  0.37995430908E+03  0.25500000000E-02 0.  1.
    5000001    1    1    2    0    0  0.30073750660E+02 -0.24836614152E+03 -0.33371610976E+02  0.30154408492E+03  0.16500000000E+03 0.  0.
   -5000001    1    1    2    0    0 -0.30073750660E+02  0.24836614152E+03 -0.10682979467E+03  0.31816312760E+03  0.16500000000E+03 0.  0.
<mgrwt>
<rscale>  0 0.60363946E+03</rscale>
<asrwt>0</asrwt>
<pdfrwt beam="1">  1        2 0.58454509E-01 0.60363946E+03</pdfrwt>
<pdfrwt beam="2">  1       -2 0.36885062E-01 0.60363946E+03</pdfrwt>
<totfact> 0.58766433E+02</totfact>
</mgrwt>
</event>
<event>
 4    1  0.8877834E-005  0.4170509E+03  0.7818608E-02  0.1038030E+00
         -2   -1    0    0    0  501 -0.00000000000E+00  0.00000000000E+00  0.41171728662E+02  0.41171728741E+02  0.25500000000E-02 0. -1.
          2   -1    0    0  501    0  0.00000000000E+00 -0.00000000000E+00 -0.10561339994E+04  0.10561339994E+04  0.25500000000E-02 0.  1.
    5000001    1    1    2    0    0 -0.72703942248E+02 -0.27892840583E+02 -0.24183062049E+03  0.30293715979E+03  0.16500000000E+03 0.  0.
   -5000001    1    1    2    0    0  0.72703942248E+02  0.27892840583E+02 -0.77313165022E+03  0.79436856833E+03  0.16500000000E+03 0.  0.
<mgrwt>
<rscale>  0 0.41705090E+03</rscale>
<asrwt>0</asrwt>
<pdfrwt beam="1">  1        2 0.16248213E+00 0.41705090E+03</pdfrwt>
<pdfrwt beam="2">  1       -2 0.63341129E-02 0.41705090E+03</pdfrwt>
<totfact> 0.33142668E+03</totfact>
</mgrwt>
</event>
<event>
 4    1  0.8877834E-005  0.6257791E+03  0.7818608E-02  0.9853320E-01
         -2   -1    0    0    0  501 -0.00000000000E+00  0.00000000000E+00  0.16735829399E+03  0.16735829401E+03  0.25500000000E-02 0. -1.
          2   -1    0    0  501    0  0.00000000000E+00 -0.00000000000E+00 -0.58497176446E+03  0.58497176446E+03  0.25500000000E-02 0.  1.
    5000001    1    1    2    0    0 -0.11287917630E+03  0.23175260984E+03 -0.28694143559E+03  0.41953708783E+03  0.16500000000E+03 0.  0.
   -5000001    1    1    2    0    0  0.11287917630E+03 -0.23175260984E+03 -0.13067203488E+03  0.33279297064E+03  0.16500000000E+03 0.  0.
<mgrwt>
<rscale>  0 0.62577912E+03</rscale>
<asrwt>0</asrwt>
<pdfrwt beam="1">  1        2 0.89995655E-01 0.62577912E+03</pdfrwt>
<pdfrwt beam="2">  1       -2 0.25747430E-01 0.62577912E+03</pdfrwt>
<totfact> 0.69861589E+02</totfact>
</mgrwt>
</event>
<event>
 4    1  0.8877834E-005  0.3528516E+03  0.7818608E-02  0.1061451E+00
         -2   -1    0    0    0  501 -0.00000000000E+00  0.00000000000E+00  0.26348451791E+02  0.26348451914E+02  0.25500000000E-02 0. -1.
          2   -1    0    0  501    0  0.00000000000E+00 -0.00000000000E+00 -0.11813240515E+04  0.11813240515E+04  0.25500000000E-02 0.  1.
    5000001    1    1    2    0    0 -0.14084076110E+01 -0.42752557938E+02 -0.42171985345E+03  0.45486525435E+03  0.16500000000E+03 0.  0.
   -5000001    1    1    2    0    0  0.14084076110E+01  0.42752557938E+02 -0.73325574623E+03  0.75280724903E+03  0.16500000000E+03 0.  0.
<mgrwt>
<rscale>  0 0.35285158E+03</rscale>
<asrwt>0</asrwt>
<pdfrwt beam="1">  1        2 0.18174212E+00 0.35285158E+03</pdfrwt>
<pdfrwt beam="2">  1       -2 0.40536089E-02 0.35285158E+03</pdfrwt>
<totfact> 0.55383718E+03</totfact>
</mgrwt>
</event>
<event>
 4    1  0.8877834E-005  0.5233790E+03  0.7818608E-02  0.1007851E+00
         -2   -1    0    0    0  501 -0.00000000000E+00  0.00000000000E+00  0.66059391432E+02  0.66059391481E+02  0.25500000000E-02 0. -1.
          2   -1    0    0  501    0  0.00000000000E+00 -0.00000000000E+00 -0.10366639678E+04  0.10366639678E+04  0.25500000000E-02 0.  1.
    5000001    1    1    2    0    0  0.12967737503E+03 -0.11705727938E+03 -0.70362915978E+03  0.74353051231E+03  0.16500000000E+03 0.  0.
   -5000001    1    1    2    0    0 -0.12967737503E+03  0.11705727938E+03 -0.26697541658E+03  0.35919284696E+03  0.16500000000E+03 0.  0.
<mgrwt>
<rscale>  0 0.52337899E+03</rscale>
<asrwt>0</asrwt>
<pdfrwt beam="1">  1        2 0.15948675E+00 0.52337899E+03</pdfrwt>
<pdfrwt beam="2">  1       -2 0.10162984E-01 0.52337899E+03</pdfrwt>
<totfact> 0.16081284E+03</totfact>
</mgrwt>
</event>
<event>
 4    1  0.8877834E-005  0.4112157E+03  0.7818608E-02  0.1039964E+00
          2   -1    0    0  501    0  0.00000000000E+00  0.00000000000E+00  0.85929911733E+03  0.85929911733E+03  0.25500000000E-02 0.  1.
         -2   -1    0    0    0  501 -0.00000000000E+00 -0.00000000000E+00 -0.49196597731E+02  0.49196597797E+02  0.25500000000E-02 0. -1.
    5000001    1    1    2    0    0  0.65893993093E+02 -0.77973934153E+02  0.55534225745E+03  0.58826182576E+03  0.16500000000E+03 0.  0.
   -5000001    1    1    2    0    0 -0.65893993093E+02  0.77973934153E+02  0.25476026214E+03  0.32023388937E+03  0.16500000000E+03 0.  0.
<mgrwt>
<rscale>  0 0.41121572E+03</rscale>
<asrwt>0</asrwt>
<pdfrwt beam="1">  1        2 0.13219987E+00 0.41121572E+03</pdfrwt>
<pdfrwt beam="2">  1       -2 0.75687072E-02 0.41121572E+03</pdfrwt>
<totfact> 0.33492965E+03</totfact>
</mgrwt>
</event>
<event>
 4    1  0.8877834E-005  0.4110804E+03  0.7818608E-02  0.1040009E+00
         -2   -1    0    0    0  501 -0.00000000000E+00  0.00000000000E+00  0.55604893875E+02  0.55604893934E+02  0.25500000000E-02 0. -1.
          2   -1    0    0  501    0  0.00000000000E+00 -0.00000000000E+00 -0.75976714445E+03  0.75976714446E+03  0.25500000000E-02 0.  1.
    5000001    1    1    2    0    0  0.37783009625E+02  0.10748195230E+03 -0.26245378630E+03  0.33028308438E+03  0.16500000000E+03 0.  0.
   -5000001    1    1    2    0    0 -0.37783009625E+02 -0.10748195230E+03 -0.44170846428E+03  0.48508895401E+03  0.16500000000E+03 0.  0.
<mgrwt>
<rscale>  0 0.41108039E+03</rscale>
<asrwt>0</asrwt>
<pdfrwt beam="1">  1        2 0.11688724E+00 0.41108039E+03</pdfrwt>
<pdfrwt beam="2">  1       -2 0.85545997E-02 0.41108039E+03</pdfrwt>
<totfact> 0.32394507E+03</totfact>
</mgrwt>
</event>
<event>
 4    1  0.8877834E-005  0.4823229E+03  0.7818608E-02  0.1018499E+00
         -2   -1    0    0    0  501 -0.00000000000E+00  0.00000000000E+00  0.20111804454E+03  0.20111804456E+03  0.25500000000E-02 0. -1.
          2   -1    0    0  501    0  0.00000000000E+00 -0.00000000000E+00 -0.28917766873E+03  0.28917766874E+03  0.25500000000E-02 0.  1.
    5000001    1    1    2    0    0 -0.11425938585E+03 -0.68590886039E+02  0.72645208773E+02  0.22419242463E+03  0.16500000000E+03 0.  0.
   -5000001    1    1    2    0    0  0.11425938585E+03  0.68590886039E+02 -0.16070483296E+03  0.26610328867E+03  0.16500000000E+03 0.  0.
<mgrwt>
<rscale>  0 0.48232291E+03</rscale>
<asrwt>0</asrwt>
<pdfrwt beam="1">  1        2 0.44488872E-01 0.48232291E+03</pdfrwt>
<pdfrwt beam="2">  1       -2 0.30941238E-01 0.48232291E+03</pdfrwt>
<totfact> 0.11067369E+03</totfact>
</mgrwt>
</event>
<event>
 4    1  0.8877834E-005  0.4044282E+03  0.7818608E-02  0.1042257E+00
          2   -1    0    0  501    0  0.00000000000E+00  0.00000000000E+00  0.41763682364E+03  0.41763682365E+03  0.25500000000E-02 0.  1.
         -2   -1    0    0    0  501 -0.00000000000E+00 -0.00000000000E+00 -0.97909308103E+02  0.97909308136E+02  0.25500000000E-02 0. -1.
    5000001    1    1    2    0    0  0.53650563072E+02  0.36538011763E+02  0.35929650830E+02  0.18091254525E+03  0.16500000000E+03 0.  0.
   -5000001    1    1    2    0    0 -0.53650563072E+02 -0.36538011763E+02  0.28379786471E+03  0.33463358653E+03  0.16500000000E+03 0.  0.
<mgrwt>
<rscale>  0 0.40442815E+03</rscale>
<asrwt>0</asrwt>
<pdfrwt beam="1">  1        2 0.64251818E-01 0.40442815E+03</pdfrwt>
<pdfrwt beam="2">  1       -2 0.15062971E-01 0.40442815E+03</pdfrwt>
<totfact> 0.26037949E+03</totfact>
</mgrwt>
</event>
<event>
 4    1  0.8877834E-005  0.4991273E+03  0.7818608E-02  0.1014007E+00
          2   -1    0    0  501    0  0.00000000000E+00  0.00000000000E+00  0.13939048185E+04  0.13939048185E+04  0.25500000000E-02 0.  1.
         -2   -1    0    0    0  501 -0.00000000000E+00 -0.00000000000E+00 -0.44681688062E+02  0.44681688134E+02  0.25500000000E-02 0. -1.
    5000001    1    1    2    0    0 -0.97427390261E+02 -0.10094115765E+03  0.31722057853E+03  0.38410299286E+03  0.16500000000E+03 0.  0.
   -5000001    1    1    2    0    0  0.97427390261E+02  0.10094115765E+03  0.10320025519E+04  0.10544835138E+04  0.16500000000E+03 0.  0.
<mgrwt>
<rscale>  0 0.49912732E+03</rscale>
<asrwt>0</asrwt>
<pdfrwt beam="1">  1        2 0.21444687E+00 0.49912732E+03</pdfrwt>
<pdfrwt beam="2">  1       -2 0.68741068E-02 0.49912732E+03</pdfrwt>
<totfact> 0.18571907E+03</totfact>
</mgrwt>
</event>
<event>
 4    1  0.8877834E-005  0.3596534E+03  0.7818608E-02  0.1058721E+00
          2   -1    0    0  501    0  0.00000000000E+00  0.00000000000E+00  0.15896132251E+04  0.15896132251E+04  0.25500000000E-02 0.  1.
         -2   -1    0    0    0  501 -0.00000000000E+00 -0.00000000000E+00 -0.20343090760E+02  0.20343090920E+02  0.25500000000E-02 0. -1.
    5000001    1    1    2    0    0 -0.34267383128E+02  0.46717933894E+02  0.59706186255E+03  0.62214522952E+03  0.16500000000E+03 0.  0.
   -5000001    1    1    2    0    0  0.34267383128E+02 -0.46717933894E+02  0.97220827180E+03  0.98781108652E+03  0.16500000000E+03 0.  0.
<mgrwt>
<rscale>  0 0.35965342E+03</rscale>
<asrwt>0</asrwt>
<pdfrwt beam="1">  1        2 0.24455592E+00 0.35965342E+03</pdfrwt>
<pdfrwt beam="2">  1       -2 0.31297058E-02 0.35965342E+03</pdfrwt>
<totfact> 0.48672553E+03</totfact>
</mgrwt>
</event>
<event>
 4    1  0.8877834E-005  0.1503917E+04  0.7818608E-02  0.8881852E-01
         -2   -1    0    0    0  501 -0.00000000000E+00  0.00000000000E+00  0.32322720873E+03  0.32322720874E+03  0.25500000000E-02 0. -1.
          2   -1    0    0  501    0  0.00000000000E+00 -0.00000000000E+00 -0.17493625561E+04  0.17493625561E+04  0.25500000000E-02 0.  1.
    5000001    1    1    2    0    0  0.26673693350E+02 -0.70011403233E+03 -0.41320077666E+03  0.82995844837E+03  0.16500000000E+03 0.  0.
   -5000001    1    1    2    0    0 -0.26673693350E+02  0.70011403233E+03 -0.10129345707E+04  0.12426313165E+04  0.16500000000E+03 0.  0.
<mgrwt>
<rscale>  0 0.15039170E+04</rscale>
<asrwt>0</asrwt>
<pdfrwt beam="1">  1        2 0.26913270E+00 0.15039170E+04</pdfrwt>
<pdfrwt beam="2">  1       -2 0.49727264E-01 0.15039170E+04</pdfrwt>
<totfact> 0.34025699E+01</totfact>
</mgrwt>
</event>
<event>
 4    1  0.8877834E-005  0.4268631E+03  0.7818608E-02  0.1034856E+00
          2   -1    0    0  501    0  0.00000000000E+00  0.00000000000E+00  0.47613581116E+03  0.47613581117E+03  0.25500000000E-02 0.  1.
         -2   -1    0    0    0  501 -0.00000000000E+00 -0.00000000000E+00 -0.95672326313E+02  0.95672326347E+02  0.25500000000E-02 0. -1.
    5000001    1    1    2    0    0  0.82381979275E+02 -0.10697496357E+03  0.20346474950E+03  0.29470890321E+03  0.16500000000E+03 0.  0.
   -5000001    1    1    2    0    0 -0.82381979275E+02  0.10697496357E+03  0.17699873535E+03  0.27709923431E+03  0.16500000000E+03 0.  0.
<mgrwt>
<rscale>  0 0.42686307E+03</rscale>
<asrwt>0</asrwt>
<pdfrwt beam="1">  1        2 0.73251664E-01 0.42686307E+03</pdfrwt>
<pdfrwt beam="2">  1       -2 0.14718819E-01 0.42686307E+03</pdfrwt>
<totfact> 0.23385809E+03</totfact>
</mgrwt>
</event>
<event>
 4    1  0.8877834E-005  0.8824930E+03  0.7818608E-02  0.9447734E-01
         -2   -1    0    0    0  501 -0.00000000000E+00  0.00000000000E+00  0.60525420211E+03  0.60525420212E+03  0.25500000000E-02 0. -1.
          2   -1    0    0  501    0  0.00000000000E+00 -0.00000000000E+00 -0.32168053391E+03  0.32168053392E+03  0.25500000000E-02 0.  1.
    5000001    1    1    2    0    0 -0.29662914914E+03 -0.26664946627E+03  0.45618973696E+02  0.43404709508E+03  0.16500000000E+03 0.  0.
   -5000001    1    1    2    0    0  0.29662914914E+03  0.26664946627E+03  0.23795469450E+03  0.49288764097E+03  0.16500000000E+03 0.  0.
<mgrwt>
<rscale>  0 0.88249305E+03</rscale>
<asrwt>0</asrwt>
<pdfrwt beam="1">  1        2 0.49489313E-01 0.88249305E+03</pdfrwt>
<pdfrwt beam="2">  1       -2 0.93116031E-01 0.88249305E+03</pdfrwt>
<totfact> 0.99615127E+01</totfact>
</mgrwt>
</event>
<event>
 4    1  0.8877834E-005  0.4004617E+03  0.7818608E-02  0.1043620E+00
         -2   -1    0    0    0  501 -0.00000000000E+00  0.00000000000E+00  0.13142764801E+02  0.13142765049E+02  0.25500000000E-02 0.  1.
          2   -1    0    0  501    0  0.00000000000E+00 -0.00000000000E+00 -0.30505291317E+04  0.30505291317E+04  0.25500000000E-02 0. -1.
    5000001    1    1    2    0    0  0.71447904618E+02 -0.73430602966E+02 -0.18911741584E+04  0.19011211308E+04  0.16500000000E+03 0.  0.
   -5000001    1    1    2    0    0 -0.71447904618E+02  0.73430602966E+02 -0.11462122085E+04  0.11625507659E+04  0.16500000000E+03 0.  0.
<mgrwt>
<rscale>  0 0.40046167E+03</rscale>
<asrwt>0</asrwt>
<pdfrwt beam="1">  1        2 0.46931161E+00 0.40046167E+03</pdfrwt>
<pdfrwt beam="2">  1       -2 0.20219663E-02 0.40046167E+03</pdfrwt>
<totfact> 0.14536370E+03</totfact>
</mgrwt>
</event>
<event>
 4    1  0.8877834E-005  0.4545851E+03  0.7818608E-02  0.1026363E+00
          2   -1    0    0  501    0  0.00000000000E+00  0.00000000000E+00  0.24790519376E+04  0.24790519376E+04  0.25500000000E-02 0.  1.
         -2   -1    0    0    0  501 -0.00000000000E+00 -0.00000000000E+00 -0.20839375293E+02  0.20839375449E+02  0.25500000000E-02 0. -1.
    5000001    1    1    2    0    0  0.17294743971E+02 -0.87320793503E+02  0.19357771392E+04  0.19448347389E+04  0.16500000000E+03 0.  0.
   -5000001    1    1    2    0    0 -0.17294743971E+02  0.87320793503E+02  0.52243542317E+03  0.55505657417E+03  0.16500000000E+03 0.  0.
<mgrwt>
<rscale>  0 0.45458506E+03</rscale>
<asrwt>0</asrwt>
<pdfrwt beam="1">  1        2 0.38139241E+00 0.45458506E+03</pdfrwt>
<pdfrwt beam="2">  1       -2 0.32060594E-02 0.45458506E+03</pdfrwt>
<totfact> 0.15511080E+03</totfact>
</mgrwt>
</event>
<event>
 4    1  0.8877834E-005  0.5513157E+03  0.7818608E-02  0.1001190E+00
         -2   -1    0    0    0  501 -0.00000000000E+00  0.00000000000E+00  0.20791768387E+02  0.20791768543E+02  0.25500000000E-02 0.  1.
          2   -1    0    0  501    0  0.00000000000E+00 -0.00000000000E+00 -0.36546799737E+04  0.36546799737E+04  0.25500000000E-02 0. -1.
    5000001    1    1    2    0    0  0.17451101804E+03 -0.39538853071E+02 -0.95425711538E+03  0.98480914830E+03  0.16500000000E+03 0.  0.
   -5000001    1    1    2    0    0 -0.17451101804E+03  0.39538853071E+02 -0.26796310899E+04  0.26906625939E+04  0.16500000000E+03 0.  0.
<mgrwt>
<rscale>  0 0.55131573E+03</rscale>
<asrwt>0</asrwt>
<pdfrwt beam="1">  1        2 0.56225795E+00 0.55131573E+03</pdfrwt>
<pdfrwt beam="2">  1       -2 0.31987365E-02 0.55131573E+03</pdfrwt>
<totfact> 0.28849328E+02</totfact>
</mgrwt>
</event>
<event>
 4    1  0.8877834E-005  0.5992702E+03  0.7818608E-02  0.9906921E-01
         -2   -1    0    0    0  501 -0.00000000000E+00  0.00000000000E+00  0.31761404072E+03  0.31761404073E+03  0.25500000000E-02 0. -1.
          2   -1    0    0  501    0  0.00000000000E+00 -0.00000000000E+00 -0.28267388157E+03  0.28267388158E+03  0.25500000000E-02 0.  1.
    5000001    1    1    2    0    0 -0.15042473938E+03  0.78196525296E+02  0.20166791471E+03  0.31086531909E+03  0.16500000000E+03 0.  0.
   -5000001    1    1    2    0    0  0.15042473938E+03 -0.78196525296E+02 -0.16672775556E+03  0.28942260323E+03  0.16500000000E+03 0.  0.
<mgrwt>
<rscale>  0 0.59927020E+03</rscale>
<asrwt>0</asrwt>
<pdfrwt beam="1">  1        2 0.43488290E-01 0.59927020E+03</pdfrwt>
<pdfrwt beam="2">  1       -2 0.48863699E-01 0.59927020E+03</pdfrwt>
<totfact> 0.46935541E+02</totfact>
</mgrwt>
</event>
<event>
 4    1  0.8877834E-005  0.8326333E+03  0.7818608E-02  0.9513947E-01
         -2   -1    0    0    0  501 -0.00000000000E+00  0.00000000000E+00  0.22559356119E+03  0.22559356120E+03  0.25500000000E-02 0. -1.
          2   -1    0    0  501    0  0.00000000000E+00 -0.00000000000E+00 -0.76828242463E+03  0.76828242463E+03  0.25500000000E-02 0.  1.
    5000001    1    1    2    0    0  0.31374485108E+03  0.21691079593E+03 -0.24190100002E+03  0.48086091418E+03  0.16500000000E+03 0.  0.
   -5000001    1    1    2    0    0 -0.31374485108E+03 -0.21691079593E+03 -0.30078786341E+03  0.51301507166E+03  0.16500000000E+03 0.  0.
<mgrwt>
<rscale>  0 0.83263334E+03</rscale>
<asrwt>0</asrwt>
<pdfrwt beam="1">  1        2 0.11819729E+00 0.83263334E+03</pdfrwt>
<pdfrwt beam="2">  1       -2 0.34706702E-01 0.83263334E+03</pdfrwt>
<totfact> 0.28406395E+02</totfact>
</mgrwt>
</event>
<event>
 4    1  0.8877834E-005  0.5378814E+03  0.7818608E-02  0.1004338E+00
         -2   -1    0    0    0  501 -0.00000000000E+00  0.00000000000E+00  0.55395692769E+02  0.55395692828E+02  0.25500000000E-02 0. -1.
          2   -1    0    0  501    0  0.00000000000E+00 -0.00000000000E+00 -0.13056811782E+04  0.13056811782E+04  0.25500000000E-02 0.  1.
    5000001    1    1    2    0    0  0.56463638149E+02 -0.10157827115E+03 -0.17533731887E+03  0.26734708338E+03  0.16500000000E+03 0.  0.
   -5000001    1    1    2    0    0 -0.56463638149E+02  0.10157827115E+03 -0.10749481666E+04  0.10937297877E+04  0.16500000000E+03 0.  0.
<mgrwt>
<rscale>  0 0.53788145E+03</rscale>
<asrwt>0</asrwt>
<pdfrwt beam="1">  1        2 0.20087400E+00 0.53788145E+03</pdfrwt>
<pdfrwt beam="2">  1       -2 0.85224153E-02 0.53788145E+03</pdfrwt>
<totfact> 0.14794727E+03</totfact>
</mgrwt>
</event>
<event>
 4    1  0.8877834E-005  0.3941594E+03  0.7818608E-02  0.1045821E+00
          2   -1    0    0  501    0  0.00000000000E+00  0.00000000000E+00  0.75472376242E+03  0.75472376243E+03  0.25500000000E-02 0.  1.
         -2   -1    0    0    0  501 -0.00000000000E+00 -0.00000000000E+00 -0.51463087222E+02  0.51463087286E+02  0.25500000000E-02 0. -1.
    5000001    1    1    2    0    0  0.82652131244E+02  0.45719505271E+02  0.45778615254E+03  0.49569628748E+03  0.16500000000E+03 0.  0.
   -5000001    1    1    2    0    0 -0.82652131244E+02 -0.45719505271E+02  0.24547452266E+03  0.31049056223E+03  0.16500000000E+03 0.  0.
<mgrwt>
<rscale>  0 0.39415943E+03</rscale>
<asrwt>0</asrwt>
<pdfrwt beam="1">  1        2 0.11611133E+00 0.39415943E+03</pdfrwt>
<pdfrwt beam="2">  1       -2 0.79173990E-02 0.39415943E+03</pdfrwt>
<totfact> 0.36907203E+03</totfact>
</mgrwt>
</event>
<event>
 4    1  0.8877834E-005  0.4516528E+03  0.7818608E-02  0.1027230E+00
         -2   -1    0    0    0  501 -0.00000000000E+00  0.00000000000E+00  0.45635644575E+02  0.45635644646E+02  0.25500000000E-02 0. -1.
          2   -1    0    0  501    0  0.00000000000E+00 -0.00000000000E+00 -0.11174938452E+04  0.11174938452E+04  0.25500000000E-02 0.  1.
    5000001    1    1    2    0    0  0.96130357513E+02  0.12050860981E+03 -0.54373235119E+03  0.58875567123E+03  0.16500000000E+03 0.  0.
   -5000001    1    1    2    0    0 -0.96130357513E+02 -0.12050860981E+03 -0.52812584945E+03  0.57437381864E+03  0.16500000000E+03 0.  0.
<mgrwt>
<rscale>  0 0.45165275E+03</rscale>
<asrwt>0</asrwt>
<pdfrwt beam="1">  1        2 0.17192211E+00 0.45165275E+03</pdfrwt>
<pdfrwt beam="2">  1       -2 0.70208692E-02 0.45165275E+03</pdfrwt>
<totfact> 0.25914064E+03</totfact>
</mgrwt>
</event>
<event>
 4    1  0.8877834E-005  0.4019257E+03  0.7818608E-02  0.1043115E+00
          2   -1    0    0  501    0  0.00000000000E+00  0.00000000000E+00  0.83341106138E+03  0.83341106139E+03  0.25500000000E-02 0.  1.
         -2   -1    0    0    0  501 -0.00000000000E+00 -0.00000000000E+00 -0.48458763970E+02  0.48458764037E+02  0.25500000000E-02 0. -1.
    5000001    1    1    2    0    0 -0.70047944946E+02 -0.89904521865E+02  0.36373979578E+03  0.41535668609E+03  0.16500000000E+03 0.  0.
   -5000001    1    1    2    0    0  0.70047944946E+02  0.89904521865E+02  0.42121250163E+03  0.46651313933E+03  0.16500000000E+03 0.  0.
<mgrwt>
<rscale>  0 0.40192571E+03</rscale>
<asrwt>0</asrwt>
<pdfrwt beam="1">  1        2 0.12821708E+00 0.40192571E+03</pdfrwt>
<pdfrwt beam="2">  1       -2 0.74551946E-02 0.40192571E+03</pdfrwt>
<totfact> 0.35709743E+03</totfact>
</mgrwt>
</event>
<event>
 4    1  0.8877834E-005  0.4001862E+03  0.7818608E-02  0.1043715E+00
          2   -1    0    0  501    0  0.00000000000E+00  0.00000000000E+00  0.40000106580E+02  0.40000106662E+02  0.25500000000E-02 0.  1.
         -2   -1    0    0    0  501 -0.00000000000E+00 -0.00000000000E+00 -0.10009284887E+04  0.10009284887E+04  0.25500000000E-02 0. -1.
    5000001    1    1    2    0    0 -0.99702383124E+02 -0.35310525450E+02 -0.37561497311E+03  0.42367323072E+03  0.16500000000E+03 0.  0.
   -5000001    1    1    2    0    0  0.99702383124E+02  0.35310525450E+02 -0.58531340896E+03  0.61725536459E+03  0.16500000000E+03 0.  0.
<mgrwt>
<rscale>  0 0.40018619E+03</rscale>
<asrwt>0</asrwt>
<pdfrwt beam="1">  1        2 0.61538633E-02 0.40018619E+03</pdfrwt>
<pdfrwt beam="2">  1       -2 0.15398898E+00 0.40018619E+03</pdfrwt>
<totfact> 0.35501440E+02</totfact>
</mgrwt>
</event>
<event>
 4    1  0.8877834E-005  0.4254400E+03  0.7818608E-02  0.1035310E+00
          2   -1    0    0  501    0  0.00000000000E+00  0.00000000000E+00  0.18109593689E+04  0.18109593689E+04  0.25500000000E-02 0.  1.
         -2   -1    0    0    0  501 -0.00000000000E+00 -0.00000000000E+00 -0.24986643988E+02  0.24986644118E+02  0.25500000000E-02 0. -1.
    5000001    1    1    2    0    0  0.13395774711E+03 -0.88593952118E+01  0.88747639223E+03  0.91261301418E+03  0.16500000000E+03 0.  0.
   -5000001    1    1    2    0    0 -0.13395774711E+03  0.88593952118E+01  0.89849633267E+03  0.92333299882E+03  0.16500000000E+03 0.  0.
<mgrwt>
<rscale>  0 0.42543999E+03</rscale>
<asrwt>0</asrwt>
<pdfrwt beam="1">  1        2 0.27860920E+00 0.42543999E+03</pdfrwt>
<pdfrwt beam="2">  1       -2 0.38440981E-02 0.42543999E+03</pdfrwt>
<totfact> 0.27130908E+03</totfact>
</mgrwt>
</event>
<event>
 4    1  0.8877834E-005  0.4071067E+03  0.7818608E-02  0.1041346E+00
          2   -1    0    0  501    0  0.00000000000E+00  0.00000000000E+00  0.76479319633E+03  0.76479319634E+03  0.25500000000E-02 0. -1.
         -2   -1    0    0    0  501 -0.00000000000E+00 -0.00000000000E+00 -0.54176682338E+02  0.54176682398E+02  0.25500000000E-02 0.  1.
    5000001    1    1    2    0    0  0.10815533462E+03  0.45633206850E+02  0.31364201119E+03  0.37333132357E+03  0.16500000000E+03 0.  0.
   -5000001    1    1    2    0    0 -0.10815533462E+03 -0.45633206850E+02  0.39697450280E+03  0.44563855516E+03  0.16500000000E+03 0.  0.
<mgrwt>
<rscale>  0 0.40710666E+03</rscale>
<asrwt>0</asrwt>
<pdfrwt beam="1">  1        2 0.11766049E+00 0.40710666E+03</pdfrwt>
<pdfrwt beam="2">  1       -2 0.83348746E-02 0.40710666E+03</pdfrwt>
<totfact> 0.33473919E+03</totfact>
</mgrwt>
</event>
<event>
 4    1  0.8877834E-005  0.3829520E+03  0.7818608E-02  0.1049848E+00
         -2   -1    0    0    0  501 -0.00000000000E+00  0.00000000000E+00  0.15935596614E+02  0.15935596818E+02  0.25500000000E-02 0. -1.
          2   -1    0    0  501    0  0.00000000000E+00 -0.00000000000E+00 -0.23007014417E+04  0.23007014417E+04  0.25500000000E-02 0.  1.
    5000001    1    1    2    0    0 -0.84431797628E+02 -0.31493064762E+02 -0.13619617485E+04  0.13748764839E+04  0.16500000000E+03 0.  0.
   -5000001    1    1    2    0    0  0.84431797628E+02  0.31493064762E+02 -0.92280409659E+03  0.94176055463E+03  0.16500000000E+03 0.  0.
<mgrwt>
<rscale>  0 0.38295196E+03</rscale>
<asrwt>0</asrwt>
<pdfrwt beam="1">  1        2 0.35395381E+00 0.38295196E+03</pdfrwt>
<pdfrwt beam="2">  1       -2 0.24516321E-02 0.38295196E+03</pdfrwt>
<totfact> 0.29240326E+03</totfact>
</mgrwt>
</event>
<event>
 4    1  0.8877834E-005  0.6616264E+03  0.7818608E-02  0.9785204E-01
          2   -1    0    0  501    0  0.00000000000E+00  0.00000000000E+00  0.72289415714E+03  0.72289415714E+03  0.25500000000E-02 0.  1.
         -2   -1    0    0    0  501 -0.00000000000E+00 -0.00000000000E+00 -0.15138780851E+03  0.15138780853E+03  0.25500000000E-02 0. -1.
    5000001    1    1    2    0    0  0.18726476402E+03 -0.16916581083E+03  0.10588944356E+03  0.31956648393E+03  0.16500000000E+03 0.  0.
   -5000001    1    1    2    0    0 -0.18726476402E+03  0.16916581083E+03  0.46561690507E+03  0.55471548174E+03  0.16500000000E+03 0.  0.
<mgrwt>
<rscale>  0 0.66162637E+03</rscale>
<asrwt>0</asrwt>
<pdfrwt beam="1">  1        2 0.11121449E+00 0.66162637E+03</pdfrwt>
<pdfrwt beam="2">  1       -2 0.23290432E-01 0.66162637E+03</pdfrwt>
<totfact> 0.64414054E+02</totfact>
</mgrwt>
</event>
<event>
 4    1  0.8877834E-005  0.4258431E+03  0.7818608E-02  0.1035181E+00
          2   -1    0    0  501    0  0.00000000000E+00  0.00000000000E+00  0.32952861541E+04  0.32952861541E+04  0.25500000000E-02 0.  1.
         -2   -1    0    0    0  501 -0.00000000000E+00 -0.00000000000E+00 -0.13757706878E+02  0.13757707114E+02  0.25500000000E-02 0. -1.
    5000001    1    1    2    0    0 -0.36114236527E+01  0.13426481463E+03  0.15755198561E+04  0.15898200841E+04  0.16500000000E+03 0.  0.
   -5000001    1    1    2    0    0  0.36114236527E+01 -0.13426481463E+03  0.17060085911E+04  0.17192237771E+04  0.16500000000E+03 0.  0.
<mgrwt>
<rscale>  0 0.42584308E+03</rscale>
<asrwt>0</asrwt>
<pdfrwt beam="1">  1        2 0.50696795E+00 0.42584308E+03</pdfrwt>
<pdfrwt beam="2">  1       -2 0.21165668E-02 0.42584308E+03</pdfrwt>
<totfact> 0.95323256E+02</totfact>
</mgrwt>
</event>
<event>
 4    1  0.8877834E-005  0.9332960E+03  0.7818608E-02  0.9384891E-01
          2   -1    0    0  501    0  0.00000000000E+00  0.00000000000E+00  0.11315612519E+04  0.11315612519E+04  0.25500000000E-02 0.  1.
         -2   -1    0    0    0  501 -0.00000000000E+00 -0.00000000000E+00 -0.19244237773E+03  0.19244237775E+03  0.25500000000E-02 0. -1.
    5000001    1    1    2    0    0  0.98310023141E+02 -0.35861539519E+03  0.14523681514E+03  0.43195901980E+03  0.16500000000E+03 0.  0.
   -5000001    1    1    2    0    0 -0.98310023141E+02  0.35861539519E+03  0.79388205906E+03  0.89204460988E+03  0.16500000000E+03 0.  0.
<mgrwt>
<rscale>  0 0.93329596E+03</rscale>
<asrwt>0</asrwt>
<pdfrwt beam="1">  1        2 0.17408634E+00 0.93329596E+03</pdfrwt>
<pdfrwt beam="2">  1       -2 0.29606520E-01 0.93329596E+03</pdfrwt>
<totfact> 0.21893543E+02</totfact>
</mgrwt>
</event>
<event>
 4    1  0.8877834E-005  0.6482336E+03  0.7818608E-02  0.9810099E-01
          2   -1    0    0  501    0  0.00000000000E+00  0.00000000000E+00  0.72818894320E+03  0.72818894320E+03  0.25500000000E-02 0.  1.
         -2   -1    0    0    0  501 -0.00000000000E+00 -0.00000000000E+00 -0.14426434473E+03  0.14426434475E+03  0.25500000000E-02 0. -1.
    5000001    1    1    2    0    0 -0.47953588908E+02  0.27482052326E+03  0.29319145339E+03  0.43704930504E+03  0.16500000000E+03 0.  0.
   -5000001    1    1    2    0    0  0.47953588908E+02 -0.27482052326E+03  0.29073314508E+03  0.43540398292E+03  0.16500000000E+03 0.  0.
<mgrwt>
<rscale>  0 0.64823360E+03</rscale>
<asrwt>0</asrwt>
<pdfrwt beam="1">  1        2 0.11202907E+00 0.64823360E+03</pdfrwt>
<pdfrwt beam="2">  1       -2 0.22194515E-01 0.64823360E+03</pdfrwt>
<totfact> 0.69546521E+02</totfact>
</mgrwt>
</event>
<event>
 4    1  0.8877834E-005  0.6302708E+03  0.7818608E-02  0.9844521E-01
         -2   -1    0    0    0  501 -0.00000000000E+00  0.00000000000E+00  0.11137418446E+03  0.11137418449E+03  0.25500000000E-02 0. -1.
          2   -1    0    0  501    0  0.00000000000E+00 -0.00000000000E+00 -0.89168157201E+03  0.89168157201E+03  0.25500000000E-02 0.  1.
    5000001    1    1    2    0    0 -0.26368304324E+03 -0.48704342576E+02 -0.36853972883E+03  0.48471372170E+03  0.16500000000E+03 0.  0.
   -5000001    1    1    2    0    0  0.26368304324E+03  0.48704342576E+02 -0.41176765872E+03  0.51834203480E+03  0.16500000000E+03 0.  0.
<mgrwt>
<rscale>  0 0.63027076E+03</rscale>
<asrwt>0</asrwt>
<pdfrwt beam="1">  1        2 0.13718178E+00 0.63027076E+03</pdfrwt>
<pdfrwt beam="2">  1       -2 0.17134491E-01 0.63027076E+03</pdfrwt>
<totfact> 0.83476716E+02</totfact>
</mgrwt>
</event>
<event>
 4    1  0.8877834E-005  0.6101113E+03  0.7818608E-02  0.9884648E-01
         -2   -1    0    0    0  501 -0.00000000000E+00  0.00000000000E+00  0.41431342518E+03  0.41431342519E+03  0.25500000000E-02 0.  1.
          2   -1    0    0  501    0  0.00000000000E+00 -0.00000000000E+00 -0.22461001725E+03  0.22461001727E+03  0.25500000000E-02 0. -1.
    5000001    1    1    2    0    0 -0.22172055746E+03 -0.12471742733E+03  0.12989076451E+03  0.32986520426E+03  0.16500000000E+03 0.  0.
   -5000001    1    1    2    0    0  0.22172055746E+03  0.12471742733E+03  0.59812643424E+02  0.30905823819E+03  0.16500000000E+03 0.  0.
<mgrwt>
<rscale>  0 0.61011129E+03</rscale>
<asrwt>0</asrwt>
<pdfrwt beam="1">  1        2 0.34555387E-01 0.61011129E+03</pdfrwt>
<pdfrwt beam="2">  1       -2 0.63740527E-01 0.61011129E+03</pdfrwt>
<totfact> 0.34897211E+02</totfact>
</mgrwt>
</event>
<event>
 4    1  0.8877834E-005  0.6056581E+03  0.7818608E-02  0.9893736E-01
          2   -1    0    0  501    0  0.00000000000E+00  0.00000000000E+00  0.76103917614E+03  0.76103917615E+03  0.25500000000E-02 0.  1.
         -2   -1    0    0    0  501 -0.00000000000E+00 -0.00000000000E+00 -0.12050027519E+03  0.12050027521E+03  0.25500000000E-02 0. -1.
    5000001    1    1    2    0    0 -0.12089536055E+03 -0.66948541302E+02  0.10199925317E+02  0.21546886982E+03  0.16500000000E+03 0.  0.
   -5000001    1    1    2    0    0  0.12089536055E+03  0.66948541302E+02  0.63033897564E+03  0.66607058154E+03  0.16500000000E+03 0.  0.
<mgrwt>
<rscale>  0 0.60565809E+03</rscale>
<asrwt>0</asrwt>
<pdfrwt beam="1">  1        2 0.11708295E+00 0.60565809E+03</pdfrwt>
<pdfrwt beam="2">  1       -2 0.18538504E-01 0.60565809E+03</pdfrwt>
<totfact> 0.90112636E+02</totfact>
</mgrwt>
</event>
<event>
 4    1  0.8877834E-005  0.5133002E+03  0.7818608E-02  0.1010365E+00
         -2   -1    0    0    0  501 -0.00000000000E+00  0.00000000000E+00  0.83872331620E+02  0.83872331659E+02  0.25500000000E-02 0. -1.
          2   -1    0    0  501    0  0.00000000000E+00 -0.00000000000E+00 -0.78535172663E+03  0.78535172664E+03  0.25500000000E-02 0.  1.
    5000001    1    1    2    0    0 -0.42298289684E+02  0.18654563051E+03 -0.42752133281E+03  0.49657618507E+03  0.16500000000E+03 0.  0.
   -5000001    1    1    2    0    0  0.42298289684E+02 -0.18654563051E+03 -0.27395806220E+03  0.37264787322E+03  0.16500000000E+03 0.  0.
<mgrwt>
<rscale>  0 0.51330023E+03</rscale>
<asrwt>0</asrwt>
<pdfrwt beam="1">  1        2 0.12082334E+00 0.51330023E+03</pdfrwt>
<pdfrwt beam="2">  1       -2 0.12903436E-01 0.51330023E+03</pdfrwt>
<totfact> 0.15971634E+03</totfact>
</mgrwt>
</event>
<event>
 4    1  0.8877834E-005  0.1654724E+04  0.7818608E-02  0.8787617E-01
         -2   -1    0    0    0  501 -0.00000000000E+00  0.00000000000E+00  0.85653658789E+03  0.85653658790E+03  0.25500000000E-02 0.  1.
          2   -1    0    0  501    0  0.00000000000E+00 -0.00000000000E+00 -0.79918108670E+03  0.79918108670E+03  0.25500000000E-02 0. -1.
    5000001    1    1    2    0    0  0.65333256247E+03  0.38191548443E+02  0.50750542144E+03  0.84444584454E+03  0.16500000000E+03 0.  0.
   -5000001    1    1    2    0    0 -0.65333256247E+03 -0.38191548443E+02 -0.45014992025E+03  0.81127183007E+03  0.16500000000E+03 0.  0.
<mgrwt>
<rscale>  0 0.16547240E+04</rscale>
<asrwt>0</asrwt>
<pdfrwt beam="1">  1        2 0.12295094E+00 0.16547240E+04</pdfrwt>
<pdfrwt beam="2">  1       -2 0.13177486E+00 0.16547240E+04</pdfrwt>
<totfact> 0.13817973E+01</totfact>
</mgrwt>
</event>
<event>
 4    1  0.8877834E-005  0.7056966E+03  0.7818608E-02  0.9707540E-01
         -2   -1    0    0    0  501 -0.00000000000E+00  0.00000000000E+00  0.51684408923E+02  0.51684408986E+02  0.25500000000E-02 0. -1.
          2   -1    0    0  501    0  0.00000000000E+00 -0.00000000000E+00 -0.24088875120E+04  0.24088875120E+04  0.25500000000E-02 0.  1.
    5000001    1    1    2    0    0  0.14860886489E+03  0.26204221371E+03 -0.14602767312E+04  0.15001279439E+04  0.16500000000E+03 0.  0.
   -5000001    1    1    2    0    0 -0.14860886489E+03 -0.26204221371E+03 -0.89692637191E+03  0.96044397708E+03  0.16500000000E+03 0.  0.
<mgrwt>
<rscale>  0 0.70569661E+03</rscale>
<asrwt>0</asrwt>
<pdfrwt beam="1">  1        2 0.37059799E+00 0.70569661E+03</pdfrwt>
<pdfrwt beam="2">  1       -2 0.79514494E-02 0.70569661E+03</pdfrwt>
<totfact> 0.40563447E+02</totfact>
</mgrwt>
</event>
<event>
 4    1  0.8877834E-005  0.3550058E+03  0.7818608E-02  0.1060579E+00
          2   -1    0    0  501    0  0.00000000000E+00  0.00000000000E+00  0.49219743488E+03  0.49219743488E+03  0.25500000000E-02 0.  1.
         -2   -1    0    0    0  501 -0.00000000000E+00 -0.00000000000E+00 -0.64013499963E+02  0.64013500014E+02  0.25500000000E-02 0. -1.
    5000001    1    1    2    0    0 -0.25413814408E+02 -0.40815740111E+02  0.14454285153E+03  0.22456496283E+03  0.16500000000E+03 0.  0.
   -5000001    1    1    2    0    0  0.25413814408E+02  0.40815740111E+02  0.28364108339E+03  0.33164597207E+03  0.16500000000E+03 0.  0.
<mgrwt>
<rscale>  0 0.35500581E+03</rscale>
<asrwt>0</asrwt>
<pdfrwt beam="1">  1        2 0.75722679E-01 0.35500581E+03</pdfrwt>
<pdfrwt beam="2">  1       -2 0.98482312E-02 0.35500581E+03</pdfrwt>
<totfact> 0.43265708E+03</totfact>
</mgrwt>
</event>
<event>
 4    1  0.8877834E-005  0.3985054E+03  0.7818608E-02  0.1044298E+00
         -2   -1    0    0    0  501 -0.00000000000E+00  0.00000000000E+00  0.13267393074E+03  0.13267393076E+03  0.25500000000E-02 0. -1.
          2   -1    0    0  501    0  0.00000000000E+00 -0.00000000000E+00 -0.29924214741E+03  0.29924214742E+03  0.25500000000E-02 0.  1.
    5000001    1    1    2    0    0  0.56378341139E+02 -0.30356879080E+02  0.15912865468E+02  0.17770277641E+03  0.16500000000E+03 0.  0.
   -5000001    1    1    2    0    0 -0.56378341139E+02  0.30356879080E+02 -0.18248108214E+03  0.25421330177E+03  0.16500000000E+03 0.  0.
<mgrwt>
<rscale>  0 0.39850537E+03</rscale>
<asrwt>0</asrwt>
<pdfrwt beam="1">  1        2 0.46037253E-01 0.39850537E+03</pdfrwt>
<pdfrwt beam="2">  1       -2 0.20411374E-01 0.39850537E+03</pdfrwt>
<totfact> 0.22390251E+03</totfact>
</mgrwt>
</event>
<event>
 4    1  0.8877834E-005  0.8184721E+03  0.7818608E-02  0.9533658E-01
          2   -1    0    0  501    0  0.00000000000E+00  0.00000000000E+00  0.54093442207E+03  0.54093442208E+03  0.25500000000E-02 0.  1.
         -2   -1    0    0    0  501 -0.00000000000E+00 -0.00000000000E+00 -0.30960156914E+03  0.30960156915E+03  0.25500000000E-02 0. -1.
    5000001    1    1    2    0    0 -0.37336408611E+03  0.28059071423E+02  0.10754398399E+03  0.42305881480E+03  0.16500000000E+03 0.  0.
   -5000001    1    1    2    0    0  0.37336408611E+03 -0.28059071423E+02  0.12378886894E+03  0.42747717642E+03  0.16500000000E+03 0.  0.
<mgrwt>
<rscale>  0 0.81847210E+03</rscale>
<asrwt>0</asrwt>
<pdfrwt beam="1">  1        2 0.83220679E-01 0.81847210E+03</pdfrwt>
<pdfrwt beam="2">  1       -2 0.47631011E-01 0.81847210E+03</pdfrwt>
<totfact> 0.23598859E+02</totfact>
</mgrwt>
</event>
<event>
 4    1  0.8877834E-005  0.4462543E+03  0.7818608E-02  0.1028845E+00
          2   -1    0    0  501    0  0.00000000000E+00  0.00000000000E+00  0.10823553296E+03  0.10823553299E+03  0.25500000000E-02 0.  1.
         -2   -1    0    0    0  501 -0.00000000000E+00 -0.00000000000E+00 -0.45997583270E+03  0.45997583271E+03  0.25500000000E-02 0. -1.
    5000001    1    1    2    0    0 -0.82438955760E+02 -0.11963732884E+03 -0.22437996847E+03  0.31413475155E+03  0.16500000000E+03 0.  0.
   -5000001    1    1    2    0    0  0.82438955760E+02  0.11963732884E+03 -0.12736033127E+03  0.25407661415E+03  0.16500000000E+03 0.  0.
<mgrwt>
<rscale>  0 0.44625432E+03</rscale>
<asrwt>0</asrwt>
<pdfrwt beam="1">  1        2 0.16651621E-01 0.44625432E+03</pdfrwt>
<pdfrwt beam="2">  1       -2 0.70765512E-01 0.44625432E+03</pdfrwt>
<totfact> 0.64526224E+02</totfact>
</mgrwt>
</event>
<event>
 4    1  0.8877834E-005  0.4298806E+03  0.7818608E-02  0.1033898E+00
         -2   -1    0    0    0  501 -0.00000000000E+00  0.00000000000E+00  0.59067936539E+02  0.59067936594E+02  0.25500000000E-02 0. -1.
          2   -1    0    0  501    0  0.00000000000E+00 -0.00000000000E+00 -0.78213880076E+03  0.78213880077E+03  0.25500000000E-02 0.  1.
    5000001    1    1    2    0    0  0.73423571126E+02  0.23342141662E+02 -0.13809184619E+03  0.22853934970E+03  0.16500000000E+03 0.  0.
   -5000001    1    1    2    0    0 -0.73423571126E+02 -0.23342141662E+02 -0.58497901803E+03  0.61266738766E+03  0.16500000000E+03 0.  0.
<mgrwt>
<rscale>  0 0.42988057E+03</rscale>
<asrwt>0</asrwt>
<pdfrwt beam="1">  1        2 0.12032904E+00 0.42988057E+03</pdfrwt>
<pdfrwt beam="2">  1       -2 0.90873754E-02 0.42988057E+03</pdfrwt>
<totfact> 0.28362263E+03</totfact>
</mgrwt>
</event>
<event>
 4    1  0.8877834E-005  0.7318665E+03  0.7818608E-02  0.9664236E-01
          2   -1    0    0  501    0  0.00000000000E+00  0.00000000000E+00  0.10920627126E+04  0.10920627126E+04  0.25500000000E-02 0.  1.
         -2   -1    0    0    0  501 -0.00000000000E+00 -0.00000000000E+00 -0.12261853088E+03  0.12261853090E+03  0.25500000000E-02 0. -1.
    5000001    1    1    2    0    0  0.11210370254E+03 -0.10129142017E+03  0.41098856095E+01  0.22376121889E+03  0.16500000000E+03 0.  0.
   -5000001    1    1    2    0    0 -0.11210370254E+03  0.10129142017E+03  0.96533429614E+03  0.99092002463E+03  0.16500000000E+03 0.  0.
<mgrwt>
<rscale>  0 0.73186645E+03</rscale>
<asrwt>0</asrwt>
<pdfrwt beam="1">  1        2 0.16800965E+00 0.73186645E+03</pdfrwt>
<pdfrwt beam="2">  1       -2 0.18864390E-01 0.73186645E+03</pdfrwt>
<totfact> 0.52456675E+02</totfact>
</mgrwt>
</event>
<event>
 4    1  0.8877834E-005  0.9409487E+03  0.7818608E-02  0.9375793E-01
          2   -1    0    0  501    0  0.00000000000E+00  0.00000000000E+00  0.86003724004E+03  0.86003724005E+03  0.25500000000E-02 0.  1.
         -2   -1    0    0    0  501 -0.00000000000E+00 -0.00000000000E+00 -0.25736808190E+03  0.25736808191E+03  0.25500000000E-02 0. -1.
    5000001    1    1    2    0    0  0.11291747411E+03  0.36203326650E+03  0.56767702622E+03  0.70235364890E+03  0.16500000000E+03 0.  0.
   -5000001    1    1    2    0    0 -0.11291747411E+03 -0.36203326650E+03  0.34992131923E+02  0.41505167306E+03  0.16500000000E+03 0.  0.
<mgrwt>
<rscale>  0 0.94094874E+03</rscale>
<asrwt>0</asrwt>
<pdfrwt beam="1">  1        2 0.13231342E+00 0.94094874E+03</pdfrwt>
<pdfrwt beam="2">  1       -2 0.39595089E-01 0.94094874E+03</pdfrwt>
<totfact> 0.18850424E+02</totfact>
</mgrwt>
</event>
<event>
 4    1  0.8877834E-005  0.9244474E+03  0.7818608E-02  0.9395527E-01
         -2   -1    0    0    0  501 -0.00000000000E+00  0.00000000000E+00  0.18048880679E+03  0.18048880681E+03  0.25500000000E-02 0. -1.
          2   -1    0    0  501    0  0.00000000000E+00 -0.00000000000E+00 -0.11837340086E+04  0.11837340086E+04  0.25500000000E-02 0.  1.
    5000001    1    1    2    0    0  0.14188849264E+03 -0.20428159027E+03 -0.10224533818E+04  0.10651287389E+04  0.16500000000E+03 0.  0.
   -5000001    1    1    2    0    0 -0.14188849264E+03  0.20428159027E+03  0.19208179932E+02  0.29909407658E+03  0.16500000000E+03 0.  0.
<mgrwt>
<rscale>  0 0.92444738E+03</rscale>
<asrwt>0</asrwt>
<pdfrwt beam="1">  1        2 0.18211292E+00 0.92444738E+03</pdfrwt>
<pdfrwt beam="2">  1       -2 0.27767510E-01 0.92444738E+03</pdfrwt>
<totfact> 0.22934944E+02</totfact>
</mgrwt>
</event>
<event>
 4    1  0.8877834E-005  0.5988095E+03  0.7818608E-02  0.9907879E-01
         -2   -1    0    0    0  501 -0.00000000000E+00  0.00000000000E+00  0.12459478700E+03  0.12459478702E+03  0.25500000000E-02 0. -1.
          2   -1    0    0  501    0  0.00000000000E+00 -0.00000000000E+00 -0.71947788433E+03  0.71947788434E+03  0.25500000000E-02 0.  1.
    5000001    1    1    2    0    0  0.88707867296E+02 -0.22545322677E+03 -0.21146900661E+03  0.36144485601E+03  0.16500000000E+03 0.  0.
   -5000001    1    1    2    0    0 -0.88707867296E+02  0.22545322677E+03 -0.38341409072E+03  0.48262781535E+03  0.16500000000E+03 0.  0.
<mgrwt>
<rscale>  0 0.59880946E+03</rscale>
<asrwt>0</asrwt>
<pdfrwt beam="1">  1        2 0.11068890E+00 0.59880946E+03</pdfrwt>
<pdfrwt beam="2">  1       -2 0.19168429E-01 0.59880946E+03</pdfrwt>
<totfact> 0.91389069E+02</totfact>
</mgrwt>
</event>
<event>
 4    1  0.8877834E-005  0.7935743E+03  0.7818608E-02  0.9569365E-01
          2   -1    0    0  501    0  0.00000000000E+00  0.00000000000E+00  0.17174668105E+03  0.17174668107E+03  0.25500000000E-02 0.  1.
         -2   -1    0    0    0  501 -0.00000000000E+00 -0.00000000000E+00 -0.91669910352E+03  0.91669910353E+03  0.25500000000E-02 0. -1.
    5000001    1    1    2    0    0 -0.11416528028E+01 -0.30950861780E+03 -0.11802007467E+03  0.37006840704E+03  0.16500000000E+03 0.  0.
   -5000001    1    1    2    0    0  0.11416528028E+01  0.30950861780E+03 -0.62693234780E+03  0.71837737756E+03  0.16500000000E+03 0.  0.
<mgrwt>
<rscale>  0 0.79357427E+03</rscale>
<asrwt>0</asrwt>
<pdfrwt beam="1">  1        2 0.26422567E-01 0.79357427E+03</pdfrwt>
<pdfrwt beam="2">  1       -2 0.14103063E+00 0.79357427E+03</pdfrwt>
<totfact> 0.73062007E+01</totfact>
</mgrwt>
</event>
<event>
 4    1  0.8877834E-005  0.6417436E+03  0.7818608E-02  0.9822396E-01
          2   -1    0    0  501    0  0.00000000000E+00  0.00000000000E+00  0.33894535106E+03  0.33894535107E+03  0.25500000000E-02 0.  1.
         -2   -1    0    0    0  501 -0.00000000000E+00 -0.00000000000E+00 -0.30376199969E+03  0.30376199970E+03  0.25500000000E-02 0. -1.
    5000001    1    1    2    0    0  0.11328408946E+03 -0.30257755547E+02  0.26693323135E+03  0.33500323386E+03  0.16500000000E+03 0.  0.
   -5000001    1    1    2    0    0 -0.11328408946E+03  0.30257755547E+02 -0.23174987998E+03  0.30770411691E+03  0.16500000000E+03 0.  0.
<mgrwt>
<rscale>  0 0.64174362E+03</rscale>
<asrwt>0</asrwt>
<pdfrwt beam="1">  1        2 0.52145439E-01 0.64174362E+03</pdfrwt>
<pdfrwt beam="2">  1       -2 0.46732615E-01 0.64174362E+03</pdfrwt>
<totfact> 0.41955635E+02</totfact>
</mgrwt>
</event>
<event>
 4    1  0.8877834E-005  0.6348199E+03  0.7818608E-02  0.9835688E-01
          2   -1    0    0  501    0  0.00000000000E+00  0.00000000000E+00  0.16115946993E+04  0.16115946993E+04  0.25500000000E-02 0.  1.
         -2   -1    0    0    0  501 -0.00000000000E+00 -0.00000000000E+00 -0.62515148504E+02  0.62515148556E+02  0.25500000000E-02 0. -1.
    5000001    1    1    2    0    0 -0.24770464894E+03 -0.10918914965E+03  0.81575167965E+03  0.87518893181E+03  0.16500000000E+03 0.  0.
   -5000001    1    1    2    0    0  0.24770464894E+03  0.10918914965E+03  0.73332787117E+03  0.79892091607E+03  0.16500000000E+03 0.  0.
<mgrwt>
<rscale>  0 0.63481992E+03</rscale>
<asrwt>0</asrwt>
<pdfrwt beam="1">  1        2 0.24793765E+00 0.63481992E+03</pdfrwt>
<pdfrwt beam="2">  1       -2 0.96177152E-02 0.63481992E+03</pdfrwt>
<totfact> 0.81983342E+02</totfact>
</mgrwt>
</event>
<event>
 4    1  0.8877834E-005  0.5212798E+03  0.7818608E-02  0.1008369E+00
         -2   -1    0    0    0  501 -0.00000000000E+00  0.00000000000E+00  0.90810105534E+02  0.90810105570E+02  0.25500000000E-02 0. -1.
          2   -1    0    0  501    0  0.00000000000E+00 -0.00000000000E+00 -0.74807936643E+03  0.74807936644E+03  0.25500000000E-02 0.  1.
    5000001    1    1    2    0    0 -0.16510766816E+03 -0.11558330639E+03 -0.34374167521E+03  0.43128109404E+03  0.16500000000E+03 0.  0.
   -5000001    1    1    2    0    0  0.16510766816E+03  0.11558330639E+03 -0.31352758569E+03  0.40760837797E+03  0.16500000000E+03 0.  0.
<mgrwt>
<rscale>  0 0.52127983E+03</rscale>
<asrwt>0</asrwt>
<pdfrwt beam="1">  1        2 0.11508913E+00 0.52127983E+03</pdfrwt>
<pdfrwt beam="2">  1       -2 0.13970786E-01 0.52127983E+03</pdfrwt>
<totfact> 0.14900059E+03</totfact>
</mgrwt>
</event>
<event>
 4    1  0.8877834E-005  0.5050917E+03  0.7818608E-02  0.1012458E+00
          2   -1    0    0  501    0  0.00000000000E+00  0.00000000000E+00  0.12937192983E+04  0.12937192983E+04  0.25500000000E-02 0.  1.
         -2   -1    0    0    0  501 -0.00000000000E+00 -0.00000000000E+00 -0.49299261570E+02  0.49299261636E+02  0.25500000000E-02 0. -1.
    5000001    1    1    2    0    0 -0.15481934423E+03 -0.39848259250E+01  0.92031604017E+03  0.94772966714E+03  0.16500000000E+03 0.  0.
   -5000001    1    1    2    0    0  0.15481934423E+03  0.39848259250E+01  0.32410399659E+03  0.39528889282E+03  0.16500000000E+03 0.  0.
<mgrwt>
<rscale>  0 0.50509170E+03</rscale>
<asrwt>0</asrwt>
<pdfrwt beam="1">  1        2 0.19903375E+00 0.50509170E+03</pdfrwt>
<pdfrwt beam="2">  1       -2 0.75845013E-02 0.50509170E+03</pdfrwt>
<totfact> 0.18106005E+03</totfact>
</mgrwt>
</event>
<event>
 4    1  0.8877834E-005  0.4589205E+03  0.7818608E-02  0.1025095E+00
         -2   -1    0    0    0  501 -0.00000000000E+00  0.00000000000E+00  0.77017495489E+02  0.77017495531E+02  0.25500000000E-02 0. -1.
          2   -1    0    0  501    0  0.00000000000E+00 -0.00000000000E+00 -0.68363707259E+03  0.68363707259E+03  0.25500000000E-02 0.  1.
    5000001    1    1    2    0    0  0.88371039873E+02 -0.12899582341E+03 -0.35513512561E+03  0.42165782406E+03  0.16500000000E+03 0.  0.
   -5000001    1    1    2    0    0 -0.88371039873E+02  0.12899582341E+03 -0.25148445149E+03  0.33899674406E+03  0.16500000000E+03 0.  0.
<mgrwt>
<rscale>  0 0.45892054E+03</rscale>
<asrwt>0</asrwt>
<pdfrwt beam="1">  1        2 0.10517493E+00 0.45892054E+03</pdfrwt>
<pdfrwt beam="2">  1       -2 0.11848846E-01 0.45892054E+03</pdfrwt>
<totfact> 0.21890971E+03</totfact>
</mgrwt>
</event>
<event>
 4    1  0.8877834E-005  0.7818645E+03  0.7818608E-02  0.9586645E-01
          2   -1    0    0  501    0  0.00000000000E+00  0.00000000000E+00  0.14265551477E+04  0.14265551477E+04  0.25500000000E-02 0.  1.
         -2   -1    0    0    0  501 -0.00000000000E+00 -0.00000000000E+00 -0.10713080802E+03  0.10713080805E+03  0.25500000000E-02 0. -1.
    5000001    1    1    2    0    0  0.11230142834E+03 -0.26300602458E+03  0.10703295452E+04  0.11200955830E+04  0.16500000000E+03 0.  0.
   -5000001    1    1    2    0    0 -0.11230142834E+03  0.26300602458E+03  0.24909479446E+03  0.41359037271E+03  0.16500000000E+03 0.  0.
<mgrwt>
<rscale>  0 0.78186445E+03</rscale>
<asrwt>0</asrwt>
<pdfrwt beam="1">  1        2 0.21947000E+00 0.78186445E+03</pdfrwt>
<pdfrwt beam="2">  1       -2 0.16481665E-01 0.78186445E+03</pdfrwt>
<totfact> 0.42099647E+02</totfact>
</mgrwt>
</event>
<event>
 4    1  0.8877834E-005  0.9559558E+03  0.7818608E-02  0.9358216E-01
          2   -1    0    0  501    0  0.00000000000E+00  0.00000000000E+00  0.15693481261E+04  0.15693481261E+04  0.25500000000E-02 0.  1.
         -2   -1    0    0    0  501 -0.00000000000E+00 -0.00000000000E+00 -0.14557819726E+03  0.14557819728E+03  0.25500000000E-02 0. -1.
    5000001    1    1    2    0    0 -0.61102140564E+02 -0.33139334403E+03  0.12430934295E+04  0.12984842296E+04  0.16500000000E+03 0.  0.
   -5000001    1    1    2    0    0  0.61102140564E+02  0.33139334403E+03  0.18067649932E+03  0.41644209376E+03  0.16500000000E+03 0.  0.
<mgrwt>
<rscale>  0 0.95595580E+03</rscale>
<asrwt>0</asrwt>
<pdfrwt beam="1">  1        2 0.24143817E+00 0.95595580E+03</pdfrwt>
<pdfrwt beam="2">  1       -2 0.22396646E-01 0.95595580E+03</pdfrwt>
<totfact> 0.20296426E+02</totfact>
</mgrwt>
</event>
<event>
 4    1  0.8877834E-005  0.3665886E+03  0.7818608E-02  0.1056005E+00
          2   -1    0    0  501    0  0.00000000000E+00  0.00000000000E+00  0.28914676747E+03  0.28914676748E+03  0.25500000000E-02 0.  1.
         -2   -1    0    0    0  501 -0.00000000000E+00 -0.00000000000E+00 -0.11619292101E+03  0.11619292104E+03  0.25500000000E-02 0. -1.
    5000001    1    1    2    0    0  0.17036194687E+02  0.77733209902E+02  0.79560844548E+02  0.19971883195E+03  0.16500000000E+03 0.  0.
   -5000001    1    1    2    0    0 -0.17036194687E+02 -0.77733209902E+02  0.93393001910E+02  0.20562085657E+03  0.16500000000E+03 0.  0.
<mgrwt>
<rscale>  0 0.36658864E+03</rscale>
<asrwt>0</asrwt>
<pdfrwt beam="1">  1        2 0.44484117E-01 0.36658864E+03</pdfrwt>
<pdfrwt beam="2">  1       -2 0.17875834E-01 0.36658864E+03</pdfrwt>
<totfact> 0.29137520E+03</totfact>
</mgrwt>
</event>
<event>
 4    1  0.8877834E-005  0.8115927E+03  0.7818608E-02  0.9543387E-01
         -2   -1    0    0    0  501 -0.00000000000E+00  0.00000000000E+00  0.65224455904E+02  0.65224455954E+02  0.25500000000E-02 0. -1.
          2   -1    0    0  501    0  0.00000000000E+00 -0.00000000000E+00 -0.25246768991E+04  0.25246768991E+04  0.25500000000E-02 0.  1.
    5000001    1    1    2    0    0 -0.53461109239E+02 -0.35985106595E+03 -0.10019499156E+04  0.10786470754E+04  0.16500000000E+03 0.  0.
   -5000001    1    1    2    0    0  0.53461109239E+02  0.35985106595E+03 -0.14575025276E+04  0.15112542797E+04  0.16500000000E+03 0.  0.
<mgrwt>
<rscale>  0 0.81159270E+03</rscale>
<asrwt>0</asrwt>
<pdfrwt beam="1">  1        2 0.38841176E+00 0.81159270E+03</pdfrwt>
<pdfrwt beam="2">  1       -2 0.10034534E-01 0.81159270E+03</pdfrwt>
<totfact> 0.23739573E+02</totfact>
</mgrwt>
</event>
<event>
 4    1  0.8877834E-005  0.7895179E+03  0.7818608E-02  0.9575315E-01
         -2   -1    0    0    0  501 -0.00000000000E+00  0.00000000000E+00  0.13458282032E+04  0.13458282032E+04  0.25500000000E-02 0. -1.
          2   -1    0    0  501    0  0.00000000000E+00 -0.00000000000E+00 -0.11579087122E+03  0.11579087125E+03  0.25500000000E-02 0.  1.
    5000001    1    1    2    0    0  0.15550404165E+03 -0.15401425317E+03  0.89086442623E+02  0.28820702872E+03  0.16500000000E+03 0.  0.
   -5000001    1    1    2    0    0 -0.15550404165E+03  0.15401425317E+03  0.11409508894E+04  0.11734120458E+04  0.16500000000E+03 0.  0.
<mgrwt>
<rscale>  0 0.78951788E+03</rscale>
<asrwt>0</asrwt>
<pdfrwt beam="1">  1        2 0.17813980E-01 0.78951788E+03</pdfrwt>
<pdfrwt beam="2">  1       -2 0.20705050E+00 0.78951788E+03</pdfrwt>
<totfact> 0.39609957E+01</totfact>
</mgrwt>
</event>
<event>
 4    1  0.8877834E-005  0.5690361E+03  0.7818608E-02  0.9971814E-01
         -2   -1    0    0    0  501 -0.00000000000E+00  0.00000000000E+00  0.52886857992E+02  0.52886858054E+02  0.25500000000E-02 0. -1.
          2   -1    0    0  501    0  0.00000000000E+00 -0.00000000000E+00 -0.15306361090E+04  0.15306361090E+04  0.25500000000E-02 0.  1.
    5000001    1    1    2    0    0 -0.20003123037E+03  0.18277116800E+01 -0.41303904918E+03  0.48769056768E+03  0.16500000000E+03 0.  0.
   -5000001    1    1    2    0    0  0.20003123037E+03 -0.18277116800E+01 -0.10647102019E+04  0.10958323994E+04  0.16500000000E+03 0.  0.
<mgrwt>
<rscale>  0 0.56903615E+03</rscale>
<asrwt>0</asrwt>
<pdfrwt beam="1">  1        2 0.23548244E+00 0.56903615E+03</pdfrwt>
<pdfrwt beam="2">  1       -2 0.81364409E-02 0.56903615E+03</pdfrwt>
<totfact> 0.11917683E+03</totfact>
</mgrwt>
</event>
<event>
 4    1  0.8877834E-005  0.4113516E+03  0.7818608E-02  0.1039918E+00
          2   -1    0    0  501    0  0.00000000000E+00  0.00000000000E+00  0.10046531398E+04  0.10046531398E+04  0.25500000000E-02 0.  1.
         -2   -1    0    0    0  501 -0.00000000000E+00 -0.00000000000E+00 -0.42106601125E+02  0.42106601202E+02  0.25500000000E-02 0. -1.
    5000001    1    1    2    0    0  0.86180336474E+02  0.43612483432E+02  0.67420713739E+03  0.70079195430E+03  0.16500000000E+03 0.  0.
   -5000001    1    1    2    0    0 -0.86180336474E+02 -0.43612483432E+02  0.28833940130E+03  0.34596778672E+03  0.16500000000E+03 0.  0.
<mgrwt>
<rscale>  0 0.41135157E+03</rscale>
<asrwt>0</asrwt>
<pdfrwt beam="1">  1        2 0.15456202E+00 0.41135157E+03</pdfrwt>
<pdfrwt beam="2">  1       -2 0.64779387E-02 0.41135157E+03</pdfrwt>
<totfact> 0.34422378E+03</totfact>
</mgrwt>
</event>
<event>
 4    1  0.8877834E-005  0.5837603E+03  0.7818608E-02  0.9939683E-01
          2   -1    0    0  501    0  0.00000000000E+00  0.00000000000E+00  0.20403961767E+04  0.20403961767E+04  0.25500000000E-02 0.  1.
         -2   -1    0    0    0  501 -0.00000000000E+00 -0.00000000000E+00 -0.41753669613E+02  0.41753669691E+02  0.25500000000E-02 0. -1.
    5000001    1    1    2    0    0 -0.96284508282E+02 -0.20437131021E+03  0.70238336657E+03  0.75604611804E+03  0.16500000000E+03 0.  0.
   -5000001    1    1    2    0    0  0.96284508282E+02  0.20437131021E+03  0.12962591405E+04  0.13261037283E+04  0.16500000000E+03 0.  0.
<mgrwt>
<rscale>  0 0.58376032E+03</rscale>
<asrwt>0</asrwt>
<pdfrwt beam="1">  1        2 0.31390704E+00 0.58376032E+03</pdfrwt>
<pdfrwt beam="2">  1       -2 0.64236428E-02 0.58376032E+03</pdfrwt>
<totfact> 0.91590294E+02</totfact>
</mgrwt>
</event>
<event>
 4    1  0.8877834E-005  0.5479485E+03  0.7818608E-02  0.1001970E+00
          2   -1    0    0  501    0  0.00000000000E+00  0.00000000000E+00  0.18300461226E+04  0.18300461226E+04  0.25500000000E-02 0.  1.
         -2   -1    0    0    0  501 -0.00000000000E+00 -0.00000000000E+00 -0.41016397814E+02  0.41016397894E+02  0.25500000000E-02 0. -1.
    5000001    1    1    2    0    0 -0.76277763722E+00  0.18484939781E+03  0.12937101567E+04  0.13172246776E+04  0.16500000000E+03 0.  0.
   -5000001    1    1    2    0    0  0.76277763722E+00 -0.18484939781E+03  0.49531956805E+03  0.55383784287E+03  0.16500000000E+03 0.  0.
<mgrwt>
<rscale>  0 0.54794854E+03</rscale>
<asrwt>0</asrwt>
<pdfrwt beam="1">  1        2 0.28154549E+00 0.54794854E+03</pdfrwt>
<pdfrwt beam="2">  1       -2 0.63102165E-02 0.54794854E+03</pdfrwt>
<totfact> 0.12262486E+03</totfact>
</mgrwt>
</event>
<event>
 4    1  0.8877834E-005  0.3948587E+03  0.7818608E-02  0.1045575E+00
          2   -1    0    0  501    0  0.00000000000E+00  0.00000000000E+00  0.59087885843E+03  0.59087885844E+03  0.25500000000E-02 0.  1.
         -2   -1    0    0    0  501 -0.00000000000E+00 -0.00000000000E+00 -0.65966722806E+02  0.65966722855E+02  0.25500000000E-02 0. -1.
    5000001    1    1    2    0    0  0.92868504903E+02 -0.48578041197E+02  0.30858490634E+03  0.36528622984E+03  0.16500000000E+03 0.  0.
   -5000001    1    1    2    0    0 -0.92868504903E+02  0.48578041197E+02  0.21632722929E+03  0.29155935145E+03  0.16500000000E+03 0.  0.
<mgrwt>
<rscale>  0 0.39485867E+03</rscale>
<asrwt>0</asrwt>
<pdfrwt beam="1">  1        2 0.90904440E-01 0.39485867E+03</pdfrwt>
<pdfrwt beam="2">  1       -2 0.10148727E-01 0.39485867E+03</pdfrwt>
<totfact> 0.33480977E+03</totfact>
</mgrwt>
</event>
<event>
 4    1  0.8877834E-005  0.3819387E+03  0.7818608E-02  0.1050220E+00
         -2   -1    0    0    0  501 -0.00000000000E+00  0.00000000000E+00  0.17916975593E+02  0.17916975775E+02  0.25500000000E-02 0. -1.
          2   -1    0    0  501    0  0.00000000000E+00 -0.00000000000E+00 -0.20354605258E+04  0.20354605258E+04  0.25500000000E-02 0.  1.
    5000001    1    1    2    0    0 -0.60152793276E+02  0.70663811236E+02 -0.11439875442E+04  0.11595448392E+04  0.16500000000E+03 0.  0.
   -5000001    1    1    2    0    0  0.60152793276E+02 -0.70663811236E+02 -0.87355600601E+03  0.89383266241E+03  0.16500000000E+03 0.  0.
<mgrwt>
<rscale>  0 0.38193872E+03</rscale>
<asrwt>0</asrwt>
<pdfrwt beam="1">  1        2 0.31314759E+00 0.38193872E+03</pdfrwt>
<pdfrwt beam="2">  1       -2 0.27564594E-02 0.38193872E+03</pdfrwt>
<totfact> 0.34076843E+03</totfact>
</mgrwt>
</event>
<event>
 4    1  0.8877834E-005  0.4198455E+03  0.7818608E-02  0.1037117E+00
          2   -1    0    0  501    0  0.00000000000E+00  0.00000000000E+00  0.45581794480E+03  0.45581794480E+03  0.25500000000E-02 0.  1.
         -2   -1    0    0    0  501 -0.00000000000E+00 -0.00000000000E+00 -0.96677980479E+02  0.96677980513E+02  0.25500000000E-02 0. -1.
    5000001    1    1    2    0    0  0.87322144465E+02  0.74909273628E+02  0.25859281286E+03  0.32761532176E+03  0.16500000000E+03 0.  0.
   -5000001    1    1    2    0    0 -0.87322144465E+02 -0.74909273628E+02  0.10054715146E+03  0.22488060356E+03  0.16500000000E+03 0.  0.
<mgrwt>
<rscale>  0 0.41984549E+03</rscale>
<asrwt>0</asrwt>
<pdfrwt beam="1">  1        2 0.70125838E-01 0.41984549E+03</pdfrwt>
<pdfrwt beam="2">  1       -2 0.14873535E-01 0.41984549E+03</pdfrwt>
<totfact> 0.24133724E+03</totfact>
</mgrwt>
</event>
<event>
 4    1  0.8877834E-005  0.4518045E+03  0.7818608E-02  0.1027185E+00
         -2   -1    0    0    0  501 -0.00000000000E+00  0.00000000000E+00  0.93426689843E+02  0.93426689878E+02  0.25500000000E-02 0. -1.
          2   -1    0    0  501    0  0.00000000000E+00 -0.00000000000E+00 -0.54622314173E+03  0.54622314173E+03  0.25500000000E-02 0.  1.
    5000001    1    1    2    0    0  0.10592846708E+03  0.16082533882E+02 -0.38358873199E+03  0.43109720869E+03  0.16500000000E+03 0.  0.
   -5000001    1    1    2    0    0 -0.10592846708E+03 -0.16082533882E+02 -0.69207719895E+02  0.20855262292E+03  0.16500000000E+03 0.  0.
<mgrwt>
<rscale>  0 0.45180447E+03</rscale>
<asrwt>0</asrwt>
<pdfrwt beam="1">  1        2 0.84034328E-01 0.45180447E+03</pdfrwt>
<pdfrwt beam="2">  1       -2 0.14373337E-01 0.45180447E+03</pdfrwt>
<totfact> 0.20801325E+03</totfact>
</mgrwt>
</event>
<event>
 4    1  0.8877834E-005  0.6852406E+03  0.7818608E-02  0.9742811E-01
          2   -1    0    0  501    0  0.00000000000E+00  0.00000000000E+00  0.65528627184E+03  0.65528627184E+03  0.25500000000E-02 0.  1.
         -2   -1    0    0    0  501 -0.00000000000E+00 -0.00000000000E+00 -0.17914106980E+03  0.17914106982E+03  0.25500000000E-02 0. -1.
    5000001    1    1    2    0    0 -0.22122845652E+03 -0.20005458987E+03  0.19589299360E+03  0.39314492728E+03  0.16500000000E+03 0.  0.
   -5000001    1    1    2    0    0  0.22122845652E+03  0.20005458987E+03  0.28025220844E+03  0.44128241438E+03  0.16500000000E+03 0.  0.
<mgrwt>
<rscale>  0 0.68524064E+03</rscale>
<asrwt>0</asrwt>
<pdfrwt beam="1">  1        2 0.10081327E+00 0.68524064E+03</pdfrwt>
<pdfrwt beam="2">  1       -2 0.27560165E-01 0.68524064E+03</pdfrwt>
<totfact> 0.53722043E+02</totfact>
</mgrwt>
</event>
<event>
 4    1  0.8877834E-005  0.5313216E+03  0.7818608E-02  0.1005912E+00
          2   -1    0    0  501    0  0.00000000000E+00  0.00000000000E+00  0.20022248231E+04  0.20022248231E+04  0.25500000000E-02 0.  1.
         -2   -1    0    0    0  501 -0.00000000000E+00 -0.00000000000E+00 -0.35248618517E+02  0.35248618609E+02  0.25500000000E-02 0. -1.
    5000001    1    1    2    0    0  0.20528358362E+03 -0.29174949451E+02  0.10560578921E+04  0.10887955726E+04  0.16500000000E+03 0.  0.
   -5000001    1    1    2    0    0 -0.20528358362E+03  0.29174949451E+02  0.91091831246E+03  0.94867786912E+03  0.16500000000E+03 0.  0.
<mgrwt>
<rscale>  0 0.53132159E+03</rscale>
<asrwt>0</asrwt>
<pdfrwt beam="1">  1        2 0.30803475E+00 0.53132159E+03</pdfrwt>
<pdfrwt beam="2">  1       -2 0.54228616E-02 0.53132159E+03</pdfrwt>
<totfact> 0.12557279E+03</totfact>
</mgrwt>
</event>
<event>
 4    1  0.8877834E-005  0.4823651E+03  0.7818608E-02  0.1018487E+00
          2   -1    0    0  501    0  0.00000000000E+00  0.00000000000E+00  0.51783460250E+02  0.51783460313E+02  0.25500000000E-02 0.  1.
         -2   -1    0    0    0  501 -0.00000000000E+00 -0.00000000000E+00 -0.11233127932E+04  0.11233127932E+04  0.25500000000E-02 0. -1.
    5000001    1    1    2    0    0 -0.10149803105E+03  0.14127122233E+03 -0.47202339585E+03  0.52942468283E+03  0.16500000000E+03 0.  0.
   -5000001    1    1    2    0    0  0.10149803105E+03 -0.14127122233E+03 -0.59950593708E+03  0.64567157066E+03  0.16500000000E+03 0.  0.
<mgrwt>
<rscale>  0 0.48236510E+03</rscale>
<asrwt>0</asrwt>
<pdfrwt beam="1">  1        2 0.79666870E-02 0.48236510E+03</pdfrwt>
<pdfrwt beam="2">  1       -2 0.17281733E+00 0.48236510E+03</pdfrwt>
<totfact> 0.18535637E+02</totfact>
</mgrwt>
</event>
<event>
 4    1  0.8877834E-005  0.7977316E+03  0.7818608E-02  0.9563306E-01
          2   -1    0    0  501    0  0.00000000000E+00  0.00000000000E+00  0.12160975671E+04  0.12160975671E+04  0.25500000000E-02 0.  1.
         -2   -1    0    0    0  501 -0.00000000000E+00 -0.00000000000E+00 -0.13082332542E+03  0.13082332545E+03  0.25500000000E-02 0. -1.
    5000001    1    1    2    0    0 -0.31739181807E+03  0.12704074383E+03  0.33590153546E+03  0.50688436383E+03  0.16500000000E+03 0.  0.
   -5000001    1    1    2    0    0  0.31739181807E+03 -0.12704074383E+03  0.74937270622E+03  0.84003652872E+03  0.16500000000E+03 0.  0.
<mgrwt>
<rscale>  0 0.79773160E+03</rscale>
<asrwt>0</asrwt>
<pdfrwt beam="1">  1        2 0.18709193E+00 0.79773160E+03</pdfrwt>
<pdfrwt beam="2">  1       -2 0.20126666E-01 0.79773160E+03</pdfrwt>
<totfact> 0.39341606E+02</totfact>
</mgrwt>
</event>
<event>
 4    1  0.8877834E-005  0.5242034E+03  0.7818608E-02  0.1007648E+00
          2   -1    0    0  501    0  0.00000000000E+00  0.00000000000E+00  0.84895270798E+03  0.84895270798E+03  0.25500000000E-02 0.  1.
         -2   -1    0    0    0  501 -0.00000000000E+00 -0.00000000000E+00 -0.80920054850E+02  0.80920054890E+02  0.25500000000E-02 0. -1.
    5000001    1    1    2    0    0  0.15808333810E+03 -0.11020614865E+03  0.26720189114E+03  0.36845296526E+03  0.16500000000E+03 0.  0.
   -5000001    1    1    2    0    0 -0.15808333810E+03  0.11020614865E+03  0.50083076200E+03  0.56141979761E+03  0.16500000000E+03 0.  0.
<mgrwt>
<rscale>  0 0.52420339E+03</rscale>
<asrwt>0</asrwt>
<pdfrwt beam="1">  1        2 0.13060811E+00 0.52420339E+03</pdfrwt>
<pdfrwt beam="2">  1       -2 0.12449239E-01 0.52420339E+03</pdfrwt>
<totfact> 0.15289028E+03</totfact>
</mgrwt>
</event>
<event>
 4    1  0.8877834E-005  0.6793146E+03  0.7818608E-02  0.9753276E-01
         -2   -1    0    0    0  501 -0.00000000000E+00  0.00000000000E+00  0.30675304487E+03  0.30675304489E+03  0.25500000000E-02 0. -1.
          2   -1    0    0  501    0  0.00000000000E+00 -0.00000000000E+00 -0.37609102107E+03  0.37609102108E+03  0.25500000000E-02 0.  1.
    5000001    1    1    2    0    0  0.28033496765E+03  0.58839148782E+02 -0.11312788540E+03  0.34938897804E+03  0.16500000000E+03 0.  0.
   -5000001    1    1    2    0    0 -0.28033496765E+03 -0.58839148782E+02  0.43789909208E+02  0.33345508793E+03  0.16500000000E+03 0.  0.
<mgrwt>
<rscale>  0 0.67931455E+03</rscale>
<asrwt>0</asrwt>
<pdfrwt beam="1">  1        2 0.57860157E-01 0.67931455E+03</pdfrwt>
<pdfrwt beam="2">  1       -2 0.47192776E-01 0.67931455E+03</pdfrwt>
<totfact> 0.36604804E+02</totfact>
</mgrwt>
</event>
<event>
 4    1  0.8877834E-005  0.3968535E+03  0.7818608E-02  0.1044875E+00
          2   -1    0    0  501    0  0.00000000000E+00  0.00000000000E+00  0.17719716681E+03  0.17719716683E+03  0.25500000000E-02 0.  1.
         -2   -1    0    0    0  501 -0.00000000000E+00 -0.00000000000E+00 -0.22219975753E+03  0.22219975754E+03  0.25500000000E-02 0. -1.
    5000001    1    1    2    0    0 -0.26735620071E+02 -0.84832240259E+02 -0.88009675950E+02  0.20707970791E+03  0.16500000000E+03 0.  0.
   -5000001    1    1    2    0    0  0.26735620071E+02  0.84832240259E+02  0.43007085232E+02  0.19231721646E+03  0.16500000000E+03 0.  0.
<mgrwt>
<rscale>  0 0.39685346E+03</rscale>
<asrwt>0</asrwt>
<pdfrwt beam="1">  1        2 0.27261103E-01 0.39685346E+03</pdfrwt>
<pdfrwt beam="2">  1       -2 0.34184578E-01 0.39685346E+03</pdfrwt>
<totfact> 0.15776529E+03</totfact>
</mgrwt>
</event>
<event>
 4    1  0.8877834E-005  0.5570620E+03  0.7818608E-02  0.9998724E-01
         -2   -1    0    0    0  501 -0.00000000000E+00  0.00000000000E+00  0.98387052213E+02  0.98387052246E+02  0.25500000000E-02 0. -1.
          2   -1    0    0  501    0  0.00000000000E+00 -0.00000000000E+00 -0.78851350918E+03  0.78851350918E+03  0.25500000000E-02 0.  1.
    5000001    1    1    2    0    0  0.12476602084E+03 -0.16342424372E+03 -0.20194667329E+03  0.33208658848E+03  0.16500000000E+03 0.  0.
   -5000001    1    1    2    0    0 -0.12476602084E+03  0.16342424372E+03 -0.48817978367E+03  0.55481397295E+03  0.16500000000E+03 0.  0.
<mgrwt>
<rscale>  0 0.55706201E+03</rscale>
<asrwt>0</asrwt>
<pdfrwt beam="1">  1        2 0.12130977E+00 0.55706201E+03</pdfrwt>
<pdfrwt beam="2">  1       -2 0.15136470E-01 0.55706201E+03</pdfrwt>
<totfact> 0.12168431E+03</totfact>
</mgrwt>
</event>
<event>
 4    1  0.8877834E-005  0.4365931E+03  0.7818608E-02  0.1031797E+00
         -2   -1    0    0    0  501 -0.00000000000E+00  0.00000000000E+00  0.11625264527E+03  0.11625264530E+03  0.25500000000E-02 0. -1.
          2   -1    0    0  501    0  0.00000000000E+00 -0.00000000000E+00 -0.40991232769E+03  0.40991232770E+03  0.25500000000E-02 0.  1.
    5000001    1    1    2    0    0  0.71082390892E+02  0.15072044784E+02  0.15005434036E+01  0.18029732239E+03  0.16500000000E+03 0.  0.
   -5000001    1    1    2    0    0 -0.71082390892E+02 -0.15072044784E+02 -0.29516022583E+03  0.34586765061E+03  0.16500000000E+03 0.  0.
<mgrwt>
<rscale>  0 0.43659314E+03</rscale>
<asrwt>0</asrwt>
<pdfrwt beam="1">  1        2 0.63063434E-01 0.43659314E+03</pdfrwt>
<pdfrwt beam="2">  1       -2 0.17885023E-01 0.43659314E+03</pdfrwt>
<totfact> 0.19912512E+03</totfact>
</mgrwt>
</event>
<event>
 4    1  0.8877834E-005  0.4760215E+03  0.7818608E-02  0.1020234E+00
          2   -1    0    0  501    0  0.00000000000E+00  0.00000000000E+00  0.51865225604E+03  0.51865225605E+03  0.25500000000E-02 0.  1.
         -2   -1    0    0    0  501 -0.00000000000E+00 -0.00000000000E+00 -0.10922369305E+03  0.10922369308E+03  0.25500000000E-02 0. -1.
    5000001    1    1    2    0    0 -0.41519247226E+02 -0.16493422914E+03  0.23411859603E+03  0.33311209051E+03  0.16500000000E+03 0.  0.
   -5000001    1    1    2    0    0  0.41519247226E+02  0.16493422914E+03  0.17530996696E+03  0.29476385862E+03  0.16500000000E+03 0.  0.
<mgrwt>
<rscale>  0 0.47602149E+03</rscale>
<asrwt>0</asrwt>
<pdfrwt beam="1">  1        2 0.79792654E-01 0.47602149E+03</pdfrwt>
<pdfrwt beam="2">  1       -2 0.16803645E-01 0.47602149E+03</pdfrwt>
<totfact> 0.16988693E+03</totfact>
</mgrwt>
</event>
<event>
 4    1  0.8877834E-005  0.4772056E+03  0.7818608E-02  0.1019906E+00
         -2   -1    0    0    0  501 -0.00000000000E+00  0.00000000000E+00  0.26251936591E+02  0.26251936715E+02  0.25500000000E-02 0. -1.
          2   -1    0    0  501    0  0.00000000000E+00 -0.00000000000E+00 -0.21686513067E+04  0.21686513067E+04  0.25500000000E-02 0.  1.
    5000001    1    1    2    0    0 -0.14694149187E+03 -0.49756585273E+02 -0.72581561479E+03  0.76032941971E+03  0.16500000000E+03 0.  0.
   -5000001    1    1    2    0    0  0.14694149187E+03  0.49756585273E+02 -0.14165837553E+04  0.14345738237E+04  0.16500000000E+03 0.  0.
<mgrwt>
<rscale>  0 0.47720560E+03</rscale>
<asrwt>0</asrwt>
<pdfrwt beam="1">  1        2 0.33363852E+00 0.47720560E+03</pdfrwt>
<pdfrwt beam="2">  1       -2 0.40387612E-02 0.47720560E+03</pdfrwt>
<totfact> 0.16130089E+03</totfact>
</mgrwt>
</event>
<event>
 4    1  0.8877834E-005  0.4160484E+03  0.7818608E-02  0.1038360E+00
          2   -1    0    0  501    0  0.00000000000E+00  0.00000000000E+00  0.50633154505E+03  0.50633154506E+03  0.25500000000E-02 0.  1.
         -2   -1    0    0    0  501 -0.00000000000E+00 -0.00000000000E+00 -0.85465876171E+02  0.85465876209E+02  0.25500000000E-02 0. -1.
    5000001    1    1    2    0    0  0.11894545943E+03 -0.27292666783E+02  0.25879855281E+03  0.33029472130E+03  0.16500000000E+03 0.  0.
   -5000001    1    1    2    0    0 -0.11894545943E+03  0.27292666783E+02  0.16206711607E+03  0.26150269997E+03  0.16500000000E+03 0.  0.
<mgrwt>
<rscale>  0 0.41604841E+03</rscale>
<asrwt>0</asrwt>
<pdfrwt beam="1">  1        2 0.77897160E-01 0.41604841E+03</pdfrwt>
<pdfrwt beam="2">  1       -2 0.13148596E-01 0.41604841E+03</pdfrwt>
<totfact> 0.26287051E+03</totfact>
</mgrwt>
</event>
<event>
 4    1  0.8877834E-005  0.1244671E+04  0.7818608E-02  0.9074630E-01
         -2   -1    0    0    0  501 -0.00000000000E+00  0.00000000000E+00  0.22050159366E+03  0.22050159368E+03  0.25500000000E-02 0. -1.
          2   -1    0    0  501    0  0.00000000000E+00 -0.00000000000E+00 -0.17564565275E+04  0.17564565275E+04  0.25500000000E-02 0.  1.
    5000001    1    1    2    0    0 -0.46553417270E+03 -0.20160305596E+03 -0.25893906199E+03  0.59299266096E+03  0.16500000000E+03 0.  0.
   -5000001    1    1    2    0    0  0.46553417270E+03  0.20160305596E+03 -0.12770158718E+04  0.13839654602E+04  0.16500000000E+03 0.  0.
<mgrwt>
<rscale>  0 0.12446710E+04</rscale>
<asrwt>0</asrwt>
<pdfrwt beam="1">  1        2 0.27022407E+00 0.12446710E+04</pdfrwt>
<pdfrwt beam="2">  1       -2 0.33923323E-01 0.12446710E+04</pdfrwt>
<totfact> 0.72990234E+01</totfact>
</mgrwt>
</event>
<event>
 4    1  0.8877834E-005  0.6526145E+03  0.7818608E-02  0.9801886E-01
          2   -1    0    0  501    0  0.00000000000E+00  0.00000000000E+00  0.10619653874E+04  0.10619653874E+04  0.25500000000E-02 0.  1.
         -2   -1    0    0    0  501 -0.00000000000E+00 -0.00000000000E+00 -0.10026354446E+03  0.10026354449E+03  0.25500000000E-02 0. -1.
    5000001    1    1    2    0    0  0.22580026339E+03 -0.13354257885E+03  0.66274538778E+03  0.73162546999E+03  0.16500000000E+03 0.  0.
   -5000001    1    1    2    0    0 -0.22580026339E+03  0.13354257885E+03  0.29895645513E+03  0.43060346187E+03  0.16500000000E+03 0.  0.
<mgrwt>
<rscale>  0 0.65261448E+03</rscale>
<asrwt>0</asrwt>
<pdfrwt beam="1">  1        2 0.16337929E+00 0.65261448E+03</pdfrwt>
<pdfrwt beam="2">  1       -2 0.15425160E-01 0.65261448E+03</pdfrwt>
<totfact> 0.77526499E+02</totfact>
</mgrwt>
</event>
<event>
 4    1  0.8877834E-005  0.6190060E+03  0.7818608E-02  0.9866741E-01
         -2   -1    0    0    0  501 -0.00000000000E+00  0.00000000000E+00  0.84006328732E+02  0.84006328771E+02  0.25500000000E-02 0. -1.
          2   -1    0    0  501    0  0.00000000000E+00 -0.00000000000E+00 -0.11402963399E+04  0.11402963399E+04  0.25500000000E-02 0.  1.
    5000001    1    1    2    0    0  0.22499618833E+02 -0.22954789849E+03 -0.77334001827E+03  0.82369791453E+03  0.16500000000E+03 0.  0.
   -5000001    1    1    2    0    0 -0.22499618833E+02  0.22954789849E+03 -0.28294999286E+03  0.40060475410E+03  0.16500000000E+03 0.  0.
<mgrwt>
<rscale>  0 0.61900601E+03</rscale>
<asrwt>0</asrwt>
<pdfrwt beam="1">  1        2 0.17543020E+00 0.61900601E+03</pdfrwt>
<pdfrwt beam="2">  1       -2 0.12924051E-01 0.61900601E+03</pdfrwt>
<totfact> 0.93560230E+02</totfact>
</mgrwt>
</event>
<event>
 4    1  0.8877834E-005  0.5264226E+03  0.7818608E-02  0.1007103E+00
         -2   -1    0    0    0  501 -0.00000000000E+00  0.00000000000E+00  0.24935257515E+02  0.24935257645E+02  0.25500000000E-02 0. -1.
          2   -1    0    0  501    0  0.00000000000E+00 -0.00000000000E+00 -0.27784028356E+04  0.27784028356E+04  0.25500000000E-02 0.  1.
    5000001    1    1    2    0    0 -0.12119616436E+03 -0.15996851060E+03 -0.11522655967E+04  0.11811940738E+04  0.16500000000E+03 0.  0.
   -5000001    1    1    2    0    0  0.12119616436E+03  0.15996851060E+03 -0.16012019814E+04  0.16221440195E+04  0.16500000000E+03 0.  0.
<mgrwt>
<rscale>  0 0.52642261E+03</rscale>
<asrwt>0</asrwt>
<pdfrwt beam="1">  1        2 0.42744635E+00 0.52642261E+03</pdfrwt>
<pdfrwt beam="2">  1       -2 0.38361957E-02 0.52642261E+03</pdfrwt>
<totfact> 0.79228105E+02</totfact>
</mgrwt>
</event>
<event>
 4    1  0.8877834E-005  0.8636280E+03  0.7818608E-02  0.9472226E-01
         -2   -1    0    0    0  501 -0.00000000000E+00  0.00000000000E+00  0.21505099090E+03  0.21505099091E+03  0.25500000000E-02 0. -1.
          2   -1    0    0  501    0  0.00000000000E+00 -0.00000000000E+00 -0.86706570712E+03  0.86706570713E+03  0.25500000000E-02 0.  1.
    5000001    1    1    2    0    0 -0.21494624566E+03  0.32204462880E+03 -0.44699519348E+03  0.61395792564E+03  0.16500000000E+03 0.  0.
   -5000001    1    1    2    0    0  0.21494624566E+03 -0.32204462880E+03 -0.20501952275E+03  0.46815877240E+03  0.16500000000E+03 0.  0.
<mgrwt>
<rscale>  0 0.86362802E+03</rscale>
<asrwt>0</asrwt>
<pdfrwt beam="1">  1        2 0.13339472E+00 0.86362802E+03</pdfrwt>
<pdfrwt beam="2">  1       -2 0.33084768E-01 0.86362802E+03</pdfrwt>
<totfact> 0.26412526E+02</totfact>
</mgrwt>
</event>
<event>
 4    1  0.8877834E-005  0.7131808E+03  0.7818608E-02  0.9694953E-01
          2   -1    0    0  501    0  0.00000000000E+00  0.00000000000E+00  0.14119321331E+03  0.14119321334E+03  0.25500000000E-02 0.  1.
         -2   -1    0    0    0  501 -0.00000000000E+00 -0.00000000000E+00 -0.90058655822E+03  0.90058655822E+03  0.25500000000E-02 0. -1.
    5000001    1    1    2    0    0  0.13656740564E+03 -0.17322921598E+03 -0.71046151794E+03  0.76199710369E+03  0.16500000000E+03 0.  0.
   -5000001    1    1    2    0    0 -0.13656740564E+03  0.17322921598E+03 -0.48931826964E+02  0.27978266787E+03  0.16500000000E+03 0.  0.
<mgrwt>
<rscale>  0 0.71318079E+03</rscale>
<asrwt>0</asrwt>
<pdfrwt beam="1">  1        2 0.21722033E-01 0.71318079E+03</pdfrwt>
<pdfrwt beam="2">  1       -2 0.13855177E+00 0.71318079E+03</pdfrwt>
<totfact> 0.96278519E+01</totfact>
</mgrwt>
</event>
<event>
 4    1  0.8877834E-005  0.4031362E+03  0.7818608E-02  0.1042699E+00
         -2   -1    0    0    0  501 -0.00000000000E+00  0.00000000000E+00  0.85018610950E+03  0.85018610950E+03  0.25500000000E-02 0. -1.
          2   -1    0    0  501    0  0.00000000000E+00 -0.00000000000E+00 -0.47789179702E+02  0.47789179770E+02  0.25500000000E-02 0.  1.
    5000001    1    1    2    0    0 -0.99295744028E+01  0.11534934807E+03  0.40296401271E+03  0.45056527173E+03  0.16500000000E+03 0.  0.
   -5000001    1    1    2    0    0  0.99295744028E+01 -0.11534934807E+03  0.39943291708E+03  0.44741001754E+03  0.16500000000E+03 0.  0.
<mgrwt>
<rscale>  0 0.40313619E+03</rscale>
<asrwt>0</asrwt>
<pdfrwt beam="1">  1        2 0.73521815E-02 0.40313619E+03</pdfrwt>
<pdfrwt beam="2">  1       -2 0.13079786E+00 0.40313619E+03</pdfrwt>
<totfact> 0.42762902E+02</totfact>
</mgrwt>
</event>
<event>
 4    1  0.8877834E-005  0.3612822E+03  0.7818608E-02  0.1058077E+00
         -2   -1    0    0    0  501 -0.00000000000E+00  0.00000000000E+00  0.91598671932E+02  0.91598671967E+02  0.25500000000E-02 0. -1.
          2   -1    0    0  501    0  0.00000000000E+00 -0.00000000000E+00 -0.35624114191E+03  0.35624114191E+03  0.25500000000E-02 0.  1.
    5000001    1    1    2    0    0 -0.34229412630E+02 -0.81071465252E-01 -0.21298528652E+03  0.27158680295E+03  0.16500000000E+03 0.  0.
   -5000001    1    1    2    0    0  0.34229412630E+02  0.81071465252E-01 -0.51657183457E+02  0.17625301094E+03  0.16500000000E+03 0.  0.
<mgrwt>
<rscale>  0 0.36128225E+03</rscale>
<asrwt>0</asrwt>
<pdfrwt beam="1">  1        2 0.54806329E-01 0.36128225E+03</pdfrwt>
<pdfrwt beam="2">  1       -2 0.14092104E-01 0.36128225E+03</pdfrwt>
<totfact> 0.34571174E+03</totfact>
</mgrwt>
</event>
<event>
 4    1  0.8877834E-005  0.3501755E+03  0.7818608E-02  0.1062543E+00
         -2   -1    0    0    0  501 -0.00000000000E+00  0.00000000000E+00  0.12914843120E+02  0.12914843372E+02  0.25500000000E-02 0. -1.
          2   -1    0    0  501    0  0.00000000000E+00 -0.00000000000E+00 -0.23736812458E+04  0.23736812458E+04  0.25500000000E-02 0.  1.
    5000001    1    1    2    0    0 -0.13433973841E+02  0.57010006909E+02 -0.11826298897E+04  0.11955204174E+04  0.16500000000E+03 0.  0.
   -5000001    1    1    2    0    0  0.13433973841E+02 -0.57010006909E+02 -0.11781365131E+04  0.11910756718E+04  0.16500000000E+03 0.  0.
<mgrwt>
<rscale>  0 0.35017551E+03</rscale>
<asrwt>0</asrwt>
<pdfrwt beam="1">  1        2 0.36518138E+00 0.35017551E+03</pdfrwt>
<pdfrwt beam="2">  1       -2 0.19869008E-02 0.35017551E+03</pdfrwt>
<totfact> 0.36545903E+03</totfact>
</mgrwt>
</event>
<event>
 4    1  0.8877834E-005  0.4878309E+03  0.7818608E-02  0.1017005E+00
         -2   -1    0    0    0  501 -0.00000000000E+00  0.00000000000E+00  0.41423199889E+02  0.41423199968E+02  0.25500000000E-02 0. -1.
          2   -1    0    0  501    0  0.00000000000E+00 -0.00000000000E+00 -0.14362662683E+04  0.14362662683E+04  0.25500000000E-02 0.  1.
    5000001    1    1    2    0    0  0.17669746591E+03 -0.20928239504E+02 -0.77222005871E+03  0.80944969253E+03  0.16500000000E+03 0.  0.
   -5000001    1    1    2    0    0 -0.17669746591E+03  0.20928239504E+02 -0.62262300968E+03  0.66823977572E+03  0.16500000000E+03 0.  0.
<mgrwt>
<rscale>  0 0.48783089E+03</rscale>
<asrwt>0</asrwt>
<pdfrwt beam="1">  1        2 0.22096400E+00 0.48783089E+03</pdfrwt>
<pdfrwt beam="2">  1       -2 0.63728011E-02 0.48783089E+03</pdfrwt>
<totfact> 0.19817573E+03</totfact>
</mgrwt>
</event>
<event>
 4    1  0.8877834E-005  0.5156093E+03  0.7818608E-02  0.1009783E+00
         -2   -1    0    0    0  501 -0.00000000000E+00  0.00000000000E+00  0.34705852655E+02  0.34705852748E+02  0.25500000000E-02 0. -1.
          2   -1    0    0  501    0  0.00000000000E+00 -0.00000000000E+00 -0.19150443425E+04  0.19150443425E+04  0.25500000000E-02 0.  1.
    5000001    1    1    2    0    0  0.17326504331E+03 -0.10137614907E+02 -0.57915079346E+03  0.62670901384E+03  0.16500000000E+03 0.  0.
   -5000001    1    1    2    0    0 -0.17326504331E+03  0.10137614907E+02 -0.13011876964E+04  0.13230411814E+04  0.16500000000E+03 0.  0.
<mgrwt>
<rscale>  0 0.51560934E+03</rscale>
<asrwt>0</asrwt>
<pdfrwt beam="1">  1        2 0.29462212E+00 0.51560934E+03</pdfrwt>
<pdfrwt beam="2">  1       -2 0.53393635E-02 0.51560934E+03</pdfrwt>
<totfact> 0.14345595E+03</totfact>
</mgrwt>
</event>
<event>
 4    1  0.8877834E-005  0.4790997E+03  0.7818608E-02  0.1019383E+00
         -2   -1    0    0    0  501 -0.00000000000E+00  0.00000000000E+00  0.15904257098E+03  0.15904257100E+03  0.25500000000E-02 0. -1.
          2   -1    0    0  501    0  0.00000000000E+00 -0.00000000000E+00 -0.36080993375E+03  0.36080993376E+03  0.25500000000E-02 0.  1.
    5000001    1    1    2    0    0  0.10410703548E+03 -0.11565083762E+03 -0.18455131255E+03  0.29239968885E+03  0.16500000000E+03 0.  0.
   -5000001    1    1    2    0    0 -0.10410703548E+03  0.11565083762E+03 -0.17216050225E+02  0.22745281591E+03  0.16500000000E+03 0.  0.
<mgrwt>
<rscale>  0 0.47909974E+03</rscale>
<asrwt>0</asrwt>
<pdfrwt beam="1">  1        2 0.55509220E-01 0.47909974E+03</pdfrwt>
<pdfrwt beam="2">  1       -2 0.24468088E-01 0.47909974E+03</pdfrwt>
<totfact> 0.13286267E+03</totfact>
</mgrwt>
</event>
<event>
 4    1  0.8877834E-005  0.1238578E+04  0.7818608E-02  0.9079744E-01
         -2   -1    0    0    0  501 -0.00000000000E+00  0.00000000000E+00  0.23902263317E+03  0.23902263318E+03  0.25500000000E-02 0. -1.
          2   -1    0    0  501    0  0.00000000000E+00 -0.00000000000E+00 -0.16045294029E+04  0.16045294029E+04  0.25500000000E-02 0.  1.
    5000001    1    1    2    0    0  0.51302768159E+03  0.28674559340E+03 -0.83796164961E+03  0.10367377506E+04  0.16500000000E+03 0.  0.
   -5000001    1    1    2    0    0 -0.51302768159E+03 -0.28674559340E+03 -0.52754512010E+03  0.80681428542E+03  0.16500000000E+03 0.  0.
<mgrwt>
<rscale>  0 0.12385780E+04</rscale>
<asrwt>0</asrwt>
<pdfrwt beam="1">  1        2 0.24685067E+00 0.12385780E+04</pdfrwt>
<pdfrwt beam="2">  1       -2 0.36772714E-01 0.12385780E+04</pdfrwt>
<totfact> 0.75989277E+01</totfact>
</mgrwt>
</event>
<event>
 4    1  0.8877834E-005  0.5667086E+03  0.7818608E-02  0.9976989E-01
         -2   -1    0    0    0  501 -0.00000000000E+00  0.00000000000E+00  0.49520135984E+02  0.49520136050E+02  0.25500000000E-02 0. -1.
          2   -1    0    0  501    0  0.00000000000E+00 -0.00000000000E+00 -0.16213536199E+04  0.16213536199E+04  0.25500000000E-02 0.  1.
    5000001    1    1    2    0    0  0.22798994940E+03 -0.65176457822E+01 -0.69070839876E+03  0.74587196545E+03  0.16500000000E+03 0.  0.
   -5000001    1    1    2    0    0 -0.22798994940E+03  0.65176457822E+01 -0.88112508512E+03  0.92500179047E+03  0.16500000000E+03 0.  0.
<mgrwt>
<rscale>  0 0.56670857E+03</rscale>
<asrwt>0</asrwt>
<pdfrwt beam="1">  1        2 0.24943898E+00 0.56670857E+03</pdfrwt>
<pdfrwt beam="2">  1       -2 0.76184837E-02 0.56670857E+03</pdfrwt>
<totfact> 0.11804907E+03</totfact>
</mgrwt>
</event>
<event>
 4    1  0.8877834E-005  0.7540015E+03  0.7818608E-02  0.9629094E-01
         -2   -1    0    0    0  501 -0.00000000000E+00  0.00000000000E+00  0.65060201166E+02  0.65060201215E+02  0.25500000000E-02 0. -1.
          2   -1    0    0  501    0  0.00000000000E+00 -0.00000000000E+00 -0.21845851426E+04  0.21845851427E+04  0.25500000000E-02 0.  1.
    5000001    1    1    2    0    0 -0.12685192607E+03  0.28510273308E+03 -0.66473482007E+03  0.75264358137E+03  0.16500000000E+03 0.  0.
   -5000001    1    1    2    0    0  0.12685192607E+03 -0.28510273308E+03 -0.14547901214E+04  0.14970017625E+04  0.16500000000E+03 0.  0.
<mgrwt>
<rscale>  0 0.75400146E+03</rscale>
<asrwt>0</asrwt>
<pdfrwt beam="1">  1        2 0.33608997E+00 0.75400146E+03</pdfrwt>
<pdfrwt beam="2">  1       -2 0.10009263E-01 0.75400146E+03</pdfrwt>
<totfact> 0.37122527E+02</totfact>
</mgrwt>
</event>
<event>
 4    1  0.8877834E-005  0.4987308E+03  0.7818608E-02  0.1014111E+00
         -2   -1    0    0    0  501 -0.00000000000E+00  0.00000000000E+00  0.84591220318E+02  0.84591220356E+02  0.25500000000E-02 0. -1.
          2   -1    0    0  501    0  0.00000000000E+00 -0.00000000000E+00 -0.73510099560E+03  0.73510099560E+03  0.25500000000E-02 0.  1.
    5000001    1    1    2    0    0  0.62653391189E+02 -0.14291168095E+03 -0.15596940108E+03  0.27550072604E+03  0.16500000000E+03 0.  0.
   -5000001    1    1    2    0    0 -0.62653391189E+02  0.14291168095E+03 -0.49454037420E+03  0.54419148991E+03  0.16500000000E+03 0.  0.
<mgrwt>
<rscale>  0 0.49873075E+03</rscale>
<asrwt>0</asrwt>
<pdfrwt beam="1">  1        2 0.11309246E+00 0.49873075E+03</pdfrwt>
<pdfrwt beam="2">  1       -2 0.13014034E-01 0.49873075E+03</pdfrwt>
<totfact> 0.17141348E+03</totfact>
</mgrwt>
</event>
<event>
 4    1  0.8877834E-005  0.4857085E+03  0.7818608E-02  0.1017578E+00
         -2   -1    0    0    0  501 -0.00000000000E+00  0.00000000000E+00  0.17748726490E+03  0.17748726492E+03  0.25500000000E-02 0. -1.
          2   -1    0    0  501    0  0.00000000000E+00 -0.00000000000E+00 -0.33229536607E+03  0.33229536608E+03  0.25500000000E-02 0.  1.
    5000001    1    1    2    0    0 -0.15783780807E+03 -0.52340371633E+02 -0.14461643229E+03  0.27530201715E+03  0.16500000000E+03 0.  0.
   -5000001    1    1    2    0    0  0.15783780807E+03  0.52340371633E+02 -0.10191668883E+02  0.23448061385E+03  0.16500000000E+03 0.  0.
<mgrwt>
<rscale>  0 0.48570854E+03</rscale>
<asrwt>0</asrwt>
<pdfrwt beam="1">  1        2 0.51122364E-01 0.48570854E+03</pdfrwt>
<pdfrwt beam="2">  1       -2 0.27305733E-01 0.48570854E+03</pdfrwt>
<totfact> 0.11944519E+03</totfact>
</mgrwt>
</event>
<event>
 4    1  0.8877834E-005  0.5395751E+03  0.7818608E-02  0.1003936E+00
         -2   -1    0    0    0  501 -0.00000000000E+00  0.00000000000E+00  0.13000244409E+03  0.13000244411E+03  0.25500000000E-02 0. -1.
          2   -1    0    0  501    0  0.00000000000E+00 -0.00000000000E+00 -0.55987649442E+03  0.55987649442E+03  0.25500000000E-02 0.  1.
    5000001    1    1    2    0    0 -0.17313394390E+03 -0.11831889024E+03 -0.26584859777E+03  0.37666324384E+03  0.16500000000E+03 0.  0.
   -5000001    1    1    2    0    0  0.17313394390E+03  0.11831889024E+03 -0.16402545256E+03  0.31321569470E+03  0.16500000000E+03 0.  0.
<mgrwt>
<rscale>  0 0.53957506E+03</rscale>
<asrwt>0</asrwt>
<pdfrwt beam="1">  1        2 0.86134844E-01 0.53957506E+03</pdfrwt>
<pdfrwt beam="2">  1       -2 0.20000376E-01 0.53957506E+03</pdfrwt>
<totfact> 0.11525159E+03</totfact>
</mgrwt>
</event>
<event>
 4    1  0.8877834E-005  0.4104958E+03  0.7818608E-02  0.1040205E+00
          2   -1    0    0  501    0  0.00000000000E+00  0.00000000000E+00  0.10890197591E+04  0.10890197591E+04  0.25500000000E-02 0.  1.
         -2   -1    0    0    0  501 -0.00000000000E+00 -0.00000000000E+00 -0.38683146015E+02  0.38683146099E+02  0.25500000000E-02 0. -1.
    5000001    1    1    2    0    0 -0.76937446955E+02 -0.91004362141E+02  0.59787998599E+03  0.63157473217E+03  0.16500000000E+03 0.  0.
   -5000001    1    1    2    0    0  0.76937446955E+02  0.91004362141E+02  0.45245662713E+03  0.49612817306E+03  0.16500000000E+03 0.  0.
<mgrwt>
<rscale>  0 0.41049585E+03</rscale>
<asrwt>0</asrwt>
<pdfrwt beam="1">  1        2 0.16754147E+00 0.41049585E+03</pdfrwt>
<pdfrwt beam="2">  1       -2 0.59512542E-02 0.41049585E+03</pdfrwt>
<totfact> 0.34879583E+03</totfact>
</mgrwt>
</event>
<event>
 4    1  0.8877834E-005  0.6924029E+03  0.7818608E-02  0.9730313E-01
          2   -1    0    0  501    0  0.00000000000E+00  0.00000000000E+00  0.17277889944E+04  0.17277889944E+04  0.25500000000E-02 0.  1.
         -2   -1    0    0    0  501 -0.00000000000E+00 -0.00000000000E+00 -0.69369268914E+02  0.69369268961E+02  0.25500000000E-02 0. -1.
    5000001    1    1    2    0    0  0.45373279735E+02  0.18595319326E+03  0.14433886453E+04  0.14653440231E+04  0.16500000000E+03 0.  0.
   -5000001    1    1    2    0    0 -0.45373279735E+02 -0.18595319326E+03  0.21503108014E+03  0.33181424023E+03  0.16500000000E+03 0.  0.
<mgrwt>
<rscale>  0 0.69240294E+03</rscale>
<asrwt>0</asrwt>
<pdfrwt beam="1">  1        2 0.26581371E+00 0.69240294E+03</pdfrwt>
<pdfrwt beam="2">  1       -2 0.10672194E-01 0.69240294E+03</pdfrwt>
<totfact> 0.59613853E+02</totfact>
</mgrwt>
</event>
<event>
 4    1  0.8877834E-005  0.3856329E+03  0.7818608E-02  0.1048871E+00
         -2   -1    0    0    0  501 -0.00000000000E+00  0.00000000000E+00  0.49244939982E+02  0.49244940048E+02  0.25500000000E-02 0. -1.
          2   -1    0    0  501    0  0.00000000000E+00 -0.00000000000E+00 -0.75496461330E+03  0.75496461330E+03  0.25500000000E-02 0.  1.
    5000001    1    1    2    0    0 -0.84267516660E+01  0.99382982800E+02 -0.35761519934E+03  0.40627775993E+03  0.16500000000E+03 0.  0.
   -5000001    1    1    2    0    0  0.84267516660E+01 -0.99382982800E+02 -0.34810447398E+03  0.39793179342E+03  0.16500000000E+03 0.  0.
<mgrwt>
<rscale>  0 0.38563292E+03</rscale>
<asrwt>0</asrwt>
<pdfrwt beam="1">  1        2 0.11614839E+00 0.38563292E+03</pdfrwt>
<pdfrwt beam="2">  1       -2 0.75761452E-02 0.38563292E+03</pdfrwt>
<totfact> 0.39530239E+03</totfact>
</mgrwt>
</event>
<event>
 4    1  0.8877834E-005  0.6187455E+03  0.7818608E-02  0.9867261E-01
         -2   -1    0    0    0  501 -0.00000000000E+00  0.00000000000E+00  0.11721312327E+03  0.11721312330E+03  0.25500000000E-02 0. -1.
          2   -1    0    0  501    0  0.00000000000E+00 -0.00000000000E+00 -0.81655946143E+03  0.81655946144E+03  0.25500000000E-02 0.  1.
    5000001    1    1    2    0    0  0.16636907624E+03 -0.16144211744E+03 -0.53292172361E+03  0.60412977936E+03  0.16500000000E+03 0.  0.
   -5000001    1    1    2    0    0 -0.16636907624E+03  0.16144211744E+03 -0.16642461455E+03  0.32964280538E+03  0.16500000000E+03 0.  0.
<mgrwt>
<rscale>  0 0.61874546E+03</rscale>
<asrwt>0</asrwt>
<pdfrwt beam="1">  1        2 0.12562453E+00 0.61874546E+03</pdfrwt>
<pdfrwt beam="2">  1       -2 0.18032789E-01 0.61874546E+03</pdfrwt>
<totfact> 0.86165548E+02</totfact>
</mgrwt>
</event>
<event>
 4    1  0.8877834E-005  0.4060934E+03  0.7818608E-02  0.1041690E+00
          2   -1    0    0  501    0  0.00000000000E+00  0.00000000000E+00  0.28522334716E+03  0.28522334717E+03  0.25500000000E-02 0.  1.
         -2   -1    0    0    0  501 -0.00000000000E+00 -0.00000000000E+00 -0.14454625909E+03  0.14454625911E+03  0.25500000000E-02 0. -1.
    5000001    1    1    2    0    0 -0.21390479709E+02  0.11638318512E+03  0.69695287149E+02  0.21467424496E+03  0.16500000000E+03 0.  0.
   -5000001    1    1    2    0    0  0.21390479709E+02 -0.11638318512E+03  0.70981800922E+02  0.21509536132E+03  0.16500000000E+03 0.  0.
<mgrwt>
<rscale>  0 0.40609343E+03</rscale>
<asrwt>0</asrwt>
<pdfrwt beam="1">  1        2 0.43880515E-01 0.40609343E+03</pdfrwt>
<pdfrwt beam="2">  1       -2 0.22237886E-01 0.40609343E+03</pdfrwt>
<totfact> 0.20327211E+03</totfact>
</mgrwt>
</event>
<event>
 4    1  0.8877834E-005  0.6557060E+03  0.7818608E-02  0.9796131E-01
         -2   -1    0    0    0  501 -0.00000000000E+00  0.00000000000E+00  0.54845624839E+02  0.54845624898E+02  0.25500000000E-02 0. -1.
          2   -1    0    0  501    0  0.00000000000E+00 -0.00000000000E+00 -0.19598207667E+04  0.19598207667E+04  0.25500000000E-02 0.  1.
    5000001    1    1    2    0    0 -0.34657824455E+02 -0.24689795280E+03 -0.53909066793E+03  0.61644424901E+03  0.16500000000E+03 0.  0.
   -5000001    1    1    2    0    0  0.34657824455E+02  0.24689795280E+03 -0.13658844739E+04  0.13982221426E+04  0.16500000000E+03 0.  0.
<mgrwt>
<rscale>  0 0.65570602E+03</rscale>
<asrwt>0</asrwt>
<pdfrwt beam="1">  1        2 0.30151083E+00 0.65570602E+03</pdfrwt>
<pdfrwt beam="2">  1       -2 0.84377899E-02 0.65570602E+03</pdfrwt>
<totfact> 0.65381784E+02</totfact>
</mgrwt>
</event>
<event>
 4    1  0.8877834E-005  0.6332391E+03  0.7818608E-02  0.9838748E-01
         -2   -1    0    0    0  501 -0.00000000000E+00  0.00000000000E+00  0.56086780766E+02  0.56086780824E+02  0.25500000000E-02 0. -1.
          2   -1    0    0  501    0  0.00000000000E+00 -0.00000000000E+00 -0.17873721850E+04  0.17873721850E+04  0.25500000000E-02 0.  1.
    5000001    1    1    2    0    0  0.15981740722E+03  0.21785533877E+03 -0.85249417252E+03  0.90938103480E+03  0.16500000000E+03 0.  0.
   -5000001    1    1    2    0    0 -0.15981740722E+03 -0.21785533877E+03 -0.87879123173E+03  0.93407793103E+03  0.16500000000E+03 0.  0.
<mgrwt>
<rscale>  0 0.63323914E+03</rscale>
<asrwt>0</asrwt>
<pdfrwt beam="1">  1        2 0.27498029E+00 0.63323914E+03</pdfrwt>
<pdfrwt beam="2">  1       -2 0.86287369E-02 0.63323914E+03</pdfrwt>
<totfact> 0.78345198E+02</totfact>
</mgrwt>
</event>
<event>
 4    1  0.8877834E-005  0.4527356E+03  0.7818608E-02  0.1026909E+00
         -2   -1    0    0    0  501 -0.00000000000E+00  0.00000000000E+00  0.17925625231E+02  0.17925625412E+02  0.25500000000E-02 0. -1.
          2   -1    0    0  501    0  0.00000000000E+00 -0.00000000000E+00 -0.28586109482E+04  0.28586109482E+04  0.25500000000E-02 0.  1.
    5000001    1    1    2    0    0 -0.39492105842E+02  0.14660988539E+03 -0.12231426769E+04  0.12435260725E+04  0.16500000000E+03 0.  0.
   -5000001    1    1    2    0    0  0.39492105842E+02 -0.14660988539E+03 -0.16175426460E+04  0.16330105010E+04  0.16500000000E+03 0.  0.
<mgrwt>
<rscale>  0 0.45273564E+03</rscale>
<asrwt>0</asrwt>
<pdfrwt beam="1">  1        2 0.43978594E+00 0.45273564E+03</pdfrwt>
<pdfrwt beam="2">  1       -2 0.27577908E-02 0.45273564E+03</pdfrwt>
<totfact> 0.11823235E+03</totfact>
</mgrwt>
</event>
<event>
 4    1  0.8877834E-005  0.5758799E+03  0.7818608E-02  0.9956751E-01
          2   -1    0    0  501    0  0.00000000000E+00  0.00000000000E+00  0.21442115055E+04  0.21442115055E+04  0.25500000000E-02 0.  1.
         -2   -1    0    0    0  501 -0.00000000000E+00 -0.00000000000E+00 -0.38666616974E+02  0.38666617058E+02  0.25500000000E-02 0. -1.
    5000001    1    1    2    0    0 -0.17410561344E+03 -0.87369086931E+02  0.54793287892E+03  0.60448454222E+03  0.16500000000E+03 0.  0.
   -5000001    1    1    2    0    0  0.17410561344E+03  0.87369086931E+02  0.15576120096E+04  0.15783935803E+04  0.16500000000E+03 0.  0.
<mgrwt>
<rscale>  0 0.57587987E+03</rscale>
<asrwt>0</asrwt>
<pdfrwt beam="1">  1        2 0.32987877E+00 0.57587987E+03</pdfrwt>
<pdfrwt beam="2">  1       -2 0.59487089E-02 0.57587987E+03</pdfrwt>
<totfact> 0.90782870E+02</totfact>
</mgrwt>
</event>
<event>
 4    1  0.8877834E-005  0.6564311E+03  0.7818608E-02  0.9794786E-01
         -2   -1    0    0    0  501 -0.00000000000E+00  0.00000000000E+00  0.57960876418E+02  0.57960876474E+02  0.25500000000E-02 0. -1.
          2   -1    0    0  501    0  0.00000000000E+00 -0.00000000000E+00 -0.18585892545E+04  0.18585892545E+04  0.25500000000E-02 0.  1.
    5000001    1    1    2    0    0 -0.26914267232E+03  0.89756177262E+02 -0.90776515269E+03  0.96527536064E+03  0.16500000000E+03 0.  0.
   -5000001    1    1    2    0    0  0.26914267232E+03 -0.89756177262E+02 -0.89286322536E+03  0.95127477031E+03  0.16500000000E+03 0.  0.
<mgrwt>
<rscale>  0 0.65643115E+03</rscale>
<asrwt>0</asrwt>
<pdfrwt beam="1">  1        2 0.28593676E+00 0.65643115E+03</pdfrwt>
<pdfrwt beam="2">  1       -2 0.89170593E-02 0.65643115E+03</pdfrwt>
<totfact> 0.67891970E+02</totfact>
</mgrwt>
</event>
<event>
 4    1  0.8877834E-005  0.6400823E+03  0.7818608E-02  0.9825569E-01
          2   -1    0    0  501    0  0.00000000000E+00  0.00000000000E+00  0.17283757949E+04  0.17283757949E+04  0.25500000000E-02 0.  1.
         -2   -1    0    0    0  501 -0.00000000000E+00 -0.00000000000E+00 -0.59261610833E+02  0.59261610888E+02  0.25500000000E-02 0. -1.
    5000001    1    1    2    0    0 -0.26772651750E+03  0.36230288861E+02  0.96588553444E+03  0.10164398593E+04  0.16500000000E+03 0.  0.
   -5000001    1    1    2    0    0  0.26772651750E+03 -0.36230288861E+02  0.70322864961E+03  0.77119754644E+03  0.16500000000E+03 0.  0.
<mgrwt>
<rscale>  0 0.64008229E+03</rscale>
<asrwt>0</asrwt>
<pdfrwt beam="1">  1        2 0.26590395E+00 0.64008229E+03</pdfrwt>
<pdfrwt beam="2">  1       -2 0.91171716E-02 0.64008229E+03</pdfrwt>
<totfact> 0.77163132E+02</totfact>
</mgrwt>
</event>
<event>
 4    1  0.8877834E-005  0.4006588E+03  0.7818608E-02  0.1043552E+00
         -2   -1    0    0    0  501 -0.00000000000E+00  0.00000000000E+00  0.38700768389E+02  0.38700768473E+02  0.25500000000E-02 0. -1.
          2   -1    0    0  501    0  0.00000000000E+00 -0.00000000000E+00 -0.10369783732E+04  0.10369783732E+04  0.25500000000E-02 0.  1.
    5000001    1    1    2    0    0  0.49818040793E+02 -0.98305575302E+02 -0.57320343459E+03  0.60657481052E+03  0.16500000000E+03 0.  0.
   -5000001    1    1    2    0    0 -0.49818040793E+02  0.98305575302E+02 -0.42507417020E+03  0.46910433114E+03  0.16500000000E+03 0.  0.
<mgrwt>
<rscale>  0 0.40065876E+03</rscale>
<asrwt>0</asrwt>
<pdfrwt beam="1">  1        2 0.15953511E+00 0.40065876E+03</pdfrwt>
<pdfrwt beam="2">  1       -2 0.59539652E-02 0.40065876E+03</pdfrwt>
<totfact> 0.37476233E+03</totfact>
</mgrwt>
</event>
<event>
 4    1  0.8877834E-005  0.4437054E+03  0.7818608E-02  0.1029616E+00
         -2   -1    0    0    0  501 -0.00000000000E+00  0.00000000000E+00  0.42016968582E+02  0.42016968659E+02  0.25500000000E-02 0. -1.
          2   -1    0    0  501    0  0.00000000000E+00 -0.00000000000E+00 -0.11713988383E+04  0.11713988383E+04  0.25500000000E-02 0.  1.
    5000001    1    1    2    0    0 -0.34053097949E+02 -0.13539432032E+03 -0.42788887431E+03  0.47937993722E+03  0.16500000000E+03 0.  0.
   -5000001    1    1    2    0    0  0.34053097949E+02  0.13539432032E+03 -0.70149299545E+03  0.73403586978E+03  0.16500000000E+03 0.  0.
<mgrwt>
<rscale>  0 0.44370543E+03</rscale>
<asrwt>0</asrwt>
<pdfrwt beam="1">  1        2 0.18021518E+00 0.44370543E+03</pdfrwt>
<pdfrwt beam="2">  1       -2 0.64641499E-02 0.44370543E+03</pdfrwt>
<totfact> 0.27409729E+03</totfact>
</mgrwt>
</event>
<event>
 4    1  0.8877834E-005  0.9289035E+03  0.7818608E-02  0.9390155E-01
         -2   -1    0    0    0  501 -0.00000000000E+00  0.00000000000E+00  0.61811179356E+02  0.61811179409E+02  0.25500000000E-02 0. -1.
          2   -1    0    0  501    0  0.00000000000E+00 -0.00000000000E+00 -0.34899093345E+04  0.34899093345E+04  0.25500000000E-02 0.  1.
    5000001    1    1    2    0    0 -0.33752446645E+03 -0.11651177352E+03 -0.76975565826E+03  0.86443422668E+03  0.16500000000E+03 0.  0.
   -5000001    1    1    2    0    0  0.33752446645E+03  0.11651177352E+03 -0.26583424968E+04  0.26872862872E+04  0.16500000000E+03 0.  0.
<mgrwt>
<rscale>  0 0.92890347E+03</rscale>
<asrwt>0</asrwt>
<pdfrwt beam="1">  1        2 0.53690897E+00 0.92890347E+03</pdfrwt>
<pdfrwt beam="2">  1       -2 0.95094149E-02 0.92890347E+03</pdfrwt>
<totfact> 0.64643673E+01</totfact>
</mgrwt>
</event>
<event>
 4    1  0.8877834E-005  0.3979250E+03  0.7818608E-02  0.1044501E+00
          2   -1    0    0  501    0  0.00000000000E+00  0.00000000000E+00  0.14269712321E+04  0.14269712321E+04  0.25500000000E-02 0.  1.
         -2   -1    0    0    0  501 -0.00000000000E+00 -0.00000000000E+00 -0.27741331916E+02  0.27741332033E+02  0.25500000000E-02 0. -1.
    5000001    1    1    2    0    0 -0.10709247203E+03 -0.28169023768E+02  0.66327912087E+03  0.69240629954E+03  0.16500000000E+03 0.  0.
   -5000001    1    1    2    0    0  0.10709247203E+03  0.28169023768E+02  0.73595077932E+03  0.76230626460E+03  0.16500000000E+03 0.  0.
<mgrwt>
<rscale>  0 0.39792503E+03</rscale>
<asrwt>0</asrwt>
<pdfrwt beam="1">  1        2 0.21953406E+00 0.39792503E+03</pdfrwt>
<pdfrwt beam="2">  1       -2 0.42678968E-02 0.39792503E+03</pdfrwt>
<totfact> 0.37293442E+03</totfact>
</mgrwt>
</event>
<event>
 4    1  0.8877834E-005  0.4407028E+03  0.7818608E-02  0.1030531E+00
         -2   -1    0    0    0  501 -0.00000000000E+00  0.00000000000E+00  0.50809548416E+02  0.50809548480E+02  0.25500000000E-02 0.  1.
          2   -1    0    0  501    0  0.00000000000E+00 -0.00000000000E+00 -0.95562232571E+03  0.95562232571E+03  0.25500000000E-02 0. -1.
    5000001    1    1    2    0    0 -0.74521740891E+02 -0.70791396756E+02 -0.68934841911E+03  0.71623400830E+03  0.16500000000E+03 0.  0.
   -5000001    1    1    2    0    0  0.74521740891E+02  0.70791396756E+02 -0.21546435819E+03  0.29019786589E+03  0.16500000000E+03 0.  0.
<mgrwt>
<rscale>  0 0.44070280E+03</rscale>
<asrwt>0</asrwt>
<pdfrwt beam="1">  1        2 0.14701881E+00 0.44070280E+03</pdfrwt>
<pdfrwt beam="2">  1       -2 0.78168543E-02 0.44070280E+03</pdfrwt>
<totfact> 0.27530315E+03</totfact>
</mgrwt>
</event>
<event>
 4    1  0.8877834E-005  0.5527424E+03  0.7818608E-02  0.1000861E+00
         -2   -1    0    0    0  501 -0.00000000000E+00  0.00000000000E+00  0.26704631415E+02  0.26704631537E+02  0.25500000000E-02 0. -1.
          2   -1    0    0  501    0  0.00000000000E+00 -0.00000000000E+00 -0.28602168909E+04  0.28602168909E+04  0.25500000000E-02 0.  1.
    5000001    1    1    2    0    0 -0.57653902073E+02 -0.14532443697E+03 -0.59569814570E+03  0.63759269538E+03  0.16500000000E+03 0.  0.
   -5000001    1    1    2    0    0  0.57653902073E+02  0.14532443697E+03 -0.22378141138E+04  0.22493288271E+04  0.16500000000E+03 0.  0.
<mgrwt>
<rscale>  0 0.55274239E+03</rscale>
<asrwt>0</asrwt>
<pdfrwt beam="1">  1        2 0.44003313E+00 0.55274239E+03</pdfrwt>
<pdfrwt beam="2">  1       -2 0.41084071E-02 0.55274239E+03</pdfrwt>
<totfact> 0.63685149E+02</totfact>
</mgrwt>
</event>
<event>
 4    1  0.8877834E-005  0.4063331E+03  0.7818608E-02  0.1041609E+00
          2   -1    0    0  501    0  0.00000000000E+00  0.00000000000E+00  0.10069762647E+03  0.10069762650E+03  0.25500000000E-02 0.  1.
         -2   -1    0    0    0  501 -0.00000000000E+00 -0.00000000000E+00 -0.40990688172E+03  0.40990688173E+03  0.25500000000E-02 0. -1.
    5000001    1    1    2    0    0 -0.72755370178E+02  0.59854173450E+02 -0.24500922237E+03  0.31004900422E+03  0.16500000000E+03 0.  0.
   -5000001    1    1    2    0    0  0.72755370178E+02 -0.59854173450E+02 -0.64200032880E+02  0.20055550402E+03  0.16500000000E+03 0.  0.
<mgrwt>
<rscale>  0 0.40633311E+03</rscale>
<asrwt>0</asrwt>
<pdfrwt beam="1">  1        2 0.15491943E-01 0.40633311E+03</pdfrwt>
<pdfrwt beam="2">  1       -2 0.63062597E-01 0.40633311E+03</pdfrwt>
<totfact> 0.89956999E+02</totfact>
</mgrwt>
</event>
<event>
 4    1  0.8877834E-005  0.9182760E+03  0.7818608E-02  0.9403020E-01
          2   -1    0    0  501    0  0.00000000000E+00  0.00000000000E+00  0.84831259422E+03  0.84831259422E+03  0.25500000000E-02 0. -1.
         -2   -1    0    0    0  501 -0.00000000000E+00 -0.00000000000E+00 -0.24850237810E+03  0.24850237811E+03  0.25500000000E-02 0.  1.
    5000001    1    1    2    0    0 -0.75253417960E+02 -0.57813480574E+02 -0.19915623539E+03  0.27548807877E+03  0.16500000000E+03 0.  0.
   -5000001    1    1    2    0    0  0.75253417960E+02  0.57813480574E+02  0.79896645151E+03  0.82132689356E+03  0.16500000000E+03 0.  0.
<mgrwt>
<rscale>  0 0.91827599E+03</rscale>
<asrwt>0</asrwt>
<pdfrwt beam="1">  1        2 0.13050963E+00 0.91827599E+03</pdfrwt>
<pdfrwt beam="2">  1       -2 0.38231135E-01 0.91827599E+03</pdfrwt>
<totfact> 0.20585900E+02</totfact>
</mgrwt>
</event>
<event>
 4    1  0.8877834E-005  0.4382815E+03  0.7818608E-02  0.1031275E+00
          2   -1    0    0  501    0  0.00000000000E+00  0.00000000000E+00  0.49965327284E+03  0.49965327284E+03  0.25500000000E-02 0.  1.
         -2   -1    0    0    0  501 -0.00000000000E+00 -0.00000000000E+00 -0.96111995095E+02  0.96111995129E+02  0.25500000000E-02 0. -1.
    5000001    1    1    2    0    0 -0.58257731142E+02 -0.24402576653E+02  0.37800189372E+03  0.41725277787E+03  0.16500000000E+03 0.  0.
   -5000001    1    1    2    0    0  0.58257731142E+02  0.24402576653E+02  0.25539384019E+02  0.17851249010E+03  0.16500000000E+03 0.  0.
<mgrwt>
<rscale>  0 0.43828152E+03</rscale>
<asrwt>0</asrwt>
<pdfrwt beam="1">  1        2 0.76869735E-01 0.43828152E+03</pdfrwt>
<pdfrwt beam="2">  1       -2 0.14786461E-01 0.43828152E+03</pdfrwt>
<totfact> 0.21977251E+03</totfact>
</mgrwt>
</event>
<event>
 4    1  0.8877834E-005  0.4473994E+03  0.7818608E-02  0.1028500E+00
         -2   -1    0    0    0  501 -0.00000000000E+00  0.00000000000E+00  0.19037801397E+03  0.19037801398E+03  0.25500000000E-02 0.  1.
          2   -1    0    0  501    0  0.00000000000E+00 -0.00000000000E+00 -0.26285367266E+03  0.26285367267E+03  0.25500000000E-02 0. -1.
    5000001    1    1    2    0    0  0.10988784632E+03  0.64757773285E+02 -0.11821022919E+03  0.23972393759E+03  0.16500000000E+03 0.  0.
   -5000001    1    1    2    0    0 -0.10988784632E+03 -0.64757773285E+02  0.45734570494E+02  0.21350774906E+03  0.16500000000E+03 0.  0.
<mgrwt>
<rscale>  0 0.44739942E+03</rscale>
<asrwt>0</asrwt>
<pdfrwt beam="1">  1        2 0.40439026E-01 0.44739942E+03</pdfrwt>
<pdfrwt beam="2">  1       -2 0.29288925E-01 0.44739942E+03</pdfrwt>
<totfact> 0.13589067E+03</totfact>
</mgrwt>
</event>
<event>
 4    1  0.8877834E-005  0.6242042E+03  0.7818608E-02  0.9856424E-01
         -2   -1    0    0    0  501 -0.00000000000E+00  0.00000000000E+00  0.84169709779E+02  0.84169709818E+02  0.25500000000E-02 0. -1.
          2   -1    0    0  501    0  0.00000000000E+00 -0.00000000000E+00 -0.11572777876E+04  0.11572777876E+04  0.25500000000E-02 0.  1.
    5000001    1    1    2    0    0  0.22771279525E+03  0.81929088973E+02 -0.32218938793E+03  0.43542679572E+03  0.16500000000E+03 0.  0.
   -5000001    1    1    2    0    0 -0.22771279525E+03 -0.81929088973E+02 -0.75091868988E+03  0.80602070169E+03  0.16500000000E+03 0.  0.
<mgrwt>
<rscale>  0 0.62420425E+03</rscale>
<asrwt>0</asrwt>
<pdfrwt beam="1">  1        2 0.17804273E+00 0.62420425E+03</pdfrwt>
<pdfrwt beam="2">  1       -2 0.12949187E-01 0.62420425E+03</pdfrwt>
<totfact> 0.91088897E+02</totfact>
</mgrwt>
</event>
<event>
 4    1  0.8877834E-005  0.6045053E+03  0.7818608E-02  0.9896103E-01
          2   -1    0    0  501    0  0.00000000000E+00  0.00000000000E+00  0.68041220585E+03  0.68041220586E+03  0.25500000000E-02 0.  1.
         -2   -1    0    0    0  501 -0.00000000000E+00 -0.00000000000E+00 -0.13426666656E+03  0.13426666658E+03  0.25500000000E-02 0. -1.
    5000001    1    1    2    0    0 -0.21085666277E+03 -0.94923461617E+02  0.41222136320E+03  0.50062206111E+03  0.16500000000E+03 0.  0.
   -5000001    1    1    2    0    0  0.21085666277E+03  0.94923461617E+02  0.13392417610E+03  0.31405681133E+03  0.16500000000E+03 0.  0.
<mgrwt>
<rscale>  0 0.60450535E+03</rscale>
<asrwt>0</asrwt>
<pdfrwt beam="1">  1        2 0.10467880E+00 0.60450535E+03</pdfrwt>
<pdfrwt beam="2">  1       -2 0.20656410E-01 0.60450535E+03</pdfrwt>
<totfact> 0.86033684E+02</totfact>
</mgrwt>
</event>
<event>
 4    1  0.8877834E-005  0.4590782E+03  0.7818608E-02  0.1025049E+00
         -2   -1    0    0    0  501 -0.00000000000E+00  0.00000000000E+00  0.14536685390E+02  0.14536685614E+02  0.25500000000E-02 0. -1.
          2   -1    0    0  501    0  0.00000000000E+00 -0.00000000000E+00 -0.36244979995E+04  0.36244979995E+04  0.25500000000E-02 0.  1.
    5000001    1    1    2    0    0 -0.15727039577E+03 -0.14951951099E+02 -0.19832284960E+04  0.19963411045E+04  0.16500000000E+03 0.  0.
   -5000001    1    1    2    0    0  0.15727039577E+03  0.14951951099E+02 -0.16267328181E+04  0.16426935806E+04  0.16500000000E+03 0.  0.
<mgrwt>
<rscale>  0 0.45907815E+03</rscale>
<asrwt>0</asrwt>
<pdfrwt beam="1">  1        2 0.55761436E+00 0.45907815E+03</pdfrwt>
<pdfrwt beam="2">  1       -2 0.22364160E-02 0.45907815E+03</pdfrwt>
<totfact> 0.52727179E+02</totfact>
</mgrwt>
</event>
<event>
 4    1  0.8877834E-005  0.3710373E+03  0.7818608E-02  0.1054297E+00
          2   -1    0    0  501    0  0.00000000000E+00  0.00000000000E+00  0.12881302077E+03  0.12881302080E+03  0.25500000000E-02 0.  1.
         -2   -1    0    0    0  501 -0.00000000000E+00 -0.00000000000E+00 -0.26718708650E+03  0.26718708651E+03  0.25500000000E-02 0. -1.
    5000001    1    1    2    0    0  0.27830679175E+02 -0.80058088284E+02 -0.72267666185E+02  0.19907651740E+03  0.16500000000E+03 0.  0.
   -5000001    1    1    2    0    0 -0.27830679175E+02  0.80058088284E+02 -0.66106399546E+02  0.19692358991E+03  0.16500000000E+03 0.  0.
<mgrwt>
<rscale>  0 0.37103733E+03</rscale>
<asrwt>0</asrwt>
<pdfrwt beam="1">  1        2 0.19817388E-01 0.37103733E+03</pdfrwt>
<pdfrwt beam="2">  1       -2 0.41105706E-01 0.37103733E+03</pdfrwt>
<totfact> 0.15960723E+03</totfact>
</mgrwt>
</event>
<event>
 4    1  0.8877834E-005  0.8138287E+03  0.7818608E-02  0.9540213E-01
         -2   -1    0    0    0  501 -0.00000000000E+00  0.00000000000E+00  0.37193684635E+03  0.37193684636E+03  0.25500000000E-02 0. -1.
          2   -1    0    0  501    0  0.00000000000E+00 -0.00000000000E+00 -0.44518124301E+03  0.44518124302E+03  0.25500000000E-02 0.  1.
    5000001    1    1    2    0    0  0.30140533049E+03 -0.24822061326E+02  0.18080096265E+03  0.38906978303E+03  0.16500000000E+03 0.  0.
   -5000001    1    1    2    0    0 -0.30140533049E+03  0.24822061326E+02 -0.25404535931E+03  0.42804830634E+03  0.16500000000E+03 0.  0.
<mgrwt>
<rscale>  0 0.81382875E+03</rscale>
<asrwt>0</asrwt>
<pdfrwt beam="1">  1        2 0.68489422E-01 0.81382875E+03</pdfrwt>
<pdfrwt beam="2">  1       -2 0.57221054E-01 0.81382875E+03</pdfrwt>
<totfact> 0.20295311E+02</totfact>
</mgrwt>
</event>
<event>
 4    1  0.8877834E-005  0.7046827E+03  0.7818608E-02  0.9709258E-01
          2   -1    0    0  501    0  0.00000000000E+00  0.00000000000E+00  0.30251774168E+03  0.30251774169E+03  0.25500000000E-02 0.  1.
         -2   -1    0    0    0  501 -0.00000000000E+00 -0.00000000000E+00 -0.41037069529E+03  0.41037069530E+03  0.25500000000E-02 0. -1.
    5000001    1    1    2    0    0 -0.21037305742E+03  0.13269424050E+03 -0.24333604779E+03  0.38510000896E+03  0.16500000000E+03 0.  0.
   -5000001    1    1    2    0    0  0.21037305742E+03 -0.13269424050E+03  0.13548309417E+03  0.32778842803E+03  0.16500000000E+03 0.  0.
<mgrwt>
<rscale>  0 0.70468267E+03</rscale>
<asrwt>0</asrwt>
<pdfrwt beam="1">  1        2 0.46541191E-01 0.70468267E+03</pdfrwt>
<pdfrwt beam="2">  1       -2 0.63133953E-01 0.70468267E+03</pdfrwt>
<totfact> 0.25524448E+02</totfact>
</mgrwt>
</event>
<event>
 4    1  0.8877834E-005  0.4812868E+03  0.7818608E-02  0.1018782E+00
          2   -1    0    0  501    0  0.00000000000E+00  0.00000000000E+00  0.11754638231E+04  0.11754638231E+04  0.25500000000E-02 0.  1.
         -2   -1    0    0    0  501 -0.00000000000E+00 -0.00000000000E+00 -0.49265016832E+02  0.49265016898E+02  0.25500000000E-02 0. -1.
    5000001    1    1    2    0    0  0.16166087681E+03 -0.95854153471E+01  0.39319205685E+03  0.45612620277E+03  0.16500000000E+03 0.  0.
   -5000001    1    1    2    0    0 -0.16166087681E+03  0.95854153471E+01  0.73300674942E+03  0.76860263724E+03  0.16500000000E+03 0.  0.
<mgrwt>
<rscale>  0 0.48128680E+03</rscale>
<asrwt>0</asrwt>
<pdfrwt beam="1">  1        2 0.18084060E+00 0.48128680E+03</pdfrwt>
<pdfrwt beam="2">  1       -2 0.75792328E-02 0.48128680E+03</pdfrwt>
<totfact> 0.21221470E+03</totfact>
</mgrwt>
</event>
<event>
 4    1  0.8877834E-005  0.6829261E+03  0.7818608E-02  0.9746885E-01
         -2   -1    0    0    0  501 -0.00000000000E+00  0.00000000000E+00  0.12146226937E+03  0.12146226940E+03  0.25500000000E-02 0. -1.
          2   -1    0    0  501    0  0.00000000000E+00 -0.00000000000E+00 -0.95994422281E+03  0.95994422282E+03  0.25500000000E-02 0.  1.
    5000001    1    1    2    0    0 -0.28099563758E+03 -0.42612326274E+02 -0.56606767696E+03  0.65454715154E+03  0.16500000000E+03 0.  0.
   -5000001    1    1    2    0    0  0.28099563758E+03  0.42612326274E+02 -0.27241427649E+03  0.42685934068E+03  0.16500000000E+03 0.  0.
<mgrwt>
<rscale>  0 0.68292607E+03</rscale>
<asrwt>0</asrwt>
<pdfrwt beam="1">  1        2 0.14768372E+00 0.68292607E+03</pdfrwt>
<pdfrwt beam="2">  1       -2 0.18686504E-01 0.68292607E+03</pdfrwt>
<totfact> 0.64709943E+02</totfact>
</mgrwt>
</event>
<event>
 4    1  0.8877834E-005  0.4042024E+03  0.7818608E-02  0.1042334E+00
         -2   -1    0    0    0  501 -0.00000000000E+00  0.00000000000E+00  0.51670501422E+02  0.51670501484E+02  0.25500000000E-02 0. -1.
          2   -1    0    0  501    0  0.00000000000E+00 -0.00000000000E+00 -0.79048776589E+03  0.79048776589E+03  0.25500000000E-02 0.  1.
    5000001    1    1    2    0    0  0.11521951861E+03  0.13212930328E+02 -0.34226059692E+03  0.39726242611E+03  0.16500000000E+03 0.  0.
   -5000001    1    1    2    0    0 -0.11521951861E+03 -0.13212930328E+02 -0.39655666755E+03  0.44489584127E+03  0.16500000000E+03 0.  0.
<mgrwt>
<rscale>  0 0.40420242E+03</rscale>
<asrwt>0</asrwt>
<pdfrwt beam="1">  1        2 0.12161349E+00 0.40420242E+03</pdfrwt>
<pdfrwt beam="2">  1       -2 0.79493085E-02 0.40420242E+03</pdfrwt>
<totfact> 0.34579528E+03</totfact>
</mgrwt>
</event>
<event>
 4    1  0.8877834E-005  0.6200982E+03  0.7818608E-02  0.9864564E-01
          2   -1    0    0  501    0  0.00000000000E+00  0.00000000000E+00  0.11314541134E+04  0.11314541134E+04  0.25500000000E-02 0.  1.
         -2   -1    0    0    0  501 -0.00000000000E+00 -0.00000000000E+00 -0.84961845912E+02  0.84961845951E+02  0.25500000000E-02 0. -1.
    5000001    1    1    2    0    0  0.21916497988E+03 -0.20421039453E+02  0.24268809510E+03  0.36684168078E+03  0.16500000000E+03 0.  0.
   -5000001    1    1    2    0    0 -0.21916497988E+03  0.20421039453E+02  0.80380417236E+03  0.84957427854E+03  0.16500000000E+03 0.  0.
<mgrwt>
<rscale>  0 0.62009815E+03</rscale>
<asrwt>0</asrwt>
<pdfrwt beam="1">  1        2 0.17406986E+00 0.62009815E+03</pdfrwt>
<pdfrwt beam="2">  1       -2 0.13071053E-01 0.62009815E+03</pdfrwt>
<totfact> 0.92943646E+02</totfact>
</mgrwt>
</event>
<event>
 4    1  0.8877834E-005  0.9023806E+03  0.7818608E-02  0.9422610E-01
          2   -1    0    0  501    0  0.00000000000E+00  0.00000000000E+00  0.59647218455E+03  0.59647218455E+03  0.25500000000E-02 0.  1.
         -2   -1    0    0    0  501 -0.00000000000E+00 -0.00000000000E+00 -0.34129450035E+03  0.34129450036E+03  0.25500000000E-02 0. -1.
    5000001    1    1    2    0    0 -0.21606772382E+02 -0.30659766601E+03 -0.16977661409E+03  0.38796659664E+03  0.16500000000E+03 0.  0.
   -5000001    1    1    2    0    0  0.21606772382E+02  0.30659766601E+03  0.42495429829E+03  0.54980008826E+03  0.16500000000E+03 0.  0.
<mgrwt>
<rscale>  0 0.90238058E+03</rscale>
<asrwt>0</asrwt>
<pdfrwt beam="1">  1        2 0.91764950E-01 0.90238058E+03</pdfrwt>
<pdfrwt beam="2">  1       -2 0.52506847E-01 0.90238058E+03</pdfrwt>
<totfact> 0.17154937E+02</totfact>
</mgrwt>
</event>
<event>
 4    1  0.8877834E-005  0.4237459E+03  0.7818608E-02  0.1035854E+00
          2   -1    0    0  501    0  0.00000000000E+00  0.00000000000E+00  0.14661780842E+04  0.14661780842E+04  0.25500000000E-02 0.  1.
         -2   -1    0    0    0  501 -0.00000000000E+00 -0.00000000000E+00 -0.30617118962E+02  0.30617119069E+02  0.25500000000E-02 0. -1.
    5000001    1    1    2    0    0  0.18743948176E+02  0.13067880724E+03  0.66341726486E+03  0.69625839569E+03  0.16500000000E+03 0.  0.
   -5000001    1    1    2    0    0 -0.18743948176E+02 -0.13067880724E+03  0.77214370036E+03  0.80053680756E+03  0.16500000000E+03 0.  0.
<mgrwt>
<rscale>  0 0.42374591E+03</rscale>
<asrwt>0</asrwt>
<pdfrwt beam="1">  1        2 0.22556591E+00 0.42374591E+03</pdfrwt>
<pdfrwt beam="2">  1       -2 0.47103250E-02 0.42374591E+03</pdfrwt>
<totfact> 0.30514420E+03</totfact>
</mgrwt>
</event>
<event>
 4    1  0.8877834E-005  0.5088867E+03  0.7818608E-02  0.1011485E+00
          2   -1    0    0  501    0  0.00000000000E+00  0.00000000000E+00  0.33286128224E+04  0.33286128224E+04  0.25500000000E-02 0.  1.
         -2   -1    0    0    0  501 -0.00000000000E+00 -0.00000000000E+00 -0.19449966599E+02  0.19449966766E+02  0.25500000000E-02 0. -1.
    5000001    1    1    2    0    0  0.10170036287E+03  0.13149088605E+03  0.10005028554E+04  0.10275523250E+04  0.16500000000E+03 0.  0.
   -5000001    1    1    2    0    0 -0.10170036287E+03 -0.13149088605E+03  0.23086600003E+04  0.23205104641E+04  0.16500000000E+03 0.  0.
<mgrwt>
<rscale>  0 0.50888666E+03</rscale>
<asrwt>0</asrwt>
<pdfrwt beam="1">  1        2 0.51209393E+00 0.50888666E+03</pdfrwt>
<pdfrwt beam="2">  1       -2 0.29923046E-02 0.50888666E+03</pdfrwt>
<totfact> 0.53314178E+02</totfact>
</mgrwt>
</event>
<event>
 4    1  0.8877834E-005  0.4724776E+03  0.7818608E-02  0.1021223E+00
         -2   -1    0    0    0  501 -0.00000000000E+00  0.00000000000E+00  0.64344759511E+02  0.64344759561E+02  0.25500000000E-02 0. -1.
          2   -1    0    0  501    0  0.00000000000E+00 -0.00000000000E+00 -0.86733983193E+03  0.86733983193E+03  0.25500000000E-02 0.  1.
    5000001    1    1    2    0    0 -0.15785453923E+03 -0.46884813332E+00 -0.28211133118E+03  0.36294638523E+03  0.16500000000E+03 0.  0.
   -5000001    1    1    2    0    0  0.15785453923E+03  0.46884813332E+00 -0.52088374124E+03  0.56873820626E+03  0.16500000000E+03 0.  0.
<mgrwt>
<rscale>  0 0.47247761E+03</rscale>
<asrwt>0</asrwt>
<pdfrwt beam="1">  1        2 0.13343689E+00 0.47247761E+03</pdfrwt>
<pdfrwt beam="2">  1       -2 0.98991944E-02 0.47247761E+03</pdfrwt>
<totfact> 0.21585560E+03</totfact>
</mgrwt>
</event>
<event>
 4    1  0.8877834E-005  0.4203206E+03  0.7818608E-02  0.1036962E+00
         -2   -1    0    0    0  501 -0.00000000000E+00  0.00000000000E+00  0.10274164835E+03  0.10274164838E+03  0.25500000000E-02 0. -1.
          2   -1    0    0  501    0  0.00000000000E+00 -0.00000000000E+00 -0.42988741400E+03  0.42988741401E+03  0.25500000000E-02 0.  1.
    5000001    1    1    2    0    0 -0.12969658552E+03  0.88975646795E+01 -0.15536338306E+03  0.26127217944E+03  0.16500000000E+03 0.  0.
   -5000001    1    1    2    0    0  0.12969658552E+03 -0.88975646795E+01 -0.17178238260E+03  0.27135688295E+03  0.16500000000E+03 0.  0.
<mgrwt>
<rscale>  0 0.42032055E+03</rscale>
<asrwt>0</asrwt>
<pdfrwt beam="1">  1        2 0.66136524E-01 0.42032055E+03</pdfrwt>
<pdfrwt beam="2">  1       -2 0.15806408E-01 0.42032055E+03</pdfrwt>
<totfact> 0.23271310E+03</totfact>
</mgrwt>
</event>
<event>
 4    1  0.8877834E-005  0.4314681E+03  0.7818608E-02  0.1033397E+00
          2   -1    0    0  501    0  0.00000000000E+00  0.00000000000E+00  0.10595598982E+04  0.10595598982E+04  0.25500000000E-02 0.  1.
         -2   -1    0    0    0  501 -0.00000000000E+00 -0.00000000000E+00 -0.43925002306E+02  0.43925002380E+02  0.25500000000E-02 0. -1.
    5000001    1    1    2    0    0  0.11823424454E+03 -0.14816687487E+01  0.69461460728E+03  0.72366842170E+03  0.16500000000E+03 0.  0.
   -5000001    1    1    2    0    0 -0.11823424454E+03  0.14816687487E+01  0.32102028859E+03  0.37981647885E+03  0.16500000000E+03 0.  0.
<mgrwt>
<rscale>  0 0.43146806E+03</rscale>
<asrwt>0</asrwt>
<pdfrwt beam="1">  1        2 0.16300920E+00 0.43146806E+03</pdfrwt>
<pdfrwt beam="2">  1       -2 0.67576932E-02 0.43146806E+03</pdfrwt>
<totfact> 0.29815974E+03</totfact>
</mgrwt>
</event>
<event>
 4    1  0.8877834E-005  0.5603779E+03  0.7818608E-02  0.9991200E-01
         -2   -1    0    0    0  501 -0.00000000000E+00  0.00000000000E+00  0.51921055049E+02  0.51921055112E+02  0.25500000000E-02 0. -1.
          2   -1    0    0  501    0  0.00000000000E+00 -0.00000000000E+00 -0.15120231290E+04  0.15120231290E+04  0.25500000000E-02 0.  1.
    5000001    1    1    2    0    0  0.20872864351E+03 -0.33910297104E+01 -0.97497614710E+03  0.10106347674E+04  0.16500000000E+03 0.  0.
   -5000001    1    1    2    0    0 -0.20872864351E+03  0.33910297104E+01 -0.48512592688E+03  0.55330941672E+03  0.16500000000E+03 0.  0.
<mgrwt>
<rscale>  0 0.56037786E+03</rscale>
<asrwt>0</asrwt>
<pdfrwt beam="1">  1        2 0.23261891E+00 0.56037786E+03</pdfrwt>
<pdfrwt beam="2">  1       -2 0.79878558E-02 0.56037786E+03</pdfrwt>
<totfact> 0.12570207E+03</totfact>
</mgrwt>
</event>
<event>
 4    1  0.8877834E-005  0.4968264E+03  0.7818608E-02  0.1014611E+00
         -2   -1    0    0    0  501 -0.00000000000E+00  0.00000000000E+00  0.56773202975E+02  0.56773203033E+02  0.25500000000E-02 0. -1.
          2   -1    0    0  501    0  0.00000000000E+00 -0.00000000000E+00 -0.10869409078E+04  0.10869409078E+04  0.25500000000E-02 0.  1.
    5000001    1    1    2    0    0 -0.13382014421E+03  0.46908303771E+02 -0.23907037266E+03  0.32324582447E+03  0.16500000000E+03 0.  0.
   -5000001    1    1    2    0    0  0.13382014421E+03 -0.46908303771E+02 -0.79109733216E+03  0.82046828635E+03  0.16500000000E+03 0.  0.
<mgrwt>
<rscale>  0 0.49682640E+03</rscale>
<asrwt>0</asrwt>
<pdfrwt beam="1">  1        2 0.16722166E+00 0.49682640E+03</pdfrwt>
<pdfrwt beam="2">  1       -2 0.87343397E-02 0.49682640E+03</pdfrwt>
<totfact> 0.19121684E+03</totfact>
</mgrwt>
</event>
<event>
 4    1  0.8877834E-005  0.5399000E+03  0.7818608E-02  0.1003859E+00
          2   -1    0    0  501    0  0.00000000000E+00  0.00000000000E+00  0.19059666486E+04  0.19059666486E+04  0.25500000000E-02 0.  1.
         -2   -1    0    0    0  501 -0.00000000000E+00 -0.00000000000E+00 -0.38234138725E+02  0.38234138810E+02  0.25500000000E-02 0. -1.
    5000001    1    1    2    0    0  0.11450736533E+03 -0.17970815965E+03  0.98977335183E+03  0.10258085822E+04  0.16500000000E+03 0.  0.
   -5000001    1    1    2    0    0 -0.11450736533E+03  0.17970815965E+03  0.87795915799E+03  0.91839220514E+03  0.16500000000E+03 0.  0.
<mgrwt>
<rscale>  0 0.53989997E+03</rscale>
<asrwt>0</asrwt>
<pdfrwt beam="1">  1        2 0.29322564E+00 0.53989997E+03</pdfrwt>
<pdfrwt beam="2">  1       -2 0.58821751E-02 0.53989997E+03</pdfrwt>
<totfact> 0.12461800E+03</totfact>
</mgrwt>
</event>
<event>
 4    1  0.8877834E-005  0.5394355E+03  0.7818608E-02  0.1003969E+00
          2   -1    0    0  501    0  0.00000000000E+00  0.00000000000E+00  0.83660005347E+03  0.83660005347E+03  0.25500000000E-02 0. -1.
         -2   -1    0    0    0  501 -0.00000000000E+00 -0.00000000000E+00 -0.86956319022E+02  0.86956319060E+02  0.25500000000E-02 0.  1.
    5000001    1    1    2    0    0 -0.70555591069E+02 -0.19458410441E+03  0.46348040699E+03  0.53374165360E+03  0.16500000000E+03 0.  0.
   -5000001    1    1    2    0    0  0.70555591069E+02  0.19458410441E+03  0.28616332745E+03  0.38981471893E+03  0.16500000000E+03 0.  0.
<mgrwt>
<rscale>  0 0.53943549E+03</rscale>
<asrwt>0</asrwt>
<pdfrwt beam="1">  1        2 0.12870770E+00 0.53943549E+03</pdfrwt>
<pdfrwt beam="2">  1       -2 0.13377895E-01 0.53943549E+03</pdfrwt>
<totfact> 0.13839576E+03</totfact>
</mgrwt>
</event>
<event>
 4    1  0.8877834E-005  0.4957842E+03  0.7818608E-02  0.1014885E+00
          2   -1    0    0  501    0  0.00000000000E+00  0.00000000000E+00  0.36373655722E+03  0.36373655723E+03  0.25500000000E-02 0.  1.
         -2   -1    0    0    0  501 -0.00000000000E+00 -0.00000000000E+00 -0.16894232770E+03  0.16894232772E+03  0.25500000000E-02 0. -1.
    5000001    1    1    2    0    0 -0.15226746430E+03  0.10315091403E+03  0.11888568907E+03  0.27419755436E+03  0.16500000000E+03 0.  0.
   -5000001    1    1    2    0    0  0.15226746430E+03 -0.10315091403E+03  0.75908540449E+02  0.25848133059E+03  0.16500000000E+03 0.  0.
<mgrwt>
<rscale>  0 0.49578423E+03</rscale>
<asrwt>0</asrwt>
<pdfrwt beam="1">  1        2 0.55959470E-01 0.49578423E+03</pdfrwt>
<pdfrwt beam="2">  1       -2 0.25991127E-01 0.49578423E+03</pdfrwt>
<totfact> 0.11819576E+03</totfact>
</mgrwt>
</event>
<event>
 4    1  0.8877834E-005  0.5019170E+03  0.7818608E-02  0.1013280E+00
         -2   -1    0    0    0  501 -0.00000000000E+00  0.00000000000E+00  0.56271659965E+03  0.56271659965E+03  0.25500000000E-02 0. -1.
          2   -1    0    0  501    0  0.00000000000E+00 -0.00000000000E+00 -0.11192166545E+03  0.11192166548E+03  0.25500000000E-02 0.  1.
    5000001    1    1    2    0    0  0.17696079731E+03 -0.64761396225E+02  0.24647993301E+03  0.35140648770E+03  0.16500000000E+03 0.  0.
   -5000001    1    1    2    0    0 -0.17696079731E+03  0.64761396225E+02  0.20431500119E+03  0.32323177742E+03  0.16500000000E+03 0.  0.
<mgrwt>
<rscale>  0 0.50191704E+03</rscale>
<asrwt>0</asrwt>
<pdfrwt beam="1">  1        2 0.17218717E-01 0.50191704E+03</pdfrwt>
<pdfrwt beam="2">  1       -2 0.86571787E-01 0.50191704E+03</pdfrwt>
<totfact> 0.39629558E+02</totfact>
</mgrwt>
</event>
<event>
 4    1  0.8877834E-005  0.8253472E+03  0.7818608E-02  0.9524036E-01
          2   -1    0    0  501    0  0.00000000000E+00  0.00000000000E+00  0.33385283075E+04  0.33385283075E+04  0.25500000000E-02 0.  1.
         -2   -1    0    0    0  501 -0.00000000000E+00 -0.00000000000E+00 -0.51010352186E+02  0.51010352250E+02  0.25500000000E-02 0. -1.
    5000001    1    1    2    0    0 -0.37034105009E+03 -0.46169106497E+02  0.18966001887E+04  0.19400003494E+04  0.16500000000E+03 0.  0.
   -5000001    1    1    2    0    0  0.37034105009E+03  0.46169106497E+02  0.13909177666E+04  0.14495383104E+04  0.16500000000E+03 0.  0.
<mgrwt>
<rscale>  0 0.82534721E+03</rscale>
<asrwt>0</asrwt>
<pdfrwt beam="1">  1        2 0.51361972E+00 0.82534721E+03</pdfrwt>
<pdfrwt beam="2">  1       -2 0.78477467E-02 0.82534721E+03</pdfrwt>
<totfact> 0.11275360E+02</totfact>
</mgrwt>
</event>
<event>
 4    1  0.8877834E-005  0.1114778E+04  0.7818608E-02  0.9190907E-01
         -2   -1    0    0    0  501 -0.00000000000E+00  0.00000000000E+00  0.15432599897E+03  0.15432599899E+03  0.25500000000E-02 0. -1.
          2   -1    0    0  501    0  0.00000000000E+00 -0.00000000000E+00 -0.20131568373E+04  0.20131568373E+04  0.25500000000E-02 0.  1.
    5000001    1    1    2    0    0 -0.26451855938E+03  0.28926250506E+02 -0.32811426059E+02  0.31481484384E+03  0.16500000000E+03 0.  0.
   -5000001    1    1    2    0    0  0.26451855938E+03 -0.28926250506E+02 -0.18260194123E+04  0.18526679924E+04  0.16500000000E+03 0.  0.
<mgrwt>
<rscale>  0 0.11147779E+04</rscale>
<asrwt>0</asrwt>
<pdfrwt beam="1">  1        2 0.30971642E+00 0.11147779E+04</pdfrwt>
<pdfrwt beam="2">  1       -2 0.23742463E-01 0.11147779E+04</pdfrwt>
<totfact> 0.10286181E+02</totfact>
</mgrwt>
</event>
<event>
 4    1  0.8877834E-005  0.5376450E+03  0.7818608E-02  0.1004395E+00
         -2   -1    0    0    0  501 -0.00000000000E+00  0.00000000000E+00  0.56668712855E+02  0.56668712912E+02  0.25500000000E-02 0. -1.
          2   -1    0    0  501    0  0.00000000000E+00 -0.00000000000E+00 -0.12752283269E+04  0.12752283269E+04  0.25500000000E-02 0.  1.
    5000001    1    1    2    0    0  0.16831619050E+03 -0.26726014190E+02 -0.29596585850E+03  0.37929593883E+03  0.16500000000E+03 0.  0.
   -5000001    1    1    2    0    0 -0.16831619050E+03  0.26726014190E+02 -0.92259375558E+03  0.95260110102E+03  0.16500000000E+03 0.  0.
<mgrwt>
<rscale>  0 0.53764504E+03</rscale>
<asrwt>0</asrwt>
<pdfrwt beam="1">  1        2 0.19618895E+00 0.53764504E+03</pdfrwt>
<pdfrwt beam="2">  1       -2 0.87182645E-02 0.53764504E+03</pdfrwt>
<totfact> 0.14849821E+03</totfact>
</mgrwt>
</event>
<event>
 4    1  0.8877834E-005  0.6501922E+03  0.7818608E-02  0.9806419E-01
          2   -1    0    0  501    0  0.00000000000E+00  0.00000000000E+00  0.12778777648E+04  0.12778777648E+04  0.25500000000E-02 0.  1.
         -2   -1    0    0    0  501 -0.00000000000E+00 -0.00000000000E+00 -0.82705463170E+02  0.82705463209E+02  0.25500000000E-02 0. -1.
    5000001    1    1    2    0    0  0.20501865950E+03  0.11877931244E+03  0.28494720974E+03  0.40566129732E+03  0.16500000000E+03 0.  0.
   -5000001    1    1    2    0    0 -0.20501865950E+03 -0.11877931244E+03  0.91022509186E+03  0.95492193066E+03  0.16500000000E+03 0.  0.
<mgrwt>
<rscale>  0 0.65019219E+03</rscale>
<asrwt>0</asrwt>
<pdfrwt beam="1">  1        2 0.19659657E+00 0.65019219E+03</pdfrwt>
<pdfrwt beam="2">  1       -2 0.12723918E-01 0.65019219E+03</pdfrwt>
<totfact> 0.79621472E+02</totfact>
</mgrwt>
</event>
<event>
 4    1  0.8877834E-005  0.3725937E+03  0.7818608E-02  0.1053706E+00
          2   -1    0    0  501    0  0.00000000000E+00  0.00000000000E+00  0.23508056926E+04  0.23508056926E+04  0.25500000000E-02 0.  1.
         -2   -1    0    0    0  501 -0.00000000000E+00 -0.00000000000E+00 -0.14763666989E+02  0.14763667209E+02  0.25500000000E-02 0. -1.
    5000001    1    1    2    0    0  0.19646576919E+02  0.82045157798E+02  0.10468718168E+04  0.10631476834E+04  0.16500000000E+03 0.  0.
   -5000001    1    1    2    0    0 -0.19646576919E+02 -0.82045157798E+02  0.12891702088E+04  0.13024216764E+04  0.16500000000E+03 0.  0.
<mgrwt>
<rscale>  0 0.37259368E+03</rscale>
<asrwt>0</asrwt>
<pdfrwt beam="1">  1        2 0.36166232E+00 0.37259368E+03</pdfrwt>
<pdfrwt beam="2">  1       -2 0.22713340E-02 0.37259368E+03</pdfrwt>
<totfact> 0.30793901E+03</totfact>
</mgrwt>
</event>
<event>
 4    1  0.8877834E-005  0.8359571E+03  0.7818608E-02  0.9509381E-01
          2   -1    0    0  501    0  0.00000000000E+00  0.00000000000E+00  0.77228718389E+03  0.77228718389E+03  0.25500000000E-02 0.  1.
         -2   -1    0    0    0  501 -0.00000000000E+00 -0.00000000000E+00 -0.22621902093E+03  0.22621902095E+03  0.25500000000E-02 0. -1.
    5000001    1    1    2    0    0  0.30579115203E+03  0.29115931263E+02  0.54834067716E+03  0.64981417678E+03  0.16500000000E+03 0.  0.
   -5000001    1    1    2    0    0 -0.30579115203E+03 -0.29115931263E+02 -0.22725141983E+01  0.34869202807E+03  0.16500000000E+03 0.  0.
<mgrwt>
<rscale>  0 0.83595706E+03</rscale>
<asrwt>0</asrwt>
<pdfrwt beam="1">  1        2 0.11881341E+00 0.83595706E+03</pdfrwt>
<pdfrwt beam="2">  1       -2 0.34802927E-01 0.83595706E+03</pdfrwt>
<totfact> 0.28061403E+02</totfact>
</mgrwt>
</event>
<event>
 4    1  0.8877834E-005  0.5269102E+03  0.7818608E-02  0.1006984E+00
         -2   -1    0    0    0  501 -0.00000000000E+00  0.00000000000E+00  0.11662770211E+03  0.11662770214E+03  0.25500000000E-02 0. -1.
          2   -1    0    0  501    0  0.00000000000E+00 -0.00000000000E+00 -0.59512944888E+03  0.59512944888E+03  0.25500000000E-02 0.  1.
    5000001    1    1    2    0    0 -0.19244809524E+03 -0.50656035344E+02 -0.30788064500E+03  0.40201715740E+03  0.16500000000E+03 0.  0.
   -5000001    1    1    2    0    0  0.19244809524E+03  0.50656035344E+02 -0.17062110177E+03  0.30973999362E+03  0.16500000000E+03 0.  0.
<mgrwt>
<rscale>  0 0.52691016E+03</rscale>
<asrwt>0</asrwt>
<pdfrwt beam="1">  1        2 0.91558375E-01 0.52691016E+03</pdfrwt>
<pdfrwt beam="2">  1       -2 0.17942724E-01 0.52691016E+03</pdfrwt>
<totfact> 0.12933723E+03</totfact>
</mgrwt>
</event>
<event>
 4    1  0.8877834E-005  0.8033938E+03  0.7818608E-02  0.9555118E-01
          2   -1    0    0  501    0  0.00000000000E+00  0.00000000000E+00  0.31324732317E+04  0.31324732317E+04  0.25500000000E-02 0.  1.
         -2   -1    0    0    0  501 -0.00000000000E+00 -0.00000000000E+00 -0.51512139287E+02  0.51512139350E+02  0.25500000000E-02 0. -1.
    5000001    1    1    2    0    0  0.90155030842E+02 -0.25419417728E+03  0.25224574408E+04  0.25421957340E+04  0.16500000000E+03 0.  0.
   -5000001    1    1    2    0    0 -0.90155030842E+02  0.25419417728E+03  0.55850365160E+03  0.64178963704E+03  0.16500000000E+03 0.  0.
<mgrwt>
<rscale>  0 0.80339380E+03</rscale>
<asrwt>0</asrwt>
<pdfrwt beam="1">  1        2 0.48191889E+00 0.80339380E+03</pdfrwt>
<pdfrwt beam="2">  1       -2 0.79249457E-02 0.80339380E+03</pdfrwt>
<totfact> 0.15098665E+02</totfact>
</mgrwt>
</event>
<event>
 4    1  0.8877834E-005  0.1057962E+04  0.7818608E-02  0.9247162E-01
         -2   -1    0    0    0  501 -0.00000000000E+00  0.00000000000E+00  0.17557663380E+03  0.17557663382E+03  0.25500000000E-02 0. -1.
          2   -1    0    0  501    0  0.00000000000E+00 -0.00000000000E+00 -0.15937246751E+04  0.15937246751E+04  0.25500000000E-02 0.  1.
    5000001    1    1    2    0    0 -0.36234779885E+03 -0.26998931055E+03 -0.34113159928E+03  0.58973377313E+03  0.16500000000E+03 0.  0.
   -5000001    1    1    2    0    0  0.36234779885E+03  0.26998931055E+03 -0.10770164421E+04  0.11795675358E+04  0.16500000000E+03 0.  0.
<mgrwt>
<rscale>  0 0.10579618E+04</rscale>
<asrwt>0</asrwt>
<pdfrwt beam="1">  1        2 0.24518840E+00 0.10579618E+04</pdfrwt>
<pdfrwt beam="2">  1       -2 0.27011791E-01 0.10579618E+04</pdfrwt>
<totfact> 0.13929695E+02</totfact>
</mgrwt>
</event>
<event>
 4    1  0.8877834E-005  0.1055126E+04  0.7818608E-02  0.9250068E-01
          2   -1    0    0  501    0  0.00000000000E+00  0.00000000000E+00  0.25663495082E+04  0.25663495082E+04  0.25500000000E-02 0.  1.
         -2   -1    0    0    0  501 -0.00000000000E+00 -0.00000000000E+00 -0.10845076939E+03  0.10845076942E+03  0.25500000000E-02 0. -1.
    5000001    1    1    2    0    0  0.13294236522E+03  0.47809427726E+03  0.14054912059E+04  0.14996260668E+04  0.16500000000E+03 0.  0.
   -5000001    1    1    2    0    0 -0.13294236522E+03 -0.47809427726E+03  0.10524075329E+04  0.11751742108E+04  0.16500000000E+03 0.  0.
<mgrwt>
<rscale>  0 0.10551257E+04</rscale>
<asrwt>0</asrwt>
<pdfrwt beam="1">  1        2 0.39482300E+00 0.10551257E+04</pdfrwt>
<pdfrwt beam="2">  1       -2 0.16684734E-01 0.10551257E+04</pdfrwt>
<totfact> 0.93907596E+01</totfact>
</mgrwt>
</event>
<event>
 4    1  0.8877834E-005  0.5315765E+03  0.7818608E-02  0.1005851E+00
         -2   -1    0    0    0  501 -0.00000000000E+00  0.00000000000E+00  0.50542842660E+02  0.50542842724E+02  0.25500000000E-02 0. -1.
          2   -1    0    0  501    0  0.00000000000E+00 -0.00000000000E+00 -0.13976932405E+04  0.13976932405E+04  0.25500000000E-02 0.  1.
    5000001    1    1    2    0    0  0.19241537370E+03 -0.41283622627E+01 -0.45600238353E+03  0.52173162948E+03  0.16500000000E+03 0.  0.
   -5000001    1    1    2    0    0 -0.19241537370E+03  0.41283622627E+01 -0.89114801426E+03  0.92650445371E+03  0.16500000000E+03 0.  0.
<mgrwt>
<rscale>  0 0.53157648E+03</rscale>
<asrwt>0</asrwt>
<pdfrwt beam="1">  1        2 0.21502970E+00 0.53157648E+03</pdfrwt>
<pdfrwt beam="2">  1       -2 0.77758230E-02 0.53157648E+03</pdfrwt>
<totfact> 0.15196561E+03</totfact>
</mgrwt>
</event>
<event>
 4    1  0.8877834E-005  0.4489723E+03  0.7818608E-02  0.1028029E+00
          2   -1    0    0  501    0  0.00000000000E+00  0.00000000000E+00  0.43274078441E+03  0.43274078441E+03  0.25500000000E-02 0.  1.
         -2   -1    0    0    0  501 -0.00000000000E+00 -0.00000000000E+00 -0.11645315154E+03  0.11645315157E+03  0.25500000000E-02 0. -1.
    5000001    1    1    2    0    0  0.28035995821E+02  0.14351286437E+03  0.10643354193E+03  0.24481637639E+03  0.16500000000E+03 0.  0.
   -5000001    1    1    2    0    0 -0.28035995821E+02 -0.14351286437E+03  0.20985409094E+03  0.30437755959E+03  0.16500000000E+03 0.  0.
<mgrwt>
<rscale>  0 0.44897228E+03</rscale>
<asrwt>0</asrwt>
<pdfrwt beam="1">  1        2 0.66575505E-01 0.44897228E+03</pdfrwt>
<pdfrwt beam="2">  1       -2 0.17915870E-01 0.44897228E+03</pdfrwt>
<totfact> 0.18695918E+03</totfact>
</mgrwt>
</event>
<event>
 4    1  0.8877834E-005  0.4149732E+03  0.7818608E-02  0.1038715E+00
          2   -1    0    0  501    0  0.00000000000E+00  0.00000000000E+00  0.14648488222E+03  0.14648488224E+03  0.25500000000E-02 0.  1.
         -2   -1    0    0    0  501 -0.00000000000E+00 -0.00000000000E+00 -0.29389167868E+03  0.29389167869E+03  0.25500000000E-02 0. -1.
    5000001    1    1    2    0    0 -0.10136877164E+03 -0.63900659950E+02 -0.33060513046E+02  0.20658392902E+03  0.16500000000E+03 0.  0.
   -5000001    1    1    2    0    0  0.10136877164E+03  0.63900659950E+02 -0.11434628342E+03  0.23379263191E+03  0.16500000000E+03 0.  0.
<mgrwt>
<rscale>  0 0.41497319E+03</rscale>
<asrwt>0</asrwt>
<pdfrwt beam="1">  1        2 0.22536136E-01 0.41497319E+03</pdfrwt>
<pdfrwt beam="2">  1       -2 0.45214104E-01 0.41497319E+03</pdfrwt>
<totfact> 0.11442113E+03</totfact>
</mgrwt>
</event>
<event>
 4    1  0.8877834E-005  0.3969013E+03  0.7818608E-02  0.1044858E+00
         -2   -1    0    0    0  501 -0.00000000000E+00  0.00000000000E+00  0.61041834950E+02  0.61041835003E+02  0.25500000000E-02 0. -1.
          2   -1    0    0  501    0  0.00000000000E+00 -0.00000000000E+00 -0.64517475376E+03  0.64517475376E+03  0.25500000000E-02 0.  1.
    5000001    1    1    2    0    0  0.97704187432E+02 -0.24338775987E+02 -0.21211221510E+03  0.28697574123E+03  0.16500000000E+03 0.  0.
   -5000001    1    1    2    0    0 -0.97704187432E+02  0.24338775987E+02 -0.37202070370E+03  0.41924084754E+03  0.16500000000E+03 0.  0.
<mgrwt>
<rscale>  0 0.39690125E+03</rscale>
<asrwt>0</asrwt>
<pdfrwt beam="1">  1        2 0.99257650E-01 0.39690125E+03</pdfrwt>
<pdfrwt beam="2">  1       -2 0.93910520E-02 0.39690125E+03</pdfrwt>
<totfact> 0.34154247E+03</totfact>
</mgrwt>
</event>
<event>
 4    1  0.8877834E-005  0.6179234E+03  0.7818608E-02  0.9868903E-01
         -2   -1    0    0    0  501 -0.00000000000E+00  0.00000000000E+00  0.19125781450E+03  0.19125781451E+03  0.25500000000E-02 0. -1.
          2   -1    0    0  501    0  0.00000000000E+00 -0.00000000000E+00 -0.49910285757E+03  0.49910285758E+03  0.25500000000E-02 0.  1.
    5000001    1    1    2    0    0  0.19086331550E+03 -0.84967799616E+02  0.21250655323E+02  0.26706726218E+03  0.16500000000E+03 0.  0.
   -5000001    1    1    2    0    0 -0.19086331550E+03  0.84967799616E+02 -0.32909569840E+03  0.42329340991E+03  0.16500000000E+03 0.  0.
<mgrwt>
<rscale>  0 0.61792337E+03</rscale>
<asrwt>0</asrwt>
<pdfrwt beam="1">  1        2 0.76785054E-01 0.61792337E+03</pdfrwt>
<pdfrwt beam="2">  1       -2 0.29424279E-01 0.61792337E+03</pdfrwt>
<totfact> 0.65968571E+02</totfact>
</mgrwt>
</event>
<event>
 4    1  0.8877834E-005  0.9119371E+03  0.7818608E-02  0.9410781E-01
         -2   -1    0    0    0  501 -0.00000000000E+00  0.00000000000E+00  0.80957359423E+02  0.80957359463E+02  0.25500000000E-02 0. -1.
          2   -1    0    0  501    0  0.00000000000E+00 -0.00000000000E+00 -0.25681086882E+04  0.25681086882E+04  0.25500000000E-02 0.  1.
    5000001    1    1    2    0    0  0.34747058907E+03  0.21038228315E+03 -0.16073910176E+04  0.16661114604E+04  0.16500000000E+03 0.  0.
   -5000001    1    1    2    0    0 -0.34747058907E+03 -0.21038228315E+03 -0.87976031123E+03  0.98295458722E+03  0.16500000000E+03 0.  0.
<mgrwt>
<rscale>  0 0.91193706E+03</rscale>
<asrwt>0</asrwt>
<pdfrwt beam="1">  1        2 0.39509358E+00 0.91193706E+03</pdfrwt>
<pdfrwt beam="2">  1       -2 0.12454980E-01 0.91193706E+03</pdfrwt>
<totfact> 0.15561177E+02</totfact>
</mgrwt>
</event>
<event>
 4    1  0.8877834E-005  0.3728437E+03  0.7818608E-02  0.1053611E+00
          2   -1    0    0  501    0  0.00000000000E+00  0.00000000000E+00  0.64558162892E+03  0.64558162893E+03  0.25500000000E-02 0.  1.
         -2   -1    0    0    0  501 -0.00000000000E+00 -0.00000000000E+00 -0.53832234957E+02  0.53832235017E+02  0.25500000000E-02 0. -1.
    5000001    1    1    2    0    0  0.57749424375E+02 -0.37691737546E+02  0.19710165196E+03  0.26613854343E+03  0.16500000000E+03 0.  0.
   -5000001    1    1    2    0    0 -0.57749424375E+02  0.37691737546E+02  0.39464774201E+03  0.43327532051E+03  0.16500000000E+03 0.  0.
<mgrwt>
<rscale>  0 0.37284368E+03</rscale>
<asrwt>0</asrwt>
<pdfrwt beam="1">  1        2 0.99320255E-01 0.37284368E+03</pdfrwt>
<pdfrwt beam="2">  1       -2 0.82818819E-02 0.37284368E+03</pdfrwt>
<totfact> 0.41628689E+03</totfact>
</mgrwt>
</event>
<event>
 4    1  0.8877834E-005  0.5158966E+03  0.7818608E-02  0.1009711E+00
          2   -1    0    0  501    0  0.00000000000E+00  0.00000000000E+00  0.22623058398E+04  0.22623058398E+04  0.25500000000E-02 0.  1.
         -2   -1    0    0    0  501 -0.00000000000E+00 -0.00000000000E+00 -0.29411286107E+02  0.29411286218E+02  0.25500000000E-02 0. -1.
    5000001    1    1    2    0    0 -0.99940219126E+02  0.17122798888E+03  0.11266284228E+04  0.11557783847E+04  0.16500000000E+03 0.  0.
   -5000001    1    1    2    0    0  0.99940219126E+02 -0.17122798888E+03  0.11062661309E+04  0.11359387412E+04  0.16500000000E+03 0.  0.
<mgrwt>
<rscale>  0 0.51589660E+03</rscale>
<asrwt>0</asrwt>
<pdfrwt beam="1">  1        2 0.34804697E+00 0.51589660E+03</pdfrwt>
<pdfrwt beam="2">  1       -2 0.45248143E-02 0.51589660E+03</pdfrwt>
<totfact> 0.12016889E+03</totfact>
</mgrwt>
</event>
<event>
 4    1  0.8877834E-005  0.5063396E+03  0.7818608E-02  0.1012137E+00
         -2   -1    0    0    0  501 -0.00000000000E+00  0.00000000000E+00  0.15916235767E+03  0.15916235769E+03  0.25500000000E-02 0. -1.
          2   -1    0    0  501    0  0.00000000000E+00 -0.00000000000E+00 -0.40270162905E+03  0.40270162905E+03  0.25500000000E-02 0.  1.
    5000001    1    1    2    0    0  0.10990062352E+03  0.11919951426E+03 -0.23592576976E+03  0.33041283281E+03  0.16500000000E+03 0.  0.
   -5000001    1    1    2    0    0 -0.10990062352E+03 -0.11919951426E+03 -0.76135016163E+01  0.23145115393E+03  0.16500000000E+03 0.  0.
<mgrwt>
<rscale>  0 0.50633957E+03</rscale>
<asrwt>0</asrwt>
<pdfrwt beam="1">  1        2 0.61954096E-01 0.50633957E+03</pdfrwt>
<pdfrwt beam="2">  1       -2 0.24486517E-01 0.50633957E+03</pdfrwt>
<totfact> 0.11749550E+03</totfact>
</mgrwt>
</event>
<event>
 4    1  0.8877834E-005  0.5834252E+03  0.7818608E-02  0.9940403E-01
         -2   -1    0    0    0  501 -0.00000000000E+00  0.00000000000E+00  0.43532240920E+02  0.43532240995E+02  0.25500000000E-02 0. -1.
          2   -1    0    0  501    0  0.00000000000E+00 -0.00000000000E+00 -0.19547862797E+04  0.19547862797E+04  0.25500000000E-02 0.  1.
    5000001    1    1    2    0    0  0.19719821255E+03  0.11748226797E+03 -0.12021904406E+04  0.12349801916E+04  0.16500000000E+03 0.  0.
   -5000001    1    1    2    0    0 -0.19719821255E+03 -0.11748226797E+03 -0.70906359826E+03  0.76333832912E+03  0.16500000000E+03 0.  0.
<mgrwt>
<rscale>  0 0.58342515E+03</rscale>
<asrwt>0</asrwt>
<pdfrwt beam="1">  1        2 0.30073628E+00 0.58342515E+03</pdfrwt>
<pdfrwt beam="2">  1       -2 0.66972694E-02 0.58342515E+03</pdfrwt>
<totfact> 0.95430686E+02</totfact>
</mgrwt>
</event>
<event>
 4    1  0.8877834E-005  0.5003114E+03  0.7818608E-02  0.1013698E+00
          2   -1    0    0  501    0  0.00000000000E+00  0.00000000000E+00  0.32900507593E+03  0.32900507594E+03  0.25500000000E-02 0.  1.
         -2   -1    0    0    0  501 -0.00000000000E+00 -0.00000000000E+00 -0.19020337138E+03  0.19020337140E+03  0.25500000000E-02 0. -1.
    5000001    1    1    2    0    0 -0.16164541787E+03 -0.17206445229E+02 -0.28653759539E+02  0.23339096129E+03  0.16500000000E+03 0.  0.
   -5000001    1    1    2    0    0  0.16164541787E+03  0.17206445229E+02  0.16745546409E+03  0.28581748604E+03  0.16500000000E+03 0.  0.
<mgrwt>
<rscale>  0 0.50031140E+03</rscale>
<asrwt>0</asrwt>
<pdfrwt beam="1">  1        2 0.50616165E-01 0.50031140E+03</pdfrwt>
<pdfrwt beam="2">  1       -2 0.29262058E-01 0.50031140E+03</pdfrwt>
<totfact> 0.10644873E+03</totfact>
</mgrwt>
</event>
<event>
 4    1  0.8877834E-005  0.3891101E+03  0.7818608E-02  0.1047617E+00
          2   -1    0    0  501    0  0.00000000000E+00  0.00000000000E+00  0.57289084492E+03  0.57289084493E+03  0.25500000000E-02 0.  1.
         -2   -1    0    0    0  501 -0.00000000000E+00 -0.00000000000E+00 -0.66071345733E+02  0.66071345783E+02  0.25500000000E-02 0. -1.
    5000001    1    1    2    0    0 -0.81861903929E+02  0.29321576198E+02  0.16249039372E+03  0.24736461792E+03  0.16500000000E+03 0.  0.
   -5000001    1    1    2    0    0  0.81861903929E+02 -0.29321576198E+02  0.34432910547E+03  0.39159757279E+03  0.16500000000E+03 0.  0.
<mgrwt>
<rscale>  0 0.38911011E+03</rscale>
<asrwt>0</asrwt>
<pdfrwt beam="1">  1        2 0.88137057E-01 0.38911011E+03</pdfrwt>
<pdfrwt beam="2">  1       -2 0.10164822E-01 0.38911011E+03</pdfrwt>
<totfact> 0.34618531E+03</totfact>
</mgrwt>
</event>
<event>
 4    1  0.8877834E-005  0.5996206E+03  0.7818608E-02  0.9906194E-01
          2   -1    0    0  501    0  0.00000000000E+00  0.00000000000E+00  0.14666520742E+04  0.14666520742E+04  0.25500000000E-02 0.  1.
         -2   -1    0    0    0  501 -0.00000000000E+00 -0.00000000000E+00 -0.61286658716E+02  0.61286658769E+02  0.25500000000E-02 0. -1.
    5000001    1    1    2    0    0  0.11672995360E+03  0.14549088006E+03  0.11280657716E+04  0.11552276240E+04  0.16500000000E+03 0.  0.
   -5000001    1    1    2    0    0 -0.11672995360E+03 -0.14549088006E+03  0.27729964395E+03  0.37271110901E+03  0.16500000000E+03 0.  0.
<mgrwt>
<rscale>  0 0.59962056E+03</rscale>
<asrwt>0</asrwt>
<pdfrwt beam="1">  1        2 0.22563877E+00 0.59962056E+03</pdfrwt>
<pdfrwt beam="2">  1       -2 0.94287172E-02 0.59962056E+03</pdfrwt>
<totfact> 0.10191618E+03</totfact>
</mgrwt>
</event>
<event>
 4    1  0.8877834E-005  0.5552576E+03  0.7818608E-02  0.1000284E+00
         -2   -1    0    0    0  501 -0.00000000000E+00  0.00000000000E+00  0.14853319395E+04  0.14853319395E+04  0.25500000000E-02 0. -1.
          2   -1    0    0  501    0  0.00000000000E+00 -0.00000000000E+00 -0.51892615547E+02  0.51892615609E+02  0.25500000000E-02 0.  1.
    5000001    1    1    2    0    0  0.19278863894E+03 -0.77684853482E+02  0.94248926605E+03  0.97913911799E+03  0.16500000000E+03 0.  0.
   -5000001    1    1    2    0    0 -0.19278863894E+03  0.77684853482E+02  0.49095005788E+03  0.55808543709E+03  0.16500000000E+03 0.  0.
<mgrwt>
<rscale>  0 0.55525763E+03</rscale>
<asrwt>0</asrwt>
<pdfrwt beam="1">  1        2 0.79834797E-02 0.55525763E+03</pdfrwt>
<pdfrwt beam="2">  1       -2 0.22851259E+00 0.55525763E+03</pdfrwt>
<totfact> 0.80360091E+01</totfact>
</mgrwt>
</event>
<event>
 4    1  0.8877834E-005  0.5177623E+03  0.7818608E-02  0.1009244E+00
         -2   -1    0    0    0  501 -0.00000000000E+00  0.00000000000E+00  0.72975590707E+02  0.72975590752E+02  0.25500000000E-02 0. -1.
          2   -1    0    0  501    0  0.00000000000E+00 -0.00000000000E+00 -0.91838158851E+03  0.91838158852E+03  0.25500000000E-02 0.  1.
    5000001    1    1    2    0    0  0.57862345586E+02 -0.11848742724E+03 -0.70931393803E+03  0.74009363200E+03  0.16500000000E+03 0.  0.
   -5000001    1    1    2    0    0 -0.57862345586E+02  0.11848742724E+03 -0.13609205978E+03  0.25126354727E+03  0.16500000000E+03 0.  0.
<mgrwt>
<rscale>  0 0.51776226E+03</rscale>
<asrwt>0</asrwt>
<pdfrwt beam="1">  1        2 0.14128947E+00 0.51776226E+03</pdfrwt>
<pdfrwt beam="2">  1       -2 0.11227015E-01 0.51776226E+03</pdfrwt>
<totfact> 0.16271434E+03</totfact>
</mgrwt>
</event>
<event>
 4    1  0.8877834E-005  0.9116744E+03  0.7818608E-02  0.9411104E-01
          2   -1    0    0  501    0  0.00000000000E+00  0.00000000000E+00  0.30801029664E+04  0.30801029664E+04  0.25500000000E-02 0.  1.
         -2   -1    0    0    0  501 -0.00000000000E+00 -0.00000000000E+00 -0.67461241413E+02  0.67461241462E+02  0.25500000000E-02 0. -1.
    5000001    1    1    2    0    0 -0.27851167373E+03  0.14101454904E+03  0.25016302557E+04  0.25264268823E+04  0.16500000000E+03 0.  0.
   -5000001    1    1    2    0    0  0.27851167373E+03 -0.14101454904E+03  0.51101146927E+03  0.62113732553E+03  0.16500000000E+03 0.  0.
<mgrwt>
<rscale>  0 0.91167444E+03</rscale>
<asrwt>0</asrwt>
<pdfrwt beam="1">  1        2 0.47386201E+00 0.91167444E+03</pdfrwt>
<pdfrwt beam="2">  1       -2 0.10378652E-01 0.91167444E+03</pdfrwt>
<totfact> 0.10395358E+02</totfact>
</mgrwt>
</event>
<event>
 4    1  0.8877834E-005  0.4378666E+03  0.7818608E-02  0.1031403E+00
          2   -1    0    0  501    0  0.00000000000E+00  0.00000000000E+00  0.17251723405E+04  0.17251723405E+04  0.25500000000E-02 0.  1.
         -2   -1    0    0    0  501 -0.00000000000E+00 -0.00000000000E+00 -0.27783770727E+02  0.27783770844E+02  0.25500000000E-02 0. -1.
    5000001    1    1    2    0    0  0.14193568662E+03  0.11088175499E+02  0.93248943091E+03  0.95761695136E+03  0.16500000000E+03 0.  0.
   -5000001    1    1    2    0    0 -0.14193568662E+03 -0.11088175499E+02  0.76489913882E+03  0.79533915994E+03  0.16500000000E+03 0.  0.
<mgrwt>
<rscale>  0 0.43786661E+03</rscale>
<asrwt>0</asrwt>
<pdfrwt beam="1">  1        2 0.26541118E+00 0.43786661E+03</pdfrwt>
<pdfrwt beam="2">  1       -2 0.42744255E-02 0.43786661E+03</pdfrwt>
<totfact> 0.25639976E+03</totfact>
</mgrwt>
</event>
<event>
 4    1  0.8877834E-005  0.5745095E+03  0.7818608E-02  0.9959749E-01
         -2   -1    0    0    0  501 -0.00000000000E+00  0.00000000000E+00  0.10075247158E+03  0.10075247161E+03  0.25500000000E-02 0. -1.
          2   -1    0    0  501    0  0.00000000000E+00 -0.00000000000E+00 -0.81899027686E+03  0.81899027686E+03  0.25500000000E-02 0.  1.
    5000001    1    1    2    0    0 -0.13166814687E+03 -0.40247259146E+02 -0.53960405392E+02  0.22156955594E+03  0.16500000000E+03 0.  0.
   -5000001    1    1    2    0    0  0.13166814687E+03  0.40247259146E+02 -0.66427739988E+03  0.69817319253E+03  0.16500000000E+03 0.  0.
<mgrwt>
<rscale>  0 0.57450951E+03</rscale>
<asrwt>0</asrwt>
<pdfrwt beam="1">  1        2 0.12599850E+00 0.57450951E+03</pdfrwt>
<pdfrwt beam="2">  1       -2 0.15500381E-01 0.57450951E+03</pdfrwt>
<totfact> 0.11118890E+03</totfact>
</mgrwt>
</event>
<event>
 4    1  0.8877834E-005  0.1611379E+04  0.7818608E-02  0.8813588E-01
          2   -1    0    0  501    0  0.00000000000E+00  0.00000000000E+00  0.17352217336E+04  0.17352217336E+04  0.25500000000E-02 0.  1.
         -2   -1    0    0    0  501 -0.00000000000E+00 -0.00000000000E+00 -0.37409395820E+03  0.37409395821E+03  0.25500000000E-02 0. -1.
    5000001    1    1    2    0    0 -0.65640868027E+03 -0.28122589247E+03  0.11185466123E+04  0.13372852657E+04  0.16500000000E+03 0.  0.
   -5000001    1    1    2    0    0  0.65640868027E+03  0.28122589247E+03  0.24258116317E+03  0.77203042613E+03  0.16500000000E+03 0.  0.
<mgrwt>
<rscale>  0 0.16113795E+04</rscale>
<asrwt>0</asrwt>
<pdfrwt beam="1">  1        2 0.26695719E+00 0.16113795E+04</pdfrwt>
<pdfrwt beam="2">  1       -2 0.57552918E-01 0.16113795E+04</pdfrwt>
<totfact> 0.25393232E+01</totfact>
</mgrwt>
</event>
<event>
 4    1  0.8877834E-005  0.4259402E+03  0.7818608E-02  0.1035150E+00
          2   -1    0    0  501    0  0.00000000000E+00  0.00000000000E+00  0.13290845796E+04  0.13290845796E+04  0.25500000000E-02 0.  1.
         -2   -1    0    0    0  501 -0.00000000000E+00 -0.00000000000E+00 -0.34125937671E+02  0.34125937767E+02  0.25500000000E-02 0. -1.
    5000001    1    1    2    0    0 -0.10797317660E+02 -0.88799232016E+02  0.96959034204E+03  0.98758914385E+03  0.16500000000E+03 0.  0.
   -5000001    1    1    2    0    0  0.10797317660E+02  0.88799232016E+02  0.32536829993E+03  0.37562137356E+03  0.16500000000E+03 0.  0.
<mgrwt>
<rscale>  0 0.42594017E+03</rscale>
<asrwt>0</asrwt>
<pdfrwt beam="1">  1        2 0.20447455E+00 0.42594017E+03</pdfrwt>
<pdfrwt beam="2">  1       -2 0.52501444E-02 0.42594017E+03</pdfrwt>
<totfact> 0.30755549E+03</totfact>
</mgrwt>
</event>
<event>
 4    1  0.8877834E-005  0.4815225E+03  0.7818608E-02  0.1018718E+00
         -2   -1    0    0    0  501 -0.00000000000E+00  0.00000000000E+00  0.36045620117E+02  0.36045620207E+02  0.25500000000E-02 0. -1.
          2   -1    0    0  501    0  0.00000000000E+00 -0.00000000000E+00 -0.16081281463E+04  0.16081281463E+04  0.25500000000E-02 0.  1.
    5000001    1    1    2    0    0 -0.54748547853E+02 -0.15352319853E+03 -0.56543502602E+03  0.61115345424E+03  0.16500000000E+03 0.  0.
   -5000001    1    1    2    0    0  0.54748547853E+02  0.15352319853E+03 -0.10066475002E+04  0.10330203123E+04  0.16500000000E+03 0.  0.
<mgrwt>
<rscale>  0 0.48152249E+03</rscale>
<asrwt>0</asrwt>
<pdfrwt beam="1">  1        2 0.24740427E+00 0.48152249E+03</pdfrwt>
<pdfrwt beam="2">  1       -2 0.55454813E-02 0.48152249E+03</pdfrwt>
<totfact> 0.19825091E+03</totfact>
</mgrwt>
</event>
<event>
 4    1  0.8877834E-005  0.6002446E+03  0.7818608E-02  0.9904899E-01
          2   -1    0    0  501    0  0.00000000000E+00  0.00000000000E+00  0.35238223521E+03  0.35238223521E+03  0.25500000000E-02 0.  1.
         -2   -1    0    0    0  501 -0.00000000000E+00 -0.00000000000E+00 -0.25561273480E+03  0.25561273481E+03  0.25500000000E-02 0. -1.
    5000001    1    1    2    0    0 -0.13852433489E+03  0.13029401522E+01  0.26002689768E+03  0.33768280461E+03  0.16500000000E+03 0.  0.
   -5000001    1    1    2    0    0  0.13852433489E+03 -0.13029401522E+01 -0.16325739728E+03  0.27031216542E+03  0.16500000000E+03 0.  0.
<mgrwt>
<rscale>  0 0.60024457E+03</rscale>
<asrwt>0</asrwt>
<pdfrwt beam="1">  1        2 0.54212651E-01 0.60024457E+03</pdfrwt>
<pdfrwt beam="2">  1       -2 0.39325036E-01 0.60024457E+03</pdfrwt>
<totfact> 0.56493548E+02</totfact>
</mgrwt>
</event>
<event>
 4    1  0.8877834E-005  0.6458830E+03  0.7818608E-02  0.9814535E-01
          2   -1    0    0  501    0  0.00000000000E+00  0.00000000000E+00  0.39976772321E+03  0.39976772321E+03  0.25500000000E-02 0.  1.
         -2   -1    0    0    0  501 -0.00000000000E+00 -0.00000000000E+00 -0.26087953462E+03  0.26087953463E+03  0.25500000000E-02 0. -1.
    5000001    1    1    2    0    0 -0.23910152916E+03 -0.14097952857E+03  0.64706935165E+02  0.32932773370E+03  0.16500000000E+03 0.  0.
   -5000001    1    1    2    0    0  0.23910152916E+03  0.14097952857E+03  0.74181253422E+02  0.33131952415E+03  0.16500000000E+03 0.  0.
<mgrwt>
<rscale>  0 0.64588302E+03</rscale>
<asrwt>0</asrwt>
<pdfrwt beam="1">  1        2 0.61502727E-01 0.64588302E+03</pdfrwt>
<pdfrwt beam="2">  1       -2 0.40135313E-01 0.64588302E+03</pdfrwt>
<totfact> 0.47129768E+02</totfact>
</mgrwt>
</event>
<event>
 4    1  0.8877834E-005  0.4432184E+03  0.7818608E-02  0.1029764E+00
          2   -1    0    0  501    0  0.00000000000E+00  0.00000000000E+00  0.91051945395E+03  0.91051945395E+03  0.25500000000E-02 0.  1.
         -2   -1    0    0    0  501 -0.00000000000E+00 -0.00000000000E+00 -0.53936935250E+02  0.53936935310E+02  0.25500000000E-02 0. -1.
    5000001    1    1    2    0    0 -0.33968615680E+02 -0.14195512172E+03  0.48071982710E+03  0.52879265842E+03  0.16500000000E+03 0.  0.
   -5000001    1    1    2    0    0  0.33968615680E+02  0.14195512172E+03  0.37586269160E+03  0.43566373084E+03  0.16500000000E+03 0.  0.
<mgrwt>
<rscale>  0 0.44321836E+03</rscale>
<asrwt>0</asrwt>
<pdfrwt beam="1">  1        2 0.14007992E+00 0.44321836E+03</pdfrwt>
<pdfrwt beam="2">  1       -2 0.82979900E-02 0.44321836E+03</pdfrwt>
<totfact> 0.26787381E+03</totfact>
</mgrwt>
</event>
<event>
 4    1  0.8877834E-005  0.4108793E+03  0.7818608E-02  0.1040076E+00
          2   -1    0    0  501    0  0.00000000000E+00  0.00000000000E+00  0.20062789367E+04  0.20062789367E+04  0.25500000000E-02 0.  1.
         -2   -1    0    0    0  501 -0.00000000000E+00 -0.00000000000E+00 -0.21036682231E+02  0.21036682386E+02  0.25500000000E-02 0. -1.
    5000001    1    1    2    0    0  0.60358530398E+02  0.10647588658E+03  0.99474910282E+03  0.10157416227E+04  0.16500000000E+03 0.  0.
   -5000001    1    1    2    0    0 -0.60358530398E+02 -0.10647588658E+03  0.99049315166E+03  0.10115739964E+04  0.16500000000E+03 0.  0.
<mgrwt>
<rscale>  0 0.41087931E+03</rscale>
<asrwt>0</asrwt>
<pdfrwt beam="1">  1        2 0.30865826E+00 0.41087931E+03</pdfrwt>
<pdfrwt beam="2">  1       -2 0.32364130E-02 0.41087931E+03</pdfrwt>
<totfact> 0.27711504E+03</totfact>
</mgrwt>
</event>
<event>
 4    1  0.8877834E-005  0.6239440E+03  0.7818608E-02  0.9856938E-01
          2   -1    0    0  501    0  0.00000000000E+00  0.00000000000E+00  0.13685071447E+04  0.13685071448E+04  0.25500000000E-02 0.  1.
         -2   -1    0    0    0  501 -0.00000000000E+00 -0.00000000000E+00 -0.71118758796E+02  0.71118758841E+02  0.25500000000E-02 0. -1.
    5000001    1    1    2    0    0 -0.70515827118E+02  0.25488146010E+03  0.67828606645E+03  0.74648109722E+03  0.16500000000E+03 0.  0.
   -5000001    1    1    2    0    0  0.70515827118E+02 -0.25488146010E+03  0.61910231951E+03  0.69314480637E+03  0.16500000000E+03 0.  0.
<mgrwt>
<rscale>  0 0.62394400E+03</rscale>
<asrwt>0</asrwt>
<pdfrwt beam="1">  1        2 0.21053955E+00 0.62394400E+03</pdfrwt>
<pdfrwt beam="2">  1       -2 0.10941348E-01 0.62394400E+03</pdfrwt>
<totfact> 0.90728619E+02</totfact>
</mgrwt>
</event>
<event>
 4    1  0.8877834E-005  0.4052694E+03  0.7818608E-02  0.1041970E+00
          2   -1    0    0  501    0  0.00000000000E+00  0.00000000000E+00  0.62300550366E+03  0.62300550366E+03  0.25500000000E-02 0.  1.
         -2   -1    0    0    0  501 -0.00000000000E+00 -0.00000000000E+00 -0.65907629896E+02  0.65907629945E+02  0.25500000000E-02 0. -1.
    5000001    1    1    2    0    0  0.40771531890E+02  0.61680623678E+01  0.91287357154E+02  0.19302524286E+03  0.16500000000E+03 0.  0.
   -5000001    1    1    2    0    0 -0.40771531890E+02 -0.61680623678E+01  0.46581051661E+03  0.49588789075E+03  0.16500000000E+03 0.  0.
<mgrwt>
<rscale>  0 0.40526937E+03</rscale>
<asrwt>0</asrwt>
<pdfrwt beam="1">  1        2 0.95847002E-01 0.40526937E+03</pdfrwt>
<pdfrwt beam="2">  1       -2 0.10139635E-01 0.40526937E+03</pdfrwt>
<totfact> 0.31504180E+03</totfact>
</mgrwt>
</event>
<event>
 4    1  0.8877834E-005  0.4613848E+03  0.7818608E-02  0.1024380E+00
          2   -1    0    0  501    0  0.00000000000E+00  0.00000000000E+00  0.20899676942E+04  0.20899676942E+04  0.25500000000E-02 0.  1.
         -2   -1    0    0    0  501 -0.00000000000E+00 -0.00000000000E+00 -0.25464021410E+02  0.25464021538E+02  0.25500000000E-02 0. -1.
    5000001    1    1    2    0    0 -0.71029089207E+02  0.14230515022E+03  0.91111032632E+03  0.93949077379E+03  0.16500000000E+03 0.  0.
   -5000001    1    1    2    0    0  0.71029089207E+02 -0.14230515022E+03  0.11533933465E+04  0.11759409420E+04  0.16500000000E+03 0.  0.
<mgrwt>
<rscale>  0 0.46138479E+03</rscale>
<asrwt>0</asrwt>
<pdfrwt beam="1">  1        2 0.32153361E+00 0.46138479E+03</pdfrwt>
<pdfrwt beam="2">  1       -2 0.39175403E-02 0.46138479E+03</pdfrwt>
<totfact> 0.18654022E+03</totfact>
</mgrwt>
</event>
<event>
 4    1  0.8877834E-005  0.6185715E+03  0.7818608E-02  0.9867608E-01
          2   -1    0    0  501    0  0.00000000000E+00  0.00000000000E+00  0.13285081928E+04  0.13285081928E+04  0.25500000000E-02 0.  1.
         -2   -1    0    0    0  501 -0.00000000000E+00 -0.00000000000E+00 -0.72003822018E+02  0.72003822063E+02  0.25500000000E-02 0. -1.
    5000001    1    1    2    0    0  0.23110611634E+03 -0.79144376222E+02  0.84014645404E+03  0.89036224849E+03  0.16500000000E+03 0.  0.
   -5000001    1    1    2    0    0 -0.23110611634E+03  0.79144376222E+02  0.41635791672E+03  0.51014976636E+03  0.16500000000E+03 0.  0.
<mgrwt>
<rscale>  0 0.61857148E+03</rscale>
<asrwt>0</asrwt>
<pdfrwt beam="1">  1        2 0.20438587E+00 0.61857148E+03</pdfrwt>
<pdfrwt beam="2">  1       -2 0.11077512E-01 0.61857148E+03</pdfrwt>
<totfact> 0.93699064E+02</totfact>
</mgrwt>
</event>
<event>
 4    1  0.8877834E-005  0.4961178E+03  0.7818608E-02  0.1014797E+00
          2   -1    0    0  501    0  0.00000000000E+00  0.00000000000E+00  0.78141348060E+02  0.78141348102E+02  0.25500000000E-02 0.  1.
         -2   -1    0    0    0  501 -0.00000000000E+00 -0.00000000000E+00 -0.78746041246E+03  0.78746041246E+03  0.25500000000E-02 0. -1.
    5000001    1    1    2    0    0  0.52834827914E+02  0.56140263730E+02 -0.60810351212E+02  0.19200559124E+03  0.16500000000E+03 0.  0.
   -5000001    1    1    2    0    0 -0.52834827914E+02 -0.56140263730E+02 -0.64850871319E+03  0.67359616933E+03  0.16500000000E+03 0.  0.
<mgrwt>
<rscale>  0 0.49611780E+03</rscale>
<asrwt>0</asrwt>
<pdfrwt beam="1">  1        2 0.12021746E-01 0.49611780E+03</pdfrwt>
<pdfrwt beam="2">  1       -2 0.12114775E+00 0.49611780E+03</pdfrwt>
<totfact> 0.27692492E+02</totfact>
</mgrwt>
</event>
<event>
 4    1  0.8877834E-005  0.5539765E+03  0.7818608E-02  0.1000578E+00
         -2   -1    0    0    0  501 -0.00000000000E+00  0.00000000000E+00  0.35538019060E+02  0.35538019152E+02  0.25500000000E-02 0. -1.
          2   -1    0    0  501    0  0.00000000000E+00 -0.00000000000E+00 -0.21588848943E+04  0.21588848943E+04  0.25500000000E-02 0.  1.
    5000001    1    1    2    0    0 -0.10586659841E+03 -0.18458633654E+03 -0.80441848040E+03  0.84828883283E+03  0.16500000000E+03 0.  0.
   -5000001    1    1    2    0    0  0.10586659841E+03  0.18458633654E+03 -0.13189283948E+04  0.13461340806E+04  0.16500000000E+03 0.  0.
<mgrwt>
<rscale>  0 0.55397651E+03</rscale>
<asrwt>0</asrwt>
<pdfrwt beam="1">  1        2 0.33213604E+00 0.55397651E+03</pdfrwt>
<pdfrwt beam="2">  1       -2 0.54673892E-02 0.55397651E+03</pdfrwt>
<totfact> 0.10182644E+03</totfact>
</mgrwt>
</event>
<event>
 4    1  0.8877834E-005  0.5812101E+03  0.7818608E-02  0.9945175E-01
         -2   -1    0    0    0  501 -0.00000000000E+00  0.00000000000E+00  0.56116173715E+02  0.56116173773E+02  0.25500000000E-02 0. -1.
          2   -1    0    0  501    0  0.00000000000E+00 -0.00000000000E+00 -0.15049368934E+04  0.15049368934E+04  0.25500000000E-02 0.  1.
    5000001    1    1    2    0    0 -0.10652992348E+03 -0.13912626491E+03 -0.11618156363E+04  0.11864844352E+04  0.16500000000E+03 0.  0.
   -5000001    1    1    2    0    0  0.10652992348E+03  0.13912626491E+03 -0.28700508339E+03  0.37456863200E+03  0.16500000000E+03 0.  0.
<mgrwt>
<rscale>  0 0.58121012E+03</rscale>
<asrwt>0</asrwt>
<pdfrwt beam="1">  1        2 0.23152872E+00 0.58121012E+03</pdfrwt>
<pdfrwt beam="2">  1       -2 0.86332587E-02 0.58121012E+03</pdfrwt>
<totfact> 0.11193578E+03</totfact>
</mgrwt>
</event>
<event>
 4    1  0.8877834E-005  0.6977124E+03  0.7818608E-02  0.9721152E-01
         -2   -1    0    0    0  501 -0.00000000000E+00  0.00000000000E+00  0.10663770685E+03  0.10663770688E+03  0.25500000000E-02 0. -1.
          2   -1    0    0  501    0  0.00000000000E+00 -0.00000000000E+00 -0.11412533905E+04  0.11412533905E+04  0.25500000000E-02 0.  1.
    5000001    1    1    2    0    0  0.10528576059E+03  0.25798701064E+03 -0.74935930382E+03  0.81633740283E+03  0.16500000000E+03 0.  0.
   -5000001    1    1    2    0    0 -0.10528576059E+03 -0.25798701064E+03 -0.28525637981E+03  0.43155369453E+03  0.16500000000E+03 0.  0.
<mgrwt>
<rscale>  0 0.69771239E+03</rscale>
<asrwt>0</asrwt>
<pdfrwt beam="1">  1        2 0.17557744E+00 0.69771239E+03</pdfrwt>
<pdfrwt beam="2">  1       -2 0.16405802E-01 0.69771239E+03</pdfrwt>
<totfact> 0.62359113E+02</totfact>
</mgrwt>
</event>
<event>
 4    1  0.8877834E-005  0.8617397E+03  0.7818608E-02  0.9474714E-01
          2   -1    0    0  501    0  0.00000000000E+00  0.00000000000E+00  0.10593077772E+04  0.10593077772E+04  0.25500000000E-02 0.  1.
         -2   -1    0    0    0  501 -0.00000000000E+00 -0.00000000000E+00 -0.17525483374E+03  0.17525483376E+03  0.25500000000E-02 0. -1.
    5000001    1    1    2    0    0  0.61195072006E+02 -0.36345778919E+03  0.65729179351E+03  0.77142977852E+03  0.16500000000E+03 0.  0.
   -5000001    1    1    2    0    0 -0.61195072006E+02  0.36345778919E+03  0.22676114993E+03  0.46313283243E+03  0.16500000000E+03 0.  0.
<mgrwt>
<rscale>  0 0.86173966E+03</rscale>
<asrwt>0</asrwt>
<pdfrwt beam="1">  1        2 0.16297043E+00 0.86173966E+03</pdfrwt>
<pdfrwt beam="2">  1       -2 0.26962282E-01 0.86173966E+03</pdfrwt>
<totfact> 0.28927286E+02</totfact>
</mgrwt>
</event>
<event>
 4    1  0.8877834E-005  0.3725814E+03  0.7818608E-02  0.1053710E+00
         -2   -1    0    0    0  501 -0.00000000000E+00  0.00000000000E+00  0.89120325899E+02  0.89120325935E+02  0.25500000000E-02 0. -1.
          2   -1    0    0  501    0  0.00000000000E+00 -0.00000000000E+00 -0.38940864467E+03  0.38940864467E+03  0.25500000000E-02 0.  1.
    5000001    1    1    2    0    0  0.57291483253E+02 -0.28765041498E+02 -0.22469778016E+03  0.28604865683E+03  0.16500000000E+03 0.  0.
   -5000001    1    1    2    0    0 -0.57291483253E+02  0.28765041498E+02 -0.75590538609E+02  0.19248031378E+03  0.16500000000E+03 0.  0.
<mgrwt>
<rscale>  0 0.37258140E+03</rscale>
<asrwt>0</asrwt>
<pdfrwt beam="1">  1        2 0.59909021E-01 0.37258140E+03</pdfrwt>
<pdfrwt beam="2">  1       -2 0.13710820E-01 0.37258140E+03</pdfrwt>
<totfact> 0.32834501E+03</totfact>
</mgrwt>
</event>
<event>
 4    1  0.8877834E-005  0.5632374E+03  0.7818608E-02  0.9984756E-01
         -2   -1    0    0    0  501 -0.00000000000E+00  0.00000000000E+00  0.78743011583E+03  0.78743011584E+03  0.25500000000E-02 0. -1.
          2   -1    0    0  501    0  0.00000000000E+00 -0.00000000000E+00 -0.10071890138E+03  0.10071890141E+03  0.25500000000E-02 0.  1.
    5000001    1    1    2    0    0 -0.19040803755E+02 -0.21018617939E+03  0.48030983271E+03  0.54996665136E+03  0.16500000000E+03 0.  0.
   -5000001    1    1    2    0    0  0.19040803755E+02  0.21018617939E+03  0.20640138174E+03  0.33818236589E+03  0.16500000000E+03 0.  0.
<mgrwt>
<rscale>  0 0.56323741E+03</rscale>
<asrwt>0</asrwt>
<pdfrwt beam="1">  1        2 0.15495215E-01 0.56323741E+03</pdfrwt>
<pdfrwt beam="2">  1       -2 0.12114310E+00 0.56323741E+03</pdfrwt>
<totfact> 0.20271884E+02</totfact>
</mgrwt>
</event>
<event>
 4    1  0.8877834E-005  0.3631449E+03  0.7818608E-02  0.1057346E+00
         -2   -1    0    0    0  501 -0.00000000000E+00  0.00000000000E+00  0.16761088024E+02  0.16761088218E+02  0.25500000000E-02 0. -1.
          2   -1    0    0  501    0  0.00000000000E+00 -0.00000000000E+00 -0.19669697345E+04  0.19669697345E+04  0.25500000000E-02 0.  1.
    5000001    1    1    2    0    0  0.64562934531E+02 -0.32264525597E+02 -0.84884978716E+03  0.86774439398E+03  0.16500000000E+03 0.  0.
   -5000001    1    1    2    0    0 -0.64562934531E+02  0.32264525597E+02 -0.11013588593E+04  0.11159864287E+04  0.16500000000E+03 0.  0.
<mgrwt>
<rscale>  0 0.36314489E+03</rscale>
<asrwt>0</asrwt>
<pdfrwt beam="1">  1        2 0.30261055E+00 0.36314489E+03</pdfrwt>
<pdfrwt beam="2">  1       -2 0.25786305E-02 0.36314489E+03</pdfrwt>
<totfact> 0.40974002E+03</totfact>
</mgrwt>
</event>
<event>
 4    1  0.8877834E-005  0.5362632E+03  0.7818608E-02  0.1004724E+00
         -2   -1    0    0    0  501 -0.00000000000E+00  0.00000000000E+00  0.49544479684E+02  0.49544479749E+02  0.25500000000E-02 0. -1.
          2   -1    0    0  501    0  0.00000000000E+00 -0.00000000000E+00 -0.14511113474E+04  0.14511113474E+04  0.25500000000E-02 0.  1.
    5000001    1    1    2    0    0 -0.18392549181E+03  0.32429888469E+02 -0.42391189950E+03  0.49173832751E+03  0.16500000000E+03 0.  0.
   -5000001    1    1    2    0    0  0.18392549181E+03 -0.32429888469E+02 -0.97765496819E+03  0.10089174996E+04  0.16500000000E+03 0.  0.
<mgrwt>
<rscale>  0 0.53626321E+03</rscale>
<asrwt>0</asrwt>
<pdfrwt beam="1">  1        2 0.22324787E+00 0.53626321E+03</pdfrwt>
<pdfrwt beam="2">  1       -2 0.76222288E-02 0.53626321E+03</pdfrwt>
<totfact> 0.14645700E+03</totfact>
</mgrwt>
</event>
<event>
 4    1  0.8877834E-005  0.6044264E+03  0.7818608E-02  0.9896265E-01
         -2   -1    0    0    0  501 -0.00000000000E+00  0.00000000000E+00  0.60480516458E+02  0.60480516511E+02  0.25500000000E-02 0. -1.
          2   -1    0    0  501    0  0.00000000000E+00 -0.00000000000E+00 -0.15101197793E+04  0.15101197793E+04  0.25500000000E-02 0.  1.
    5000001    1    1    2    0    0 -0.19222564329E+03 -0.16476463220E+03 -0.73293020812E+03  0.79278608208E+03  0.16500000000E+03 0.  0.
   -5000001    1    1    2    0    0  0.19222564329E+03  0.16476463220E+03 -0.71670905468E+03  0.77781421369E+03  0.16500000000E+03 0.  0.
<mgrwt>
<rscale>  0 0.60442642E+03</rscale>
<asrwt>0</asrwt>
<pdfrwt beam="1">  1        2 0.23232609E+00 0.60442642E+03</pdfrwt>
<pdfrwt beam="2">  1       -2 0.93046960E-02 0.60442642E+03</pdfrwt>
<totfact> 0.98484211E+02</totfact>
</mgrwt>
</event>
<event>
 4    1  0.8877834E-005  0.6982085E+03  0.7818608E-02  0.9720301E-01
         -2   -1    0    0    0  501 -0.00000000000E+00  0.00000000000E+00  0.12579424212E+03  0.12579424215E+03  0.25500000000E-02 0. -1.
          2   -1    0    0  501    0  0.00000000000E+00 -0.00000000000E+00 -0.96883423788E+03  0.96883423789E+03  0.25500000000E-02 0.  1.
    5000001    1    1    2    0    0 -0.20743855522E+03 -0.18113582286E+02 -0.77657661178E+03  0.82076494200E+03  0.16500000000E+03 0.  0.
   -5000001    1    1    2    0    0  0.20743855522E+03  0.18113582286E+02 -0.66463383986E+02  0.27386353803E+03  0.16500000000E+03 0.  0.
<mgrwt>
<rscale>  0 0.69820848E+03</rscale>
<asrwt>0</asrwt>
<pdfrwt beam="1">  1        2 0.14905142E+00 0.69820848E+03</pdfrwt>
<pdfrwt beam="2">  1       -2 0.19352961E-01 0.69820848E+03</pdfrwt>
<totfact> 0.60055216E+02</totfact>
</mgrwt>
</event>
<event>
 4    1  0.8877834E-005  0.3969513E+03  0.7818608E-02  0.1044840E+00
          2   -1    0    0  501    0  0.00000000000E+00  0.00000000000E+00  0.35101254102E+04  0.35101254102E+04  0.25500000000E-02 0.  1.
         -2   -1    0    0    0  501 -0.00000000000E+00 -0.00000000000E+00 -0.11222559093E+02  0.11222559383E+02  0.25500000000E-02 0. -1.
    5000001    1    1    2    0    0 -0.29304810739E+02 -0.99953259949E+02  0.14273768515E+04  0.14406523183E+04  0.16500000000E+03 0.  0.
   -5000001    1    1    2    0    0  0.29304810739E+02  0.99953259949E+02  0.20715259996E+04  0.20806956513E+04  0.16500000000E+03 0.  0.
<mgrwt>
<rscale>  0 0.39695133E+03</rscale>
<asrwt>0</asrwt>
<pdfrwt beam="1">  1        2 0.54001983E+00 0.39695133E+03</pdfrwt>
<pdfrwt beam="2">  1       -2 0.17265459E-02 0.39695133E+03</pdfrwt>
<totfact> 0.93715710E+02</totfact>
</mgrwt>
</event>
<event>
 4    1  0.8877834E-005  0.4888366E+03  0.7818608E-02  0.1016735E+00
          2   -1    0    0  501    0  0.00000000000E+00  0.00000000000E+00  0.53259933171E+02  0.53259933232E+02  0.25500000000E-02 0.  1.
         -2   -1    0    0    0  501 -0.00000000000E+00 -0.00000000000E+00 -0.11216743169E+04  0.11216743169E+04  0.25500000000E-02 0. -1.
    5000001    1    1    2    0    0  0.11551465668E+03 -0.12895079416E+03 -0.41299300676E+03  0.47724225174E+03  0.16500000000E+03 0.  0.
   -5000001    1    1    2    0    0 -0.11551465668E+03  0.12895079416E+03 -0.65542137693E+03  0.69769199835E+03  0.16500000000E+03 0.  0.
<mgrwt>
<rscale>  0 0.48883657E+03</rscale>
<asrwt>0</asrwt>
<pdfrwt beam="1">  1        2 0.81938368E-02 0.48883657E+03</pdfrwt>
<pdfrwt beam="2">  1       -2 0.17256526E+00 0.48883657E+03</pdfrwt>
<totfact> 0.17942630E+02</totfact>
</mgrwt>
</event>
<event>
 4    1  0.8877834E-005  0.3913944E+03  0.7818608E-02  0.1046801E+00
          2   -1    0    0  501    0  0.00000000000E+00  0.00000000000E+00  0.21785286243E+04  0.21785286243E+04  0.25500000000E-02 0.  1.
         -2   -1    0    0    0  501 -0.00000000000E+00 -0.00000000000E+00 -0.17579473499E+02  0.17579473684E+02  0.25500000000E-02 0. -1.
    5000001    1    1    2    0    0  0.97609428657E+02  0.52938515867E+01  0.86195128803E+03  0.88302924548E+03  0.16500000000E+03 0.  0.
   -5000001    1    1    2    0    0 -0.97609428657E+02 -0.52938515867E+01  0.12989978627E+04  0.13130788525E+04  0.16500000000E+03 0.  0.
<mgrwt>
<rscale>  0 0.39139436E+03</rscale>
<asrwt>0</asrwt>
<pdfrwt beam="1">  1        2 0.33515794E+00 0.39139436E+03</pdfrwt>
<pdfrwt beam="2">  1       -2 0.27045369E-02 0.39139436E+03</pdfrwt>
<totfact> 0.29377733E+03</totfact>
</mgrwt>
</event>
<event>
 4    1  0.8877834E-005  0.4950478E+03  0.7818608E-02  0.1015080E+00
          2   -1    0    0  501    0  0.00000000000E+00  0.00000000000E+00  0.11979149616E+04  0.11979149616E+04  0.25500000000E-02 0.  1.
         -2   -1    0    0    0  501 -0.00000000000E+00 -0.00000000000E+00 -0.51145608281E+02  0.51145608345E+02  0.25500000000E-02 0. -1.
    5000001    1    1    2    0    0 -0.14664095133E+03  0.11055069062E+03  0.61838283052E+03  0.66584333660E+03  0.16500000000E+03 0.  0.
   -5000001    1    1    2    0    0  0.14664095133E+03 -0.11055069062E+03  0.52838652278E+03  0.58321723334E+03  0.16500000000E+03 0.  0.
<mgrwt>
<rscale>  0 0.49504783E+03</rscale>
<asrwt>0</asrwt>
<pdfrwt beam="1">  1        2 0.18429462E+00 0.49504783E+03</pdfrwt>
<pdfrwt beam="2">  1       -2 0.78685546E-02 0.49504783E+03</pdfrwt>
<totfact> 0.19399568E+03</totfact>
</mgrwt>
</event>
<event>
 4    1  0.8877834E-005  0.4548786E+03  0.7818608E-02  0.1026277E+00
         -2   -1    0    0    0  501 -0.00000000000E+00  0.00000000000E+00  0.24756608543E+02  0.24756608674E+02  0.25500000000E-02 0. -1.
          2   -1    0    0  501    0  0.00000000000E+00 -0.00000000000E+00 -0.20894875457E+04  0.20894875457E+04  0.25500000000E-02 0.  1.
    5000001    1    1    2    0    0 -0.71180560321E+02 -0.12384891543E+03 -0.73481077119E+03  0.76653577573E+03  0.16500000000E+03 0.  0.
   -5000001    1    1    2    0    0  0.71180560321E+02  0.12384891543E+03 -0.13299201659E+04  0.13477083786E+04  0.16500000000E+03 0.  0.
<mgrwt>
<rscale>  0 0.45487856E+03</rscale>
<asrwt>0</asrwt>
<pdfrwt beam="1">  1        2 0.32145948E+00 0.45487856E+03</pdfrwt>
<pdfrwt beam="2">  1       -2 0.38087107E-02 0.45487856E+03</pdfrwt>
<totfact> 0.19491464E+03</totfact>
</mgrwt>
</event>
<event>
 4    1  0.8877834E-005  0.3562992E+03  0.7818608E-02  0.1060059E+00
         -2   -1    0    0    0  501 -0.00000000000E+00  0.00000000000E+00  0.14856504102E+03  0.14856504104E+03  0.25500000000E-02 0. -1.
          2   -1    0    0  501    0  0.00000000000E+00 -0.00000000000E+00 -0.21362548798E+03  0.21362548799E+03  0.25500000000E-02 0.  1.
    5000001    1    1    2    0    0 -0.39986355450E+02  0.53781590933E+02 -0.37178716626E+02  0.18193027542E+03  0.16500000000E+03 0.  0.
   -5000001    1    1    2    0    0  0.39986355450E+02 -0.53781590933E+02 -0.27881730335E+02  0.18026025361E+03  0.16500000000E+03 0.  0.
<mgrwt>
<rscale>  0 0.35629920E+03</rscale>
<asrwt>0</asrwt>
<pdfrwt beam="1">  1        2 0.32865460E-01 0.35629920E+03</pdfrwt>
<pdfrwt beam="2">  1       -2 0.22856160E-01 0.35629920E+03</pdfrwt>
<totfact> 0.26525148E+03</totfact>
</mgrwt>
</event>
<event>
 4    1  0.8877834E-005  0.5379795E+03  0.7818608E-02  0.1004315E+00
         -2   -1    0    0    0  501 -0.00000000000E+00  0.00000000000E+00  0.17118361068E+03  0.17118361070E+03  0.25500000000E-02 0. -1.
          2   -1    0    0  501    0  0.00000000000E+00 -0.00000000000E+00 -0.42267761286E+03  0.42267761286E+03  0.25500000000E-02 0.  1.
    5000001    1    1    2    0    0  0.15195372565E+03 -0.14518003039E+03 -0.91485930251E+02  0.28242140747E+03  0.16500000000E+03 0.  0.
   -5000001    1    1    2    0    0 -0.15195372565E+03  0.14518003039E+03 -0.16000807193E+03  0.31143981609E+03  0.16500000000E+03 0.  0.
<mgrwt>
<rscale>  0 0.53797948E+03</rscale>
<asrwt>0</asrwt>
<pdfrwt beam="1">  1        2 0.65027325E-01 0.53797948E+03</pdfrwt>
<pdfrwt beam="2">  1       -2 0.26335940E-01 0.53797948E+03</pdfrwt>
<totfact> 0.97657136E+02</totfact>
</mgrwt>
</event>
<event>
 4    1  0.8877834E-005  0.5227634E+03  0.7818608E-02  0.1008002E+00
         -2   -1    0    0    0  501 -0.00000000000E+00  0.00000000000E+00  0.24408780294E+02  0.24408780427E+02  0.25500000000E-02 0. -1.
          2   -1    0    0  501    0  0.00000000000E+00 -0.00000000000E+00 -0.27990090224E+04  0.27990090224E+04  0.25500000000E-02 0.  1.
    5000001    1    1    2    0    0  0.16727956172E+03  0.10763903177E+03 -0.11762630760E+04  0.12043207367E+04  0.16500000000E+03 0.  0.
   -5000001    1    1    2    0    0 -0.16727956172E+03 -0.10763903177E+03 -0.15983371661E+04  0.16190970661E+04  0.16500000000E+03 0.  0.
<mgrwt>
<rscale>  0 0.52276341E+03</rscale>
<asrwt>0</asrwt>
<pdfrwt beam="1">  1        2 0.43061652E+00 0.52276341E+03</pdfrwt>
<pdfrwt beam="2">  1       -2 0.37551992E-02 0.52276341E+03</pdfrwt>
<totfact> 0.79648404E+02</totfact>
</mgrwt>
</event>
<event>
 4    1  0.8877834E-005  0.4958671E+03  0.7818608E-02  0.1014863E+00
         -2   -1    0    0    0  501 -0.00000000000E+00  0.00000000000E+00  0.24622140965E+03  0.24622140967E+03  0.25500000000E-02 0. -1.
          2   -1    0    0  501    0  0.00000000000E+00 -0.00000000000E+00 -0.24965758678E+03  0.24965758679E+03  0.25500000000E-02 0.  1.
    5000001    1    1    2    0    0 -0.16882935067E+03 -0.69452510915E+02  0.28598345352E+02  0.24772942150E+03  0.16500000000E+03 0.  0.
   -5000001    1    1    2    0    0  0.16882935067E+03  0.69452510915E+02 -0.32034522476E+02  0.24814957495E+03  0.16500000000E+03 0.  0.
<mgrwt>
<rscale>  0 0.49586709E+03</rscale>
<asrwt>0</asrwt>
<pdfrwt beam="1">  1        2 0.38408859E-01 0.49586709E+03</pdfrwt>
<pdfrwt beam="2">  1       -2 0.37880217E-01 0.49586709E+03</pdfrwt>
<totfact> 0.88887626E+02</totfact>
</mgrwt>
</event>
<event>
 4    1  0.8877834E-005  0.3768192E+03  0.7818608E-02  0.1052116E+00
         -2   -1    0    0    0  501 -0.00000000000E+00  0.00000000000E+00  0.24765904586E+02  0.24765904717E+02  0.25500000000E-02 0. -1.
          2   -1    0    0  501    0  0.00000000000E+00 -0.00000000000E+00 -0.14333484013E+04  0.14333484013E+04  0.25500000000E-02 0.  1.
    5000001    1    1    2    0    0  0.45855829040E+02 -0.74408578478E+02 -0.60687608381E+03  0.63495115931E+03  0.16500000000E+03 0.  0.
   -5000001    1    1    2    0    0 -0.45855829040E+02  0.74408578478E+02 -0.80170641286E+03  0.82316314666E+03  0.16500000000E+03 0.  0.
<mgrwt>
<rscale>  0 0.37681916E+03</rscale>
<asrwt>0</asrwt>
<pdfrwt beam="1">  1        2 0.22051508E+00 0.37681916E+03</pdfrwt>
<pdfrwt beam="2">  1       -2 0.38101403E-02 0.37681916E+03</pdfrwt>
<totfact> 0.43956162E+03</totfact>
</mgrwt>
</event>
<event>
 4    1  0.8877834E-005  0.4611496E+03  0.7818608E-02  0.1024448E+00
         -2   -1    0    0    0  501 -0.00000000000E+00  0.00000000000E+00  0.29492565415E+03  0.29492565416E+03  0.25500000000E-02 0. -1.
          2   -1    0    0  501    0  0.00000000000E+00 -0.00000000000E+00 -0.18026484460E+03  0.18026484462E+03  0.25500000000E-02 0.  1.
    5000001    1    1    2    0    0 -0.71990069432E+02  0.12138788835E+03  0.13729565457E+03  0.25689041691E+03  0.16500000000E+03 0.  0.
   -5000001    1    1    2    0    0  0.71990069432E+02 -0.12138788835E+03 -0.22634845017E+02  0.21830008187E+03  0.16500000000E+03 0.  0.
<mgrwt>
<rscale>  0 0.46114955E+03</rscale>
<asrwt>0</asrwt>
<pdfrwt beam="1">  1        2 0.27733053E-01 0.46114955E+03</pdfrwt>
<pdfrwt beam="2">  1       -2 0.45373177E-01 0.46114955E+03</pdfrwt>
<totfact> 0.89836068E+02</totfact>
</mgrwt>
</event>
<event>
 4    1  0.8877834E-005  0.5793180E+03  0.7818608E-02  0.9949269E-01
          2   -1    0    0  501    0  0.00000000000E+00  0.00000000000E+00  0.10713463056E+03  0.10713463059E+03  0.25500000000E-02 0.  1.
         -2   -1    0    0    0  501 -0.00000000000E+00 -0.00000000000E+00 -0.78314847111E+03  0.78314847111E+03  0.25500000000E-02 0. -1.
    5000001    1    1    2    0    0 -0.11996441951E+03  0.54422832358E+02 -0.64275436548E+03  0.67654377609E+03  0.16500000000E+03 0.  0.
   -5000001    1    1    2    0    0  0.11996441951E+03 -0.54422832358E+02 -0.33259475079E+02  0.21373932561E+03  0.16500000000E+03 0.  0.
<mgrwt>
<rscale>  0 0.57931795E+03</rscale>
<asrwt>0</asrwt>
<pdfrwt beam="1">  1        2 0.16482251E-01 0.57931795E+03</pdfrwt>
<pdfrwt beam="2">  1       -2 0.12048438E+00 0.57931795E+03</pdfrwt>
<totfact> 0.19067882E+02</totfact>
</mgrwt>
</event>
<event>
 4    1  0.8877834E-005  0.1578818E+04  0.7818608E-02  0.8833667E-01
         -2   -1    0    0    0  501 -0.00000000000E+00  0.00000000000E+00  0.91540453614E+03  0.91540453615E+03  0.25500000000E-02 0. -1.
          2   -1    0    0  501    0  0.00000000000E+00 -0.00000000000E+00 -0.68075562264E+03  0.68075562265E+03  0.25500000000E-02 0.  1.
    5000001    1    1    2    0    0  0.60673259760E+03 -0.34263792347E+02  0.59862438366E+03  0.86883520024E+03  0.16500000000E+03 0.  0.
   -5000001    1    1    2    0    0 -0.60673259760E+03  0.34263792347E+02 -0.36397547016E+03  0.72732495856E+03  0.16500000000E+03 0.  0.
<mgrwt>
<rscale>  0 0.15788183E+04</rscale>
<asrwt>0</asrwt>
<pdfrwt beam="1">  1        2 0.10473163E+00 0.15788183E+04</pdfrwt>
<pdfrwt beam="2">  1       -2 0.14083147E+00 0.15788183E+04</pdfrwt>
<totfact> 0.14409882E+01</totfact>
</mgrwt>
</event>
<event>
 4    1  0.8877834E-005  0.4497359E+03  0.7818608E-02  0.1027801E+00
          2   -1    0    0  501    0  0.00000000000E+00  0.00000000000E+00  0.56447925910E+03  0.56447925910E+03  0.25500000000E-02 0.  1.
         -2   -1    0    0    0  501 -0.00000000000E+00 -0.00000000000E+00 -0.89579180307E+02  0.89579180343E+02  0.25500000000E-02 0. -1.
    5000001    1    1    2    0    0 -0.13928743129E+03  0.62271259455E+02  0.24889127769E+03  0.33533649724E+03  0.16500000000E+03 0.  0.
   -5000001    1    1    2    0    0  0.13928743129E+03 -0.62271259455E+02  0.22600880109E+03  0.31872194220E+03  0.16500000000E+03 0.  0.
<mgrwt>
<rscale>  0 0.44973588E+03</rscale>
<asrwt>0</asrwt>
<pdfrwt beam="1">  1        2 0.86842965E-01 0.44973588E+03</pdfrwt>
<pdfrwt beam="2">  1       -2 0.13781412E-01 0.44973588E+03</pdfrwt>
<totfact> 0.21469025E+03</totfact>
</mgrwt>
</event>
<event>
 4    1  0.8877834E-005  0.7890504E+03  0.7818608E-02  0.9576003E-01
         -2   -1    0    0    0  501 -0.00000000000E+00  0.00000000000E+00  0.30172346430E+03  0.30172346431E+03  0.25500000000E-02 0. -1.
          2   -1    0    0  501    0  0.00000000000E+00 -0.00000000000E+00 -0.51587019983E+03  0.51587019983E+03  0.25500000000E-02 0.  1.
    5000001    1    1    2    0    0  0.32369719847E+03  0.84120050256E+01 -0.26616746117E+03  0.45046726353E+03  0.16500000000E+03 0.  0.
   -5000001    1    1    2    0    0 -0.32369719847E+03 -0.84120050256E+01  0.52020725644E+02  0.36712640061E+03  0.16500000000E+03 0.  0.
<mgrwt>
<rscale>  0 0.78905043E+03</rscale>
<asrwt>0</asrwt>
<pdfrwt beam="1">  1        2 0.79364646E-01 0.78905043E+03</pdfrwt>
<pdfrwt beam="2">  1       -2 0.46418995E-01 0.78905043E+03</pdfrwt>
<totfact> 0.26308375E+02</totfact>
</mgrwt>
</event>
<event>
 4    1  0.8877834E-005  0.6168835E+03  0.7818608E-02  0.9870984E-01
         -2   -1    0    0    0  501 -0.00000000000E+00  0.00000000000E+00  0.36608813595E+02  0.36608813683E+02  0.25500000000E-02 0. -1.
          2   -1    0    0  501    0  0.00000000000E+00 -0.00000000000E+00 -0.25987270764E+04  0.25987270764E+04  0.25500000000E-02 0.  1.
    5000001    1    1    2    0    0 -0.20832664257E+03 -0.26565849141E+02 -0.19401908474E+04  0.19584869820E+04  0.16500000000E+03 0.  0.
   -5000001    1    1    2    0    0  0.20832664257E+03  0.26565849141E+02 -0.62192741548E+03  0.67684890816E+03  0.16500000000E+03 0.  0.
<mgrwt>
<rscale>  0 0.61688351E+03</rscale>
<asrwt>0</asrwt>
<pdfrwt beam="1">  1        2 0.39980402E+00 0.61688351E+03</pdfrwt>
<pdfrwt beam="2">  1       -2 0.56321272E-02 0.61688351E+03</pdfrwt>
<totfact> 0.55074043E+02</totfact>
</mgrwt>
</event>
<event>
 4    1  0.8877834E-005  0.3850986E+03  0.7818608E-02  0.1049065E+00
         -2   -1    0    0    0  501 -0.00000000000E+00  0.00000000000E+00  0.33896376418E+03  0.33896376419E+03  0.25500000000E-02 0. -1.
          2   -1    0    0  501    0  0.00000000000E+00 -0.00000000000E+00 -0.10937816742E+03  0.10937816745E+03  0.25500000000E-02 0.  1.
    5000001    1    1    2    0    0  0.23610776626E+01  0.98902669499E+02  0.10555771421E+03  0.21944189151E+03  0.16500000000E+03 0.  0.
   -5000001    1    1    2    0    0 -0.23610776626E+01 -0.98902669499E+02  0.12402788255E+03  0.22890004013E+03  0.16500000000E+03 0.  0.
<mgrwt>
<rscale>  0 0.38509861E+03</rscale>
<asrwt>0</asrwt>
<pdfrwt beam="1">  1        2 0.16827411E-01 0.38509861E+03</pdfrwt>
<pdfrwt beam="2">  1       -2 0.52148271E-01 0.38509861E+03</pdfrwt>
<totfact> 0.12073182E+03</totfact>
</mgrwt>
</event>
<event>
 4    1  0.8877834E-005  0.1133411E+04  0.7818608E-02  0.9173225E-01
          2   -1    0    0  501    0  0.00000000000E+00  0.00000000000E+00  0.24401090001E+04  0.24401090001E+04  0.25500000000E-02 0.  1.
         -2   -1    0    0    0  501 -0.00000000000E+00 -0.00000000000E+00 -0.13161515847E+03  0.13161515850E+03  0.25500000000E-02 0. -1.
    5000001    1    1    2    0    0 -0.51434848043E+03 -0.12333070173E+03  0.14243023731E+04  0.15282758492E+04  0.16500000000E+03 0.  0.
   -5000001    1    1    2    0    0  0.51434848043E+03  0.12333070173E+03  0.88419146852E+03  0.10434483094E+04  0.16500000000E+03 0.  0.
<mgrwt>
<rscale>  0 0.11334114E+04</rscale>
<asrwt>0</asrwt>
<pdfrwt beam="1">  1        2 0.37540141E+00 0.11334114E+04</pdfrwt>
<pdfrwt beam="2">  1       -2 0.20248485E-01 0.11334114E+04</pdfrwt>
<totfact> 0.78679544E+01</totfact>
</mgrwt>
</event>
<event>
 4    1  0.8877834E-005  0.7177609E+03  0.7818608E-02  0.9687332E-01
         -2   -1    0    0    0  501 -0.00000000000E+00  0.00000000000E+00  0.25817105092E+03  0.25817105093E+03  0.25500000000E-02 0. -1.
          2   -1    0    0  501    0  0.00000000000E+00 -0.00000000000E+00 -0.49887531544E+03  0.49887531545E+03  0.25500000000E-02 0.  1.
    5000001    1    1    2    0    0 -0.12424246197E+02  0.26692469940E+03  0.62840844511E+02  0.32027664414E+03  0.16500000000E+03 0.  0.
   -5000001    1    1    2    0    0  0.12424246197E+02 -0.26692469940E+03 -0.30354510903E+03  0.43676972224E+03  0.16500000000E+03 0.  0.
<mgrwt>
<rscale>  0 0.71776086E+03</rscale>
<asrwt>0</asrwt>
<pdfrwt beam="1">  1        2 0.76750048E-01 0.71776086E+03</pdfrwt>
<pdfrwt beam="2">  1       -2 0.39718623E-01 0.71776086E+03</pdfrwt>
<totfact> 0.37309931E+02</totfact>
</mgrwt>
</event>
<event>
 4    1  0.8877834E-005  0.4097734E+03  0.7818608E-02  0.1040447E+00
          2   -1    0    0  501    0  0.00000000000E+00  0.00000000000E+00  0.46453208488E+03  0.46453208489E+03  0.25500000000E-02 0.  1.
         -2   -1    0    0    0  501 -0.00000000000E+00 -0.00000000000E+00 -0.90367386836E+02  0.90367386872E+02  0.25500000000E-02 0. -1.
    5000001    1    1    2    0    0 -0.10370185494E+03  0.45369629276E+02  0.12742121686E+03  0.23722066622E+03  0.16500000000E+03 0.  0.
   -5000001    1    1    2    0    0  0.10370185494E+03 -0.45369629276E+02  0.24674348119E+03  0.31767880553E+03  0.16500000000E+03 0.  0.
<mgrwt>
<rscale>  0 0.40977336E+03</rscale>
<asrwt>0</asrwt>
<pdfrwt beam="1">  1        2 0.71466475E-01 0.40977336E+03</pdfrwt>
<pdfrwt beam="2">  1       -2 0.13902675E-01 0.40977336E+03</pdfrwt>
<totfact> 0.26424749E+03</totfact>
</mgrwt>
</event>
<event>
 4    1  0.8877834E-005  0.5724806E+03  0.7818608E-02  0.9964204E-01
         -2   -1    0    0    0  501 -0.00000000000E+00  0.00000000000E+00  0.52533186688E+02  0.52533186750E+02  0.25500000000E-02 0. -1.
          2   -1    0    0  501    0  0.00000000000E+00 -0.00000000000E+00 -0.15596524622E+04  0.15596524622E+04  0.25500000000E-02 0.  1.
    5000001    1    1    2    0    0 -0.20298534560E+03  0.96748535217E+02 -0.93487148946E+03  0.97558855641E+03  0.16500000000E+03 0.  0.
   -5000001    1    1    2    0    0  0.20298534560E+03 -0.96748535217E+02 -0.57224778607E+03  0.63659709256E+03  0.16500000000E+03 0.  0.
<mgrwt>
<rscale>  0 0.57248062E+03</rscale>
<asrwt>0</asrwt>
<pdfrwt beam="1">  1        2 0.23994650E+00 0.57248062E+03</pdfrwt>
<pdfrwt beam="2">  1       -2 0.80820299E-02 0.57248062E+03</pdfrwt>
<totfact> 0.11610444E+03</totfact>
</mgrwt>
</event>
<event>
 4    1  0.8877834E-005  0.4547995E+03  0.7818608E-02  0.1026300E+00
          2   -1    0    0  501    0  0.00000000000E+00  0.00000000000E+00  0.73342082370E+03  0.73342082371E+03  0.25500000000E-02 0.  1.
         -2   -1    0    0    0  501 -0.00000000000E+00 -0.00000000000E+00 -0.70506110256E+02  0.70506110302E+02  0.25500000000E-02 0. -1.
    5000001    1    1    2    0    0 -0.12580005028E+03  0.50562080254E+02  0.46955462775E+03  0.51583788640E+03  0.16500000000E+03 0.  0.
   -5000001    1    1    2    0    0  0.12580005028E+03 -0.50562080254E+02  0.19336008570E+03  0.28808904761E+03  0.16500000000E+03 0.  0.
<mgrwt>
<rscale>  0 0.45479951E+03</rscale>
<asrwt>0</asrwt>
<pdfrwt beam="1">  1        2 0.11283397E+00 0.45479951E+03</pdfrwt>
<pdfrwt beam="2">  1       -2 0.10847094E-01 0.45479951E+03</pdfrwt>
<totfact> 0.23158670E+03</totfact>
</mgrwt>
</event>
<event>
 4    1  0.8877834E-005  0.4609304E+03  0.7818608E-02  0.1024512E+00
          2   -1    0    0  501    0  0.00000000000E+00  0.00000000000E+00  0.13975369301E+03  0.13975369303E+03  0.25500000000E-02 0.  1.
         -2   -1    0    0    0  501 -0.00000000000E+00 -0.00000000000E+00 -0.38005585824E+03  0.38005585825E+03  0.25500000000E-02 0. -1.
    5000001    1    1    2    0    0 -0.99608846451E+02  0.10429722445E+03 -0.20060388650E+03  0.29709721069E+03  0.16500000000E+03 0.  0.
   -5000001    1    1    2    0    0  0.99608846451E+02 -0.10429722445E+03 -0.39698278723E+02  0.22271234059E+03  0.16500000000E+03 0.  0.
<mgrwt>
<rscale>  0 0.46093041E+03</rscale>
<asrwt>0</asrwt>
<pdfrwt beam="1">  1        2 0.21500568E-01 0.46093041E+03</pdfrwt>
<pdfrwt beam="2">  1       -2 0.58470132E-01 0.46093041E+03</pdfrwt>
<totfact> 0.71751171E+02</totfact>
</mgrwt>
</event>
<event>
 4    1  0.8877834E-005  0.4181737E+03  0.7818608E-02  0.1037662E+00
          2   -1    0    0  501    0  0.00000000000E+00  0.00000000000E+00  0.15980684490E+04  0.15980684490E+04  0.25500000000E-02 0.  1.
         -2   -1    0    0    0  501 -0.00000000000E+00 -0.00000000000E+00 -0.27356344984E+02  0.27356345103E+02  0.25500000000E-02 0. -1.
    5000001    1    1    2    0    0 -0.90886194420E+02 -0.81756948659E+02  0.93827784854E+03  0.96048676204E+03  0.16500000000E+03 0.  0.
   -5000001    1    1    2    0    0  0.90886194420E+02  0.81756948659E+02  0.63243425551E+03  0.66493803210E+03  0.16500000000E+03 0.  0.
<mgrwt>
<rscale>  0 0.41817371E+03</rscale>
<asrwt>0</asrwt>
<pdfrwt beam="1">  1        2 0.24585669E+00 0.41817371E+03</pdfrwt>
<pdfrwt beam="2">  1       -2 0.42086684E-02 0.41817371E+03</pdfrwt>
<totfact> 0.30742932E+03</totfact>
</mgrwt>
</event>
<event>
 4    1  0.8877834E-005  0.1005305E+04  0.7818608E-02  0.9302745E-01
          2   -1    0    0  501    0  0.00000000000E+00  0.00000000000E+00  0.81953668693E+03  0.81953668693E+03  0.25500000000E-02 0.  1.
         -2   -1    0    0    0  501 -0.00000000000E+00 -0.00000000000E+00 -0.30829565567E+03  0.30829565568E+03  0.25500000000E-02 0. -1.
    5000001    1    1    2    0    0 -0.41974137351E+03 -0.75380848138E+02  0.21446894730E+02  0.45776638386E+03  0.16500000000E+03 0.  0.
   -5000001    1    1    2    0    0  0.41974137351E+03  0.75380848138E+02  0.48979413653E+03  0.67006595875E+03  0.16500000000E+03 0.  0.
<mgrwt>
<rscale>  0 0.10053051E+04</rscale>
<asrwt>0</asrwt>
<pdfrwt beam="1">  1        2 0.12608257E+00 0.10053051E+04</pdfrwt>
<pdfrwt beam="2">  1       -2 0.47430102E-01 0.10053051E+04</pdfrwt>
<totfact> 0.14020567E+02</totfact>
</mgrwt>
</event>
<event>
 4    1  0.8877834E-005  0.5151581E+03  0.7818608E-02  0.1009896E+00
          2   -1    0    0  501    0  0.00000000000E+00  0.00000000000E+00  0.10554027607E+04  0.10554027607E+04  0.25500000000E-02 0.  1.
         -2   -1    0    0    0  501 -0.00000000000E+00 -0.00000000000E+00 -0.62864128306E+02  0.62864128357E+02  0.25500000000E-02 0. -1.
    5000001    1    1    2    0    0 -0.78705537262E+02  0.18104724529E+03  0.52279376701E+03  0.58267571551E+03  0.16500000000E+03 0.  0.
   -5000001    1    1    2    0    0  0.78705537262E+02 -0.18104724529E+03  0.46974486534E+03  0.53559117351E+03  0.16500000000E+03 0.  0.
<mgrwt>
<rscale>  0 0.51515813E+03</rscale>
<asrwt>0</asrwt>
<pdfrwt beam="1">  1        2 0.16236963E+00 0.51515813E+03</pdfrwt>
<pdfrwt beam="2">  1       -2 0.96714057E-02 0.51515813E+03</pdfrwt>
<totfact> 0.16967025E+03</totfact>
</mgrwt>
</event>
<event>
 4    1  0.8877834E-005  0.5973230E+03  0.7818608E-02  0.9910976E-01
         -2   -1    0    0    0  501 -0.00000000000E+00  0.00000000000E+00  0.93323622504E+02  0.93323622539E+02  0.25500000000E-02 0. -1.
          2   -1    0    0  501    0  0.00000000000E+00 -0.00000000000E+00 -0.95579963628E+03  0.95579963628E+03  0.25500000000E-02 0.  1.
    5000001    1    1    2    0    0 -0.10415920561E+03  0.76204457210E+02 -0.80513322224E+03  0.83193795740E+03  0.16500000000E+03 0.  0.
   -5000001    1    1    2    0    0  0.10415920561E+03 -0.76204457210E+02 -0.57342791534E+02  0.21718530142E+03  0.16500000000E+03 0.  0.
<mgrwt>
<rscale>  0 0.59732298E+03</rscale>
<asrwt>0</asrwt>
<pdfrwt beam="1">  1        2 0.14704609E+00 0.59732298E+03</pdfrwt>
<pdfrwt beam="2">  1       -2 0.14357481E-01 0.59732298E+03</pdfrwt>
<totfact> 0.10226815E+03</totfact>
</mgrwt>
</event>
<event>
 4    1  0.8877834E-005  0.3861990E+03  0.7818608E-02  0.1048666E+00
          2   -1    0    0  501    0  0.00000000000E+00  0.00000000000E+00  0.26634914555E+03  0.26634914556E+03  0.25500000000E-02 0.  1.
         -2   -1    0    0    0  501 -0.00000000000E+00 -0.00000000000E+00 -0.13999449663E+03  0.13999449666E+03  0.25500000000E-02 0. -1.
    5000001    1    1    2    0    0  0.58276099610E+02  0.50967931301E+02 -0.39352360069E+01  0.18230282469E+03  0.16500000000E+03 0.  0.
   -5000001    1    1    2    0    0 -0.58276099610E+02 -0.50967931301E+02  0.13028988492E+03  0.22404081753E+03  0.16500000000E+03 0.  0.
<mgrwt>
<rscale>  0 0.38619899E+03</rscale>
<asrwt>0</asrwt>
<pdfrwt beam="1">  1        2 0.40976791E-01 0.38619899E+03</pdfrwt>
<pdfrwt beam="2">  1       -2 0.21537615E-01 0.38619899E+03</pdfrwt>
<totfact> 0.23145263E+03</totfact>
</mgrwt>
</event>
<event>
 4    1  0.8877834E-005  0.3672910E+03  0.7818608E-02  0.1055734E+00
          2   -1    0    0  501    0  0.00000000000E+00  0.00000000000E+00  0.75630690196E+03  0.75630690196E+03  0.25500000000E-02 0.  1.
         -2   -1    0    0    0  501 -0.00000000000E+00 -0.00000000000E+00 -0.44592582771E+02  0.44592582844E+02  0.25500000000E-02 0. -1.
    5000001    1    1    2    0    0 -0.49146587692E+02 -0.44697485131E+02  0.25623104191E+03  0.31191761589E+03  0.16500000000E+03 0.  0.
   -5000001    1    1    2    0    0  0.49146587692E+02  0.44697485131E+02  0.45548327727E+03  0.48898186892E+03  0.16500000000E+03 0.  0.
<mgrwt>
<rscale>  0 0.36729105E+03</rscale>
<asrwt>0</asrwt>
<pdfrwt beam="1">  1        2 0.11635489E+00 0.36729105E+03</pdfrwt>
<pdfrwt beam="2">  1       -2 0.68603982E-02 0.36729105E+03</pdfrwt>
<totfact> 0.46036306E+03</totfact>
</mgrwt>
</event>
<event>
 4    1  0.8877834E-005  0.3962104E+03  0.7818608E-02  0.1045100E+00
          2   -1    0    0  501    0  0.00000000000E+00  0.00000000000E+00  0.12517308211E+04  0.12517308211E+04  0.25500000000E-02 0.  1.
         -2   -1    0    0    0  501 -0.00000000000E+00 -0.00000000000E+00 -0.31353126976E+02  0.31353127080E+02  0.25500000000E-02 0. -1.
    5000001    1    1    2    0    0 -0.62618524643E+02  0.74935702643E+02  0.44878063664E+03  0.48802202715E+03  0.16500000000E+03 0.  0.
   -5000001    1    1    2    0    0  0.62618524643E+02 -0.74935702643E+02  0.77159705747E+03  0.79506192102E+03  0.16500000000E+03 0.  0.
<mgrwt>
<rscale>  0 0.39621043E+03</rscale>
<asrwt>0</asrwt>
<pdfrwt beam="1">  1        2 0.19257395E+00 0.39621043E+03</pdfrwt>
<pdfrwt beam="2">  1       -2 0.48235586E-02 0.39621043E+03</pdfrwt>
<totfact> 0.38745466E+03</totfact>
</mgrwt>
</event>
<event>
 4    1  0.8877834E-005  0.3718076E+03  0.7818608E-02  0.1054004E+00
         -2   -1    0    0    0  501 -0.00000000000E+00  0.00000000000E+00  0.22831904779E+02  0.22831904921E+02  0.25500000000E-02 0. -1.
          2   -1    0    0  501    0  0.00000000000E+00 -0.00000000000E+00 -0.15136807066E+04  0.15136807066E+04  0.25500000000E-02 0.  1.
    5000001    1    1    2    0    0 -0.40165438088E+02  0.73859481569E+02 -0.81291644495E+03  0.83374254533E+03  0.16500000000E+03 0.  0.
   -5000001    1    1    2    0    0  0.40165438088E+02 -0.73859481569E+02 -0.67793235687E+03  0.70277006619E+03  0.16500000000E+03 0.  0.
<mgrwt>
<rscale>  0 0.37180755E+03</rscale>
<asrwt>0</asrwt>
<pdfrwt beam="1">  1        2 0.23287388E+00 0.37180755E+03</pdfrwt>
<pdfrwt beam="2">  1       -2 0.35126019E-02 0.37180755E+03</pdfrwt>
<totfact> 0.44947272E+03</totfact>
</mgrwt>
</event>
<event>
 4    1  0.8877834E-005  0.4225747E+03  0.7818608E-02  0.1036232E+00
          2   -1    0    0  501    0  0.00000000000E+00  0.00000000000E+00  0.24154391328E+04  0.24154391328E+04  0.25500000000E-02 0.  1.
         -2   -1    0    0    0  501 -0.00000000000E+00 -0.00000000000E+00 -0.18482086260E+02  0.18482086436E+02  0.25500000000E-02 0. -1.
    5000001    1    1    2    0    0 -0.46271295105E+02  0.82920711653E+02  0.67057451441E+03  0.69707392474E+03  0.16500000000E+03 0.  0.
   -5000001    1    1    2    0    0  0.46271295105E+02 -0.82920711653E+02  0.17263825322E+04  0.17368472945E+04  0.16500000000E+03 0.  0.
<mgrwt>
<rscale>  0 0.42257475E+03</rscale>
<asrwt>0</asrwt>
<pdfrwt beam="1">  1        2 0.37160594E+00 0.42257475E+03</pdfrwt>
<pdfrwt beam="2">  1       -2 0.28433985E-02 0.42257475E+03</pdfrwt>
<totfact> 0.20211341E+03</totfact>
</mgrwt>
</event>
<event>
 4    1  0.8877834E-005  0.9056663E+03  0.7818608E-02  0.9418526E-01
          2   -1    0    0  501    0  0.00000000000E+00  0.00000000000E+00  0.54438700042E+03  0.54438700042E+03  0.25500000000E-02 0.  1.
         -2   -1    0    0    0  501 -0.00000000000E+00 -0.00000000000E+00 -0.37667660294E+03  0.37667660295E+03  0.25500000000E-02 0. -1.
    5000001    1    1    2    0    0 -0.15827430478E+03 -0.20633865698E+03  0.42147268704E+03  0.52200634367E+03  0.16500000000E+03 0.  0.
   -5000001    1    1    2    0    0  0.15827430478E+03  0.20633865698E+03 -0.25376228956E+03  0.39905725970E+03  0.16500000000E+03 0.  0.
<mgrwt>
<rscale>  0 0.90566627E+03</rscale>
<asrwt>0</asrwt>
<pdfrwt beam="1">  1        2 0.83751846E-01 0.90566627E+03</pdfrwt>
<pdfrwt beam="2">  1       -2 0.57950247E-01 0.90566627E+03</pdfrwt>
<totfact> 0.15585778E+02</totfact>
</mgrwt>
</event>
<event>
 4    1  0.8877834E-005  0.3495836E+03  0.7818608E-02  0.1062786E+00
          2   -1    0    0  501    0  0.00000000000E+00  0.00000000000E+00  0.25171525604E+03  0.25171525605E+03  0.25500000000E-02 0.  1.
         -2   -1    0    0    0  501 -0.00000000000E+00 -0.00000000000E+00 -0.12137595411E+03  0.12137595414E+03  0.25500000000E-02 0. -1.
    5000001    1    1    2    0    0  0.22820774747E+02 -0.52295725296E+02  0.56142205222E+02  0.18339186964E+03  0.16500000000E+03 0.  0.
   -5000001    1    1    2    0    0 -0.22820774747E+02  0.52295725296E+02  0.74197096704E+02  0.18969934055E+03  0.16500000000E+03 0.  0.
<mgrwt>
<rscale>  0 0.34958363E+03</rscale>
<asrwt>0</asrwt>
<pdfrwt beam="1">  1        2 0.38725424E-01 0.34958363E+03</pdfrwt>
<pdfrwt beam="2">  1       -2 0.18673224E-01 0.34958363E+03</pdfrwt>
<totfact> 0.31425031E+03</totfact>
</mgrwt>
</event>
<event>
 4    1  0.8877834E-005  0.1031592E+04  0.7818608E-02  0.9274558E-01
         -2   -1    0    0    0  501 -0.00000000000E+00  0.00000000000E+00  0.28320186781E+03  0.28320186782E+03  0.25500000000E-02 0. -1.
          2   -1    0    0  501    0  0.00000000000E+00 -0.00000000000E+00 -0.93941967434E+03  0.93941967435E+03  0.25500000000E-02 0.  1.
    5000001    1    1    2    0    0 -0.15792077954E+03  0.41402163719E+03 -0.83871258032E+02  0.48022107055E+03  0.16500000000E+03 0.  0.
   -5000001    1    1    2    0    0  0.15792077954E+03 -0.41402163719E+03 -0.57234654850E+03  0.74240047162E+03  0.16500000000E+03 0.  0.
<mgrwt>
<rscale>  0 0.10315918E+04</rscale>
<asrwt>0</asrwt>
<pdfrwt beam="1">  1        2 0.14452610E+00 0.10315918E+04</pdfrwt>
<pdfrwt beam="2">  1       -2 0.43569518E-01 0.10315918E+04</pdfrwt>
<totfact> 0.13729560E+02</totfact>
</mgrwt>
</event>
<event>
 4    1  0.8877834E-005  0.4383768E+03  0.7818608E-02  0.1031246E+00
          2   -1    0    0  501    0  0.00000000000E+00  0.00000000000E+00  0.56180331715E+04  0.56180331715E+04  0.25500000000E-02 0.  1.
         -2   -1    0    0    0  501 -0.00000000000E+00 -0.00000000000E+00 -0.85516684931E+01  0.85516688733E+01  0.25500000000E-02 0. -1.
    5000001    1    1    2    0    0 -0.53070621953E+02  0.11105182452E+03  0.18383072881E+04  0.18497966602E+04  0.16500000000E+03 0.  0.
   -5000001    1    1    2    0    0  0.53070621953E+02 -0.11105182452E+03  0.37711742149E+04  0.37767881802E+04  0.16500000000E+03 0.  0.
<mgrwt>
<rscale>  0 0.43837682E+03</rscale>
<asrwt>0</asrwt>
<pdfrwt beam="1">  1        2 0.86431335E+00 0.43837682E+03</pdfrwt>
<pdfrwt beam="2">  1       -2 0.13156405E-02 0.43837682E+03</pdfrwt>
<totfact> 0.76278272E+00</totfact>
</mgrwt>
</event>
<event>
 4    1  0.8877834E-005  0.4973999E+03  0.7818608E-02  0.1014460E+00
         -2   -1    0    0    0  501 -0.00000000000E+00  0.00000000000E+00  0.30856707281E+02  0.30856707387E+02  0.25500000000E-02 0. -1.
          2   -1    0    0  501    0  0.00000000000E+00 -0.00000000000E+00 -0.20044803479E+04  0.20044803479E+04  0.25500000000E-02 0.  1.
    5000001    1    1    2    0    0  0.91205380006E+02  0.15072187205E+03 -0.12320273624E+04  0.12554488941E+04  0.16500000000E+03 0.  0.
   -5000001    1    1    2    0    0 -0.91205380006E+02 -0.15072187205E+03 -0.74159627819E+03  0.77988816114E+03  0.16500000000E+03 0.  0.
<mgrwt>
<rscale>  0 0.49739989E+03</rscale>
<asrwt>0</asrwt>
<pdfrwt beam="1">  1        2 0.30838149E+00 0.49739989E+03</pdfrwt>
<pdfrwt beam="2">  1       -2 0.47471873E-02 0.49739989E+03</pdfrwt>
<totfact> 0.15416329E+03</totfact>
</mgrwt>
</event>
<event>
 4    1  0.8877834E-005  0.1037702E+04  0.7818608E-02  0.9268134E-01
          2   -1    0    0  501    0  0.00000000000E+00  0.00000000000E+00  0.33763116744E+04  0.33763116744E+04  0.25500000000E-02 0.  1.
         -2   -1    0    0    0  501 -0.00000000000E+00 -0.00000000000E+00 -0.79733854246E+02  0.79733854287E+02  0.25500000000E-02 0. -1.
    5000001    1    1    2    0    0  0.71565058619E+01  0.26616275288E+03  0.27071161524E+03  0.41400918495E+03  0.16500000000E+03 0.  0.
   -5000001    1    1    2    0    0 -0.71565058619E+01 -0.26616275288E+03  0.30258662049E+04  0.30420363437E+04  0.16500000000E+03 0.  0.
<mgrwt>
<rscale>  0 0.10377020E+04</rscale>
<asrwt>0</asrwt>
<pdfrwt beam="1">  1        2 0.51943265E+00 0.10377020E+04</pdfrwt>
<pdfrwt beam="2">  1       -2 0.12266745E-01 0.10377020E+04</pdfrwt>
<totfact> 0.50098304E+01</totfact>
</mgrwt>
</event>
<event>
 4    1  0.8877834E-005  0.4186354E+03  0.7818608E-02  0.1037511E+00
         -2   -1    0    0    0  501 -0.00000000000E+00  0.00000000000E+00  0.16884653317E+03  0.16884653319E+03  0.25500000000E-02 0. -1.
          2   -1    0    0  501    0  0.00000000000E+00 -0.00000000000E+00 -0.25948947926E+03  0.25948947928E+03  0.25500000000E-02 0.  1.
    5000001    1    1    2    0    0 -0.47149230859E+02  0.11957077837E+03 -0.53800721263E+02  0.21596235464E+03  0.16500000000E+03 0.  0.
   -5000001    1    1    2    0    0  0.47149230859E+02 -0.11957077837E+03 -0.36842224827E+02  0.21237365783E+03  0.16500000000E+03 0.  0.
<mgrwt>
<rscale>  0 0.41863540E+03</rscale>
<asrwt>0</asrwt>
<pdfrwt beam="1">  1        2 0.39921458E-01 0.41863540E+03</pdfrwt>
<pdfrwt beam="2">  1       -2 0.25976390E-01 0.41863540E+03</pdfrwt>
<totfact> 0.17119785E+03</totfact>
</mgrwt>
</event>
<event>
 4    1  0.8877834E-005  0.6953403E+03  0.7818608E-02  0.9725234E-01
          2   -1    0    0  501    0  0.00000000000E+00  0.00000000000E+00  0.49780285283E+03  0.49780285284E+03  0.25500000000E-02 0. -1.
         -2   -1    0    0    0  501 -0.00000000000E+00 -0.00000000000E+00 -0.24281605397E+03  0.24281605398E+03  0.25500000000E-02 0.  1.
    5000001    1    1    2    0    0 -0.21390823291E+03  0.20221781547E+03  0.21661225758E+03  0.40099207864E+03  0.16500000000E+03 0.  0.
   -5000001    1    1    2    0    0  0.21390823291E+03 -0.20221781547E+03  0.38374541285E+02  0.33962682818E+03  0.16500000000E+03 0.  0.
<mgrwt>
<rscale>  0 0.69534027E+03</rscale>
<asrwt>0</asrwt>
<pdfrwt beam="1">  1        2 0.76585053E-01 0.69534027E+03</pdfrwt>
<pdfrwt beam="2">  1       -2 0.37356317E-01 0.69534027E+03</pdfrwt>
<totfact> 0.42140314E+02</totfact>
</mgrwt>
</event>
<event>
 4    1  0.8877834E-005  0.5558031E+03  0.7818608E-02  0.1000160E+00
         -2   -1    0    0    0  501 -0.00000000000E+00  0.00000000000E+00  0.69483510452E+02  0.69483510499E+02  0.25500000000E-02 0. -1.
          2   -1    0    0  501    0  0.00000000000E+00 -0.00000000000E+00 -0.11114763697E+04  0.11114763697E+04  0.25500000000E-02 0.  1.
    5000001    1    1    2    0    0 -0.20655838512E+03  0.41478091848E+02 -0.36174439947E+03  0.44996756451E+03  0.16500000000E+03 0.  0.
   -5000001    1    1    2    0    0  0.20655838512E+03 -0.41478091848E+02 -0.68024845977E+03  0.73099231568E+03  0.16500000000E+03 0.  0.
<mgrwt>
<rscale>  0 0.55580313E+03</rscale>
<asrwt>0</asrwt>
<pdfrwt beam="1">  1        2 0.17099635E+00 0.55580313E+03</pdfrwt>
<pdfrwt beam="2">  1       -2 0.10689772E-01 0.55580313E+03</pdfrwt>
<totfact> 0.13325924E+03</totfact>
</mgrwt>
</event>
<event>
 4    1  0.8877834E-005  0.4038894E+03  0.7818608E-02  0.1042441E+00
          2   -1    0    0  501    0  0.00000000000E+00  0.00000000000E+00  0.18581648969E+03  0.18581648971E+03  0.25500000000E-02 0.  1.
         -2   -1    0    0    0  501 -0.00000000000E+00 -0.00000000000E+00 -0.21947277408E+03  0.21947277409E+03  0.25500000000E-02 0. -1.
    5000001    1    1    2    0    0 -0.79312242293E+02 -0.77431421748E+02 -0.52597216033E+02  0.20561498969E+03  0.16500000000E+03 0.  0.
   -5000001    1    1    2    0    0  0.79312242293E+02  0.77431421748E+02  0.18940931647E+02  0.19967427411E+03  0.16500000000E+03 0.  0.
<mgrwt>
<rscale>  0 0.40388939E+03</rscale>
<asrwt>0</asrwt>
<pdfrwt beam="1">  1        2 0.28587152E-01 0.40388939E+03</pdfrwt>
<pdfrwt beam="2">  1       -2 0.33765042E-01 0.40388939E+03</pdfrwt>
<totfact> 0.15313119E+03</totfact>
</mgrwt>
</event>
<event>
 4    1  0.8877834E-005  0.4149596E+03  0.7818608E-02  0.1038719E+00
         -2   -1    0    0    0  501 -0.00000000000E+00  0.00000000000E+00  0.22964570707E+02  0.22964570848E+02  0.25500000000E-02 0. -1.
          2   -1    0    0  501    0  0.00000000000E+00 -0.00000000000E+00 -0.18745343315E+04  0.18745343315E+04  0.25500000000E-02 0.  1.
    5000001    1    1    2    0    0  0.60633275730E+02  0.97983410563E+02 -0.11565032306E+04  0.11738832418E+04  0.16500000000E+03 0.  0.
   -5000001    1    1    2    0    0 -0.60633275730E+02 -0.97983410563E+02 -0.69506653018E+03  0.72361566059E+03  0.16500000000E+03 0.  0.
<mgrwt>
<rscale>  0 0.41495964E+03</rscale>
<asrwt>0</asrwt>
<pdfrwt beam="1">  1        2 0.28838978E+00 0.41495964E+03</pdfrwt>
<pdfrwt beam="2">  1       -2 0.35330124E-02 0.41495964E+03</pdfrwt>
<totfact> 0.28531143E+03</totfact>
</mgrwt>
</event>
<event>
 4    1  0.8877834E-005  0.4679751E+03  0.7818608E-02  0.1022493E+00
         -2   -1    0    0    0  501 -0.00000000000E+00  0.00000000000E+00  0.27965633910E+02  0.27965634027E+02  0.25500000000E-02 0. -1.
          2   -1    0    0  501    0  0.00000000000E+00 -0.00000000000E+00 -0.19577660277E+04  0.19577660277E+04  0.25500000000E-02 0.  1.
    5000001    1    1    2    0    0 -0.12148947028E+03  0.11199993197E+03 -0.90174969030E+03  0.93149405801E+03  0.16500000000E+03 0.  0.
   -5000001    1    1    2    0    0  0.12148947028E+03 -0.11199993197E+03 -0.10280507035E+04  0.10542376037E+04  0.16500000000E+03 0.  0.
<mgrwt>
<rscale>  0 0.46797508E+03</rscale>
<asrwt>0</asrwt>
<pdfrwt beam="1">  1        2 0.30119467E+00 0.46797508E+03</pdfrwt>
<pdfrwt beam="2">  1       -2 0.43024068E-02 0.46797508E+03</pdfrwt>
<totfact> 0.19030278E+03</totfact>
</mgrwt>
</event>
<event>
 4    1  0.8877834E-005  0.4968857E+03  0.7818608E-02  0.1014595E+00
          2   -1    0    0  501    0  0.00000000000E+00  0.00000000000E+00  0.31645945149E+04  0.31645945149E+04  0.25500000000E-02 0.  1.
         -2   -1    0    0    0  501 -0.00000000000E+00 -0.00000000000E+00 -0.19504507240E+02  0.19504507407E+02  0.25500000000E-02 0. -1.
    5000001    1    1    2    0    0  0.96257404679E+02 -0.15179892085E+03  0.18724594362E+04  0.18882896337E+04  0.16500000000E+03 0.  0.
   -5000001    1    1    2    0    0 -0.96257404679E+02  0.15179892085E+03  0.12726305715E+04  0.12958093887E+04  0.16500000000E+03 0.  0.
<mgrwt>
<rscale>  0 0.49688573E+03</rscale>
<asrwt>0</asrwt>
<pdfrwt beam="1">  1        2 0.48686062E+00 0.49688573E+03</pdfrwt>
<pdfrwt beam="2">  1       -2 0.30006939E-02 0.49688573E+03</pdfrwt>
<totfact> 0.67599492E+02</totfact>
</mgrwt>
</event>
<event>
 4    1  0.8877834E-005  0.4845854E+03  0.7818608E-02  0.1017883E+00
          2   -1    0    0  501    0  0.00000000000E+00  0.00000000000E+00  0.68684329423E+03  0.68684329423E+03  0.25500000000E-02 0.  1.
         -2   -1    0    0    0  501 -0.00000000000E+00 -0.00000000000E+00 -0.85471821435E+02  0.85471821473E+02  0.25500000000E-02 0. -1.
    5000001    1    1    2    0    0  0.11898174659E+03 -0.83867180009E+02  0.13901176998E+03  0.26026838475E+03  0.16500000000E+03 0.  0.
   -5000001    1    1    2    0    0 -0.11898174659E+03  0.83867180009E+02  0.46235970281E+03  0.51204673096E+03  0.16500000000E+03 0.  0.
<mgrwt>
<rscale>  0 0.48458538E+03</rscale>
<asrwt>0</asrwt>
<pdfrwt beam="1">  1        2 0.10566820E+00 0.48458538E+03</pdfrwt>
<pdfrwt beam="2">  1       -2 0.13149511E-01 0.48458538E+03</pdfrwt>
<totfact> 0.18342753E+03</totfact>
</mgrwt>
</event>
<event>
 4    1  0.8877834E-005  0.5034290E+03  0.7818608E-02  0.1012888E+00
          2   -1    0    0  501    0  0.00000000000E+00  0.00000000000E+00  0.15208099427E+04  0.15208099427E+04  0.25500000000E-02 0.  1.
         -2   -1    0    0    0  501 -0.00000000000E+00 -0.00000000000E+00 -0.41662133077E+02  0.41662133155E+02  0.25500000000E-02 0. -1.
    5000001    1    1    2    0    0 -0.10759104391E+03 -0.13045917233E+03  0.47007764220E+03  0.52611160230E+03  0.16500000000E+03 0.  0.
   -5000001    1    1    2    0    0  0.10759104391E+03  0.13045917233E+03  0.10090701674E+04  0.10363604735E+04  0.16500000000E+03 0.  0.
<mgrwt>
<rscale>  0 0.50342899E+03</rscale>
<asrwt>0</asrwt>
<pdfrwt beam="1">  1        2 0.23397071E+00 0.50342899E+03</pdfrwt>
<pdfrwt beam="2">  1       -2 0.64095604E-02 0.50342899E+03</pdfrwt>
<totfact> 0.17636463E+03</totfact>
</mgrwt>
</event>
<event>
 4    1  0.8877834E-005  0.4679357E+03  0.7818608E-02  0.1022504E+00
         -2   -1    0    0    0  501 -0.00000000000E+00  0.00000000000E+00  0.48026952170E+02  0.48026952238E+02  0.25500000000E-02 0. -1.
          2   -1    0    0  501    0  0.00000000000E+00 -0.00000000000E+00 -0.11397963392E+04  0.11397963392E+04  0.25500000000E-02 0.  1.
    5000001    1    1    2    0    0  0.16435729848E+02  0.16327521190E+03 -0.48438247698E+03  0.53738283565E+03  0.16500000000E+03 0.  0.
   -5000001    1    1    2    0    0 -0.16435729848E+02 -0.16327521190E+03 -0.60738691002E+03  0.65044045577E+03  0.16500000000E+03 0.  0.
<mgrwt>
<rscale>  0 0.46793566E+03</rscale>
<asrwt>0</asrwt>
<pdfrwt beam="1">  1        2 0.17535326E+00 0.46793566E+03</pdfrwt>
<pdfrwt beam="2">  1       -2 0.73887627E-02 0.46793566E+03</pdfrwt>
<totfact> 0.23191089E+03</totfact>
</mgrwt>
</event>
<event>
 4    1  0.8877834E-005  0.5125202E+03  0.7818608E-02  0.1010562E+00
         -2   -1    0    0    0  501 -0.00000000000E+00  0.00000000000E+00  0.70812964376E+02  0.70812964422E+02  0.25500000000E-02 0. -1.
          2   -1    0    0  501    0  0.00000000000E+00 -0.00000000000E+00 -0.92736186683E+03  0.92736186683E+03  0.25500000000E-02 0.  1.
    5000001    1    1    2    0    0 -0.11640773743E+03  0.15230394061E+03 -0.50850419601E+03  0.56793377169E+03  0.16500000000E+03 0.  0.
   -5000001    1    1    2    0    0  0.11640773743E+03 -0.15230394061E+03 -0.34804470644E+03  0.43024105957E+03  0.16500000000E+03 0.  0.
<mgrwt>
<rscale>  0 0.51252022E+03</rscale>
<asrwt>0</asrwt>
<pdfrwt beam="1">  1        2 0.14267105E+00 0.51252022E+03</pdfrwt>
<pdfrwt beam="2">  1       -2 0.10894303E-01 0.51252022E+03</pdfrwt>
<totfact> 0.16860214E+03</totfact>
</mgrwt>
</event>
<event>
 4    1  0.8877834E-005  0.8511738E+03  0.7818608E-02  0.9488763E-01
          2   -1    0    0  501    0  0.00000000000E+00  0.00000000000E+00  0.18228197284E+04  0.18228197284E+04  0.25500000000E-02 0.  1.
         -2   -1    0    0    0  501 -0.00000000000E+00 -0.00000000000E+00 -0.99364847586E+02  0.99364847618E+02  0.25500000000E-02 0. -1.
    5000001    1    1    2    0    0 -0.22946073578E+03 -0.23135711837E+03  0.36840488406E+03  0.51877307571E+03  0.16500000000E+03 0.  0.
   -5000001    1    1    2    0    0  0.22946073578E+03  0.23135711837E+03  0.13550499967E+04  0.14034115003E+04  0.16500000000E+03 0.  0.
<mgrwt>
<rscale>  0 0.85117379E+03</rscale>
<asrwt>0</asrwt>
<pdfrwt beam="1">  1        2 0.28043380E+00 0.85117379E+03</pdfrwt>
<pdfrwt beam="2">  1       -2 0.15286900E-01 0.85117379E+03</pdfrwt>
<totfact> 0.28777731E+02</totfact>
</mgrwt>
</event>
<event>
 4    1  0.8877834E-005  0.4609136E+03  0.7818608E-02  0.1024517E+00
         -2   -1    0    0    0  501 -0.00000000000E+00  0.00000000000E+00  0.65301246636E+03  0.65301246636E+03  0.25500000000E-02 0. -1.
          2   -1    0    0  501    0  0.00000000000E+00 -0.00000000000E+00 -0.81331284831E+02  0.81331284871E+02  0.25500000000E-02 0.  1.
    5000001    1    1    2    0    0  0.12316201043E+03 -0.10224419255E+03  0.31165823578E+03  0.38727072140E+03  0.16500000000E+03 0.  0.
   -5000001    1    1    2    0    0 -0.12316201043E+03  0.10224419255E+03  0.26002294574E+03  0.34707302983E+03  0.16500000000E+03 0.  0.
<mgrwt>
<rscale>  0 0.46091363E+03</rscale>
<asrwt>0</asrwt>
<pdfrwt beam="1">  1        2 0.12512505E-01 0.46091363E+03</pdfrwt>
<pdfrwt beam="2">  1       -2 0.10046346E+00 0.46091363E+03</pdfrwt>
<totfact> 0.41365316E+02</totfact>
</mgrwt>
</event>
<event>
 4    1  0.8877834E-005  0.7145337E+03  0.7818608E-02  0.9692695E-01
          2   -1    0    0  501    0  0.00000000000E+00  0.00000000000E+00  0.10584231157E+04  0.10584231157E+04  0.25500000000E-02 0.  1.
         -2   -1    0    0    0  501 -0.00000000000E+00 -0.00000000000E+00 -0.12059413000E+03  0.12059413003E+03  0.25500000000E-02 0. -1.
    5000001    1    1    2    0    0 -0.25809942771E+03  0.12365283324E+03  0.24442700090E+03  0.41094390921E+03  0.16500000000E+03 0.  0.
   -5000001    1    1    2    0    0  0.25809942771E+03 -0.12365283324E+03  0.69340198484E+03  0.76807333656E+03  0.16500000000E+03 0.  0.
<mgrwt>
<rscale>  0 0.71453374E+03</rscale>
<asrwt>0</asrwt>
<pdfrwt beam="1">  1        2 0.16283432E+00 0.71453374E+03</pdfrwt>
<pdfrwt beam="2">  1       -2 0.18552944E-01 0.71453374E+03</pdfrwt>
<totfact> 0.56676320E+02</totfact>
</mgrwt>
</event>
<event>
 4    1  0.8877834E-005  0.5021204E+03  0.7818608E-02  0.1013227E+00
          2   -1    0    0  501    0  0.00000000000E+00  0.00000000000E+00  0.14481093485E+04  0.14481093485E+04  0.25500000000E-02 0.  1.
         -2   -1    0    0    0  501 -0.00000000000E+00 -0.00000000000E+00 -0.43526558788E+02  0.43526558863E+02  0.25500000000E-02 0. -1.
    5000001    1    1    2    0    0 -0.15979407809E+03  0.95768099691E+02  0.80084170388E+03  0.83861678435E+03  0.16500000000E+03 0.  0.
   -5000001    1    1    2    0    0  0.15979407809E+03 -0.95768099691E+02  0.60374108582E+03  0.65301912301E+03  0.16500000000E+03 0.  0.
<mgrwt>
<rscale>  0 0.50212037E+03</rscale>
<asrwt>0</asrwt>
<pdfrwt beam="1">  1        2 0.22278607E+00 0.50212037E+03</pdfrwt>
<pdfrwt beam="2">  1       -2 0.66963930E-02 0.50212037E+03</pdfrwt>
<totfact> 0.18055292E+03</totfact>
</mgrwt>
</event>
<event>
 4    1  0.8877834E-005  0.5327080E+03  0.7818608E-02  0.1005578E+00
          2   -1    0    0  501    0  0.00000000000E+00  0.00000000000E+00  0.33510199056E+03  0.33510199057E+03  0.25500000000E-02 0.  1.
         -2   -1    0    0    0  501 -0.00000000000E+00 -0.00000000000E+00 -0.21171001344E+03  0.21171001345E+03  0.25500000000E-02 0. -1.
    5000001    1    1    2    0    0  0.17066211355E+03  0.84046702496E+02  0.15076928643E+03  0.29350601857E+03  0.16500000000E+03 0.  0.
   -5000001    1    1    2    0    0 -0.17066211355E+03 -0.84046702496E+02 -0.27377309304E+02  0.25330598546E+03  0.16500000000E+03 0.  0.
<mgrwt>
<rscale>  0 0.53270798E+03</rscale>
<asrwt>0</asrwt>
<pdfrwt beam="1">  1        2 0.51554152E-01 0.53270798E+03</pdfrwt>
<pdfrwt beam="2">  1       -2 0.32570772E-01 0.53270798E+03</pdfrwt>
<totfact> 0.85539483E+02</totfact>
</mgrwt>
</event>
<event>
 4    1  0.8877834E-005  0.8402393E+03  0.7818608E-02  0.9503532E-01
          2   -1    0    0  501    0  0.00000000000E+00  0.00000000000E+00  0.32132624790E+03  0.32132624791E+03  0.25500000000E-02 0. -1.
         -2   -1    0    0    0  501 -0.00000000000E+00 -0.00000000000E+00 -0.54928760755E+03  0.54928760756E+03  0.25500000000E-02 0.  1.
    5000001    1    1    2    0    0 -0.10281203850E+02 -0.38281041461E+03 -0.60883591734E+02  0.42140399669E+03  0.16500000000E+03 0.  0.
   -5000001    1    1    2    0    0  0.10281203850E+02  0.38281041461E+03 -0.16707776792E+03  0.44920985878E+03  0.16500000000E+03 0.  0.
<mgrwt>
<rscale>  0 0.84023931E+03</rscale>
<asrwt>0</asrwt>
<pdfrwt beam="1">  1        2 0.49434807E-01 0.84023931E+03</pdfrwt>
<pdfrwt beam="2">  1       -2 0.84505786E-01 0.84023931E+03</pdfrwt>
<totfact> 0.12492854E+02</totfact>
</mgrwt>
</event>
<event>
 4    1  0.8877834E-005  0.4719623E+03  0.7818608E-02  0.1021368E+00
          2   -1    0    0  501    0  0.00000000000E+00  0.00000000000E+00  0.97054614401E+03  0.97054614401E+03  0.25500000000E-02 0.  1.
         -2   -1    0    0    0  501 -0.00000000000E+00 -0.00000000000E+00 -0.57377070193E+02  0.57377070250E+02  0.25500000000E-02 0. -1.
    5000001    1    1    2    0    0 -0.85727862364E+02  0.14500921802E+03  0.47668274639E+03  0.53181611522E+03  0.16500000000E+03 0.  0.
   -5000001    1    1    2    0    0  0.85727862364E+02 -0.14500921802E+03  0.43648632742E+03  0.49610709904E+03  0.16500000000E+03 0.  0.
<mgrwt>
<rscale>  0 0.47196226E+03</rscale>
<asrwt>0</asrwt>
<pdfrwt beam="1">  1        2 0.14931478E+00 0.47196226E+03</pdfrwt>
<pdfrwt beam="2">  1       -2 0.88272420E-02 0.47196226E+03</pdfrwt>
<totfact> 0.22205043E+03</totfact>
</mgrwt>
</event>
<event>
 4    1  0.8877834E-005  0.5469533E+03  0.7818608E-02  0.1002202E+00
          2   -1    0    0  501    0  0.00000000000E+00  0.00000000000E+00  0.11295082872E+03  0.11295082874E+03  0.25500000000E-02 0.  1.
         -2   -1    0    0    0  501 -0.00000000000E+00 -0.00000000000E+00 -0.66214199803E+03  0.66214199804E+03  0.25500000000E-02 0. -1.
    5000001    1    1    2    0    0  0.32818372044E+02  0.19587753566E+03 -0.14690281934E+03  0.29706984507E+03  0.16500000000E+03 0.  0.
   -5000001    1    1    2    0    0 -0.32818372044E+02 -0.19587753566E+03 -0.40228834998E+03  0.47802298171E+03  0.16500000000E+03 0.  0.
<mgrwt>
<rscale>  0 0.54695333E+03</rscale>
<asrwt>0</asrwt>
<pdfrwt beam="1">  1        2 0.17377051E-01 0.54695333E+03</pdfrwt>
<pdfrwt beam="2">  1       -2 0.10186800E+00 0.54695333E+03</pdfrwt>
<totfact> 0.26866476E+02</totfact>
</mgrwt>
</event>
<event>
 4    1  0.8877834E-005  0.6824549E+03  0.7818608E-02  0.9747716E-01
          2   -1    0    0  501    0  0.00000000000E+00  0.00000000000E+00  0.20573995827E+04  0.20573995827E+04  0.25500000000E-02 0.  1.
         -2   -1    0    0    0  501 -0.00000000000E+00 -0.00000000000E+00 -0.56593856014E+02  0.56593856071E+02  0.25500000000E-02 0. -1.
    5000001    1    1    2    0    0 -0.76115836515E+02  0.27961084805E+03  0.12245337235E+04  0.12691271359E+04  0.16500000000E+03 0.  0.
   -5000001    1    1    2    0    0  0.76115836515E+02 -0.27961084805E+03  0.77627200319E+03  0.84486630295E+03  0.16500000000E+03 0.  0.
<mgrwt>
<rscale>  0 0.68245491E+03</rscale>
<asrwt>0</asrwt>
<pdfrwt beam="1">  1        2 0.31652301E+00 0.68245491E+03</pdfrwt>
<pdfrwt beam="2">  1       -2 0.87067473E-02 0.68245491E+03</pdfrwt>
<totfact> 0.54913011E+02</totfact>
</mgrwt>
</event>
<event>
 4    1  0.8877834E-005  0.3867064E+03  0.7818608E-02  0.1048482E+00
         -2   -1    0    0    0  501 -0.00000000000E+00  0.00000000000E+00  0.13073384771E+04  0.13073384771E+04  0.25500000000E-02 0. -1.
          2   -1    0    0  501    0  0.00000000000E+00 -0.00000000000E+00 -0.28596625161E+02  0.28596625275E+02  0.25500000000E-02 0.  1.
    5000001    1    1    2    0    0 -0.48376187488E+02  0.50196443873E+02  0.38785609475E+03  0.42722042171E+03  0.16500000000E+03 0.  0.
   -5000001    1    1    2    0    0  0.48376187488E+02 -0.50196443873E+02  0.89088575717E+03  0.90871468065E+03  0.16500000000E+03 0.  0.
<mgrwt>
<rscale>  0 0.38670644E+03</rscale>
<asrwt>0</asrwt>
<pdfrwt beam="1">  1        2 0.43994808E-02 0.38670644E+03</pdfrwt>
<pdfrwt beam="2">  1       -2 0.20112900E+00 0.38670644E+03</pdfrwt>
<totfact> 0.26446957E+02</totfact>
</mgrwt>
</event>
<event>
 4    1  0.8877834E-005  0.5102726E+03  0.7818608E-02  0.1011132E+00
         -2   -1    0    0    0  501 -0.00000000000E+00  0.00000000000E+00  0.93497377580E+02  0.93497377615E+02  0.25500000000E-02 0. -1.
          2   -1    0    0  501    0  0.00000000000E+00 -0.00000000000E+00 -0.69621784261E+03  0.69621784261E+03  0.25500000000E-02 0.  1.
    5000001    1    1    2    0    0 -0.17062782045E+03  0.89862065051E+02 -0.26098808368E+03  0.36404508467E+03  0.16500000000E+03 0.  0.
   -5000001    1    1    2    0    0  0.17062782045E+03 -0.89862065051E+02 -0.34173238134E+03  0.42567013556E+03  0.16500000000E+03 0.  0.
<mgrwt>
<rscale>  0 0.51027264E+03</rscale>
<asrwt>0</asrwt>
<pdfrwt beam="1">  1        2 0.10711043E+00 0.51027264E+03</pdfrwt>
<pdfrwt beam="2">  1       -2 0.14384212E-01 0.51027264E+03</pdfrwt>
<totfact> 0.15536714E+03</totfact>
</mgrwt>
</event>
<event>
 4    1  0.8877834E-005  0.3777830E+03  0.7818608E-02  0.1051756E+00
          2   -1    0    0  501    0  0.00000000000E+00  0.00000000000E+00  0.92186122449E+03  0.92186122449E+03  0.25500000000E-02 0.  1.
         -2   -1    0    0    0  501 -0.00000000000E+00 -0.00000000000E+00 -0.38704296539E+02  0.38704296623E+02  0.25500000000E-02 0. -1.
    5000001    1    1    2    0    0  0.30040002865E+02  0.86681361910E+02  0.42571395428E+03  0.46569671584E+03  0.16500000000E+03 0.  0.
   -5000001    1    1    2    0    0 -0.30040002865E+02 -0.86681361910E+02  0.45744297367E+03  0.49486880528E+03  0.16500000000E+03 0.  0.
<mgrwt>
<rscale>  0 0.37778295E+03</rscale>
<asrwt>0</asrwt>
<pdfrwt beam="1">  1        2 0.14182481E+00 0.37778295E+03</pdfrwt>
<pdfrwt beam="2">  1       -2 0.59545071E-02 0.37778295E+03</pdfrwt>
<totfact> 0.44241492E+03</totfact>
</mgrwt>
</event>
<event>
 4    1  0.8877834E-005  0.5703137E+03  0.7818608E-02  0.9968985E-01
         -2   -1    0    0    0  501 -0.00000000000E+00  0.00000000000E+00  0.73758324114E+02  0.73758324158E+02  0.25500000000E-02 0. -1.
          2   -1    0    0  501    0  0.00000000000E+00 -0.00000000000E+00 -0.11024440758E+04  0.11024440758E+04  0.25500000000E-02 0.  1.
    5000001    1    1    2    0    0  0.15314989145E+03 -0.16159614646E+03 -0.37566848774E+03  0.46681904040E+03  0.16500000000E+03 0.  0.
   -5000001    1    1    2    0    0 -0.15314989145E+03  0.16159614646E+03 -0.65301726394E+03  0.70938335955E+03  0.16500000000E+03 0.  0.
<mgrwt>
<rscale>  0 0.57031369E+03</rscale>
<asrwt>0</asrwt>
<pdfrwt beam="1">  1        2 0.16960677E+00 0.57031369E+03</pdfrwt>
<pdfrwt beam="2">  1       -2 0.11347435E-01 0.57031369E+03</pdfrwt>
<totfact> 0.12236596E+03</totfact>
</mgrwt>
</event>
<event>
 4    1  0.8877834E-005  0.5148062E+03  0.7818608E-02  0.1009985E+00
          2   -1    0    0  501    0  0.00000000000E+00  0.00000000000E+00  0.29965063840E+03  0.29965063841E+03  0.25500000000E-02 0.  1.
         -2   -1    0    0    0  501 -0.00000000000E+00 -0.00000000000E+00 -0.22111197148E+03  0.22111197149E+03  0.25500000000E-02 0. -1.
    5000001    1    1    2    0    0 -0.17849761137E+03  0.76379159304E+02  0.76245931683E+02  0.26595792024E+03  0.16500000000E+03 0.  0.
   -5000001    1    1    2    0    0  0.17849761137E+03 -0.76379159304E+02  0.22927352429E+01  0.25480468966E+03  0.16500000000E+03 0.  0.
<mgrwt>
<rscale>  0 0.51480615E+03</rscale>
<asrwt>0</asrwt>
<pdfrwt beam="1">  1        2 0.46100098E-01 0.51480615E+03</pdfrwt>
<pdfrwt beam="2">  1       -2 0.34017227E-01 0.51480615E+03</pdfrwt>
<totfact> 0.89186883E+02</totfact>
</mgrwt>
</event>
<event>
 4    1  0.8877834E-005  0.8728853E+03  0.7818608E-02  0.9460126E-01
         -2   -1    0    0    0  501 -0.00000000000E+00  0.00000000000E+00  0.76638928073E+02  0.76638928115E+02  0.25500000000E-02 0. -1.
          2   -1    0    0  501    0  0.00000000000E+00 -0.00000000000E+00 -0.24854494848E+04  0.24854494848E+04  0.25500000000E-02 0.  1.
    5000001    1    1    2    0    0  0.35212793345E+03 -0.17270994811E+03 -0.91930769178E+03  0.10130026850E+04  0.16500000000E+03 0.  0.
   -5000001    1    1    2    0    0 -0.35212793345E+03  0.17270994811E+03 -0.14895028650E+04  0.15490857279E+04  0.16500000000E+03 0.  0.
<mgrwt>
<rscale>  0 0.87288529E+03</rscale>
<asrwt>0</asrwt>
<pdfrwt beam="1">  1        2 0.38237678E+00 0.87288529E+03</pdfrwt>
<pdfrwt beam="2">  1       -2 0.11790606E-01 0.87288529E+03</pdfrwt>
<totfact> 0.19068706E+02</totfact>
</mgrwt>
</event>
<event>
 4    1  0.8877834E-005  0.5586689E+03  0.7818608E-02  0.9995071E-01
          2   -1    0    0  501    0  0.00000000000E+00  0.00000000000E+00  0.81772762718E+03  0.81772762719E+03  0.25500000000E-02 0.  1.
         -2   -1    0    0    0  501 -0.00000000000E+00 -0.00000000000E+00 -0.95420186563E+02  0.95420186597E+02  0.25500000000E-02 0. -1.
    5000001    1    1    2    0    0 -0.22335055408E+03 -0.16159146162E+02  0.31928563112E+03  0.42345590355E+03  0.16500000000E+03 0.  0.
   -5000001    1    1    2    0    0  0.22335055408E+03  0.16159146162E+02  0.40302180950E+03  0.48969191023E+03  0.16500000000E+03 0.  0.
<mgrwt>
<rscale>  0 0.55866886E+03</rscale>
<asrwt>0</asrwt>
<pdfrwt beam="1">  1        2 0.12580425E+00 0.55866886E+03</pdfrwt>
<pdfrwt beam="2">  1       -2 0.14680028E-01 0.55866886E+03</pdfrwt>
<totfact> 0.12212953E+03</totfact>
</mgrwt>
</event>
<event>
 4    1  0.8877834E-005  0.7502740E+03  0.7818608E-02  0.9634921E-01
          2   -1    0    0  501    0  0.00000000000E+00  0.00000000000E+00  0.43321324810E+03  0.43321324810E+03  0.25500000000E-02 0.  1.
         -2   -1    0    0    0  501 -0.00000000000E+00 -0.00000000000E+00 -0.32484637852E+03  0.32484637853E+03  0.25500000000E-02 0. -1.
    5000001    1    1    2    0    0 -0.29039652224E+03 -0.40634265965E+02  0.22180091753E+03  0.40299122908E+03  0.16500000000E+03 0.  0.
   -5000001    1    1    2    0    0  0.29039652224E+03  0.40634265965E+02 -0.11343404795E+03  0.35506839755E+03  0.16500000000E+03 0.  0.
<mgrwt>
<rscale>  0 0.75027396E+03</rscale>
<asrwt>0</asrwt>
<pdfrwt beam="1">  1        2 0.66648192E-01 0.75027396E+03</pdfrwt>
<pdfrwt beam="2">  1       -2 0.49976366E-01 0.75027396E+03</pdfrwt>
<totfact> 0.27744681E+02</totfact>
</mgrwt>
</event>
<event>
 4    1  0.8877834E-005  0.4198804E+03  0.7818608E-02  0.1037105E+00
          2   -1    0    0  501    0  0.00000000000E+00  0.00000000000E+00  0.23748961105E+04  0.23748961105E+04  0.25500000000E-02 0.  1.
         -2   -1    0    0    0  501 -0.00000000000E+00 -0.00000000000E+00 -0.18558659582E+02  0.18558659757E+02  0.25500000000E-02 0. -1.
    5000001    1    1    2    0    0  0.54010971879E+02  0.10721682966E+03  0.89675187099E+03  0.91967469888E+03  0.16500000000E+03 0.  0.
   -5000001    1    1    2    0    0 -0.54010971879E+02 -0.10721682966E+03  0.14595855800E+04  0.14737800714E+04  0.16500000000E+03 0.  0.
<mgrwt>
<rscale>  0 0.41988041E+03</rscale>
<asrwt>0</asrwt>
<pdfrwt beam="1">  1        2 0.36536863E+00 0.41988041E+03</pdfrwt>
<pdfrwt beam="2">  1       -2 0.28551785E-02 0.41988041E+03</pdfrwt>
<totfact> 0.21148031E+03</totfact>
</mgrwt>
</event>
<event>
 4    1  0.8877834E-005  0.5388988E+03  0.7818608E-02  0.1004097E+00
          2   -1    0    0  501    0  0.00000000000E+00  0.00000000000E+00  0.11838395485E+03  0.11838395488E+03  0.25500000000E-02 0.  1.
         -2   -1    0    0    0  501 -0.00000000000E+00 -0.00000000000E+00 -0.61328391322E+03  0.61328391323E+03  0.25500000000E-02 0. -1.
    5000001    1    1    2    0    0  0.19387363499E+03 -0.57197893791E+02 -0.15617606510E+03  0.30409628197E+03  0.16500000000E+03 0.  0.
   -5000001    1    1    2    0    0 -0.19387363499E+03  0.57197893791E+02 -0.33872389327E+03  0.42757158613E+03  0.16500000000E+03 0.  0.
<mgrwt>
<rscale>  0 0.53889878E+03</rscale>
<asrwt>0</asrwt>
<pdfrwt beam="1">  1        2 0.18212917E-01 0.53889878E+03</pdfrwt>
<pdfrwt beam="2">  1       -2 0.94351369E-01 0.53889878E+03</pdfrwt>
<totfact> 0.30415455E+02</totfact>
</mgrwt>
</event>
<event>
 4    1  0.8877834E-005  0.5137486E+03  0.7818608E-02  0.1010251E+00
          2   -1    0    0  501    0  0.00000000000E+00  0.00000000000E+00  0.45844289229E+02  0.45844289300E+02  0.25500000000E-02 0.  1.
         -2   -1    0    0    0  501 -0.00000000000E+00 -0.00000000000E+00 -0.14393155782E+04  0.14393155782E+04  0.25500000000E-02 0. -1.
    5000001    1    1    2    0    0  0.10633109624E+03 -0.29038626666E+02 -0.11683031108E+04  0.11850344732E+04  0.16500000000E+03 0.  0.
   -5000001    1    1    2    0    0 -0.10633109624E+03  0.29038626666E+02 -0.22516817815E+03  0.30012539432E+03  0.16500000000E+03 0.  0.
<mgrwt>
<rscale>  0 0.51374858E+03</rscale>
<asrwt>0</asrwt>
<pdfrwt beam="1">  1        2 0.70529687E-02 0.51374858E+03</pdfrwt>
<pdfrwt beam="2">  1       -2 0.22143313E+00 0.51374858E+03</pdfrwt>
<totfact> 0.10469134E+02</totfact>
</mgrwt>
</event>
<event>
 4    1  0.8877834E-005  0.6273791E+03  0.7818608E-02  0.9850177E-01
         -2   -1    0    0    0  501 -0.00000000000E+00  0.00000000000E+00  0.49592422977E+02  0.49592423043E+02  0.25500000000E-02 0. -1.
          2   -1    0    0  501    0  0.00000000000E+00 -0.00000000000E+00 -0.19841972214E+04  0.19841972214E+04  0.25500000000E-02 0.  1.
    5000001    1    1    2    0    0 -0.64315397442E+02  0.19020783261E+03 -0.15367824886E+04  0.15586022286E+04  0.16500000000E+03 0.  0.
   -5000001    1    1    2    0    0  0.64315397442E+02 -0.19020783261E+03 -0.39782230990E+03  0.47518741586E+03  0.16500000000E+03 0.  0.
<mgrwt>
<rscale>  0 0.62737915E+03</rscale>
<asrwt>0</asrwt>
<pdfrwt beam="1">  1        2 0.30526105E+00 0.62737915E+03</pdfrwt>
<pdfrwt beam="2">  1       -2 0.76296051E-02 0.62737915E+03</pdfrwt>
<totfact> 0.74626688E+02</totfact>
</mgrwt>
</event>
<event>
 4    1  0.8877834E-005  0.4590679E+03  0.7818608E-02  0.1025052E+00
         -2   -1    0    0    0  501 -0.00000000000E+00  0.00000000000E+00  0.47070313926E+02  0.47070313995E+02  0.25500000000E-02 0. -1.
          2   -1    0    0  501    0  0.00000000000E+00 -0.00000000000E+00 -0.11193008199E+04  0.11193008199E+04  0.25500000000E-02 0.  1.
    5000001    1    1    2    0    0 -0.12300075515E+03  0.91020689519E+02 -0.42116577869E+03  0.47751394203E+03  0.16500000000E+03 0.  0.
   -5000001    1    1    2    0    0  0.12300075515E+03 -0.91020689519E+02 -0.65106472730E+03  0.68885719189E+03  0.16500000000E+03 0.  0.
<mgrwt>
<rscale>  0 0.45906793E+03</rscale>
<asrwt>0</asrwt>
<pdfrwt beam="1">  1        2 0.17220011E+00 0.45906793E+03</pdfrwt>
<pdfrwt beam="2">  1       -2 0.72415876E-02 0.45906793E+03</pdfrwt>
<totfact> 0.24620885E+03</totfact>
</mgrwt>
</event>
<event>
 4    1  0.8877834E-005  0.6355353E+03  0.7818608E-02  0.9834306E-01
         -2   -1    0    0    0  501 -0.00000000000E+00  0.00000000000E+00  0.48040082364E+03  0.48040082365E+03  0.25500000000E-02 0. -1.
          2   -1    0    0  501    0  0.00000000000E+00 -0.00000000000E+00 -0.21019169969E+03  0.21019169970E+03  0.25500000000E-02 0.  1.
    5000001    1    1    2    0    0 -0.23940332892E+03 -0.12715992669E+03  0.15288235545E+03  0.35225220434E+03  0.16500000000E+03 0.  0.
   -5000001    1    1    2    0    0  0.23940332892E+03  0.12715992669E+03  0.11732676851E+03  0.33834031901E+03  0.16500000000E+03 0.  0.
<mgrwt>
<rscale>  0 0.63553526E+03</rscale>
<asrwt>0</asrwt>
<pdfrwt beam="1">  1        2 0.32337184E-01 0.63553526E+03</pdfrwt>
<pdfrwt beam="2">  1       -2 0.73907819E-01 0.63553526E+03</pdfrwt>
<totfact> 0.27256340E+02</totfact>
</mgrwt>
</event>
<event>
 4    1  0.8877834E-005  0.5762783E+03  0.7818608E-02  0.9955881E-01
          2   -1    0    0  501    0  0.00000000000E+00  0.00000000000E+00  0.13851672641E+03  0.13851672644E+03  0.25500000000E-02 0.  1.
         -2   -1    0    0    0  501 -0.00000000000E+00 -0.00000000000E+00 -0.59938013165E+03  0.59938013165E+03  0.25500000000E-02 0. -1.
    5000001    1    1    2    0    0  0.16074720623E+03 -0.17274654203E+02 -0.45095627051E+03  0.50668001332E+03  0.16500000000E+03 0.  0.
   -5000001    1    1    2    0    0 -0.16074720623E+03  0.17274654203E+02 -0.99071347276E+01  0.23121684477E+03  0.16500000000E+03 0.  0.
<mgrwt>
<rscale>  0 0.57627831E+03</rscale>
<asrwt>0</asrwt>
<pdfrwt beam="1">  1        2 0.21310266E-01 0.57627831E+03</pdfrwt>
<pdfrwt beam="2">  1       -2 0.92212327E-01 0.57627831E+03</pdfrwt>
<totfact> 0.26658946E+02</totfact>
</mgrwt>
</event>
<event>
 4    1  0.8877834E-005  0.5465617E+03  0.7818608E-02  0.1002293E+00
          2   -1    0    0  501    0  0.00000000000E+00  0.00000000000E+00  0.70281315901E+03  0.70281315902E+03  0.25500000000E-02 0.  1.
         -2   -1    0    0    0  501 -0.00000000000E+00 -0.00000000000E+00 -0.10626213243E+03  0.10626213246E+03  0.25500000000E-02 0. -1.
    5000001    1    1    2    0    0  0.20608368791E+03 -0.36535072632E+02  0.20881679434E+03  0.33857754142E+03  0.16500000000E+03 0.  0.
   -5000001    1    1    2    0    0 -0.20608368791E+03  0.36535072632E+02  0.38773423224E+03  0.47049775005E+03  0.16500000000E+03 0.  0.
<mgrwt>
<rscale>  0 0.54656171E+03</rscale>
<asrwt>0</asrwt>
<pdfrwt beam="1">  1        2 0.10812510E+00 0.54656171E+03</pdfrwt>
<pdfrwt beam="2">  1       -2 0.16348020E-01 0.54656171E+03</pdfrwt>
<totfact> 0.12374953E+03</totfact>
</mgrwt>
</event>
<event>
 4    1  0.8877834E-005  0.6215199E+03  0.7818608E-02  0.9861738E-01
         -2   -1    0    0    0  501 -0.00000000000E+00  0.00000000000E+00  0.90437541303E+02  0.90437541339E+02  0.25500000000E-02 0. -1.
          2   -1    0    0  501    0  0.00000000000E+00 -0.00000000000E+00 -0.10678282452E+04  0.10678282452E+04  0.25500000000E-02 0.  1.
    5000001    1    1    2    0    0 -0.17916025308E+03 -0.16903631386E+03 -0.31511916828E+03  0.43266241101E+03  0.16500000000E+03 0.  0.
   -5000001    1    1    2    0    0  0.17916025308E+03  0.16903631386E+03 -0.66227153561E+03  0.72560337552E+03  0.16500000000E+03 0.  0.
<mgrwt>
<rscale>  0 0.62151995E+03</rscale>
<asrwt>0</asrwt>
<pdfrwt beam="1">  1        2 0.16428126E+00 0.62151995E+03</pdfrwt>
<pdfrwt beam="2">  1       -2 0.13913469E-01 0.62151995E+03</pdfrwt>
<totfact> 0.91549063E+02</totfact>
</mgrwt>
</event>
<event>
 4    1  0.8877834E-005  0.7345771E+03  0.7818608E-02  0.9659862E-01
          2   -1    0    0  501    0  0.00000000000E+00  0.00000000000E+00  0.78170277035E+03  0.78170277035E+03  0.25500000000E-02 0.  1.
         -2   -1    0    0    0  501 -0.00000000000E+00 -0.00000000000E+00 -0.17257313064E+03  0.17257313066E+03  0.25500000000E-02 0. -1.
    5000001    1    1    2    0    0 -0.17570182408E+03 -0.68652083308E+02 -0.44237242063E+02  0.25449199027E+03  0.16500000000E+03 0.  0.
   -5000001    1    1    2    0    0  0.17570182408E+03  0.68652083308E+02  0.65336688177E+03  0.69978391074E+03  0.16500000000E+03 0.  0.
<mgrwt>
<rscale>  0 0.73457714E+03</rscale>
<asrwt>0</asrwt>
<pdfrwt beam="1">  1        2 0.12026197E+00 0.73457714E+03</pdfrwt>
<pdfrwt beam="2">  1       -2 0.26549712E-01 0.73457714E+03</pdfrwt>
<totfact> 0.45891149E+02</totfact>
</mgrwt>
</event>
<event>
 4    1  0.8877834E-005  0.1007528E+04  0.7818608E-02  0.9300327E-01
          2   -1    0    0  501    0  0.00000000000E+00  0.00000000000E+00  0.16312733628E+04  0.16312733628E+04  0.25500000000E-02 0.  1.
         -2   -1    0    0    0  501 -0.00000000000E+00 -0.00000000000E+00 -0.15557046934E+03  0.15557046937E+03  0.25500000000E-02 0. -1.
    5000001    1    1    2    0    0 -0.32611584321E+03 -0.34379616884E+03  0.65842716365E+03  0.82782768662E+03  0.16500000000E+03 0.  0.
   -5000001    1    1    2    0    0  0.32611584321E+03  0.34379616884E+03  0.81727572984E+03  0.95901614558E+03  0.16500000000E+03 0.  0.
<mgrwt>
<rscale>  0 0.10075276E+04</rscale>
<asrwt>0</asrwt>
<pdfrwt beam="1">  1        2 0.25096512E+00 0.10075276E+04</pdfrwt>
<pdfrwt beam="2">  1       -2 0.23933919E-01 0.10075276E+04</pdfrwt>
<totfact> 0.16592983E+02</totfact>
</mgrwt>
</event>
<event>
 4    1  0.8877834E-005  0.4700376E+03  0.7818608E-02  0.1021910E+00
         -2   -1    0    0    0  501 -0.00000000000E+00  0.00000000000E+00  0.16606695444E+03  0.16606695446E+03  0.25500000000E-02 0. -1.
          2   -1    0    0  501    0  0.00000000000E+00 -0.00000000000E+00 -0.33259978642E+03  0.33259978643E+03  0.25500000000E-02 0.  1.
    5000001    1    1    2    0    0  0.97858006484E+02 -0.12707276460E+03 -0.32551489228E+02  0.23239680804E+03  0.16500000000E+03 0.  0.
   -5000001    1    1    2    0    0 -0.97858006484E+02  0.12707276460E+03 -0.13398134275E+03  0.26626993285E+03  0.16500000000E+03 0.  0.
<mgrwt>
<rscale>  0 0.47003759E+03</rscale>
<asrwt>0</asrwt>
<pdfrwt beam="1">  1        2 0.51169198E-01 0.47003759E+03</pdfrwt>
<pdfrwt beam="2">  1       -2 0.25548762E-01 0.47003759E+03</pdfrwt>
<totfact> 0.13450658E+03</totfact>
</mgrwt>
</event>
<event>
 4    1  0.8877834E-005  0.1327832E+04  0.7818608E-02  0.9007781E-01
          2   -1    0    0  501    0  0.00000000000E+00  0.00000000000E+00  0.12192260324E+04  0.12192260324E+04  0.25500000000E-02 0.  1.
         -2   -1    0    0    0  501 -0.00000000000E+00 -0.00000000000E+00 -0.36152783441E+03  0.36152783442E+03  0.25500000000E-02 0. -1.
    5000001    1    1    2    0    0 -0.63281350623E+03 -0.11203824693E+03  0.45686063073E+03  0.80557565651E+03  0.16500000000E+03 0.  0.
   -5000001    1    1    2    0    0  0.63281350623E+03  0.11203824693E+03  0.40083756730E+03  0.77517821035E+03  0.16500000000E+03 0.  0.
<mgrwt>
<rscale>  0 0.13278315E+04</rscale>
<asrwt>0</asrwt>
<pdfrwt beam="1">  1        2 0.18757324E+00 0.13278315E+04</pdfrwt>
<pdfrwt beam="2">  1       -2 0.55619666E-01 0.13278315E+04</pdfrwt>
<totfact> 0.54805208E+01</totfact>
</mgrwt>
</event>
<event>
 4    1  0.8877834E-005  0.6710693E+03  0.7818608E-02  0.9768028E-01
         -2   -1    0    0    0  501 -0.00000000000E+00  0.00000000000E+00  0.33851555741E+03  0.33851555742E+03  0.25500000000E-02 0. -1.
          2   -1    0    0  501    0  0.00000000000E+00 -0.00000000000E+00 -0.33258003382E+03  0.33258003383E+03  0.25500000000E-02 0.  1.
    5000001    1    1    2    0    0 -0.10250909655E+03 -0.21875526576E+03  0.16728040997E+03  0.33700106340E+03  0.16500000000E+03 0.  0.
   -5000001    1    1    2    0    0  0.10250909655E+03  0.21875526576E+03 -0.16134488638E+03  0.33409452785E+03  0.16500000000E+03 0.  0.
<mgrwt>
<rscale>  0 0.67106934E+03</rscale>
<asrwt>0</asrwt>
<pdfrwt beam="1">  1        2 0.51166159E-01 0.67106934E+03</pdfrwt>
<pdfrwt beam="2">  1       -2 0.52079317E-01 0.67106934E+03</pdfrwt>
<totfact> 0.34383292E+02</totfact>
</mgrwt>
</event>
<event>
 4    1  0.8877834E-005  0.4615817E+03  0.7818608E-02  0.1024323E+00
         -2   -1    0    0    0  501 -0.00000000000E+00  0.00000000000E+00  0.84149681513E+02  0.84149681552E+02  0.25500000000E-02 0. -1.
          2   -1    0    0  501    0  0.00000000000E+00 -0.00000000000E+00 -0.63297221211E+03  0.63297221211E+03  0.25500000000E-02 0.  1.
    5000001    1    1    2    0    0 -0.10810452241E+03  0.44707696767E+02 -0.10172849792E+03  0.22640462276E+03  0.16500000000E+03 0.  0.
   -5000001    1    1    2    0    0  0.10810452241E+03 -0.44707696767E+02 -0.44709403267E+03  0.49071727091E+03  0.16500000000E+03 0.  0.
<mgrwt>
<rscale>  0 0.46158167E+03</rscale>
<asrwt>0</asrwt>
<pdfrwt beam="1">  1        2 0.97380337E-01 0.46158167E+03</pdfrwt>
<pdfrwt beam="2">  1       -2 0.12946105E-01 0.46158167E+03</pdfrwt>
<totfact> 0.20788828E+03</totfact>
</mgrwt>
</event>
<event>
 4    1  0.8877834E-005  0.7778313E+03  0.7818608E-02  0.9592672E-01
         -2   -1    0    0    0  501 -0.00000000000E+00  0.00000000000E+00  0.14705576374E+03  0.14705576377E+03  0.25500000000E-02 0. -1.
          2   -1    0    0  501    0  0.00000000000E+00 -0.00000000000E+00 -0.10285579187E+04  0.10285579187E+04  0.25500000000E-02 0.  1.
    5000001    1    1    2    0    0  0.56959132483E+02 -0.13940738505E+03  0.40414507940E+02  0.22701782801E+03  0.16500000000E+03 0.  0.
   -5000001    1    1    2    0    0 -0.56959132483E+02  0.13940738505E+03 -0.92191666288E+03  0.94859585445E+03  0.16500000000E+03 0.  0.
<mgrwt>
<rscale>  0 0.77783127E+03</rscale>
<asrwt>0</asrwt>
<pdfrwt beam="1">  1        2 0.15823968E+00 0.77783127E+03</pdfrwt>
<pdfrwt beam="2">  1       -2 0.22623964E-01 0.77783127E+03</pdfrwt>
<totfact> 0.41656207E+02</totfact>
</mgrwt>
</event>
<event>
 4    1  0.8877834E-005  0.5473532E+03  0.7818608E-02  0.1002108E+00
          2   -1    0    0  501    0  0.00000000000E+00  0.00000000000E+00  0.15557495168E+04  0.15557495168E+04  0.25500000000E-02 0.  1.
         -2   -1    0    0    0  501 -0.00000000000E+00 -0.00000000000E+00 -0.48143269763E+02  0.48143269831E+02  0.25500000000E-02 0. -1.
    5000001    1    1    2    0    0  0.12429291567E+03  0.15973191488E+03  0.51375592390E+03  0.57630995381E+03  0.16500000000E+03 0.  0.
   -5000001    1    1    2    0    0 -0.12429291567E+03 -0.15973191488E+03  0.99385032310E+03  0.10275828328E+04  0.16500000000E+03 0.  0.
<mgrwt>
<rscale>  0 0.54735315E+03</rscale>
<asrwt>0</asrwt>
<pdfrwt beam="1">  1        2 0.23934608E+00 0.54735315E+03</pdfrwt>
<pdfrwt beam="2">  1       -2 0.74066568E-02 0.54735315E+03</pdfrwt>
<totfact> 0.13417478E+03</totfact>
</mgrwt>
</event>
<event>
 4    1  0.8877834E-005  0.6039182E+03  0.7818608E-02  0.9897310E-01
          2   -1    0    0  501    0  0.00000000000E+00  0.00000000000E+00  0.21411102851E+03  0.21411102853E+03  0.25500000000E-02 0.  1.
         -2   -1    0    0    0  501 -0.00000000000E+00 -0.00000000000E+00 -0.42585053694E+03  0.42585053695E+03  0.25500000000E-02 0. -1.
    5000001    1    1    2    0    0  0.51258404211E+01 -0.21674865887E+03 -0.24382414646E+03  0.36562476634E+03  0.16500000000E+03 0.  0.
   -5000001    1    1    2    0    0 -0.51258404211E+01  0.21674865887E+03  0.32084638036E+02  0.27433679914E+03  0.16500000000E+03 0.  0.
<mgrwt>
<rscale>  0 0.60391819E+03</rscale>
<asrwt>0</asrwt>
<pdfrwt beam="1">  1        2 0.32940158E-01 0.60391819E+03</pdfrwt>
<pdfrwt beam="2">  1       -2 0.65515467E-01 0.60391819E+03</pdfrwt>
<totfact> 0.34719099E+02</totfact>
</mgrwt>
</event>
<event>
 4    1  0.8877834E-005  0.5584194E+03  0.7818608E-02  0.9995637E-01
         -2   -1    0    0    0  501 -0.00000000000E+00  0.00000000000E+00  0.13310521706E+04  0.13310521706E+04  0.25500000000E-02 0. -1.
          2   -1    0    0  501    0  0.00000000000E+00 -0.00000000000E+00 -0.58568738684E+02  0.58568738739E+02  0.25500000000E-02 0.  1.
    5000001    1    1    2    0    0 -0.14893299263E+03 -0.15509950011E+03  0.80310336627E+03  0.84760657628E+03  0.16500000000E+03 0.  0.
   -5000001    1    1    2    0    0  0.14893299263E+03  0.15509950011E+03  0.46938006565E+03  0.54201433308E+03  0.16500000000E+03 0.  0.
<mgrwt>
<rscale>  0 0.55841936E+03</rscale>
<asrwt>0</asrwt>
<pdfrwt beam="1">  1        2 0.90105749E-02 0.55841936E+03</pdfrwt>
<pdfrwt beam="2">  1       -2 0.20477726E+00 0.55841936E+03</pdfrwt>
<totfact> 0.96695813E+01</totfact>
</mgrwt>
</event>
<event>
 4    1  0.8877834E-005  0.4457145E+03  0.7818608E-02  0.1029008E+00
         -2   -1    0    0    0  501 -0.00000000000E+00  0.00000000000E+00  0.57114154632E+02  0.57114154689E+02  0.25500000000E-02 0. -1.
          2   -1    0    0  501    0  0.00000000000E+00 -0.00000000000E+00 -0.86958059779E+03  0.86958059780E+03  0.25500000000E-02 0.  1.
    5000001    1    1    2    0    0  0.50840092168E+02  0.29125568206E+02 -0.69287577459E+03  0.71465715746E+03  0.16500000000E+03 0.  0.
   -5000001    1    1    2    0    0 -0.50840092168E+02 -0.29125568206E+02 -0.11959066857E+03  0.21203759503E+03  0.16500000000E+03 0.  0.
<mgrwt>
<rscale>  0 0.44571453E+03</rscale>
<asrwt>0</asrwt>
<pdfrwt beam="1">  1        2 0.13378162E+00 0.44571453E+03</pdfrwt>
<pdfrwt beam="2">  1       -2 0.87867937E-02 0.44571453E+03</pdfrwt>
<totfact> 0.26036279E+03</totfact>
</mgrwt>
</event>
<event>
 4    1  0.8877834E-005  0.5995190E+03  0.7818608E-02  0.9906404E-01
         -2   -1    0    0    0  501 -0.00000000000E+00  0.00000000000E+00  0.94441816695E+03  0.94441816695E+03  0.25500000000E-02 0. -1.
          2   -1    0    0  501    0  0.00000000000E+00 -0.00000000000E+00 -0.95144039404E+02  0.95144039438E+02  0.25500000000E-02 0.  1.
    5000001    1    1    2    0    0  0.10882235545E+03  0.11574144862E+03  0.75994129301E+03  0.79370911346E+03  0.16500000000E+03 0.  0.
   -5000001    1    1    2    0    0 -0.10882235545E+03 -0.11574144862E+03  0.89332834535E+02  0.24585309293E+03  0.16500000000E+03 0.  0.
<mgrwt>
<rscale>  0 0.59951900E+03</rscale>
<asrwt>0</asrwt>
<pdfrwt beam="1">  1        2 0.14637544E-01 0.59951900E+03</pdfrwt>
<pdfrwt beam="2">  1       -2 0.14529510E+00 0.59951900E+03</pdfrwt>
<totfact> 0.13682328E+02</totfact>
</mgrwt>
</event>
<event>
 4    1  0.8877834E-005  0.4564103E+03  0.7818608E-02  0.1025827E+00
          2   -1    0    0  501    0  0.00000000000E+00  0.00000000000E+00  0.78503552616E+03  0.78503552616E+03  0.25500000000E-02 0.  1.
         -2   -1    0    0    0  501 -0.00000000000E+00 -0.00000000000E+00 -0.66337881266E+02  0.66337881315E+02  0.25500000000E-02 0. -1.
    5000001    1    1    2    0    0 -0.89981357611E+02 -0.12746573187E+03  0.31728751293E+03  0.39018011659E+03  0.16500000000E+03 0.  0.
   -5000001    1    1    2    0    0  0.89981357611E+02  0.12746573187E+03  0.40141013196E+03  0.46119329088E+03  0.16500000000E+03 0.  0.
<mgrwt>
<rscale>  0 0.45641031E+03</rscale>
<asrwt>0</asrwt>
<pdfrwt beam="1">  1        2 0.12077469E+00 0.45641031E+03</pdfrwt>
<pdfrwt beam="2">  1       -2 0.10205828E-01 0.45641031E+03</pdfrwt>
<totfact> 0.23435700E+03</totfact>
</mgrwt>
</event>
<event>
 4    1  0.8877834E-005  0.6539847E+03  0.7818608E-02  0.9799331E-01
         -2   -1    0    0    0  501 -0.00000000000E+00  0.00000000000E+00  0.33396393025E+02  0.33396393122E+02  0.25500000000E-02 0. -1.
          2   -1    0    0  501    0  0.00000000000E+00 -0.00000000000E+00 -0.32016634932E+04  0.32016634932E+04  0.25500000000E-02 0.  1.
    5000001    1    1    2    0    0 -0.18399827867E+03  0.31732864209E+02 -0.26315789318E+04  0.26433492042E+04  0.16500000000E+03 0.  0.
   -5000001    1    1    2    0    0  0.18399827867E+03 -0.31732864209E+02 -0.53668816836E+03  0.59171068208E+03  0.16500000000E+03 0.  0.
<mgrwt>
<rscale>  0 0.65398475E+03</rscale>
<asrwt>0</asrwt>
<pdfrwt beam="1">  1        2 0.49256337E+00 0.65398475E+03</pdfrwt>
<pdfrwt beam="2">  1       -2 0.51379091E-02 0.65398475E+03</pdfrwt>
<totfact> 0.27535993E+02</totfact>
</mgrwt>
</event>
<event>
 4    1  0.8877834E-005  0.8831095E+03  0.7818608E-02  0.9446945E-01
          2   -1    0    0  501    0  0.00000000000E+00  0.00000000000E+00  0.10016277602E+04  0.10016277602E+04  0.25500000000E-02 0.  1.
         -2   -1    0    0    0  501 -0.00000000000E+00 -0.00000000000E+00 -0.19465375497E+03  0.19465375498E+03  0.25500000000E-02 0. -1.
    5000001    1    1    2    0    0  0.10044722650E+03 -0.35474064269E+03  0.16186580376E+03  0.43515067197E+03  0.16500000000E+03 0.  0.
   -5000001    1    1    2    0    0 -0.10044722650E+03  0.35474064269E+03  0.64510820146E+03  0.76113084320E+03  0.16500000000E+03 0.  0.
<mgrwt>
<rscale>  0 0.88310952E+03</rscale>
<asrwt>0</asrwt>
<pdfrwt beam="1">  1        2 0.15409658E+00 0.88310952E+03</pdfrwt>
<pdfrwt beam="2">  1       -2 0.29946731E-01 0.88310952E+03</pdfrwt>
<totfact> 0.25897458E+02</totfact>
</mgrwt>
</event>
<event>
 4    1  0.8877834E-005  0.4747732E+03  0.7818608E-02  0.1020582E+00
          2   -1    0    0  501    0  0.00000000000E+00  0.00000000000E+00  0.18951487853E+04  0.18951487853E+04  0.25500000000E-02 0.  1.
         -2   -1    0    0    0  501 -0.00000000000E+00 -0.00000000000E+00 -0.29735081897E+02  0.29735082006E+02  0.25500000000E-02 0. -1.
    5000001    1    1    2    0    0 -0.16268508535E+03 -0.72787324122E+01  0.11397548634E+04  0.11630931027E+04  0.16500000000E+03 0.  0.
   -5000001    1    1    2    0    0  0.16268508535E+03  0.72787324122E+01  0.72565883997E+03  0.76179076456E+03  0.16500000000E+03 0.  0.
<mgrwt>
<rscale>  0 0.47477323E+03</rscale>
<asrwt>0</asrwt>
<pdfrwt beam="1">  1        2 0.29156139E+00 0.47477323E+03</pdfrwt>
<pdfrwt beam="2">  1       -2 0.45746273E-02 0.47477323E+03</pdfrwt>
<totfact> 0.18706404E+03</totfact>
</mgrwt>
</event>
<event>
 4    1  0.8877834E-005  0.6349968E+03  0.7818608E-02  0.9835346E-01
          2   -1    0    0  501    0  0.00000000000E+00  0.00000000000E+00  0.75600748659E+03  0.75600748660E+03  0.25500000000E-02 0.  1.
         -2   -1    0    0    0  501 -0.00000000000E+00 -0.00000000000E+00 -0.13333894822E+03  0.13333894825E+03  0.25500000000E-02 0. -1.
    5000001    1    1    2    0    0  0.21265257999E+03 -0.14094099411E+03  0.18224951365E+03  0.35429559527E+03  0.16500000000E+03 0.  0.
   -5000001    1    1    2    0    0 -0.21265257999E+03  0.14094099411E+03  0.44041902472E+03  0.53505083958E+03  0.16500000000E+03 0.  0.
<mgrwt>
<rscale>  0 0.63499683E+03</rscale>
<asrwt>0</asrwt>
<pdfrwt beam="1">  1        2 0.11630884E+00 0.63499683E+03</pdfrwt>
<pdfrwt beam="2">  1       -2 0.20513684E-01 0.63499683E+03</pdfrwt>
<totfact> 0.76165977E+02</totfact>
</mgrwt>
</event>
<event>
 4    1  0.8877834E-005  0.4057766E+03  0.7818608E-02  0.1041798E+00
          2   -1    0    0  501    0  0.00000000000E+00  0.00000000000E+00  0.94073676172E+03  0.94073676173E+03  0.25500000000E-02 0.  1.
         -2   -1    0    0    0  501 -0.00000000000E+00 -0.00000000000E+00 -0.43756834267E+02  0.43756834341E+02  0.25500000000E-02 0. -1.
    5000001    1    1    2    0    0  0.29773998150E+02 -0.11421040649E+03  0.44156161553E+03  0.48593432502E+03  0.16500000000E+03 0.  0.
   -5000001    1    1    2    0    0 -0.29773998150E+02  0.11421040649E+03  0.45541831192E+03  0.49855927105E+03  0.16500000000E+03 0.  0.
<mgrwt>
<rscale>  0 0.40577660E+03</rscale>
<asrwt>0</asrwt>
<pdfrwt beam="1">  1        2 0.14472873E+00 0.40577660E+03</pdfrwt>
<pdfrwt beam="2">  1       -2 0.67318206E-02 0.40577660E+03</pdfrwt>
<totfact> 0.35574194E+03</totfact>
</mgrwt>
</event>
<event>
 4    1  0.8877834E-005  0.3576794E+03  0.7818608E-02  0.1059507E+00
          2   -1    0    0  501    0  0.00000000000E+00  0.00000000000E+00  0.25098988550E+04  0.25098988550E+04  0.25500000000E-02 0.  1.
         -2   -1    0    0    0  501 -0.00000000000E+00 -0.00000000000E+00 -0.12742995531E+02  0.12742995786E+02  0.25500000000E-02 0. -1.
    5000001    1    1    2    0    0  0.49662014671E+02  0.35009758666E+02  0.14789176777E+04  0.14893335746E+04  0.16500000000E+03 0.  0.
   -5000001    1    1    2    0    0 -0.49662014671E+02 -0.35009758666E+02  0.10182381818E+04  0.10333082762E+04  0.16500000000E+03 0.  0.
<mgrwt>
<rscale>  0 0.35767935E+03</rscale>
<asrwt>0</asrwt>
<pdfrwt beam="1">  1        2 0.38613823E+00 0.35767935E+03</pdfrwt>
<pdfrwt beam="2">  1       -2 0.19604612E-02 0.35767935E+03</pdfrwt>
<totfact> 0.31365310E+03</totfact>
</mgrwt>
</event>
<event>
 4    1  0.8877834E-005  0.5547422E+03  0.7818608E-02  0.1000402E+00
         -2   -1    0    0    0  501 -0.00000000000E+00  0.00000000000E+00  0.28243353680E+03  0.28243353681E+03  0.25500000000E-02 0. -1.
          2   -1    0    0  501    0  0.00000000000E+00 -0.00000000000E+00 -0.27239942030E+03  0.27239942031E+03  0.25500000000E-02 0.  1.
    5000001    1    1    2    0    0  0.19942589353E+03  0.89630512962E+02  0.48675267522E+02  0.27820603432E+03  0.16500000000E+03 0.  0.
   -5000001    1    1    2    0    0 -0.19942589353E+03 -0.89630512962E+02 -0.38641151019E+02  0.27662692280E+03  0.16500000000E+03 0.  0.
<mgrwt>
<rscale>  0 0.55474222E+03</rscale>
<asrwt>0</asrwt>
<pdfrwt beam="1">  1        2 0.41907603E-01 0.55474222E+03</pdfrwt>
<pdfrwt beam="2">  1       -2 0.43451313E-01 0.55474222E+03</pdfrwt>
<totfact> 0.61826088E+02</totfact>
</mgrwt>
</event>
<event>
 4    1  0.8877834E-005  0.7459573E+03  0.7818608E-02  0.9641714E-01
          2   -1    0    0  501    0  0.00000000000E+00  0.00000000000E+00  0.17238966314E+04  0.17238966314E+04  0.25500000000E-02 0.  1.
         -2   -1    0    0    0  501 -0.00000000000E+00 -0.00000000000E+00 -0.80696884414E+02  0.80696884454E+02  0.25500000000E-02 0. -1.
    5000001    1    1    2    0    0  0.25388374079E+03 -0.16502513906E+03  0.47779040512E+03  0.58923587941E+03  0.16500000000E+03 0.  0.
   -5000001    1    1    2    0    0 -0.25388374079E+03  0.16502513906E+03  0.11654093418E+04  0.12153576364E+04  0.16500000000E+03 0.  0.
<mgrwt>
<rscale>  0 0.74595734E+03</rscale>
<asrwt>0</asrwt>
<pdfrwt beam="1">  1        2 0.26521485E+00 0.74595734E+03</pdfrwt>
<pdfrwt beam="2">  1       -2 0.12414906E-01 0.74595734E+03</pdfrwt>
<totfact> 0.46543334E+02</totfact>
</mgrwt>
</event>
<event>
 4    1  0.8877834E-005  0.3980982E+03  0.7818608E-02  0.1044440E+00
          2   -1    0    0  501    0  0.00000000000E+00  0.00000000000E+00  0.78093702302E+03  0.78093702302E+03  0.25500000000E-02 0.  1.
         -2   -1    0    0    0  501 -0.00000000000E+00 -0.00000000000E+00 -0.50734619488E+02  0.50734619552E+02  0.25500000000E-02 0. -1.
    5000001    1    1    2    0    0 -0.10457611281E+03  0.37441123281E+02  0.34925399032E+03  0.40192207060E+03  0.16500000000E+03 0.  0.
   -5000001    1    1    2    0    0  0.10457611281E+03 -0.37441123281E+02  0.38094841321E+03  0.42974957197E+03  0.16500000000E+03 0.  0.
<mgrwt>
<rscale>  0 0.39809819E+03</rscale>
<asrwt>0</asrwt>
<pdfrwt beam="1">  1        2 0.12014415E+00 0.39809819E+03</pdfrwt>
<pdfrwt beam="2">  1       -2 0.78053264E-02 0.39809819E+03</pdfrwt>
<totfact> 0.36144956E+03</totfact>
</mgrwt>
</event>
<event>
 4    1  0.8877834E-005  0.4073532E+03  0.7818608E-02  0.1041263E+00
          2   -1    0    0  501    0  0.00000000000E+00  0.00000000000E+00  0.88327902301E+03  0.88327902301E+03  0.25500000000E-02 0.  1.
         -2   -1    0    0    0  501 -0.00000000000E+00 -0.00000000000E+00 -0.46966076745E+02  0.46966076814E+02  0.25500000000E-02 0. -1.
    5000001    1    1    2    0    0 -0.44914249204E+02 -0.87347403723E+02  0.26306615813E+03  0.32569258860E+03  0.16500000000E+03 0.  0.
   -5000001    1    1    2    0    0  0.44914249204E+02  0.87347403723E+02  0.57324678813E+03  0.60455251122E+03  0.16500000000E+03 0.  0.
<mgrwt>
<rscale>  0 0.40735317E+03</rscale>
<asrwt>0</asrwt>
<pdfrwt beam="1">  1        2 0.13588908E+00 0.40735317E+03</pdfrwt>
<pdfrwt beam="2">  1       -2 0.72255504E-02 0.40735317E+03</pdfrwt>
<totfact> 0.34716724E+03</totfact>
</mgrwt>
</event>
<event>
 4    1  0.8877834E-005  0.6170289E+03  0.7818608E-02  0.9870693E-01
          2   -1    0    0  501    0  0.00000000000E+00  0.00000000000E+00  0.13108850301E+04  0.13108850301E+04  0.25500000000E-02 0.  1.
         -2   -1    0    0    0  501 -0.00000000000E+00 -0.00000000000E+00 -0.72608314012E+02  0.72608314056E+02  0.25500000000E-02 0. -1.
    5000001    1    1    2    0    0 -0.11167038060E+03 -0.23448576569E+03  0.56888619090E+03  0.64676916007E+03  0.16500000000E+03 0.  0.
   -5000001    1    1    2    0    0  0.11167038060E+03  0.23448576569E+03  0.66939052516E+03  0.73672418407E+03  0.16500000000E+03 0.  0.
<mgrwt>
<rscale>  0 0.61702885E+03</rscale>
<asrwt>0</asrwt>
<pdfrwt beam="1">  1        2 0.20167461E+00 0.61702885E+03</pdfrwt>
<pdfrwt beam="2">  1       -2 0.11170510E-01 0.61702885E+03</pdfrwt>
<totfact> 0.94595054E+02</totfact>
</mgrwt>
</event>
<event>
 4    1  0.8877834E-005  0.4963495E+03  0.7818608E-02  0.1014736E+00
          2   -1    0    0  501    0  0.00000000000E+00  0.00000000000E+00  0.12683936756E+04  0.12683936756E+04  0.25500000000E-02 0.  1.
         -2   -1    0    0    0  501 -0.00000000000E+00 -0.00000000000E+00 -0.48558038187E+02  0.48558038253E+02  0.25500000000E-02 0. -1.
    5000001    1    1    2    0    0  0.45954769991E+02 -0.12671477211E+03  0.94759575664E+03  0.97125238345E+03  0.16500000000E+03 0.  0.
   -5000001    1    1    2    0    0 -0.45954769991E+02  0.12671477211E+03  0.27223988075E+03  0.34569933038E+03  0.16500000000E+03 0.  0.
<mgrwt>
<rscale>  0 0.49634951E+03</rscale>
<asrwt>0</asrwt>
<pdfrwt beam="1">  1        2 0.19513750E+00 0.49634951E+03</pdfrwt>
<pdfrwt beam="2">  1       -2 0.74704669E-02 0.49634951E+03</pdfrwt>
<totfact> 0.19176524E+03</totfact>
</mgrwt>
</event>
<event>
 4    1  0.8877834E-005  0.5111662E+03  0.7818608E-02  0.1010905E+00
          2   -1    0    0  501    0  0.00000000000E+00  0.00000000000E+00  0.40346416707E+04  0.40346416707E+04  0.25500000000E-02 0.  1.
         -2   -1    0    0    0  501 -0.00000000000E+00 -0.00000000000E+00 -0.16190465942E+02  0.16190466143E+02  0.25500000000E-02 0. -1.
    5000001    1    1    2    0    0 -0.41685454258E+02  0.17078777700E+03  0.26812645816E+04  0.26920830037E+04  0.16500000000E+03 0.  0.
   -5000001    1    1    2    0    0  0.41685454258E+02 -0.17078777700E+03  0.13371866232E+04  0.13587491332E+04  0.16500000000E+03 0.  0.
<mgrwt>
<rscale>  0 0.51116623E+03</rscale>
<asrwt>0</asrwt>
<pdfrwt beam="1">  1        2 0.62071371E+00 0.51116623E+03</pdfrwt>
<pdfrwt beam="2">  1       -2 0.24908425E-02 0.51116623E+03</pdfrwt>
<totfact> 0.22099816E+02</totfact>
</mgrwt>
</event>
<event>
 4    1  0.8877834E-005  0.4261570E+03  0.7818608E-02  0.1035081E+00
          2   -1    0    0  501    0  0.00000000000E+00  0.00000000000E+00  0.16248821935E+04  0.16248821935E+04  0.25500000000E-02 0.  1.
         -2   -1    0    0    0  501 -0.00000000000E+00 -0.00000000000E+00 -0.27941997318E+02  0.27941997435E+02  0.25500000000E-02 0. -1.
    5000001    1    1    2    0    0  0.84328173712E+01 -0.94621353773E+02  0.42741186045E+03  0.46789978783E+03  0.16500000000E+03 0.  0.
   -5000001    1    1    2    0    0 -0.84328173712E+01  0.94621353773E+02  0.11695283358E+04  0.11849244031E+04  0.16500000000E+03 0.  0.
<mgrwt>
<rscale>  0 0.42615703E+03</rscale>
<asrwt>0</asrwt>
<pdfrwt beam="1">  1        2 0.24998192E+00 0.42615703E+03</pdfrwt>
<pdfrwt beam="2">  1       -2 0.42987681E-02 0.42615703E+03</pdfrwt>
<totfact> 0.28785153E+03</totfact>
</mgrwt>
</event>
<event>
 4    1  0.8877834E-005  0.9861242E+03  0.7818608E-02  0.9323896E-01
         -2   -1    0    0    0  501 -0.00000000000E+00  0.00000000000E+00  0.16520415022E+03  0.16520415024E+03  0.25500000000E-02 0.  1.
          2   -1    0    0  501    0  0.00000000000E+00 -0.00000000000E+00 -0.14715746458E+04  0.14715746458E+04  0.25500000000E-02 0. -1.
    5000001    1    1    2    0    0 -0.73811275686E+01 -0.42740864336E+03 -0.95540109109E+03  0.10595984496E+04  0.16500000000E+03 0.  0.
   -5000001    1    1    2    0    0  0.73811275686E+01  0.42740864336E+03 -0.35096940447E+03  0.57718034646E+03  0.16500000000E+03 0.  0.
<mgrwt>
<rscale>  0 0.98612421E+03</rscale>
<asrwt>0</asrwt>
<pdfrwt beam="1">  1        2 0.22639609E+00 0.98612421E+03</pdfrwt>
<pdfrwt beam="2">  1       -2 0.25416024E-01 0.98612421E+03</pdfrwt>
<totfact> 0.18305458E+02</totfact>
</mgrwt>
</event>
<event>
 4    1  0.8877834E-005  0.4239067E+03  0.7818608E-02  0.1035802E+00
         -2   -1    0    0    0  501 -0.00000000000E+00  0.00000000000E+00  0.58542020604E+02  0.58542020659E+02  0.25500000000E-02 0. -1.
          2   -1    0    0  501    0  0.00000000000E+00 -0.00000000000E+00 -0.76738437614E+03  0.76738437614E+03  0.25500000000E-02 0.  1.
    5000001    1    1    2    0    0 -0.10673588075E+03  0.25827655915E+02 -0.20810384199E+03  0.28738793485E+03  0.16500000000E+03 0.  0.
   -5000001    1    1    2    0    0  0.10673588075E+03 -0.25827655915E+02 -0.50073851354E+03  0.53853846195E+03  0.16500000000E+03 0.  0.
<mgrwt>
<rscale>  0 0.42390674E+03</rscale>
<asrwt>0</asrwt>
<pdfrwt beam="1">  1        2 0.11805913E+00 0.42390674E+03</pdfrwt>
<pdfrwt beam="2">  1       -2 0.90064653E-02 0.42390674E+03</pdfrwt>
<totfact> 0.29477954E+03</totfact>
</mgrwt>
</event>
<event>
 4    1  0.8877834E-005  0.4425222E+03  0.7818608E-02  0.1029976E+00
          2   -1    0    0  501    0  0.00000000000E+00  0.00000000000E+00  0.13921099372E+04  0.13921099372E+04  0.25500000000E-02 0.  1.
         -2   -1    0    0    0  501 -0.00000000000E+00 -0.00000000000E+00 -0.35167108797E+02  0.35167108890E+02  0.25500000000E-02 0. -1.
    5000001    1    1    2    0    0  0.39997262491E+02  0.14162214888E+03  0.65056396024E+03  0.68710630941E+03  0.16500000000E+03 0.  0.
   -5000001    1    1    2    0    0 -0.39997262491E+02 -0.14162214888E+03  0.70637886816E+03  0.74017073668E+03  0.16500000000E+03 0.  0.
<mgrwt>
<rscale>  0 0.44252223E+03</rscale>
<asrwt>0</asrwt>
<pdfrwt beam="1">  1        2 0.21417077E+00 0.44252223E+03</pdfrwt>
<pdfrwt beam="2">  1       -2 0.54103242E-02 0.44252223E+03</pdfrwt>
<totfact> 0.27072347E+03</totfact>
</mgrwt>
</event>
<event>
 4    1  0.8877834E-005  0.6645777E+03  0.7818608E-02  0.9779803E-01
         -2   -1    0    0    0  501 -0.00000000000E+00  0.00000000000E+00  0.73656232661E+02  0.73656232705E+02  0.25500000000E-02 0. -1.
          2   -1    0    0  501    0  0.00000000000E+00 -0.00000000000E+00 -0.14990702632E+04  0.14990702632E+04  0.25500000000E-02 0.  1.
    5000001    1    1    2    0    0  0.24410520743E+03  0.15360847459E+03 -0.71938054103E+03  0.79241168503E+03  0.16500000000E+03 0.  0.
   -5000001    1    1    2    0    0 -0.24410520743E+03 -0.15360847459E+03 -0.70603348946E+03  0.78031481083E+03  0.16500000000E+03 0.  0.
<mgrwt>
<rscale>  0 0.66457766E+03</rscale>
<asrwt>0</asrwt>
<pdfrwt beam="1">  1        2 0.23062617E+00 0.66457766E+03</pdfrwt>
<pdfrwt beam="2">  1       -2 0.11331729E-01 0.66457766E+03</pdfrwt>
<totfact> 0.72265739E+02</totfact>
</mgrwt>
</event>
<event>
 4    1  0.8877834E-005  0.7347003E+03  0.7818608E-02  0.9659664E-01
          2   -1    0    0  501    0  0.00000000000E+00  0.00000000000E+00  0.32548043651E+03  0.32548043652E+03  0.25500000000E-02 0.  1.
         -2   -1    0    0    0  501 -0.00000000000E+00 -0.00000000000E+00 -0.41460592075E+03  0.41460592076E+03  0.25500000000E-02 0. -1.
    5000001    1    1    2    0    0 -0.31139359669E+03  0.59929421390E+02 -0.12982132869E+03  0.38031051128E+03  0.16500000000E+03 0.  0.
   -5000001    1    1    2    0    0  0.31139359669E+03 -0.59929421390E+02  0.40695844447E+02  0.35977584600E+03  0.16500000000E+03 0.  0.
<mgrwt>
<rscale>  0 0.73470025E+03</rscale>
<asrwt>0</asrwt>
<pdfrwt beam="1">  1        2 0.50073913E-01 0.73470025E+03</pdfrwt>
<pdfrwt beam="2">  1       -2 0.63785527E-01 0.73470025E+03</pdfrwt>
<totfact> 0.23000098E+02</totfact>
</mgrwt>
</event>
<event>
 4    1  0.8877834E-005  0.4831383E+03  0.7818608E-02  0.1018276E+00
         -2   -1    0    0    0  501 -0.00000000000E+00  0.00000000000E+00  0.41719955737E+03  0.41719955738E+03  0.25500000000E-02 0. -1.
          2   -1    0    0  501    0  0.00000000000E+00 -0.00000000000E+00 -0.13987467442E+03  0.13987467445E+03  0.25500000000E-02 0.  1.
    5000001    1    1    2    0    0 -0.32060475864E+02 -0.13192028042E+03  0.87231916435E+01  0.21385024801E+03  0.16500000000E+03 0.  0.
   -5000001    1    1    2    0    0  0.32060475864E+02  0.13192028042E+03  0.26860169131E+03  0.34322398382E+03  0.16500000000E+03 0.  0.
<mgrwt>
<rscale>  0 0.48313829E+03</rscale>
<asrwt>0</asrwt>
<pdfrwt beam="1">  1        2 0.21519181E-01 0.48313829E+03</pdfrwt>
<pdfrwt beam="2">  1       -2 0.64184546E-01 0.48313829E+03</pdfrwt>
<totfact> 0.58911564E+02</totfact>
</mgrwt>
</event>
<event>
 4    1  0.8877834E-005  0.4734560E+03  0.7818608E-02  0.1020949E+00
          2   -1    0    0  501    0  0.00000000000E+00  0.00000000000E+00  0.10576901347E+04  0.10576901347E+04  0.25500000000E-02 0.  1.
         -2   -1    0    0    0  501 -0.00000000000E+00 -0.00000000000E+00 -0.52983512146E+02  0.52983512207E+02  0.25500000000E-02 0. -1.
    5000001    1    1    2    0    0 -0.72923319229E+02 -0.84222958067E+02  0.20189834722E+03  0.28354763226E+03  0.16500000000E+03 0.  0.
   -5000001    1    1    2    0    0  0.72923319229E+02  0.84222958067E+02  0.80280827530E+03  0.82712601461E+03  0.16500000000E+03 0.  0.
<mgrwt>
<rscale>  0 0.47345597E+03</rscale>
<asrwt>0</asrwt>
<pdfrwt beam="1">  1        2 0.16272153E+00 0.47345597E+03</pdfrwt>
<pdfrwt beam="2">  1       -2 0.81513111E-02 0.47345597E+03</pdfrwt>
<totfact> 0.22243956E+03</totfact>
</mgrwt>
</event>
<event>
 4    1  0.8877834E-005  0.7406355E+03  0.7818608E-02  0.9650157E-01
         -2   -1    0    0    0  501 -0.00000000000E+00  0.00000000000E+00  0.15391569945E+03  0.15391569947E+03  0.25500000000E-02 0. -1.
          2   -1    0    0  501    0  0.00000000000E+00 -0.00000000000E+00 -0.89097625543E+03  0.89097625543E+03  0.25500000000E-02 0.  1.
    5000001    1    1    2    0    0  0.58629795407E+02 -0.16865073697E+03  0.25561033096E+02  0.24445631594E+03  0.16500000000E+03 0.  0.
   -5000001    1    1    2    0    0 -0.58629795407E+02  0.16865073697E+03 -0.76262158908E+03  0.80043563896E+03  0.16500000000E+03 0.  0.
<mgrwt>
<rscale>  0 0.74063549E+03</rscale>
<asrwt>0</asrwt>
<pdfrwt beam="1">  1        2 0.13707327E+00 0.74063549E+03</pdfrwt>
<pdfrwt beam="2">  1       -2 0.23679339E-01 0.74063549E+03</pdfrwt>
<totfact> 0.47280304E+02</totfact>
</mgrwt>
</event>
<event>
 4    1  0.8877834E-005  0.5775111E+03  0.7818608E-02  0.9953194E-01
          2   -1    0    0  501    0  0.00000000000E+00  0.00000000000E+00  0.17535162372E+04  0.17535162372E+04  0.25500000000E-02 0.  1.
         -2   -1    0    0    0  501 -0.00000000000E+00 -0.00000000000E+00 -0.47550041729E+02  0.47550041797E+02  0.25500000000E-02 0. -1.
    5000001    1    1    2    0    0 -0.16455708465E+03  0.16885181366E+03  0.77886621101E+03  0.83032978011E+03  0.16500000000E+03 0.  0.
   -5000001    1    1    2    0    0  0.16455708465E+03 -0.16885181366E+03  0.92709998442E+03  0.97073649885E+03  0.16500000000E+03 0.  0.
<mgrwt>
<rscale>  0 0.57751111E+03</rscale>
<asrwt>0</asrwt>
<pdfrwt beam="1">  1        2 0.26977177E+00 0.57751111E+03</pdfrwt>
<pdfrwt beam="2">  1       -2 0.73153901E-02 0.57751111E+03</pdfrwt>
<totfact> 0.10667251E+03</totfact>
</mgrwt>
</event>
<event>
 4    1  0.8877834E-005  0.4072433E+03  0.7818608E-02  0.1041300E+00
         -2   -1    0    0    0  501 -0.00000000000E+00  0.00000000000E+00  0.30604404428E+02  0.30604404534E+02  0.25500000000E-02 0. -1.
          2   -1    0    0  501    0  0.00000000000E+00 -0.00000000000E+00 -0.13547649153E+04  0.13547649153E+04  0.25500000000E-02 0.  1.
    5000001    1    1    2    0    0  0.13431196222E+02 -0.75867168072E+02 -0.97201127681E+03  0.98892221457E+03  0.16500000000E+03 0.  0.
   -5000001    1    1    2    0    0 -0.13431196222E+02  0.75867168072E+02 -0.35214923405E+03  0.39644710525E+03  0.16500000000E+03 0.  0.
<mgrwt>
<rscale>  0 0.40724329E+03</rscale>
<asrwt>0</asrwt>
<pdfrwt beam="1">  1        2 0.20842532E+00 0.40724329E+03</pdfrwt>
<pdfrwt beam="2">  1       -2 0.47083710E-02 0.40724329E+03</pdfrwt>
<totfact> 0.35183509E+03</totfact>
</mgrwt>
</event>
<event>
 4    1  0.8877834E-005  0.5489632E+03  0.7818608E-02  0.1001734E+00
          2   -1    0    0  501    0  0.00000000000E+00  0.00000000000E+00  0.13891897634E+04  0.13891897634E+04  0.25500000000E-02 0.  1.
         -2   -1    0    0    0  501 -0.00000000000E+00 -0.00000000000E+00 -0.54233158215E+02  0.54233158274E+02  0.25500000000E-02 0. -1.
    5000001    1    1    2    0    0  0.99748664339E+01 -0.20710767717E+03  0.85565797720E+03  0.89575033455E+03  0.16500000000E+03 0.  0.
   -5000001    1    1    2    0    0 -0.99748664339E+01  0.20710767717E+03  0.47929862800E+03  0.54767258714E+03  0.16500000000E+03 0.  0.
<mgrwt>
<rscale>  0 0.54896320E+03</rscale>
<asrwt>0</asrwt>
<pdfrwt beam="1">  1        2 0.21372147E+00 0.54896320E+03</pdfrwt>
<pdfrwt beam="2">  1       -2 0.83435640E-02 0.54896320E+03</pdfrwt>
<totfact> 0.13725567E+03</totfact>
</mgrwt>
</event>
<event>
 4    1  0.8877834E-005  0.5462730E+03  0.7818608E-02  0.1002360E+00
          2   -1    0    0  501    0  0.00000000000E+00  0.00000000000E+00  0.50389699294E+02  0.50389699358E+02  0.25500000000E-02 0.  1.
         -2   -1    0    0    0  501 -0.00000000000E+00 -0.00000000000E+00 -0.14805317291E+04  0.14805317291E+04  0.25500000000E-02 0. -1.
    5000001    1    1    2    0    0 -0.10649973945E+03  0.12145488667E+03 -0.30620534176E+03  0.38351035882E+03  0.16500000000E+03 0.  0.
   -5000001    1    1    2    0    0  0.10649973945E+03 -0.12145488667E+03 -0.11239366881E+04  0.11474110697E+04  0.16500000000E+03 0.  0.
<mgrwt>
<rscale>  0 0.54627300E+03</rscale>
<asrwt>0</asrwt>
<pdfrwt beam="1">  1        2 0.77522626E-02 0.54627300E+03</pdfrwt>
<pdfrwt beam="2">  1       -2 0.22777408E+00 0.54627300E+03</pdfrwt>
<totfact> 0.84412252E+01</totfact>
</mgrwt>
</event>
<event>
 4    1  0.8877834E-005  0.5050332E+03  0.7818608E-02  0.1012473E+00
          2   -1    0    0  501    0  0.00000000000E+00  0.00000000000E+00  0.17226475842E+04  0.17226475842E+04  0.25500000000E-02 0.  1.
         -2   -1    0    0    0  501 -0.00000000000E+00 -0.00000000000E+00 -0.37015480566E+02  0.37015480654E+02  0.25500000000E-02 0. -1.
    5000001    1    1    2    0    0 -0.11814124352E+03  0.14373331298E+03  0.69002415245E+03  0.73346775638E+03  0.16500000000E+03 0.  0.
   -5000001    1    1    2    0    0  0.11814124352E+03 -0.14373331298E+03  0.99560795116E+03  0.10261953085E+04  0.16500000000E+03 0.  0.
<mgrwt>
<rscale>  0 0.50503318E+03</rscale>
<asrwt>0</asrwt>
<pdfrwt beam="1">  1        2 0.26502275E+00 0.50503318E+03</pdfrwt>
<pdfrwt beam="2">  1       -2 0.56946884E-02 0.50503318E+03</pdfrwt>
<totfact> 0.16481964E+03</totfact>
</mgrwt>
</event>
<event>
 4    1  0.8877834E-005  0.4528648E+03  0.7818608E-02  0.1026871E+00
          2   -1    0    0  501    0  0.00000000000E+00  0.00000000000E+00  0.12415154167E+04  0.12415154167E+04  0.25500000000E-02 0.  1.
         -2   -1    0    0    0  501 -0.00000000000E+00 -0.00000000000E+00 -0.41297610968E+02  0.41297611047E+02  0.25500000000E-02 0. -1.
    5000001    1    1    2    0    0  0.10613239742E+03 -0.10761694221E+03  0.50193645579E+03  0.54955499969E+03  0.16500000000E+03 0.  0.
   -5000001    1    1    2    0    0 -0.10613239742E+03  0.10761694221E+03  0.69828134993E+03  0.73325802805E+03  0.16500000000E+03 0.  0.
<mgrwt>
<rscale>  0 0.45286475E+03</rscale>
<asrwt>0</asrwt>
<pdfrwt beam="1">  1        2 0.19100234E+00 0.45286475E+03</pdfrwt>
<pdfrwt beam="2">  1       -2 0.63534796E-02 0.45286475E+03</pdfrwt>
<totfact> 0.25642222E+03</totfact>
</mgrwt>
</event>
<event>
 4    1  0.8877834E-005  0.6749640E+03  0.7818608E-02  0.9761032E-01
          2   -1    0    0  501    0  0.00000000000E+00  0.00000000000E+00  0.64279072273E+03  0.64279072273E+03  0.25500000000E-02 0.  1.
         -2   -1    0    0    0  501 -0.00000000000E+00 -0.00000000000E+00 -0.17718692405E+03  0.17718692406E+03  0.25500000000E-02 0. -1.
    5000001    1    1    2    0    0  0.17824310313E+03 -0.21038709145E+03  0.10751489257E+03  0.33884773009E+03  0.16500000000E+03 0.  0.
   -5000001    1    1    2    0    0 -0.17824310313E+03  0.21038709145E+03  0.35808890611E+03  0.48112991670E+03  0.16500000000E+03 0.  0.
<mgrwt>
<rscale>  0 0.67496403E+03</rscale>
<asrwt>0</asrwt>
<pdfrwt beam="1">  1        2 0.98890878E-01 0.67496403E+03</pdfrwt>
<pdfrwt beam="2">  1       -2 0.27259527E-01 0.67496403E+03</pdfrwt>
<totfact> 0.56138121E+02</totfact>
</mgrwt>
</event>
<event>
 4    1  0.8877834E-005  0.4612918E+03  0.7818608E-02  0.1024407E+00
         -2   -1    0    0    0  501 -0.00000000000E+00  0.00000000000E+00  0.27899095839E+02  0.27899095956E+02  0.25500000000E-02 0.  1.
          2   -1    0    0  501    0  0.00000000000E+00 -0.00000000000E+00 -0.19067835364E+04  0.19067835364E+04  0.25500000000E-02 0. -1.
    5000001    1    1    2    0    0 -0.13130703454E+03  0.50208718193E+02 -0.12699507821E+04  0.12883176789E+04  0.16500000000E+03 0.  0.
   -5000001    1    1    2    0    0  0.13130703454E+03 -0.50208718193E+02 -0.60893365841E+03  0.64636495345E+03  0.16500000000E+03 0.  0.
<mgrwt>
<rscale>  0 0.46129182E+03</rscale>
<asrwt>0</asrwt>
<pdfrwt beam="1">  1        2 0.29335121E+00 0.46129182E+03</pdfrwt>
<pdfrwt beam="2">  1       -2 0.42921701E-02 0.46129182E+03</pdfrwt>
<totfact> 0.20347133E+03</totfact>
</mgrwt>
</event>
<event>
 4    1  0.8877834E-005  0.6251634E+03  0.7818608E-02  0.9854533E-01
         -2   -1    0    0    0  501 -0.00000000000E+00  0.00000000000E+00  0.13440345335E+03  0.13440345338E+03  0.25500000000E-02 0. -1.
          2   -1    0    0  501    0  0.00000000000E+00 -0.00000000000E+00 -0.72697028421E+03  0.72697028421E+03  0.25500000000E-02 0.  1.
    5000001    1    1    2    0    0  0.23809460618E+03  0.60798928122E+02 -0.15783460670E+03  0.33544345906E+03  0.16500000000E+03 0.  0.
   -5000001    1    1    2    0    0 -0.23809460618E+03 -0.60798928122E+02 -0.43473222416E+03  0.52593027853E+03  0.16500000000E+03 0.  0.
<mgrwt>
<rscale>  0 0.62516339E+03</rscale>
<asrwt>0</asrwt>
<pdfrwt beam="1">  1        2 0.11184158E+00 0.62516339E+03</pdfrwt>
<pdfrwt beam="2">  1       -2 0.20677455E-01 0.62516339E+03</pdfrwt>
<totfact> 0.78992889E+02</totfact>
</mgrwt>
</event>
<event>
 4    1  0.8877834E-005  0.8265164E+03  0.7818608E-02  0.9522409E-01
         -2   -1    0    0    0  501 -0.00000000000E+00  0.00000000000E+00  0.23771667190E+03  0.23771667192E+03  0.25500000000E-02 0. -1.
          2   -1    0    0  501    0  0.00000000000E+00 -0.00000000000E+00 -0.71842808304E+03  0.71842808305E+03  0.25500000000E-02 0.  1.
    5000001    1    1    2    0    0  0.25747376229E+03 -0.91936161232E+02 -0.54381841701E+03  0.63064131381E+03  0.16500000000E+03 0.  0.
   -5000001    1    1    2    0    0 -0.25747376229E+03  0.91936161232E+02  0.63107005870E+02  0.32550344115E+03  0.16500000000E+03 0.  0.
<mgrwt>
<rscale>  0 0.82651638E+03</rscale>
<asrwt>0</asrwt>
<pdfrwt beam="1">  1        2 0.11052740E+00 0.82651638E+03</pdfrwt>
<pdfrwt beam="2">  1       -2 0.36571796E-01 0.82651638E+03</pdfrwt>
<totfact> 0.28034472E+02</totfact>
</mgrwt>
</event>
<event>
 4    1  0.8877834E-005  0.4896145E+03  0.7818608E-02  0.1016526E+00
          2   -1    0    0  501    0  0.00000000000E+00  0.00000000000E+00  0.12002448570E+04  0.12002448570E+04  0.25500000000E-02 0.  1.
         -2   -1    0    0    0  501 -0.00000000000E+00 -0.00000000000E+00 -0.49931976680E+02  0.49931976745E+02  0.25500000000E-02 0. -1.
    5000001    1    1    2    0    0 -0.17731452353E+01  0.18000285956E+03  0.61948734601E+03  0.66587817606E+03  0.16500000000E+03 0.  0.
   -5000001    1    1    2    0    0  0.17731452353E+01 -0.18000285956E+03  0.53082553434E+03  0.58429865771E+03  0.16500000000E+03 0.  0.
<mgrwt>
<rscale>  0 0.48961454E+03</rscale>
<asrwt>0</asrwt>
<pdfrwt beam="1">  1        2 0.18465306E+00 0.48961454E+03</pdfrwt>
<pdfrwt beam="2">  1       -2 0.76818425E-02 0.48961454E+03</pdfrwt>
<totfact> 0.20090847E+03</totfact>
</mgrwt>
</event>
<event>
 4    1  0.8877834E-005  0.3889604E+03  0.7818608E-02  0.1047671E+00
         -2   -1    0    0    0  501 -0.00000000000E+00  0.00000000000E+00  0.12960826189E+02  0.12960826440E+02  0.25500000000E-02 0. -1.
          2   -1    0    0  501    0  0.00000000000E+00 -0.00000000000E+00 -0.29182211686E+04  0.29182211686E+04  0.25500000000E-02 0.  1.
    5000001    1    1    2    0    0 -0.13586154837E+02 -0.95337372187E+02 -0.11784463031E+04  0.11938318506E+04  0.16500000000E+03 0.  0.
   -5000001    1    1    2    0    0  0.13586154837E+02  0.95337372187E+02 -0.17268140393E+04  0.17373501444E+04  0.16500000000E+03 0.  0.
<mgrwt>
<rscale>  0 0.38896045E+03</rscale>
<asrwt>0</asrwt>
<pdfrwt beam="1">  1        2 0.44895658E+00 0.38896045E+03</pdfrwt>
<pdfrwt beam="2">  1       -2 0.19939756E-02 0.38896045E+03</pdfrwt>
<totfact> 0.17831267E+03</totfact>
</mgrwt>
</event>
<event>
 4    1  0.8877834E-005  0.3974259E+03  0.7818608E-02  0.1044675E+00
          2   -1    0    0  501    0  0.00000000000E+00  0.00000000000E+00  0.41630282372E+03  0.41630282373E+03  0.25500000000E-02 0. -1.
         -2   -1    0    0    0  501 -0.00000000000E+00 -0.00000000000E+00 -0.94851236220E+02  0.94851236254E+02  0.25500000000E-02 0.  1.
    5000001    1    1    2    0    0 -0.50659395797E+02 -0.98450635826E+02  0.15852220950E+03  0.25419125276E+03  0.16500000000E+03 0.  0.
   -5000001    1    1    2    0    0  0.50659395797E+02  0.98450635826E+02  0.16292937800E+03  0.25696280722E+03  0.16500000000E+03 0.  0.
<mgrwt>
<rscale>  0 0.39742590E+03</rscale>
<asrwt>0</asrwt>
<pdfrwt beam="1">  1        2 0.64046587E-01 0.39742590E+03</pdfrwt>
<pdfrwt beam="2">  1       -2 0.14592498E-01 0.39742590E+03</pdfrwt>
<totfact> 0.27542155E+03</totfact>
</mgrwt>
</event>
<event>
 4    1  0.8877834E-005  0.3641542E+03  0.7818608E-02  0.1056951E+00
          2   -1    0    0  501    0  0.00000000000E+00  0.00000000000E+00  0.21835057088E+02  0.21835057236E+02  0.25500000000E-02 0.  1.
         -2   -1    0    0    0  501 -0.00000000000E+00 -0.00000000000E+00 -0.15182952402E+04  0.15182952402E+04  0.25500000000E-02 0. -1.
    5000001    1    1    2    0    0 -0.24190711212E+02 -0.69753620257E+02 -0.84053289683E+03  0.85975072475E+03  0.16500000000E+03 0.  0.
   -5000001    1    1    2    0    0  0.24190711212E+02  0.69753620257E+02 -0.65592728629E+03  0.68037957270E+03  0.16500000000E+03 0.  0.
<mgrwt>
<rscale>  0 0.36415416E+03</rscale>
<asrwt>0</asrwt>
<pdfrwt beam="1">  1        2 0.33592408E-02 0.36415416E+03</pdfrwt>
<pdfrwt beam="2">  1       -2 0.23358380E+00 0.36415416E+03</pdfrwt>
<totfact> 0.24056203E+02</totfact>
</mgrwt>
</event>
<event>
 4    1  0.8877834E-005  0.4921058E+03  0.7818608E-02  0.1015860E+00
         -2   -1    0    0    0  501 -0.00000000000E+00  0.00000000000E+00  0.37631474021E+02  0.37631474107E+02  0.25500000000E-02 0. -1.
          2   -1    0    0  501    0  0.00000000000E+00 -0.00000000000E+00 -0.16088135946E+04  0.16088135946E+04  0.25500000000E-02 0.  1.
    5000001    1    1    2    0    0 -0.17607073501E+03  0.45180977022E+02 -0.84105353352E+03  0.87614968507E+03  0.16500000000E+03 0.  0.
   -5000001    1    1    2    0    0  0.17607073501E+03 -0.45180977022E+02 -0.73012858710E+03  0.77029538367E+03  0.16500000000E+03 0.  0.
<mgrwt>
<rscale>  0 0.49210579E+03</rscale>
<asrwt>0</asrwt>
<pdfrwt beam="1">  1        2 0.24750973E+00 0.49210579E+03</pdfrwt>
<pdfrwt beam="2">  1       -2 0.57894588E-02 0.49210579E+03</pdfrwt>
<totfact> 0.18519170E+03</totfact>
</mgrwt>
</event>
<event>
 4    1  0.8877834E-005  0.4782747E+03  0.7818608E-02  0.1019610E+00
         -2   -1    0    0    0  501 -0.00000000000E+00  0.00000000000E+00  0.50599109837E+02  0.50599109901E+02  0.25500000000E-02 0. -1.
          2   -1    0    0  501    0  0.00000000000E+00 -0.00000000000E+00 -0.11301914314E+04  0.11301914314E+04  0.25500000000E-02 0.  1.
    5000001    1    1    2    0    0  0.54632361487E+02 -0.97942663865E+02 -0.86531267937E+03  0.88801379122E+03  0.16500000000E+03 0.  0.
   -5000001    1    1    2    0    0 -0.54632361487E+02  0.97942663865E+02 -0.21427964218E+03  0.29277675007E+03  0.16500000000E+03 0.  0.
<mgrwt>
<rscale>  0 0.47827473E+03</rscale>
<asrwt>0</asrwt>
<pdfrwt beam="1">  1        2 0.17387559E+00 0.47827473E+03</pdfrwt>
<pdfrwt beam="2">  1       -2 0.77844793E-02 0.47827473E+03</pdfrwt>
<totfact> 0.21636026E+03</totfact>
</mgrwt>
</event>
<event>
 4    1  0.8877834E-005  0.4881628E+03  0.7818608E-02  0.1016916E+00
         -2   -1    0    0    0  501 -0.00000000000E+00  0.00000000000E+00  0.99885993666E+02  0.99885993698E+02  0.25500000000E-02 0. -1.
          2   -1    0    0  501    0  0.00000000000E+00 -0.00000000000E+00 -0.59643736460E+03  0.59643736460E+03  0.25500000000E-02 0.  1.
    5000001    1    1    2    0    0 -0.17710323452E+03  0.25873333656E+02 -0.22292903835E+03  0.33008686919E+03  0.16500000000E+03 0.  0.
   -5000001    1    1    2    0    0  0.17710323452E+03 -0.25873333656E+02 -0.27362233258E+03  0.36623648912E+03  0.16500000000E+03 0.  0.
<mgrwt>
<rscale>  0 0.48816284E+03</rscale>
<asrwt>0</asrwt>
<pdfrwt beam="1">  1        2 0.91759592E-01 0.48816284E+03</pdfrwt>
<pdfrwt beam="2">  1       -2 0.15367076E-01 0.48816284E+03</pdfrwt>
<totfact> 0.16781417E+03</totfact>
</mgrwt>
</event>
<event>
 4    1  0.8877834E-005  0.8051293E+03  0.7818608E-02  0.9552622E-01
          2   -1    0    0  501    0  0.00000000000E+00  0.00000000000E+00  0.17056498645E+04  0.17056498645E+04  0.25500000000E-02 0.  1.
         -2   -1    0    0    0  501 -0.00000000000E+00 -0.00000000000E+00 -0.95012639935E+02  0.95012639970E+02  0.25500000000E-02 0. -1.
    5000001    1    1    2    0    0  0.67904310150E+02 -0.31274531477E+03  0.12079652617E+04  0.12604862954E+04  0.16500000000E+03 0.  0.
   -5000001    1    1    2    0    0 -0.67904310150E+02  0.31274531477E+03  0.40267196288E+03  0.54017620915E+03  0.16500000000E+03 0.  0.
<mgrwt>
<rscale>  0 0.80512930E+03</rscale>
<asrwt>0</asrwt>
<pdfrwt beam="1">  1        2 0.26240769E+00 0.80512930E+03</pdfrwt>
<pdfrwt beam="2">  1       -2 0.14617328E-01 0.80512930E+03</pdfrwt>
<totfact> 0.36099485E+02</totfact>
</mgrwt>
</event>
<event>
 4    1  0.8877834E-005  0.3993977E+03  0.7818608E-02  0.1043988E+00
          2   -1    0    0  501    0  0.00000000000E+00  0.00000000000E+00  0.15116532110E+04  0.15116532110E+04  0.25500000000E-02 0.  1.
         -2   -1    0    0    0  501 -0.00000000000E+00 -0.00000000000E+00 -0.26381468554E+02  0.26381468677E+02  0.25500000000E-02 0. -1.
    5000001    1    1    2    0    0  0.10964275060E+03  0.23217500434E+02  0.70529088907E+03  0.73295349327E+03  0.16500000000E+03 0.  0.
   -5000001    1    1    2    0    0 -0.10964275060E+03 -0.23217500434E+02  0.77998085341E+03  0.80508118645E+03  0.16500000000E+03 0.  0.
<mgrwt>
<rscale>  0 0.39939771E+03</rscale>
<asrwt>0</asrwt>
<pdfrwt beam="1">  1        2 0.23256197E+00 0.39939771E+03</pdfrwt>
<pdfrwt beam="2">  1       -2 0.40586885E-02 0.39939771E+03</pdfrwt>
<totfact> 0.36193904E+03</totfact>
</mgrwt>
</event>
<event>
 4    1  0.8877834E-005  0.4891100E+03  0.7818608E-02  0.1016661E+00
          2   -1    0    0  501    0  0.00000000000E+00  0.00000000000E+00  0.76192427796E+03  0.76192427797E+03  0.25500000000E-02 0.  1.
         -2   -1    0    0    0  501 -0.00000000000E+00 -0.00000000000E+00 -0.78494880953E+02  0.78494880995E+02  0.25500000000E-02 0. -1.
    5000001    1    1    2    0    0 -0.17334069481E+03  0.36694192520E+02  0.40095600706E+03  0.46838464945E+03  0.16500000000E+03 0.  0.
   -5000001    1    1    2    0    0  0.17334069481E+03 -0.36694192520E+02  0.28247338995E+03  0.37203450951E+03  0.16500000000E+03 0.  0.
<mgrwt>
<rscale>  0 0.48911003E+03</rscale>
<asrwt>0</asrwt>
<pdfrwt beam="1">  1        2 0.11721912E+00 0.48911003E+03</pdfrwt>
<pdfrwt beam="2">  1       -2 0.12076136E-01 0.48911003E+03</pdfrwt>
<totfact> 0.18523792E+03</totfact>
</mgrwt>
</event>
<event>
 4    1  0.8877834E-005  0.5637642E+03  0.7818608E-02  0.9983573E-01
          2   -1    0    0  501    0  0.00000000000E+00  0.00000000000E+00  0.13186478875E+04  0.13186478875E+04  0.25500000000E-02 0.  1.
         -2   -1    0    0    0  501 -0.00000000000E+00 -0.00000000000E+00 -0.60256804295E+02  0.60256804349E+02  0.25500000000E-02 0. -1.
    5000001    1    1    2    0    0 -0.17287257566E+03 -0.13248185820E+03  0.45980755743E+03  0.53486854463E+03  0.16500000000E+03 0.  0.
   -5000001    1    1    2    0    0  0.17287257566E+03  0.13248185820E+03  0.79858352573E+03  0.84403614717E+03  0.16500000000E+03 0.  0.
<mgrwt>
<rscale>  0 0.56376416E+03</rscale>
<asrwt>0</asrwt>
<pdfrwt beam="1">  1        2 0.20286890E+00 0.56376416E+03</pdfrwt>
<pdfrwt beam="2">  1       -2 0.92702778E-02 0.56376416E+03</pdfrwt>
<totfact> 0.12699394E+03</totfact>
</mgrwt>
</event>
<event>
 4    1  0.8877834E-005  0.5988793E+03  0.7818608E-02  0.9907734E-01
          2   -1    0    0  501    0  0.00000000000E+00  0.00000000000E+00  0.36198230562E+03  0.36198230563E+03  0.25500000000E-02 0.  1.
         -2   -1    0    0    0  501 -0.00000000000E+00 -0.00000000000E+00 -0.24770297342E+03  0.24770297344E+03  0.25500000000E-02 0. -1.
    5000001    1    1    2    0    0  0.41300146496E+02 -0.23395294831E+03 -0.21713780193E+02  0.29006235945E+03  0.16500000000E+03 0.  0.
   -5000001    1    1    2    0    0 -0.41300146496E+02  0.23395294831E+03  0.13599311239E+03  0.31962291961E+03  0.16500000000E+03 0.  0.
<mgrwt>
<rscale>  0 0.59887926E+03</rscale>
<asrwt>0</asrwt>
<pdfrwt beam="1">  1        2 0.55689585E-01 0.59887926E+03</pdfrwt>
<pdfrwt beam="2">  1       -2 0.38108150E-01 0.59887926E+03</pdfrwt>
<totfact> 0.58263191E+02</totfact>
</mgrwt>
</event>
<event>
 4    1  0.8877834E-005  0.4303481E+03  0.7818608E-02  0.1033750E+00
          2   -1    0    0  501    0  0.00000000000E+00  0.00000000000E+00  0.40872651898E+03  0.40872651899E+03  0.25500000000E-02 0.  1.
         -2   -1    0    0    0  501 -0.00000000000E+00 -0.00000000000E+00 -0.11327836770E+03  0.11327836773E+03  0.25500000000E-02 0. -1.
    5000001    1    1    2    0    0 -0.50113179808E+02 -0.77368441667E+02  0.22971475620E+02  0.19039405256E+03  0.16500000000E+03 0.  0.
   -5000001    1    1    2    0    0  0.50113179808E+02  0.77368441667E+02  0.27247667566E+03  0.33161083416E+03  0.16500000000E+03 0.  0.
<mgrwt>
<rscale>  0 0.43034811E+03</rscale>
<asrwt>0</asrwt>
<pdfrwt beam="1">  1        2 0.62881003E-01 0.43034811E+03</pdfrwt>
<pdfrwt beam="2">  1       -2 0.17427441E-01 0.43034811E+03</pdfrwt>
<totfact> 0.20875149E+03</totfact>
</mgrwt>
</event>
<event>
 4    1  0.8877834E-005  0.5917255E+03  0.7818608E-02  0.9922723E-01
          2   -1    0    0  501    0  0.00000000000E+00  0.00000000000E+00  0.94441437816E+03  0.94441437816E+03  0.25500000000E-02 0.  1.
         -2   -1    0    0    0  501 -0.00000000000E+00 -0.00000000000E+00 -0.92686809483E+02  0.92686809518E+02  0.25500000000E-02 0. -1.
    5000001    1    1    2    0    0  0.67431499251E+02  0.23351047165E+03  0.36425519744E+03  0.46795405364E+03  0.16500000000E+03 0.  0.
   -5000001    1    1    2    0    0 -0.67431499251E+02 -0.23351047165E+03  0.48747237124E+03  0.56914713404E+03  0.16500000000E+03 0.  0.
<mgrwt>
<rscale>  0 0.59172546E+03</rscale>
<asrwt>0</asrwt>
<pdfrwt beam="1">  1        2 0.14529451E+00 0.59172546E+03</pdfrwt>
<pdfrwt beam="2">  1       -2 0.14259510E-01 0.59172546E+03</pdfrwt>
<totfact> 0.10523784E+03</totfact>
</mgrwt>
</event>
