<event>
 4    1  0.5056513E-005  0.4494014E+03  0.7818608E-02  0.1027901E+00
          2   -1    0    0  501    0  0.00000000000E+00  0.00000000000E+00  0.15230752275E+04  0.15230752275E+04  0.25500000000E-02 0.  1.
         -2   -1    0    0    0  501 -0.00000000000E+00 -0.00000000000E+00 -0.33150296335E+02  0.33150296433E+02  0.25500000000E-02 0. -1.
    5000001    1    1    2    0    0  0.95765072114E+02  0.39697359855E+02  0.78630963887E+03  0.81769840259E+03  0.19900000000E+03 0.  0.
   -5000001    1    1    2    0    0 -0.95765072114E+02 -0.39697359855E+02  0.70361529234E+03  0.73852712139E+03  0.19900000000E+03 0.  0.
<mgrwt>
<rscale>  0 0.44940136E+03</rscale>
<asrwt>0</asrwt>
<pdfrwt beam="1">  1        2 0.21758218E+00 0.44940136E+03</pdfrwt>
<pdfrwt beam="2">  1       -2 0.47357565E-02 0.44940136E+03</pdfrwt>
<totfact> 0.32319877E+03</totfact>
</mgrwt>
</event>
<event>
 4    1  0.5056513E-005  0.7012097E+03  0.7818608E-02  0.9715166E-01
         -2   -1    0    0    0  501 -0.00000000000E+00  0.00000000000E+00  0.11605722788E+03  0.11605722791E+03  0.25500000000E-02 0. -1.
          2   -1    0    0  501    0  0.00000000000E+00 -0.00000000000E+00 -0.10591651799E+04  0.10591651799E+04  0.25500000000E-02 0.  1.
    5000001    1    1    2    0    0 -0.10676267965E+03  0.21052490970E+03 -0.75000979811E+03  0.81107009847E+03  0.19900000000E+03 0.  0.
   -5000001    1    1    2    0    0  0.10676267965E+03 -0.21052490970E+03 -0.19309815393E+03  0.36415230937E+03  0.19900000000E+03 0.  0.
<mgrwt>
<rscale>  0 0.70120974E+03</rscale>
<asrwt>0</asrwt>
<pdfrwt beam="1">  1        2 0.15130931E+00 0.70120974E+03</pdfrwt>
<pdfrwt beam="2">  1       -2 0.16579605E-01 0.70120974E+03</pdfrwt>
<totfact> 0.76711807E+02</totfact>
</mgrwt>
</event>
<event>
 4    1  0.5056513E-005  0.5530391E+03  0.7818608E-02  0.1000793E+00
         -2   -1    0    0    0  501 -0.00000000000E+00  0.00000000000E+00  0.99459779120E+02  0.99459779153E+02  0.25500000000E-02 0. -1.
          2   -1    0    0  501    0  0.00000000000E+00 -0.00000000000E+00 -0.76878379419E+03  0.76878379419E+03  0.25500000000E-02 0.  1.
    5000001    1    1    2    0    0 -0.91103608638E+01  0.92652318989E+02 -0.59827621607E+03  0.63734047542E+03  0.19900000000E+03 0.  0.
   -5000001    1    1    2    0    0  0.91103608638E+01 -0.92652318989E+02 -0.71047798994E+02  0.23090309792E+03  0.19900000000E+03 0.  0.
<mgrwt>
<rscale>  0 0.55303912E+03</rscale>
<asrwt>0</asrwt>
<pdfrwt beam="1">  1        2 0.10982625E+00 0.55303912E+03</pdfrwt>
<pdfrwt beam="2">  1       -2 0.14208540E-01 0.55303912E+03</pdfrwt>
<totfact> 0.15370399E+03</totfact>
</mgrwt>
</event>
<event>
 4    1  0.5056513E-005  0.6769658E+03  0.7818608E-02  0.9757455E-01
         -2   -1    0    0    0  501 -0.00000000000E+00  0.00000000000E+00  0.11211730715E+03  0.11211730718E+03  0.25500000000E-02 0. -1.
          2   -1    0    0  501    0  0.00000000000E+00 -0.00000000000E+00 -0.10218821306E+04  0.10218821306E+04  0.25500000000E-02 0.  1.
    5000001    1    1    2    0    0  0.97757437178E+02  0.24867984706E+03 -0.35477394179E+03  0.48668648289E+03  0.19900000000E+03 0.  0.
   -5000001    1    1    2    0    0 -0.97757437178E+02 -0.24867984706E+03 -0.55499088168E+03  0.64731295492E+03  0.19900000000E+03 0.  0.
<mgrwt>
<rscale>  0 0.67696580E+03</rscale>
<asrwt>0</asrwt>
<pdfrwt beam="1">  1        2 0.14598316E+00 0.67696580E+03</pdfrwt>
<pdfrwt beam="2">  1       -2 0.16016759E-01 0.67696580E+03</pdfrwt>
<totfact> 0.85728637E+02</totfact>
</mgrwt>
</event>
<event>
 4    1  0.5056513E-005  0.4711087E+03  0.7818608E-02  0.1021608E+00
          2   -1    0    0  501    0  0.00000000000E+00  0.00000000000E+00  0.23193654580E+04  0.23193654580E+04  0.25500000000E-02 0.  1.
         -2   -1    0    0    0  501 -0.00000000000E+00 -0.00000000000E+00 -0.23922856757E+02  0.23922856893E+02  0.25500000000E-02 0. -1.
    5000001    1    1    2    0    0  0.10356179261E+03 -0.54027970919E+02  0.91226823518E+03  0.94099861820E+03  0.19900000000E+03 0.  0.
   -5000001    1    1    2    0    0 -0.10356179261E+03  0.54027970919E+02  0.13831743660E+04  0.14022896967E+04  0.19900000000E+03 0.  0.
<mgrwt>
<rscale>  0 0.47110868E+03</rscale>
<asrwt>0</asrwt>
<pdfrwt beam="1">  1        2 0.33133807E+00 0.47110868E+03</pdfrwt>
<pdfrwt beam="2">  1       -2 0.34175495E-02 0.47110868E+03</pdfrwt>
<totfact> 0.21203851E+03</totfact>
</mgrwt>
</event>
<event>
 4    1  0.5056513E-005  0.6616922E+03  0.7818608E-02  0.9785084E-01
         -2   -1    0    0    0  501 -0.00000000000E+00  0.00000000000E+00  0.88609728373E+02  0.88609728409E+02  0.25500000000E-02 0. -1.
          2   -1    0    0  501    0  0.00000000000E+00 -0.00000000000E+00 -0.12352948244E+04  0.12352948244E+04  0.25500000000E-02 0.  1.
    5000001    1    1    2    0    0 -0.21004575645E+03 -0.11506782957E+03 -0.34966294852E+03  0.46821469730E+03  0.19900000000E+03 0.  0.
   -5000001    1    1    2    0    0  0.21004575645E+03  0.11506782957E+03 -0.79702214755E+03  0.85568985555E+03  0.19900000000E+03 0.  0.
<mgrwt>
<rscale>  0 0.66169219E+03</rscale>
<asrwt>0</asrwt>
<pdfrwt beam="1">  1        2 0.17647068E+00 0.66169219E+03</pdfrwt>
<pdfrwt beam="2">  1       -2 0.12658533E-01 0.66169219E+03</pdfrwt>
<totfact> 0.95807044E+02</totfact>
</mgrwt>
</event>
<event>
 4    1  0.5056513E-005  0.1161778E+04  0.7818608E-02  0.9146986E-01
         -2   -1    0    0    0  501 -0.00000000000E+00  0.00000000000E+00  0.65825103594E+03  0.65825103594E+03  0.25500000000E-02 0. -1.
          2   -1    0    0  501    0  0.00000000000E+00 -0.00000000000E+00 -0.51261940559E+03  0.51261940560E+03  0.25500000000E-02 0.  1.
    5000001    1    1    2    0    0 -0.18251861863E+03 -0.17928900728E+03 -0.41300822291E+03  0.52500893942E+03  0.19900000000E+03 0.  0.
   -5000001    1    1    2    0    0  0.18251861863E+03  0.17928900728E+03  0.55863985326E+03  0.64586150212E+03  0.19900000000E+03 0.  0.
<mgrwt>
<rscale>  0 0.11617784E+04</rscale>
<asrwt>0</asrwt>
<pdfrwt beam="1">  1        2 0.73231344E-01 0.11617784E+04</pdfrwt>
<pdfrwt beam="2">  1       -2 0.94035862E-01 0.11617784E+04</pdfrwt>
<totfact> 0.61671913E+01</totfact>
</mgrwt>
</event>
<event>
 4    1  0.5056513E-005  0.5608346E+03  0.7818608E-02  0.9990168E-01
          2   -1    0    0  501    0  0.00000000000E+00  0.00000000000E+00  0.14883920847E+04  0.14883920847E+04  0.25500000000E-02 0.  1.
         -2   -1    0    0    0  501 -0.00000000000E+00 -0.00000000000E+00 -0.52831421403E+02  0.52831421464E+02  0.25500000000E-02 0. -1.
    5000001    1    1    2    0    0 -0.17421783857E+03  0.88474112679E+02  0.79805772827E+03  0.84538551061E+03  0.19900000000E+03 0.  0.
   -5000001    1    1    2    0    0  0.17421783857E+03 -0.88474112679E+02  0.63750293499E+03  0.69583799552E+03  0.19900000000E+03 0.  0.
<mgrwt>
<rscale>  0 0.56083463E+03</rscale>
<asrwt>0</asrwt>
<pdfrwt beam="1">  1        2 0.21262743E+00 0.56083463E+03</pdfrwt>
<pdfrwt beam="2">  1       -2 0.75473465E-02 0.56083463E+03</pdfrwt>
<totfact> 0.16243617E+03</totfact>
</mgrwt>
</event>
<event>
 4    1  0.5056513E-005  0.6047557E+03  0.7818608E-02  0.9895588E-01
          2   -1    0    0  501    0  0.00000000000E+00  0.00000000000E+00  0.31756589779E+03  0.31756589780E+03  0.25500000000E-02 0.  1.
         -2   -1    0    0    0  501 -0.00000000000E+00 -0.00000000000E+00 -0.28791622568E+03  0.28791622569E+03  0.25500000000E-02 0. -1.
    5000001    1    1    2    0    0 -0.15905864194E+03  0.74171926446E+02  0.16001711825E+03  0.30985093897E+03  0.19900000000E+03 0.  0.
   -5000001    1    1    2    0    0  0.15905864194E+03 -0.74171926446E+02 -0.13036744613E+03  0.29563118452E+03  0.19900000000E+03 0.  0.
<mgrwt>
<rscale>  0 0.60475573E+03</rscale>
<asrwt>0</asrwt>
<pdfrwt beam="1">  1        2 0.45366557E-01 0.60475573E+03</pdfrwt>
<pdfrwt beam="2">  1       -2 0.41130889E-01 0.60475573E+03</pdfrwt>
<totfact> 0.63060497E+02</totfact>
</mgrwt>
</event>
<event>
 4    1  0.5056513E-005  0.8893165E+03  0.7818608E-02  0.9439036E-01
         -2   -1    0    0    0  501 -0.00000000000E+00  0.00000000000E+00  0.11075195339E+03  0.11075195342E+03  0.25500000000E-02 0. -1.
          2   -1    0    0  501    0  0.00000000000E+00 -0.00000000000E+00 -0.17852592062E+04  0.17852592062E+04  0.25500000000E-02 0.  1.
    5000001    1    1    2    0    0 -0.35235403326E+03  0.18305003753E+03 -0.79156422309E+03  0.90765389895E+03  0.19900000000E+03 0.  0.
   -5000001    1    1    2    0    0  0.35235403326E+03 -0.18305003753E+03 -0.88294302976E+03  0.98835726071E+03  0.19900000000E+03 0.  0.
<mgrwt>
<rscale>  0 0.88931647E+03</rscale>
<asrwt>0</asrwt>
<pdfrwt beam="1">  1        2 0.25503701E+00 0.88931647E+03</pdfrwt>
<pdfrwt beam="2">  1       -2 0.15821709E-01 0.88931647E+03</pdfrwt>
<totfact> 0.33363400E+02</totfact>
</mgrwt>
</event>
<event>
 4    1  0.5056513E-005  0.4921799E+03  0.7818608E-02  0.1015840E+00
          2   -1    0    0  501    0  0.00000000000E+00  0.00000000000E+00  0.76606011972E+03  0.76606011972E+03  0.25500000000E-02 0.  1.
         -2   -1    0    0    0  501 -0.00000000000E+00 -0.00000000000E+00 -0.79054199345E+02  0.79054199386E+02  0.25500000000E-02 0. -1.
    5000001    1    1    2    0    0  0.12631018402E+03  0.64393447556E+02  0.39381354632E+03  0.46345537859E+03  0.19900000000E+03 0.  0.
   -5000001    1    1    2    0    0 -0.12631018402E+03 -0.64393447556E+02  0.29319237405E+03  0.38165894052E+03  0.19900000000E+03 0.  0.
<mgrwt>
<rscale>  0 0.49217992E+03</rscale>
<asrwt>0</asrwt>
<pdfrwt beam="1">  1        2 0.10943716E+00 0.49217992E+03</pdfrwt>
<pdfrwt beam="2">  1       -2 0.11293457E-01 0.49217992E+03</pdfrwt>
<totfact> 0.22552063E+03</totfact>
</mgrwt>
</event>
<event>
 4    1  0.5056513E-005  0.6634652E+03  0.7818608E-02  0.9781836E-01
         -2   -1    0    0    0  501 -0.00000000000E+00  0.00000000000E+00  0.76262553081E+02  0.76262553124E+02  0.25500000000E-02 0. -1.
          2   -1    0    0  501    0  0.00000000000E+00 -0.00000000000E+00 -0.14429953940E+04  0.14429953940E+04  0.25500000000E-02 0.  1.
    5000001    1    1    2    0    0  0.20255834567E+03 -0.15877855582E+03 -0.53487670956E+03  0.62604680945E+03  0.19900000000E+03 0.  0.
   -5000001    1    1    2    0    0 -0.20255834567E+03  0.15877855582E+03 -0.83185613131E+03  0.89321113763E+03  0.19900000000E+03 0.  0.
<mgrwt>
<rscale>  0 0.66346518E+03</rscale>
<asrwt>0</asrwt>
<pdfrwt beam="1">  1        2 0.20614218E+00 0.66346518E+03</pdfrwt>
<pdfrwt beam="2">  1       -2 0.10894651E-01 0.66346518E+03</pdfrwt>
<totfact> 0.94689878E+02</totfact>
</mgrwt>
</event>
<event>
 4    1  0.5056513E-005  0.7197894E+03  0.7818608E-02  0.9683976E-01
         -2   -1    0    0    0  501 -0.00000000000E+00  0.00000000000E+00  0.20416283899E+03  0.20416283901E+03  0.25500000000E-02 0. -1.
          2   -1    0    0  501    0  0.00000000000E+00 -0.00000000000E+00 -0.63441618277E+03  0.63441618278E+03  0.25500000000E-02 0.  1.
    5000001    1    1    2    0    0 -0.21332351967E+03 -0.20858294527E+03 -0.17999283970E+03  0.40126324457E+03  0.19900000000E+03 0.  0.
   -5000001    1    1    2    0    0  0.21332351967E+03  0.20858294527E+03 -0.25026050408E+03  0.43731577722E+03  0.19900000000E+03 0.  0.
<mgrwt>
<rscale>  0 0.71978944E+03</rscale>
<asrwt>0</asrwt>
<pdfrwt beam="1">  1        2 0.90630882E-01 0.71978944E+03</pdfrwt>
<pdfrwt beam="2">  1       -2 0.29166120E-01 0.71978944E+03</pdfrwt>
<totfact> 0.55059483E+02</totfact>
</mgrwt>
</event>
<event>
 4    1  0.5056513E-005  0.6226517E+03  0.7818608E-02  0.9859494E-01
         -2   -1    0    0    0  501 -0.00000000000E+00  0.00000000000E+00  0.15932473568E+03  0.15932473570E+03  0.25500000000E-02 0. -1.
          2   -1    0    0  501    0  0.00000000000E+00 -0.00000000000E+00 -0.60834107089E+03  0.60834107090E+03  0.25500000000E-02 0.  1.
    5000001    1    1    2    0    0  0.18284520077E+03 -0.82026295414E+02 -0.62993398988E+02  0.28936110468E+03  0.19900000000E+03 0.  0.
   -5000001    1    1    2    0    0 -0.18284520077E+03  0.82026295414E+02 -0.38602293623E+03  0.47830470192E+03  0.19900000000E+03 0.  0.
<mgrwt>
<rscale>  0 0.62265169E+03</rscale>
<asrwt>0</asrwt>
<pdfrwt beam="1">  1        2 0.86905866E-01 0.62265169E+03</pdfrwt>
<pdfrwt beam="2">  1       -2 0.22760677E-01 0.62265169E+03</pdfrwt>
<totfact> 0.90817220E+02</totfact>
</mgrwt>
</event>
<event>
 4    1  0.5056513E-005  0.6447797E+03  0.7818608E-02  0.9816624E-01
          2   -1    0    0  501    0  0.00000000000E+00  0.00000000000E+00  0.11601526620E+04  0.11601526620E+04  0.25500000000E-02 0. -1.
         -2   -1    0    0    0  501 -0.00000000000E+00 -0.00000000000E+00 -0.89587544997E+02  0.89587545033E+02  0.25500000000E-02 0.  1.
    5000001    1    1    2    0    0  0.97454968605E+02 -0.23414098654E+03  0.54272812789E+03  0.63124820260E+03  0.19900000000E+03 0.  0.
   -5000001    1    1    2    0    0 -0.97454968605E+02  0.23414098654E+03  0.52783698915E+03  0.61849200448E+03  0.19900000000E+03 0.  0.
<mgrwt>
<rscale>  0 0.64477974E+03</rscale>
<asrwt>0</asrwt>
<pdfrwt beam="1">  1        2 0.16573608E+00 0.64477974E+03</pdfrwt>
<pdfrwt beam="2">  1       -2 0.12798222E-01 0.64477974E+03</pdfrwt>
<totfact> 0.10375650E+03</totfact>
</mgrwt>
</event>
<event>
 4    1  0.5056513E-005  0.6314997E+03  0.7818608E-02  0.9842127E-01
          2   -1    0    0  501    0  0.00000000000E+00  0.00000000000E+00  0.49800873063E+03  0.49800873064E+03  0.25500000000E-02 0.  1.
         -2   -1    0    0    0  501 -0.00000000000E+00 -0.00000000000E+00 -0.20019324238E+03  0.20019324240E+03  0.25500000000E-02 0. -1.
    5000001    1    1    2    0    0 -0.97871950648E+02 -0.17621927312E+03 -0.53451127552E+01  0.28330499673E+03  0.19900000000E+03 0.  0.
   -5000001    1    1    2    0    0  0.97871950648E+02  0.17621927312E+03  0.30316060100E+03  0.41489697630E+03  0.19900000000E+03 0.  0.
<mgrwt>
<rscale>  0 0.63149975E+03</rscale>
<asrwt>0</asrwt>
<pdfrwt beam="1">  1        2 0.71144102E-01 0.63149975E+03</pdfrwt>
<pdfrwt beam="2">  1       -2 0.28599035E-01 0.63149975E+03</pdfrwt>
<totfact> 0.75862072E+02</totfact>
</mgrwt>
</event>
<event>
 4    1  0.5056513E-005  0.5381029E+03  0.7818608E-02  0.1004286E+00
          2   -1    0    0  501    0  0.00000000000E+00  0.00000000000E+00  0.10340541402E+03  0.10340541405E+03  0.25500000000E-02 0.  1.
         -2   -1    0    0    0  501 -0.00000000000E+00 -0.00000000000E+00 -0.70004732624E+03  0.70004732625E+03  0.25500000000E-02 0. -1.
    5000001    1    1    2    0    0 -0.11058300659E+03  0.79878352278E+02 -0.12052960870E+03  0.26969897865E+03  0.19900000000E+03 0.  0.
   -5000001    1    1    2    0    0  0.11058300659E+03 -0.79878352278E+02 -0.47611230352E+03  0.53375376165E+03  0.19900000000E+03 0.  0.
<mgrwt>
<rscale>  0 0.53810290E+03</rscale>
<asrwt>0</asrwt>
<pdfrwt beam="1">  1        2 0.14772202E-01 0.53810290E+03</pdfrwt>
<pdfrwt beam="2">  1       -2 0.10000676E+00 0.53810290E+03</pdfrwt>
<totfact> 0.34123504E+02</totfact>
</mgrwt>
</event>
<event>
 4    1  0.5056513E-005  0.4987142E+03  0.7818608E-02  0.1014115E+00
         -2   -1    0    0    0  501 -0.00000000000E+00  0.00000000000E+00  0.19543522816E+02  0.19543522983E+02  0.25500000000E-02 0. -1.
          2   -1    0    0  501    0  0.00000000000E+00 -0.00000000000E+00 -0.31815632483E+04  0.31815632483E+04  0.25500000000E-02 0.  1.
    5000001    1    1    2    0    0 -0.12520514504E+03 -0.39271020032E+02 -0.20509116145E+04  0.20647174121E+04  0.19900000000E+03 0.  0.
   -5000001    1    1    2    0    0  0.12520514504E+03  0.39271020032E+02 -0.11111081110E+04  0.11363893592E+04  0.19900000000E+03 0.  0.
<mgrwt>
<rscale>  0 0.49871416E+03</rscale>
<asrwt>0</asrwt>
<pdfrwt beam="1">  1        2 0.45450871E+00 0.49871416E+03</pdfrwt>
<pdfrwt beam="2">  1       -2 0.27919339E-02 0.49871416E+03</pdfrwt>
<totfact> 0.10133962E+03</totfact>
</mgrwt>
</event>
<event>
 4    1  0.5056513E-005  0.8067355E+03  0.7818608E-02  0.9550319E-01
          2   -1    0    0  501    0  0.00000000000E+00  0.00000000000E+00  0.59774124222E+03  0.59774124222E+03  0.25500000000E-02 0.  1.
         -2   -1    0    0    0  501 -0.00000000000E+00 -0.00000000000E+00 -0.27220064358E+03  0.27220064360E+03  0.25500000000E-02 0. -1.
    5000001    1    1    2    0    0 -0.23014141755E+03 -0.17130259760E+03  0.38057236352E+03  0.51647456461E+03  0.19900000000E+03 0.  0.
   -5000001    1    1    2    0    0  0.23014141755E+03  0.17130259760E+03 -0.55031764882E+02  0.35346732121E+03  0.19900000000E+03 0.  0.
<mgrwt>
<rscale>  0 0.80673552E+03</rscale>
<asrwt>0</asrwt>
<pdfrwt beam="1">  1        2 0.85391606E-01 0.80673552E+03</pdfrwt>
<pdfrwt beam="2">  1       -2 0.38885806E-01 0.80673552E+03</pdfrwt>
<totfact> 0.34215879E+02</totfact>
</mgrwt>
</event>
<event>
 4    1  0.5056513E-005  0.1210687E+04  0.7818608E-02  0.9103554E-01
         -2   -1    0    0    0  501 -0.00000000000E+00  0.00000000000E+00  0.43888998587E+03  0.43888998587E+03  0.25500000000E-02 0. -1.
          2   -1    0    0  501    0  0.00000000000E+00 -0.00000000000E+00 -0.83492561892E+03  0.83492561892E+03  0.25500000000E-02 0.  1.
    5000001    1    1    2    0    0  0.36938373631E+03  0.36704375654E+03  0.50238991043E+02  0.55972352111E+03  0.19900000000E+03 0.  0.
   -5000001    1    1    2    0    0 -0.36938373631E+03 -0.36704375654E+03 -0.44627462410E+03  0.71409208368E+03  0.19900000000E+03 0.  0.
<mgrwt>
<rscale>  0 0.12106866E+04</rscale>
<asrwt>0</asrwt>
<pdfrwt beam="1">  1        2 0.11927509E+00 0.12106866E+04</pdfrwt>
<pdfrwt beam="2">  1       -2 0.62698569E-01 0.12106866E+04</pdfrwt>
<totfact> 0.83683257E+01</totfact>
</mgrwt>
</event>
<event>
 4    1  0.5056513E-005  0.5089672E+03  0.7818608E-02  0.1011464E+00
         -2   -1    0    0    0  501 -0.00000000000E+00  0.00000000000E+00  0.12067963023E+03  0.12067963026E+03  0.25500000000E-02 0. -1.
          2   -1    0    0  501    0  0.00000000000E+00 -0.00000000000E+00 -0.53664317343E+03  0.53664317344E+03  0.25500000000E-02 0.  1.
    5000001    1    1    2    0    0 -0.63738503127E+02 -0.14418001461E+03 -0.23073631922E+03  0.34306081443E+03  0.19900000000E+03 0.  0.
   -5000001    1    1    2    0    0  0.63738503127E+02  0.14418001461E+03 -0.18522722398E+03  0.31426198926E+03  0.19900000000E+03 0.  0.
<mgrwt>
<rscale>  0 0.50896719E+03</rscale>
<asrwt>0</asrwt>
<pdfrwt beam="1">  1        2 0.76663309E-01 0.50896719E+03</pdfrwt>
<pdfrwt beam="2">  1       -2 0.17239947E-01 0.50896719E+03</pdfrwt>
<totfact> 0.17038713E+03</totfact>
</mgrwt>
</event>
<event>
 4    1  0.5056513E-005  0.8355209E+03  0.7818608E-02  0.9509979E-01
         -2   -1    0    0    0  501 -0.00000000000E+00  0.00000000000E+00  0.29648991544E+03  0.29648991546E+03  0.25500000000E-02 0. -1.
          2   -1    0    0  501    0  0.00000000000E+00 -0.00000000000E+00 -0.58863320776E+03  0.58863320776E+03  0.25500000000E-02 0.  1.
    5000001    1    1    2    0    0 -0.23009040147E+03  0.26113732190E+03 -0.27046727389E+03  0.48361951986E+03  0.19900000000E+03 0.  0.
   -5000001    1    1    2    0    0  0.23009040147E+03 -0.26113732190E+03 -0.21676018423E+02  0.40150360336E+03  0.19900000000E+03 0.  0.
<mgrwt>
<rscale>  0 0.83552094E+03</rscale>
<asrwt>0</asrwt>
<pdfrwt beam="1">  1        2 0.84090458E-01 0.83552094E+03</pdfrwt>
<pdfrwt beam="2">  1       -2 0.42355703E-01 0.83552094E+03</pdfrwt>
<totfact> 0.29448908E+02</totfact>
</mgrwt>
</event>
<event>
 4    1  0.5056513E-005  0.1114493E+04  0.7818608E-02  0.9191180E-01
         -2   -1    0    0    0  501 -0.00000000000E+00  0.00000000000E+00  0.32062916153E+03  0.32062916154E+03  0.25500000000E-02 0.  1.
          2   -1    0    0  501    0  0.00000000000E+00 -0.00000000000E+00 -0.96848251667E+03  0.96848251668E+03  0.25500000000E-02 0. -1.
    5000001    1    1    2    0    0 -0.36055468665E+03 -0.36528982180E+03 -0.42400723064E+03  0.69485211924E+03  0.19900000000E+03 0.  0.
   -5000001    1    1    2    0    0  0.36055468665E+03  0.36528982180E+03 -0.22384612450E+03  0.59425955897E+03  0.19900000000E+03 0.  0.
<mgrwt>
<rscale>  0 0.11144931E+04</rscale>
<asrwt>0</asrwt>
<pdfrwt beam="1">  1        2 0.13835464E+00 0.11144931E+04</pdfrwt>
<pdfrwt beam="2">  1       -2 0.45804166E-01 0.11144931E+04</pdfrwt>
<totfact> 0.13168741E+02</totfact>
</mgrwt>
</event>
<event>
 4    1  0.5056513E-005  0.9111605E+03  0.7818608E-02  0.9411737E-01
          2   -1    0    0  501    0  0.00000000000E+00  0.00000000000E+00  0.50817112650E+03  0.50817112651E+03  0.25500000000E-02 0.  1.
         -2   -1    0    0    0  501 -0.00000000000E+00 -0.00000000000E+00 -0.40843201950E+03  0.40843201951E+03  0.25500000000E-02 0. -1.
    5000001    1    1    2    0    0 -0.32250397280E+03 -0.24679622725E+03 -0.55519007937E+01  0.45227095181E+03  0.19900000000E+03 0.  0.
   -5000001    1    1    2    0    0  0.32250397280E+03  0.24679622725E+03  0.10529100780E+03  0.46433219421E+03  0.19900000000E+03 0.  0.
<mgrwt>
<rscale>  0 0.91116049E+03</rscale>
<asrwt>0</asrwt>
<pdfrwt beam="1">  1        2 0.72595875E-01 0.91116049E+03</pdfrwt>
<pdfrwt beam="2">  1       -2 0.58347431E-01 0.91116049E+03</pdfrwt>
<totfact> 0.18159093E+02</totfact>
</mgrwt>
</event>
<event>
 4    1  0.5056513E-005  0.6654089E+03  0.7818608E-02  0.9778288E-01
          2   -1    0    0  501    0  0.00000000000E+00  0.00000000000E+00  0.11034713674E+04  0.11034713674E+04  0.25500000000E-02 0.  1.
         -2   -1    0    0    0  501 -0.00000000000E+00 -0.00000000000E+00 -0.10031274918E+03  0.10031274921E+03  0.25500000000E-02 0. -1.
    5000001    1    1    2    0    0 -0.13422736847E+03  0.23000080162E+03  0.47772323486E+03  0.58201189362E+03  0.19900000000E+03 0.  0.
   -5000001    1    1    2    0    0  0.13422736847E+03 -0.23000080162E+03  0.52543538334E+03  0.62177222297E+03  0.19900000000E+03 0.  0.
<mgrwt>
<rscale>  0 0.66540889E+03</rscale>
<asrwt>0</asrwt>
<pdfrwt beam="1">  1        2 0.15763876E+00 0.66540889E+03</pdfrwt>
<pdfrwt beam="2">  1       -2 0.14330393E-01 0.66540889E+03</pdfrwt>
<totfact> 0.92564244E+02</totfact>
</mgrwt>
</event>
<event>
 4    1  0.5056513E-005  0.5419672E+03  0.7818608E-02  0.1003370E+00
         -2   -1    0    0    0  501 -0.00000000000E+00  0.00000000000E+00  0.10465055590E+03  0.10465055593E+03  0.25500000000E-02 0. -1.
          2   -1    0    0  501    0  0.00000000000E+00 -0.00000000000E+00 -0.70168866818E+03  0.70168866819E+03  0.25500000000E-02 0.  1.
    5000001    1    1    2    0    0  0.16040148514E+03 -0.15966453545E+02 -0.16672018199E+03  0.30558171274E+03  0.19900000000E+03 0.  0.
   -5000001    1    1    2    0    0 -0.16040148514E+03  0.15966453545E+02 -0.43031793029E+03  0.50075751138E+03  0.19900000000E+03 0.  0.
<mgrwt>
<rscale>  0 0.54196719E+03</rscale>
<asrwt>0</asrwt>
<pdfrwt beam="1">  1        2 0.10024124E+00 0.54196719E+03</pdfrwt>
<pdfrwt beam="2">  1       -2 0.14950080E-01 0.54196719E+03</pdfrwt>
<totfact> 0.15805172E+03</totfact>
</mgrwt>
</event>
<event>
 4    1  0.5056513E-005  0.5636980E+03  0.7818608E-02  0.9983722E-01
          2   -1    0    0  501    0  0.00000000000E+00  0.00000000000E+00  0.54529188087E+03  0.54529188087E+03  0.25500000000E-02 0.  1.
         -2   -1    0    0    0  501 -0.00000000000E+00 -0.00000000000E+00 -0.14568133503E+03  0.14568133505E+03  0.25500000000E-02 0. -1.
    5000001    1    1    2    0    0  0.18686642244E+03  0.34113328343E+02  0.12469077388E+03  0.30204563910E+03  0.19900000000E+03 0.  0.
   -5000001    1    1    2    0    0 -0.18686642244E+03 -0.34113328343E+02  0.27491977195E+03  0.38892757683E+03  0.19900000000E+03 0.  0.
<mgrwt>
<rscale>  0 0.56369797E+03</rscale>
<asrwt>0</asrwt>
<pdfrwt beam="1">  1        2 0.77898840E-01 0.56369797E+03</pdfrwt>
<pdfrwt beam="2">  1       -2 0.20811619E-01 0.56369797E+03</pdfrwt>
<totfact> 0.12087667E+03</totfact>
</mgrwt>
</event>
<event>
 4    1  0.5056513E-005  0.4362448E+03  0.7818608E-02  0.1031905E+00
          2   -1    0    0  501    0  0.00000000000E+00  0.00000000000E+00  0.95586768844E+03  0.95586768844E+03  0.25500000000E-02 0.  1.
         -2   -1    0    0    0  501 -0.00000000000E+00 -0.00000000000E+00 -0.49774013730E+02  0.49774013795E+02  0.25500000000E-02 0. -1.
    5000001    1    1    2    0    0  0.75758126802E+02 -0.45645891086E+02  0.42448342083E+03  0.47708491457E+03  0.19900000000E+03 0.  0.
   -5000001    1    1    2    0    0 -0.75758126802E+02  0.45645891086E+02  0.48161025388E+03  0.52855678767E+03  0.19900000000E+03 0.  0.
<mgrwt>
<rscale>  0 0.43624475E+03</rscale>
<asrwt>0</asrwt>
<pdfrwt beam="1">  1        2 0.13655254E+00 0.43624475E+03</pdfrwt>
<pdfrwt beam="2">  1       -2 0.71105729E-02 0.43624475E+03</pdfrwt>
<totfact> 0.35402638E+03</totfact>
</mgrwt>
</event>
<event>
 4    1  0.5056513E-005  0.6222567E+03  0.7818608E-02  0.9860277E-01
          2   -1    0    0  501    0  0.00000000000E+00  0.00000000000E+00  0.90155169328E+03  0.90155169328E+03  0.25500000000E-02 0.  1.
         -2   -1    0    0    0  501 -0.00000000000E+00 -0.00000000000E+00 -0.10737136750E+03  0.10737136753E+03  0.25500000000E-02 0. -1.
    5000001    1    1    2    0    0 -0.16114302840E+03  0.15677227129E+03  0.26481764446E+03  0.40034236031E+03  0.19900000000E+03 0.  0.
   -5000001    1    1    2    0    0  0.16114302840E+03 -0.15677227129E+03  0.52936268132E+03  0.60858070050E+03  0.19900000000E+03 0.  0.
<mgrwt>
<rscale>  0 0.62225666E+03</rscale>
<asrwt>0</asrwt>
<pdfrwt beam="1">  1        2 0.12879309E+00 0.62225666E+03</pdfrwt>
<pdfrwt beam="2">  1       -2 0.15338768E-01 0.62225666E+03</pdfrwt>
<totfact> 0.10982542E+03</totfact>
</mgrwt>
</event>
<event>
 4    1  0.5056513E-005  0.5751293E+03  0.7818608E-02  0.9958392E-01
          2   -1    0    0  501    0  0.00000000000E+00  0.00000000000E+00  0.13318784569E+04  0.13318784569E+04  0.25500000000E-02 0.  1.
         -2   -1    0    0    0  501 -0.00000000000E+00 -0.00000000000E+00 -0.62087816844E+02  0.62087816897E+02  0.25500000000E-02 0. -1.
    5000001    1    1    2    0    0 -0.36172857614E+02  0.14632737871E+03  0.98083968403E+03  0.10121104995E+04  0.19900000000E+03 0.  0.
   -5000001    1    1    2    0    0  0.36172857614E+02 -0.14632737871E+03  0.28895095601E+03  0.38185577430E+03  0.19900000000E+03 0.  0.
<mgrwt>
<rscale>  0 0.57512929E+03</rscale>
<asrwt>0</asrwt>
<pdfrwt beam="1">  1        2 0.19026834E+00 0.57512929E+03</pdfrwt>
<pdfrwt beam="2">  1       -2 0.88696888E-02 0.57512929E+03</pdfrwt>
<totfact> 0.15189060E+03</totfact>
</mgrwt>
</event>
<event>
 4    1  0.5056513E-005  0.5428223E+03  0.7818608E-02  0.1003169E+00
          2   -1    0    0  501    0  0.00000000000E+00  0.00000000000E+00  0.15896875240E+04  0.15896875240E+04  0.25500000000E-02 0.  1.
         -2   -1    0    0    0  501 -0.00000000000E+00 -0.00000000000E+00 -0.46338679693E+02  0.46338679764E+02  0.25500000000E-02 0. -1.
    5000001    1    1    2    0    0 -0.11582838752E+03 -0.13936330015E+03  0.87714788353E+03  0.91751171892E+03  0.19900000000E+03 0.  0.
   -5000001    1    1    2    0    0  0.11582838752E+03  0.13936330015E+03  0.66620096076E+03  0.71851448483E+03  0.19900000000E+03 0.  0.
<mgrwt>
<rscale>  0 0.54282233E+03</rscale>
<asrwt>0</asrwt>
<pdfrwt beam="1">  1        2 0.22709824E+00 0.54282233E+03</pdfrwt>
<pdfrwt beam="2">  1       -2 0.66198107E-02 0.54282233E+03</pdfrwt>
<totfact> 0.17720519E+03</totfact>
</mgrwt>
</event>
<event>
 4    1  0.5056513E-005  0.7687972E+03  0.7818608E-02  0.9606314E-01
         -2   -1    0    0    0  501 -0.00000000000E+00  0.00000000000E+00  0.11734686953E+03  0.11734686955E+03  0.25500000000E-02 0. -1.
          2   -1    0    0  501    0  0.00000000000E+00 -0.00000000000E+00 -0.12591922278E+04  0.12591922278E+04  0.25500000000E-02 0.  1.
    5000001    1    1    2    0    0 -0.56691957001E+02  0.30309457599E+03 -0.77570699612E+03  0.85813905855E+03  0.19900000000E+03 0.  0.
   -5000001    1    1    2    0    0  0.56691957001E+02 -0.30309457599E+03 -0.36613836214E+03  0.51840003879E+03  0.19900000000E+03 0.  0.
<mgrwt>
<rscale>  0 0.76879715E+03</rscale>
<asrwt>0</asrwt>
<pdfrwt beam="1">  1        2 0.17988460E+00 0.76879715E+03</pdfrwt>
<pdfrwt beam="2">  1       -2 0.16763839E-01 0.76879715E+03</pdfrwt>
<totfact> 0.57653521E+02</totfact>
</mgrwt>
</event>
<event>
 4    1  0.5056513E-005  0.1344193E+04  0.7818608E-02  0.8995235E-01
          2   -1    0    0  501    0  0.00000000000E+00  0.00000000000E+00  0.19790937245E+04  0.19790937245E+04  0.25500000000E-02 0.  1.
         -2   -1    0    0    0  501 -0.00000000000E+00 -0.00000000000E+00 -0.22824281350E+03  0.22824281352E+03  0.25500000000E-02 0. -1.
    5000001    1    1    2    0    0 -0.10687337335E+03 -0.34054844991E+03 -0.79642735801E+00  0.40865241828E+03  0.19900000000E+03 0.  0.
   -5000001    1    1    2    0    0  0.10687337335E+03  0.34054844991E+03  0.17516473384E+04  0.17986841198E+04  0.19900000000E+03 0.  0.
<mgrwt>
<rscale>  0 0.13441933E+04</rscale>
<asrwt>0</asrwt>
<pdfrwt beam="1">  1        2 0.28272767E+00 0.13441933E+04</pdfrwt>
<pdfrwt beam="2">  1       -2 0.32606117E-01 0.13441933E+04</pdfrwt>
<totfact> 0.70516241E+01</totfact>
</mgrwt>
</event>
<event>
 4    1  0.5056513E-005  0.9927641E+03  0.7818608E-02  0.9316517E-01
          2   -1    0    0  501    0  0.00000000000E+00  0.00000000000E+00  0.34445525671E+03  0.34445525672E+03  0.25500000000E-02 0.  1.
         -2   -1    0    0    0  501 -0.00000000000E+00 -0.00000000000E+00 -0.71531833273E+03  0.71531833273E+03  0.25500000000E-02 0. -1.
    5000001    1    1    2    0    0  0.14637955022E+03 -0.42997048438E+03 -0.16173958354E+03  0.52159590014E+03  0.19900000000E+03 0.  0.
   -5000001    1    1    2    0    0 -0.14637955022E+03  0.42997048438E+03 -0.20912349248E+03  0.53817768931E+03  0.19900000000E+03 0.  0.
<mgrwt>
<rscale>  0 0.99276414E+03</rscale>
<asrwt>0</asrwt>
<pdfrwt beam="1">  1        2 0.49207894E-01 0.99276414E+03</pdfrwt>
<pdfrwt beam="2">  1       -2 0.10218833E+00 0.99276414E+03</pdfrwt>
<totfact> 0.80145843E+01</totfact>
</mgrwt>
</event>
<event>
 4    1  0.5056513E-005  0.6447388E+03  0.7818608E-02  0.9816702E-01
         -2   -1    0    0    0  501 -0.00000000000E+00  0.00000000000E+00  0.89152485777E+02  0.89152485814E+02  0.25500000000E-02 0. -1.
          2   -1    0    0  501    0  0.00000000000E+00 -0.00000000000E+00 -0.11656659226E+04  0.11656659226E+04  0.25500000000E-02 0.  1.
    5000001    1    1    2    0    0 -0.23603241365E+03  0.92721526410E+02 -0.54511922258E+03  0.63329657237E+03  0.19900000000E+03 0.  0.
   -5000001    1    1    2    0    0  0.23603241365E+03 -0.92721526410E+02 -0.53139421428E+03  0.62152183608E+03  0.19900000000E+03 0.  0.
<mgrwt>
<rscale>  0 0.64473875E+03</rscale>
<asrwt>0</asrwt>
<pdfrwt beam="1">  1        2 0.16652369E+00 0.64473875E+03</pdfrwt>
<pdfrwt beam="2">  1       -2 0.12736070E-01 0.64473875E+03</pdfrwt>
<totfact> 0.10384445E+03</totfact>
</mgrwt>
</event>
<event>
 4    1  0.5056513E-005  0.6486356E+03  0.7818608E-02  0.9809343E-01
          2   -1    0    0  501    0  0.00000000000E+00  0.00000000000E+00  0.37473080549E+03  0.37473080550E+03  0.25500000000E-02 0.  1.
         -2   -1    0    0    0  501 -0.00000000000E+00 -0.00000000000E+00 -0.28068691158E+03  0.28068691159E+03  0.25500000000E-02 0. -1.
    5000001    1    1    2    0    0  0.85197667370E+02 -0.22343120360E+03 -0.45592764693E+02  0.31441985538E+03  0.19900000000E+03 0.  0.
   -5000001    1    1    2    0    0 -0.85197667370E+02  0.22343120360E+03  0.13963665860E+03  0.34099786171E+03  0.19900000000E+03 0.  0.
<mgrwt>
<rscale>  0 0.64863559E+03</rscale>
<asrwt>0</asrwt>
<pdfrwt beam="1">  1        2 0.53532972E-01 0.64863559E+03</pdfrwt>
<pdfrwt beam="2">  1       -2 0.40098131E-01 0.64863559E+03</pdfrwt>
<totfact> 0.55128762E+02</totfact>
</mgrwt>
</event>
<event>
 4    1  0.5056513E-005  0.5370434E+03  0.7818608E-02  0.1004538E+00
         -2   -1    0    0    0  501 -0.00000000000E+00  0.00000000000E+00  0.35817375436E+02  0.35817375527E+02  0.25500000000E-02 0. -1.
          2   -1    0    0  501    0  0.00000000000E+00 -0.00000000000E+00 -0.20130984612E+04  0.20130984612E+04  0.25500000000E-02 0.  1.
    5000001    1    1    2    0    0  0.49734744739E+02 -0.17323442665E+03 -0.10053543555E+04  0.10405873781E+04  0.19900000000E+03 0.  0.
   -5000001    1    1    2    0    0 -0.49734744739E+02  0.17323442665E+03 -0.97192673026E+03  0.10083284586E+04  0.19900000000E+03 0.  0.
<mgrwt>
<rscale>  0 0.53704340E+03</rscale>
<asrwt>0</asrwt>
<pdfrwt beam="1">  1        2 0.28758542E+00 0.53704340E+03</pdfrwt>
<pdfrwt beam="2">  1       -2 0.51167692E-02 0.53704340E+03</pdfrwt>
<totfact> 0.16201764E+03</totfact>
</mgrwt>
</event>
<event>
 4    1  0.5056513E-005  0.5068879E+03  0.7818608E-02  0.1011997E+00
          2   -1    0    0  501    0  0.00000000000E+00  0.00000000000E+00  0.12076313096E+04  0.12076313096E+04  0.25500000000E-02 0.  1.
         -2   -1    0    0    0  501 -0.00000000000E+00 -0.00000000000E+00 -0.53189949067E+02  0.53189949128E+02  0.25500000000E-02 0. -1.
    5000001    1    1    2    0    0 -0.64072986810E+02 -0.46989963997E+02  0.24055589158E+03  0.32215142609E+03  0.19900000000E+03 0.  0.
   -5000001    1    1    2    0    0  0.64072986810E+02  0.46989963997E+02  0.91388546895E+03  0.93866983264E+03  0.19900000000E+03 0.  0.
<mgrwt>
<rscale>  0 0.50688795E+03</rscale>
<asrwt>0</asrwt>
<pdfrwt beam="1">  1        2 0.17251874E+00 0.50688795E+03</pdfrwt>
<pdfrwt beam="2">  1       -2 0.75985649E-02 0.50688795E+03</pdfrwt>
<totfact> 0.22752218E+03</totfact>
</mgrwt>
</event>
<event>
 4    1  0.5056513E-005  0.4723383E+03  0.7818608E-02  0.1021262E+00
         -2   -1    0    0    0  501 -0.00000000000E+00  0.00000000000E+00  0.74844789334E+02  0.74844789377E+02  0.25500000000E-02 0. -1.
          2   -1    0    0  501    0  0.00000000000E+00 -0.00000000000E+00 -0.74522029377E+03  0.74522029378E+03  0.25500000000E-02 0.  1.
    5000001    1    1    2    0    0  0.25491620281E+02  0.95094242843E+02 -0.19540497140E+03  0.29576483999E+03  0.19900000000E+03 0.  0.
   -5000001    1    1    2    0    0 -0.25491620281E+02 -0.95094242843E+02 -0.47497053304E+03  0.52430024317E+03  0.19900000000E+03 0.  0.
<mgrwt>
<rscale>  0 0.47233825E+03</rscale>
<asrwt>0</asrwt>
<pdfrwt beam="1">  1        2 0.10646004E+00 0.47233825E+03</pdfrwt>
<pdfrwt beam="2">  1       -2 0.10692113E-01 0.47233825E+03</pdfrwt>
<totfact> 0.25503973E+03</totfact>
</mgrwt>
</event>
<event>
 4    1  0.5056513E-005  0.6146613E+03  0.7818608E-02  0.9875447E-01
         -2   -1    0    0    0  501 -0.00000000000E+00  0.00000000000E+00  0.34877015702E+02  0.34877015795E+02  0.25500000000E-02 0. -1.
          2   -1    0    0  501    0  0.00000000000E+00 -0.00000000000E+00 -0.27081479137E+04  0.27081479137E+04  0.25500000000E-02 0.  1.
    5000001    1    1    2    0    0 -0.44236900528E+02  0.78089735170E+02 -0.37125335776E+03  0.43067965561E+03  0.19900000000E+03 0.  0.
   -5000001    1    1    2    0    0  0.44236900528E+02 -0.78089735170E+02 -0.23020175402E+04  0.23123452738E+04  0.19900000000E+03 0.  0.
<mgrwt>
<rscale>  0 0.61466126E+03</rscale>
<asrwt>0</asrwt>
<pdfrwt beam="1">  1        2 0.38687814E+00 0.61466126E+03</pdfrwt>
<pdfrwt beam="2">  1       -2 0.49824325E-02 0.61466126E+03</pdfrwt>
<totfact> 0.74398953E+02</totfact>
</mgrwt>
</event>
<event>
 4    1  0.5056513E-005  0.4900611E+03  0.7818608E-02  0.1016406E+00
         -2   -1    0    0    0  501 -0.00000000000E+00  0.00000000000E+00  0.21459964896E+02  0.21459965048E+02  0.25500000000E-02 0. -1.
          2   -1    0    0  501    0  0.00000000000E+00 -0.00000000000E+00 -0.27977660639E+04  0.27977660639E+04  0.25500000000E-02 0.  1.
    5000001    1    1    2    0    0  0.97699970488E+02 -0.82671687865E+02 -0.17546690532E+04  0.17705491743E+04  0.19900000000E+03 0.  0.
   -5000001    1    1    2    0    0 -0.97699970488E+02  0.82671687865E+02 -0.10216370458E+04  0.10486768547E+04  0.19900000000E+03 0.  0.
<mgrwt>
<rscale>  0 0.49006106E+03</rscale>
<asrwt>0</asrwt>
<pdfrwt beam="1">  1        2 0.39968063E+00 0.49006106E+03</pdfrwt>
<pdfrwt beam="2">  1       -2 0.30657111E-02 0.49006106E+03</pdfrwt>
<totfact> 0.14193728E+03</totfact>
</mgrwt>
</event>
<event>
 4    1  0.5056513E-005  0.5038713E+03  0.7818608E-02  0.1012773E+00
         -2   -1    0    0    0  501 -0.00000000000E+00  0.00000000000E+00  0.13895710962E+03  0.13895710964E+03  0.25500000000E-02 0. -1.
          2   -1    0    0  501    0  0.00000000000E+00 -0.00000000000E+00 -0.45677095987E+03  0.45677095988E+03  0.25500000000E-02 0.  1.
    5000001    1    1    2    0    0  0.15307596181E+03  0.63852185081E+01 -0.18248047576E+03  0.31044024407E+03  0.19900000000E+03 0.  0.
   -5000001    1    1    2    0    0 -0.15307596181E+03 -0.63852185081E+01 -0.13533337449E+03  0.28528782546E+03  0.19900000000E+03 0.  0.
<mgrwt>
<rscale>  0 0.50387130E+03</rscale>
<asrwt>0</asrwt>
<pdfrwt beam="1">  1        2 0.65252994E-01 0.50387130E+03</pdfrwt>
<pdfrwt beam="2">  1       -2 0.19851016E-01 0.50387130E+03</pdfrwt>
<totfact> 0.16044408E+03</totfact>
</mgrwt>
</event>
<event>
 4    1  0.5056513E-005  0.7333084E+03  0.7818608E-02  0.9661907E-01
          2   -1    0    0  501    0  0.00000000000E+00  0.00000000000E+00  0.24186184703E+03  0.24186184704E+03  0.25500000000E-02 0.  1.
         -2   -1    0    0    0  501 -0.00000000000E+00 -0.00000000000E+00 -0.55583514491E+03  0.55583514492E+03  0.25500000000E-02 0. -1.
    5000001    1    1    2    0    0 -0.22191143659E+03  0.21226636871E+03 -0.18209158520E+03  0.40872979140E+03  0.19900000000E+03 0.  0.
   -5000001    1    1    2    0    0  0.22191143659E+03 -0.21226636871E+03 -0.13188171269E+03  0.38896720057E+03  0.19900000000E+03 0.  0.
<mgrwt>
<rscale>  0 0.73330843E+03</rscale>
<asrwt>0</asrwt>
<pdfrwt beam="1">  1        2 0.34551693E-01 0.73330843E+03</pdfrwt>
<pdfrwt beam="2">  1       -2 0.79405020E-01 0.73330843E+03</pdfrwt>
<totfact> 0.21522313E+02</totfact>
</mgrwt>
</event>
<event>
 4    1  0.5056513E-005  0.4928181E+03  0.7818608E-02  0.1015671E+00
          2   -1    0    0  501    0  0.00000000000E+00  0.00000000000E+00  0.62106432019E+03  0.62106432020E+03  0.25500000000E-02 0.  1.
         -2   -1    0    0    0  501 -0.00000000000E+00 -0.00000000000E+00 -0.97763510948E+02  0.97763510981E+02  0.25500000000E-02 0. -1.
    5000001    1    1    2    0    0 -0.10066916296E+03 -0.10080563874E+03  0.30342799952E+03  0.38982766457E+03  0.19900000000E+03 0.  0.
   -5000001    1    1    2    0    0  0.10066916296E+03  0.10080563874E+03  0.21987280972E+03  0.32900016661E+03  0.19900000000E+03 0.  0.
<mgrwt>
<rscale>  0 0.49281813E+03</rscale>
<asrwt>0</asrwt>
<pdfrwt beam="1">  1        2 0.88723473E-01 0.49281813E+03</pdfrwt>
<pdfrwt beam="2">  1       -2 0.13966216E-01 0.49281813E+03</pdfrwt>
<totfact> 0.20497320E+03</totfact>
</mgrwt>
</event>
<event>
 4    1  0.5056513E-005  0.5989103E+03  0.7818608E-02  0.9907670E-01
         -2   -1    0    0    0  501 -0.00000000000E+00  0.00000000000E+00  0.28777572695E+02  0.28777572808E+02  0.25500000000E-02 0. -1.
          2   -1    0    0  501    0  0.00000000000E+00 -0.00000000000E+00 -0.31160853452E+04  0.31160853452E+04  0.25500000000E-02 0.  1.
    5000001    1    1    2    0    0 -0.14402926533E+03  0.16565507039E+03 -0.17717143936E+04  0.17963181578E+04  0.19900000000E+03 0.  0.
   -5000001    1    1    2    0    0  0.14402926533E+03 -0.16565507039E+03 -0.13155933789E+04  0.13485447602E+04  0.19900000000E+03 0.  0.
<mgrwt>
<rscale>  0 0.59891025E+03</rscale>
<asrwt>0</asrwt>
<pdfrwt beam="1">  1        2 0.44515484E+00 0.59891025E+03</pdfrwt>
<pdfrwt beam="2">  1       -2 0.41110838E-02 0.59891025E+03</pdfrwt>
<totfact> 0.60490562E+02</totfact>
</mgrwt>
</event>
<event>
 4    1  0.5056513E-005  0.5252754E+03  0.7818608E-02  0.1007384E+00
         -2   -1    0    0    0  501 -0.00000000000E+00  0.00000000000E+00  0.30565824787E+03  0.30565824788E+03  0.25500000000E-02 0. -1.
          2   -1    0    0  501    0  0.00000000000E+00 -0.00000000000E+00 -0.22567216744E+03  0.22567216746E+03  0.25500000000E-02 0.  1.
    5000001    1    1    2    0    0 -0.69151377137E+02  0.11543998908E+03  0.14737349278E+03  0.28183018010E+03  0.19900000000E+03 0.  0.
   -5000001    1    1    2    0    0  0.69151377137E+02 -0.11543998908E+03 -0.67387412356E+02  0.24950023524E+03  0.19900000000E+03 0.  0.
<mgrwt>
<rscale>  0 0.52527539E+03</rscale>
<asrwt>0</asrwt>
<pdfrwt beam="1">  1        2 0.32238881E-01 0.52527539E+03</pdfrwt>
<pdfrwt beam="2">  1       -2 0.43665464E-01 0.52527539E+03</pdfrwt>
<totfact> 0.81920763E+02</totfact>
</mgrwt>
</event>
<event>
 4    1  0.5056513E-005  0.4744974E+03  0.7818608E-02  0.1020658E+00
          2   -1    0    0  501    0  0.00000000000E+00  0.00000000000E+00  0.20245953122E+04  0.20245953122E+04  0.25500000000E-02 0.  1.
         -2   -1    0    0    0  501 -0.00000000000E+00 -0.00000000000E+00 -0.27801575034E+02  0.27801575151E+02  0.25500000000E-02 0. -1.
    5000001    1    1    2    0    0 -0.68830021779E+02 -0.10467392751E+03  0.11346120431E+04  0.11587233023E+04  0.19900000000E+03 0.  0.
   -5000001    1    1    2    0    0  0.68830021779E+02  0.10467392751E+03  0.86218169406E+03  0.89367358502E+03  0.19900000000E+03 0.  0.
<mgrwt>
<rscale>  0 0.47449737E+03</rscale>
<asrwt>0</asrwt>
<pdfrwt beam="1">  1        2 0.28922788E+00 0.47449737E+03</pdfrwt>
<pdfrwt beam="2">  1       -2 0.39716539E-02 0.47449737E+03</pdfrwt>
<totfact> 0.23671168E+03</totfact>
</mgrwt>
</event>
<event>
 4    1  0.5056513E-005  0.7226630E+03  0.7818608E-02  0.9679242E-01
         -2   -1    0    0    0  501 -0.00000000000E+00  0.00000000000E+00  0.46382178860E+02  0.46382178930E+02  0.25500000000E-02 0. -1.
          2   -1    0    0  501    0  0.00000000000E+00 -0.00000000000E+00 -0.28148841610E+04  0.28148841610E+04  0.25500000000E-02 0.  1.
    5000001    1    1    2    0    0 -0.29622963326E+03  0.19120769136E+02 -0.15953197185E+04  0.16348588941E+04  0.19900000000E+03 0.  0.
   -5000001    1    1    2    0    0  0.29622963326E+03 -0.19120769136E+02 -0.11731822637E+04  0.12264074458E+04  0.19900000000E+03 0.  0.
<mgrwt>
<rscale>  0 0.72266302E+03</rscale>
<asrwt>0</asrwt>
<pdfrwt beam="1">  1        2 0.40212620E+00 0.72266302E+03</pdfrwt>
<pdfrwt beam="2">  1       -2 0.66260273E-02 0.72266302E+03</pdfrwt>
<totfact> 0.41415631E+02</totfact>
</mgrwt>
</event>
<event>
 4    1  0.5056513E-005  0.4494342E+03  0.7818608E-02  0.1027891E+00
         -2   -1    0    0    0  501 -0.00000000000E+00  0.00000000000E+00  0.11132597258E+03  0.11132597261E+03  0.25500000000E-02 0. -1.
          2   -1    0    0  501    0  0.00000000000E+00 -0.00000000000E+00 -0.45360288921E+03  0.45360288922E+03  0.25500000000E-02 0.  1.
    5000001    1    1    2    0    0  0.90209543650E+02 -0.52503200702E+02 -0.16917702138E+03  0.28127604308E+03  0.19900000000E+03 0.  0.
   -5000001    1    1    2    0    0 -0.90209543650E+02  0.52503200702E+02 -0.17309989525E+03  0.28365281875E+03  0.19900000000E+03 0.  0.
<mgrwt>
<rscale>  0 0.44943423E+03</rscale>
<asrwt>0</asrwt>
<pdfrwt beam="1">  1        2 0.64800412E-01 0.44943423E+03</pdfrwt>
<pdfrwt beam="2">  1       -2 0.15903711E-01 0.44943423E+03</pdfrwt>
<totfact> 0.23590426E+03</totfact>
</mgrwt>
</event>
<event>
 4    1  0.5056513E-005  0.9107578E+03  0.7818608E-02  0.9412233E-01
         -2   -1    0    0    0  501 -0.00000000000E+00  0.00000000000E+00  0.87511890309E+02  0.87511890346E+02  0.25500000000E-02 0. -1.
          2   -1    0    0  501    0  0.00000000000E+00 -0.00000000000E+00 -0.23696200361E+04  0.23696200361E+04  0.25500000000E-02 0.  1.
    5000001    1    1    2    0    0  0.97796073686E+02  0.37723329336E+03 -0.80086310891E+03  0.91260711637E+03  0.19900000000E+03 0.  0.
   -5000001    1    1    2    0    0 -0.97796073686E+02 -0.37723329336E+03 -0.14812450369E+04  0.15445248101E+04  0.19900000000E+03 0.  0.
<mgrwt>
<rscale>  0 0.91075777E+03</rscale>
<asrwt>0</asrwt>
<pdfrwt beam="1">  1        2 0.33851711E+00 0.91075777E+03</pdfrwt>
<pdfrwt beam="2">  1       -2 0.12501700E-01 0.91075777E+03</pdfrwt>
<totfact> 0.24928905E+02</totfact>
</mgrwt>
</event>
<event>
 4    1  0.5056513E-005  0.4958599E+03  0.7818608E-02  0.1014865E+00
          2   -1    0    0  501    0  0.00000000000E+00  0.00000000000E+00  0.33511069928E+03  0.33511069929E+03  0.25500000000E-02 0. -1.
         -2   -1    0    0    0  501 -0.00000000000E+00 -0.00000000000E+00 -0.18342972958E+03  0.18342972960E+03  0.25500000000E-02 0.  1.
    5000001    1    1    2    0    0  0.28940857400E+02 -0.10784087675E+03  0.17723430795E+03  0.28892945132E+03  0.19900000000E+03 0.  0.
   -5000001    1    1    2    0    0 -0.28940857400E+02  0.10784087675E+03 -0.25553338243E+02  0.22961097757E+03  0.19900000000E+03 0.  0.
<mgrwt>
<rscale>  0 0.49585992E+03</rscale>
<asrwt>0</asrwt>
<pdfrwt beam="1">  1        2 0.47872956E-01 0.49585992E+03</pdfrwt>
<pdfrwt beam="2">  1       -2 0.26204247E-01 0.49585992E+03</pdfrwt>
<totfact> 0.13836467E+03</totfact>
</mgrwt>
</event>
<event>
 4    1  0.5056513E-005  0.5921855E+03  0.7818608E-02  0.9921753E-01
         -2   -1    0    0    0  501 -0.00000000000E+00  0.00000000000E+00  0.11415473921E+03  0.11415473924E+03  0.25500000000E-02 0. -1.
          2   -1    0    0  501    0  0.00000000000E+00 -0.00000000000E+00 -0.76800068083E+03  0.76800068083E+03  0.25500000000E-02 0.  1.
    5000001    1    1    2    0    0  0.16690497269E+03 -0.92693304188E+02 -0.48750671919E+03  0.56010099072E+03  0.19900000000E+03 0.  0.
   -5000001    1    1    2    0    0 -0.16690497269E+03  0.92693304188E+02 -0.16633922242E+03  0.32205442935E+03  0.19900000000E+03 0.  0.
<mgrwt>
<rscale>  0 0.59218550E+03</rscale>
<asrwt>0</asrwt>
<pdfrwt beam="1">  1        2 0.10971438E+00 0.59218550E+03</pdfrwt>
<pdfrwt beam="2">  1       -2 0.16307820E-01 0.59218550E+03</pdfrwt>
<totfact> 0.12197067E+03</totfact>
</mgrwt>
</event>
<event>
 4    1  0.5056513E-005  0.8069311E+03  0.7818608E-02  0.9550039E-01
         -2   -1    0    0    0  501 -0.00000000000E+00  0.00000000000E+00  0.82842426669E+02  0.82842426708E+02  0.25500000000E-02 0. -1.
          2   -1    0    0  501    0  0.00000000000E+00 -0.00000000000E+00 -0.19649887225E+04  0.19649887226E+04  0.25500000000E-02 0.  1.
    5000001    1    1    2    0    0  0.16092178817E+03  0.25814502905E+03 -0.49678560190E+03  0.61557421338E+03  0.19900000000E+03 0.  0.
   -5000001    1    1    2    0    0 -0.16092178817E+03 -0.25814502905E+03 -0.13853606940E+04  0.14322569359E+04  0.19900000000E+03 0.  0.
<mgrwt>
<rscale>  0 0.80693106E+03</rscale>
<asrwt>0</asrwt>
<pdfrwt beam="1">  1        2 0.28071265E+00 0.80693106E+03</pdfrwt>
<pdfrwt beam="2">  1       -2 0.11834634E-01 0.80693106E+03</pdfrwt>
<totfact> 0.44219784E+02</totfact>
</mgrwt>
</event>
<event>
 4    1  0.5056513E-005  0.8211163E+03  0.7818608E-02  0.9529945E-01
         -2   -1    0    0    0  501 -0.00000000000E+00  0.00000000000E+00  0.10910747976E+03  0.10910747979E+03  0.25500000000E-02 0. -1.
          2   -1    0    0  501    0  0.00000000000E+00 -0.00000000000E+00 -0.15448803330E+04  0.15448803330E+04  0.25500000000E-02 0.  1.
    5000001    1    1    2    0    0 -0.16514454385E+03 -0.31128315438E+03 -0.85725435281E+03  0.94797465576E+03  0.19900000000E+03 0.  0.
   -5000001    1    1    2    0    0  0.16514454385E+03  0.31128315438E+03 -0.57851850048E+03  0.70601315707E+03  0.19900000000E+03 0.  0.
<mgrwt>
<rscale>  0 0.82111631E+03</rscale>
<asrwt>0</asrwt>
<pdfrwt beam="1">  1        2 0.22069718E+00 0.82111631E+03</pdfrwt>
<pdfrwt beam="2">  1       -2 0.15586784E-01 0.82111631E+03</pdfrwt>
<totfact> 0.45735412E+02</totfact>
</mgrwt>
</event>
<event>
 4    1  0.5056513E-005  0.5825379E+03  0.7818608E-02  0.9942311E-01
          2   -1    0    0  501    0  0.00000000000E+00  0.00000000000E+00  0.16557460279E+03  0.16557460281E+03  0.25500000000E-02 0.  1.
         -2   -1    0    0    0  501 -0.00000000000E+00 -0.00000000000E+00 -0.51238301529E+03  0.51238301529E+03  0.25500000000E-02 0. -1.
    5000001    1    1    2    0    0 -0.84734591763E+02  0.12554237329E+03 -0.34718013546E+03  0.42787367877E+03  0.19900000000E+03 0.  0.
   -5000001    1    1    2    0    0  0.84734591763E+02 -0.12554237329E+03  0.37172296364E+00  0.25008393933E+03  0.19900000000E+03 0.  0.
<mgrwt>
<rscale>  0 0.58253794E+03</rscale>
<asrwt>0</asrwt>
<pdfrwt beam="1">  1        2 0.23653515E-01 0.58253794E+03</pdfrwt>
<pdfrwt beam="2">  1       -2 0.73197573E-01 0.58253794E+03</pdfrwt>
<totfact> 0.39746603E+02</totfact>
</mgrwt>
</event>
<event>
 4    1  0.5056513E-005  0.8011430E+03  0.7818608E-02  0.9558364E-01
          2   -1    0    0  501    0  0.00000000000E+00  0.00000000000E+00  0.11749436273E+04  0.11749436273E+04  0.25500000000E-02 0.  1.
         -2   -1    0    0    0  501 -0.00000000000E+00 -0.00000000000E+00 -0.13656614681E+03  0.13656614684E+03  0.25500000000E-02 0. -1.
    5000001    1    1    2    0    0 -0.13247373931E+03 -0.30081324291E+03  0.70453431340E+03  0.80250077724E+03  0.19900000000E+03 0.  0.
   -5000001    1    1    2    0    0  0.13247373931E+03  0.30081324291E+03  0.33384316708E+03  0.50900899689E+03  0.19900000000E+03 0.  0.
<mgrwt>
<rscale>  0 0.80114299E+03</rscale>
<asrwt>0</asrwt>
<pdfrwt beam="1">  1        2 0.16784910E+00 0.80114299E+03</pdfrwt>
<pdfrwt beam="2">  1       -2 0.19509448E-01 0.80114299E+03</pdfrwt>
<totfact> 0.49405776E+02</totfact>
</mgrwt>
</event>
<event>
 4    1  0.5056513E-005  0.6747758E+03  0.7818608E-02  0.9761369E-01
          2   -1    0    0  501    0  0.00000000000E+00  0.00000000000E+00  0.59095780267E+03  0.59095780267E+03  0.25500000000E-02 0.  1.
         -2   -1    0    0    0  501 -0.00000000000E+00 -0.00000000000E+00 -0.19262051152E+03  0.19262051153E+03  0.25500000000E-02 0. -1.
    5000001    1    1    2    0    0  0.22290836509E+03 -0.46895450138E+02  0.25593884465E+02  0.30355126320E+03  0.19900000000E+03 0.  0.
   -5000001    1    1    2    0    0 -0.22290836509E+03  0.46895450138E+02  0.37274340669E+03  0.48002705101E+03  0.19900000000E+03 0.  0.
<mgrwt>
<rscale>  0 0.67477580E+03</rscale>
<asrwt>0</asrwt>
<pdfrwt beam="1">  1        2 0.84422543E-01 0.67477580E+03</pdfrwt>
<pdfrwt beam="2">  1       -2 0.27517216E-01 0.67477580E+03</pdfrwt>
<totfact> 0.66729069E+02</totfact>
</mgrwt>
</event>
<event>
 4    1  0.5056513E-005  0.6425713E+03  0.7818608E-02  0.9820819E-01
         -2   -1    0    0    0  501 -0.00000000000E+00  0.00000000000E+00  0.26673631216E+03  0.26673631218E+03  0.25500000000E-02 0. -1.
          2   -1    0    0  501    0  0.00000000000E+00 -0.00000000000E+00 -0.38699068019E+03  0.38699068020E+03  0.25500000000E-02 0.  1.
    5000001    1    1    2    0    0  0.20776595676E+03  0.13295104499E+03 -0.64784491323E+01  0.31699470572E+03  0.19900000000E+03 0.  0.
   -5000001    1    1    2    0    0 -0.20776595676E+03 -0.13295104499E+03 -0.11377591889E+03  0.33673228665E+03  0.19900000000E+03 0.  0.
<mgrwt>
<rscale>  0 0.64257129E+03</rscale>
<asrwt>0</asrwt>
<pdfrwt beam="1">  1        2 0.55284382E-01 0.64257129E+03</pdfrwt>
<pdfrwt beam="2">  1       -2 0.38105188E-01 0.64257129E+03</pdfrwt>
<totfact> 0.58713398E+02</totfact>
</mgrwt>
</event>
<event>
 4    1  0.5056513E-005  0.2507309E+04  0.7818608E-02  0.8400386E-01
          2   -1    0    0  501    0  0.00000000000E+00  0.00000000000E+00  0.12471822645E+04  0.12471822645E+04  0.25500000000E-02 0.  1.
         -2   -1    0    0    0  501 -0.00000000000E+00 -0.00000000000E+00 -0.12601604731E+04  0.12601604731E+04  0.25500000000E-02 0. -1.
    5000001    1    1    2    0    0  0.65227283874E+03  0.10519009872E+04  0.31676012491E+01  0.12536213849E+04  0.19900000000E+03 0.  0.
   -5000001    1    1    2    0    0 -0.65227283874E+03 -0.10519009872E+04 -0.16145809810E+02  0.12537213527E+04  0.19900000000E+03 0.  0.
<mgrwt>
<rscale>  0 0.25073091E+04</rscale>
<asrwt>0</asrwt>
<pdfrwt beam="1">  1        2 0.17816890E+00 0.25073091E+04</pdfrwt>
<pdfrwt beam="2">  1       -2 0.18002292E+00 0.25073091E+04</pdfrwt>
<totfact> 0.32653451E+00</totfact>
</mgrwt>
</event>
<event>
 4    1  0.5056513E-005  0.1142672E+04  0.7818608E-02  0.9164570E-01
         -2   -1    0    0    0  501 -0.00000000000E+00  0.00000000000E+00  0.54232842893E+03  0.54232842893E+03  0.25500000000E-02 0. -1.
          2   -1    0    0  501    0  0.00000000000E+00 -0.00000000000E+00 -0.60189557393E+03  0.60189557394E+03  0.25500000000E-02 0.  1.
    5000001    1    1    2    0    0 -0.49815453989E+03 -0.15778972444E+03 -0.14728231414E+03  0.57822886716E+03  0.19900000000E+03 0.  0.
   -5000001    1    1    2    0    0  0.49815453989E+03  0.15778972444E+03  0.87715169132E+02  0.56599513571E+03  0.19900000000E+03 0.  0.
<mgrwt>
<rscale>  0 0.11426724E+04</rscale>
<asrwt>0</asrwt>
<pdfrwt beam="1">  1        2 0.85985082E-01 0.11426724E+04</pdfrwt>
<pdfrwt beam="2">  1       -2 0.77475490E-01 0.11426724E+04</pdfrwt>
<totfact> 0.79617889E+01</totfact>
</mgrwt>
</event>
<event>
 4    1  0.5056513E-005  0.5686878E+03  0.7818608E-02  0.9972587E-01
         -2   -1    0    0    0  501 -0.00000000000E+00  0.00000000000E+00  0.65271400163E+02  0.65271400212E+02  0.25500000000E-02 0. -1.
          2   -1    0    0  501    0  0.00000000000E+00 -0.00000000000E+00 -0.12386963955E+04  0.12386963955E+04  0.25500000000E-02 0.  1.
    5000001    1    1    2    0    0  0.61498003957E+02  0.16775214915E+03 -0.36526064156E+03  0.45270202596E+03  0.19900000000E+03 0.  0.
   -5000001    1    1    2    0    0 -0.61498003957E+02 -0.16775214915E+03 -0.80816435376E+03  0.85126576973E+03  0.19900000000E+03 0.  0.
<mgrwt>
<rscale>  0 0.56868778E+03</rscale>
<asrwt>0</asrwt>
<pdfrwt beam="1">  1        2 0.17695661E+00 0.56868778E+03</pdfrwt>
<pdfrwt beam="2">  1       -2 0.93244865E-02 0.56868778E+03</pdfrwt>
<totfact> 0.15757972E+03</totfact>
</mgrwt>
</event>
<event>
 4    1  0.5056513E-005  0.4605647E+03  0.7818608E-02  0.1024618E+00
         -2   -1    0    0    0  501 -0.00000000000E+00  0.00000000000E+00  0.36854776662E+03  0.36854776663E+03  0.25500000000E-02 0. -1.
          2   -1    0    0  501    0  0.00000000000E+00 -0.00000000000E+00 -0.14388896234E+03  0.14388896237E+03  0.25500000000E-02 0.  1.
    5000001    1    1    2    0    0 -0.23052842904E+02  0.10043834344E+03  0.53353226230E+02  0.23036245603E+03  0.19900000000E+03 0.  0.
   -5000001    1    1    2    0    0  0.23052842904E+02 -0.10043834344E+03  0.17130557805E+03  0.28207427296E+03  0.19900000000E+03 0.  0.
<mgrwt>
<rscale>  0 0.46056468E+03</rscale>
<asrwt>0</asrwt>
<pdfrwt beam="1">  1        2 0.20555566E-01 0.46056468E+03</pdfrwt>
<pdfrwt beam="2">  1       -2 0.52649681E-01 0.46056468E+03</pdfrwt>
<totfact> 0.93852547E+02</totfact>
</mgrwt>
</event>
<event>
 4    1  0.5056513E-005  0.4690814E+03  0.7818608E-02  0.1022180E+00
         -2   -1    0    0    0  501 -0.00000000000E+00  0.00000000000E+00  0.14185835049E+02  0.14185835278E+02  0.25500000000E-02 0. -1.
          2   -1    0    0  501    0  0.00000000000E+00 -0.00000000000E+00 -0.38777650827E+04  0.38777650827E+04  0.25500000000E-02 0.  1.
    5000001    1    1    2    0    0 -0.10080402128E+03  0.72307045900E+02 -0.18960291602E+04  0.19104756831E+04  0.19900000000E+03 0.  0.
   -5000001    1    1    2    0    0  0.10080402128E+03 -0.72307045900E+02 -0.19675500874E+04  0.19814752348E+04  0.19900000000E+03 0.  0.
<mgrwt>
<rscale>  0 0.46908138E+03</rscale>
<asrwt>0</asrwt>
<pdfrwt beam="1">  1        2 0.55396576E+00 0.46908138E+03</pdfrwt>
<pdfrwt beam="2">  1       -2 0.20265504E-02 0.46908138E+03</pdfrwt>
<totfact> 0.63354931E+02</totfact>
</mgrwt>
</event>
<event>
 4    1  0.5056513E-005  0.5192331E+03  0.7818608E-02  0.1008877E+00
         -2   -1    0    0    0  501 -0.00000000000E+00  0.00000000000E+00  0.84472325004E+02  0.84472325043E+02  0.25500000000E-02 0. -1.
          2   -1    0    0  501    0  0.00000000000E+00 -0.00000000000E+00 -0.79790331262E+03  0.79790331262E+03  0.25500000000E-02 0.  1.
    5000001    1    1    2    0    0  0.16537554259E+03  0.18741644636E+02 -0.37366070122E+03  0.45488860061E+03  0.19900000000E+03 0.  0.
   -5000001    1    1    2    0    0 -0.16537554259E+03 -0.18741644636E+02 -0.33977028639E+03  0.42748703705E+03  0.19900000000E+03 0.  0.
<mgrwt>
<rscale>  0 0.51923308E+03</rscale>
<asrwt>0</asrwt>
<pdfrwt beam="1">  1        2 0.11398618E+00 0.51923308E+03</pdfrwt>
<pdfrwt beam="2">  1       -2 0.12067475E-01 0.51923308E+03</pdfrwt>
<totfact> 0.19223610E+03</totfact>
</mgrwt>
</event>
<event>
 4    1  0.5056513E-005  0.5667775E+03  0.7818608E-02  0.9976835E-01
          2   -1    0    0  501    0  0.00000000000E+00  0.00000000000E+00  0.19383867173E+04  0.19383867173E+04  0.25500000000E-02 0.  1.
         -2   -1    0    0    0  501 -0.00000000000E+00 -0.00000000000E+00 -0.41430932573E+02  0.41430932651E+02  0.25500000000E-02 0. -1.
    5000001    1    1    2    0    0  0.16582084588E+03  0.95777253173E+02  0.72649793531E+03  0.77721945753E+03  0.19900000000E+03 0.  0.
   -5000001    1    1    2    0    0 -0.16582084588E+03 -0.95777253173E+02  0.11704578494E+04  0.12025981924E+04  0.19900000000E+03 0.  0.
<mgrwt>
<rscale>  0 0.56677745E+03</rscale>
<asrwt>0</asrwt>
<pdfrwt beam="1">  1        2 0.27691240E+00 0.56677745E+03</pdfrwt>
<pdfrwt beam="2">  1       -2 0.59187043E-02 0.56677745E+03</pdfrwt>
<totfact> 0.14059658E+03</totfact>
</mgrwt>
</event>
<event>
 4    1  0.5056513E-005  0.6644709E+03  0.7818608E-02  0.9779998E-01
         -2   -1    0    0    0  501 -0.00000000000E+00  0.00000000000E+00  0.12245963476E+03  0.12245963478E+03  0.25500000000E-02 0. -1.
          2   -1    0    0  501    0  0.00000000000E+00 -0.00000000000E+00 -0.90136148018E+03  0.90136148018E+03  0.25500000000E-02 0.  1.
    5000001    1    1    2    0    0 -0.65290470987E+02 -0.17629598411E+03 -0.99401397059E+02  0.29124690102E+03  0.19900000000E+03 0.  0.
   -5000001    1    1    2    0    0  0.65290470987E+02  0.17629598411E+03 -0.67950044836E+03  0.73257421395E+03  0.19900000000E+03 0.  0.
<mgrwt>
<rscale>  0 0.66447091E+03</rscale>
<asrwt>0</asrwt>
<pdfrwt beam="1">  1        2 0.12876592E+00 0.66447091E+03</pdfrwt>
<pdfrwt beam="2">  1       -2 0.17494234E-01 0.66447091E+03</pdfrwt>
<totfact> 0.87737429E+02</totfact>
</mgrwt>
</event>
<event>
 4    1  0.5056513E-005  0.4875693E+03  0.7818608E-02  0.1017075E+00
         -2   -1    0    0    0  501 -0.00000000000E+00  0.00000000000E+00  0.47667782210E+02  0.47667782279E+02  0.25500000000E-02 0. -1.
          2   -1    0    0  501    0  0.00000000000E+00 -0.00000000000E+00 -0.12467741850E+04  0.12467741850E+04  0.25500000000E-02 0.  1.
    5000001    1    1    2    0    0 -0.33024939328E+01  0.13996719021E+03 -0.63966218664E+03  0.68437594480E+03  0.19900000000E+03 0.  0.
   -5000001    1    1    2    0    0  0.33024939328E+01 -0.13996719021E+03 -0.55944421611E+03  0.61006602245E+03  0.19900000000E+03 0.  0.
<mgrwt>
<rscale>  0 0.48756932E+03</rscale>
<asrwt>0</asrwt>
<pdfrwt beam="1">  1        2 0.17811058E+00 0.48756932E+03</pdfrwt>
<pdfrwt beam="2">  1       -2 0.68096840E-02 0.48756932E+03</pdfrwt>
<totfact> 0.25735937E+03</totfact>
</mgrwt>
</event>
<event>
 4    1  0.5056513E-005  0.5626289E+03  0.7818608E-02  0.9986124E-01
         -2   -1    0    0    0  501 -0.00000000000E+00  0.00000000000E+00  0.12776005158E+03  0.12776005161E+03  0.25500000000E-02 0. -1.
          2   -1    0    0  501    0  0.00000000000E+00 -0.00000000000E+00 -0.61942532051E+03  0.61942532052E+03  0.25500000000E-02 0.  1.
    5000001    1    1    2    0    0 -0.14839457134E+03 -0.13233695828E+03 -0.24805150354E+03  0.37505275327E+03  0.19900000000E+03 0.  0.
   -5000001    1    1    2    0    0  0.14839457134E+03  0.13233695828E+03 -0.24361376539E+03  0.37213261886E+03  0.19900000000E+03 0.  0.
<mgrwt>
<rscale>  0 0.56262887E+03</rscale>
<asrwt>0</asrwt>
<pdfrwt beam="1">  1        2 0.88489330E-01 0.56262887E+03</pdfrwt>
<pdfrwt beam="2">  1       -2 0.18251436E-01 0.56262887E+03</pdfrwt>
<totfact> 0.13079640E+03</totfact>
</mgrwt>
</event>
<event>
 4    1  0.5056513E-005  0.7727058E+03  0.7818608E-02  0.9600387E-01
          2   -1    0    0  501    0  0.00000000000E+00  0.00000000000E+00  0.14364828225E+04  0.14364828225E+04  0.25500000000E-02 0.  1.
         -2   -1    0    0    0  501 -0.00000000000E+00 -0.00000000000E+00 -0.10391252579E+03  0.10391252582E+03  0.25500000000E-02 0. -1.
    5000001    1    1    2    0    0 -0.31982617981E+03 -0.82850587661E+02  0.71150542061E+03  0.80931697667E+03  0.19900000000E+03 0.  0.
   -5000001    1    1    2    0    0  0.31982617981E+03  0.82850587661E+02  0.62106487607E+03  0.73107837163E+03  0.19900000000E+03 0.  0.
<mgrwt>
<rscale>  0 0.77270579E+03</rscale>
<asrwt>0</asrwt>
<pdfrwt beam="1">  1        2 0.20521181E+00 0.77270579E+03</pdfrwt>
<pdfrwt beam="2">  1       -2 0.14844648E-01 0.77270579E+03</pdfrwt>
<totfact> 0.56804234E+02</totfact>
</mgrwt>
</event>
<event>
 4    1  0.5056513E-005  0.8021756E+03  0.7818608E-02  0.9556873E-01
          2   -1    0    0  501    0  0.00000000000E+00  0.00000000000E+00  0.64151829009E+03  0.64151829009E+03  0.25500000000E-02 0. -1.
         -2   -1    0    0    0  501 -0.00000000000E+00 -0.00000000000E+00 -0.25076668862E+03  0.25076668864E+03  0.25500000000E-02 0.  1.
    5000001    1    1    2    0    0  0.29222528245E+03 -0.17850584071E+03  0.12493381583E+03  0.41529436453E+03  0.19900000000E+03 0.  0.
   -5000001    1    1    2    0    0 -0.29222528245E+03  0.17850584071E+03  0.26581778563E+03  0.47699061420E+03  0.19900000000E+03 0.  0.
<mgrwt>
<rscale>  0 0.80217559E+03</rscale>
<asrwt>0</asrwt>
<pdfrwt beam="1">  1        2 0.91645470E-01 0.80217559E+03</pdfrwt>
<pdfrwt beam="2">  1       -2 0.35823813E-01 0.80217559E+03</pdfrwt>
<totfact> 0.36829954E+02</totfact>
</mgrwt>
</event>
<event>
 4    1  0.5056513E-005  0.7401858E+03  0.7818608E-02  0.9650874E-01
          2   -1    0    0  501    0  0.00000000000E+00  0.00000000000E+00  0.12306537815E+04  0.12306537815E+04  0.25500000000E-02 0.  1.
         -2   -1    0    0    0  501 -0.00000000000E+00 -0.00000000000E+00 -0.11129755345E+03  0.11129755348E+03  0.25500000000E-02 0. -1.
    5000001    1    1    2    0    0  0.26782534534E+03  0.12338458270E+03  0.74468851019E+03  0.82529761181E+03  0.19900000000E+03 0.  0.
   -5000001    1    1    2    0    0 -0.26782534534E+03 -0.12338458270E+03  0.37466771786E+03  0.51665372316E+03  0.19900000000E+03 0.  0.
<mgrwt>
<rscale>  0 0.74018580E+03</rscale>
<asrwt>0</asrwt>
<pdfrwt beam="1">  1        2 0.17580767E+00 0.74018580E+03</pdfrwt>
<pdfrwt beam="2">  1       -2 0.15899652E-01 0.74018580E+03</pdfrwt>
<totfact> 0.65533890E+02</totfact>
</mgrwt>
</event>
<event>
 4    1  0.5056513E-005  0.5808008E+03  0.7818608E-02  0.9946059E-01
         -2   -1    0    0    0  501 -0.00000000000E+00  0.00000000000E+00  0.71259913978E+03  0.71259913979E+03  0.25500000000E-02 0. -1.
          2   -1    0    0  501    0  0.00000000000E+00 -0.00000000000E+00 -0.11834477742E+03  0.11834477745E+03  0.25500000000E-02 0.  1.
    5000001    1    1    2    0    0  0.14727391115E+03 -0.14843707451E+03  0.34255495402E+03  0.44795989387E+03  0.19900000000E+03 0.  0.
   -5000001    1    1    2    0    0 -0.14727391115E+03  0.14843707451E+03  0.25169940834E+03  0.38298402337E+03  0.19900000000E+03 0.  0.
<mgrwt>
<rscale>  0 0.58080078E+03</rscale>
<asrwt>0</asrwt>
<pdfrwt beam="1">  1        2 0.16906397E-01 0.58080078E+03</pdfrwt>
<pdfrwt beam="2">  1       -2 0.10179988E+00 0.58080078E+03</pdfrwt>
<totfact> 0.27793723E+02</totfact>
</mgrwt>
</event>
<event>
 4    1  0.5056513E-005  0.5022532E+03  0.7818608E-02  0.1013192E+00
          2   -1    0    0  501    0  0.00000000000E+00  0.00000000000E+00  0.27126356350E+04  0.27126356350E+04  0.25500000000E-02 0.  1.
         -2   -1    0    0    0  501 -0.00000000000E+00 -0.00000000000E+00 -0.23248451118E+02  0.23248451258E+02  0.25500000000E-02 0. -1.
    5000001    1    1    2    0    0  0.32603276479E+02  0.14003073845E+03  0.16325211244E+04  0.16508778886E+04  0.19900000000E+03 0.  0.
   -5000001    1    1    2    0    0 -0.32603276479E+02 -0.14003073845E+03  0.10568660595E+04  0.10850061977E+04  0.19900000000E+03 0.  0.
<mgrwt>
<rscale>  0 0.50225323E+03</rscale>
<asrwt>0</asrwt>
<pdfrwt beam="1">  1        2 0.38751932E+00 0.50225323E+03</pdfrwt>
<pdfrwt beam="2">  1       -2 0.33212078E-02 0.50225323E+03</pdfrwt>
<totfact> 0.13916163E+03</totfact>
</mgrwt>
</event>
<event>
 4    1  0.5056513E-005  0.5525463E+03  0.7818608E-02  0.1000906E+00
         -2   -1    0    0    0  501 -0.00000000000E+00  0.00000000000E+00  0.22198077153E+02  0.22198077299E+02  0.25500000000E-02 0. -1.
          2   -1    0    0  501    0  0.00000000000E+00 -0.00000000000E+00 -0.34384444700E+04  0.34384444700E+04  0.25500000000E-02 0.  1.
    5000001    1    1    2    0    0 -0.63326301076E+01  0.18281972268E+03 -0.20658708638E+04  0.20834794405E+04  0.19900000000E+03 0.  0.
   -5000001    1    1    2    0    0  0.63326301076E+01 -0.18281972268E+03 -0.13503755290E+04  0.13771631067E+04  0.19900000000E+03 0.  0.
<mgrwt>
<rscale>  0 0.55254631E+03</rscale>
<asrwt>0</asrwt>
<pdfrwt beam="1">  1        2 0.49120601E+00 0.55254631E+03</pdfrwt>
<pdfrwt beam="2">  1       -2 0.31711561E-02 0.55254631E+03</pdfrwt>
<totfact> 0.59279157E+02</totfact>
</mgrwt>
</event>
<event>
 4    1  0.5056513E-005  0.4763147E+03  0.7818608E-02  0.1020153E+00
         -2   -1    0    0    0  501 -0.00000000000E+00  0.00000000000E+00  0.10804157179E+03  0.10804157182E+03  0.25500000000E-02 0. -1.
          2   -1    0    0  501    0  0.00000000000E+00 -0.00000000000E+00 -0.52497319019E+03  0.52497319019E+03  0.25500000000E-02 0.  1.
    5000001    1    1    2    0    0  0.51594735746E+02  0.56994235532E+02 -0.34915979828E+03  0.40917468687E+03  0.19900000000E+03 0.  0.
   -5000001    1    1    2    0    0 -0.51594735746E+02 -0.56994235532E+02 -0.67771820115E+02  0.22384007515E+03  0.19900000000E+03 0.  0.
<mgrwt>
<rscale>  0 0.47631472E+03</rscale>
<asrwt>0</asrwt>
<pdfrwt beam="1">  1        2 0.74996169E-01 0.47631472E+03</pdfrwt>
<pdfrwt beam="2">  1       -2 0.15434511E-01 0.47631472E+03</pdfrwt>
<totfact> 0.21060067E+03</totfact>
</mgrwt>
</event>
<event>
 4    1  0.5056513E-005  0.4238342E+03  0.7818608E-02  0.1035826E+00
         -2   -1    0    0    0  501 -0.00000000000E+00  0.00000000000E+00  0.89926402047E+02  0.89926402083E+02  0.25500000000E-02 0. -1.
          2   -1    0    0  501    0  0.00000000000E+00 -0.00000000000E+00 -0.49939563270E+03  0.49939563271E+03  0.25500000000E-02 0.  1.
    5000001    1    1    2    0    0  0.51338034301E+02  0.35753973949E+02 -0.25664740767E+03  0.33073075497E+03  0.19900000000E+03 0.  0.
   -5000001    1    1    2    0    0 -0.51338034301E+02 -0.35753973949E+02 -0.15282182299E+03  0.25859127982E+03  0.19900000000E+03 0.  0.
<mgrwt>
<rscale>  0 0.42383418E+03</rscale>
<asrwt>0</asrwt>
<pdfrwt beam="1">  1        2 0.71342232E-01 0.42383418E+03</pdfrwt>
<pdfrwt beam="2">  1       -2 0.12846629E-01 0.42383418E+03</pdfrwt>
<totfact> 0.30192263E+03</totfact>
</mgrwt>
</event>
<event>
 4    1  0.5056513E-005  0.5209002E+03  0.7818608E-02  0.1008463E+00
         -2   -1    0    0    0  501 -0.00000000000E+00  0.00000000000E+00  0.18850710991E+03  0.18850710993E+03  0.25500000000E-02 0. -1.
          2   -1    0    0  501    0  0.00000000000E+00 -0.00000000000E+00 -0.35984983426E+03  0.35984983427E+03  0.25500000000E-02 0.  1.
    5000001    1    1    2    0    0 -0.10755305234E+03  0.12847198675E+03 -0.99009737152E+02  0.27834625648E+03  0.19900000000E+03 0.  0.
   -5000001    1    1    2    0    0  0.10755305234E+03 -0.12847198675E+03 -0.72332987193E+02  0.27001068772E+03  0.19900000000E+03 0.  0.
<mgrwt>
<rscale>  0 0.52090019E+03</rscale>
<asrwt>0</asrwt>
<pdfrwt beam="1">  1        2 0.51407119E-01 0.52090019E+03</pdfrwt>
<pdfrwt beam="2">  1       -2 0.26929587E-01 0.52090019E+03</pdfrwt>
<totfact> 0.12179612E+03</totfact>
</mgrwt>
</event>
<event>
 4    1  0.5056513E-005  0.4973978E+03  0.7818608E-02  0.1014460E+00
         -2   -1    0    0    0  501 -0.00000000000E+00  0.00000000000E+00  0.64103623930E+02  0.64103623980E+02  0.25500000000E-02 0.  1.
          2   -1    0    0  501    0  0.00000000000E+00 -0.00000000000E+00 -0.96486179170E+03  0.96486179170E+03  0.25500000000E-02 0. -1.
    5000001    1    1    2    0    0 -0.27856570776E+02 -0.14509798014E+03 -0.49281134184E+03  0.55162798246E+03  0.19900000000E+03 0.  0.
   -5000001    1    1    2    0    0  0.27856570776E+02  0.14509798014E+03 -0.40794682592E+03  0.47733743323E+03  0.19900000000E+03 0.  0.
<mgrwt>
<rscale>  0 0.49739778E+03</rscale>
<asrwt>0</asrwt>
<pdfrwt beam="1">  1        2 0.13783739E+00 0.49739778E+03</pdfrwt>
<pdfrwt beam="2">  1       -2 0.91576612E-02 0.49739778E+03</pdfrwt>
<totfact> 0.23415259E+03</totfact>
</mgrwt>
</event>
<event>
 4    1  0.5056513E-005  0.5844248E+03  0.7818608E-02  0.9938257E-01
          2   -1    0    0  501    0  0.00000000000E+00  0.00000000000E+00  0.67691244884E+03  0.67691244885E+03  0.25500000000E-02 0.  1.
         -2   -1    0    0    0  501 -0.00000000000E+00 -0.00000000000E+00 -0.12614348652E+03  0.12614348655E+03  0.25500000000E-02 0. -1.
    5000001    1    1    2    0    0  0.19087748837E+03 -0.92871318895E+02  0.23831445920E+03  0.37610381400E+03  0.19900000000E+03 0.  0.
   -5000001    1    1    2    0    0 -0.19087748837E+03  0.92871318895E+02  0.31245450312E+03  0.42695212139E+03  0.19900000000E+03 0.  0.
<mgrwt>
<rscale>  0 0.58442483E+03</rscale>
<asrwt>0</asrwt>
<pdfrwt beam="1">  1        2 0.96701780E-01 0.58442483E+03</pdfrwt>
<pdfrwt beam="2">  1       -2 0.18020498E-01 0.58442483E+03</pdfrwt>
<totfact> 0.12019916E+03</totfact>
</mgrwt>
</event>
<event>
 4    1  0.5056513E-005  0.6406355E+03  0.7818608E-02  0.9824511E-01
         -2   -1    0    0    0  501 -0.00000000000E+00  0.00000000000E+00  0.30608254280E+03  0.30608254281E+03  0.25500000000E-02 0. -1.
          2   -1    0    0  501    0  0.00000000000E+00 -0.00000000000E+00 -0.33521502043E+03  0.33521502044E+03  0.25500000000E-02 0.  1.
    5000001    1    1    2    0    0 -0.20751036573E+03  0.12798015896E+03  0.45186257713E+02  0.31793438137E+03  0.19900000000E+03 0.  0.
   -5000001    1    1    2    0    0  0.20751036573E+03 -0.12798015896E+03 -0.74318735339E+02  0.32336318188E+03  0.19900000000E+03 0.  0.
<mgrwt>
<rscale>  0 0.64063552E+03</rscale>
<asrwt>0</asrwt>
<pdfrwt beam="1">  1        2 0.47887860E-01 0.64063552E+03</pdfrwt>
<pdfrwt beam="2">  1       -2 0.43726078E-01 0.64063552E+03</pdfrwt>
<totfact> 0.52643335E+02</totfact>
</mgrwt>
</event>
<event>
 4    1  0.5056513E-005  0.4449405E+03  0.7818608E-02  0.1029242E+00
          2   -1    0    0  501    0  0.00000000000E+00  0.00000000000E+00  0.79300620116E+03  0.79300620117E+03  0.25500000000E-02 0.  1.
         -2   -1    0    0    0  501 -0.00000000000E+00 -0.00000000000E+00 -0.62411883181E+02  0.62411883233E+02  0.25500000000E-02 0. -1.
    5000001    1    1    2    0    0  0.74047138875E+02  0.51682158565E+02  0.28514787466E+03  0.35925525008E+03  0.19900000000E+03 0.  0.
   -5000001    1    1    2    0    0 -0.74047138875E+02 -0.51682158565E+02  0.44544644332E+03  0.49616283432E+03  0.19900000000E+03 0.  0.
<mgrwt>
<rscale>  0 0.44494049E+03</rscale>
<asrwt>0</asrwt>
<pdfrwt beam="1">  1        2 0.11328660E+00 0.44494049E+03</pdfrwt>
<pdfrwt beam="2">  1       -2 0.89159837E-02 0.44494049E+03</pdfrwt>
<totfact> 0.31591898E+03</totfact>
</mgrwt>
</event>
<event>
 4    1  0.5056513E-005  0.6294849E+03  0.7818608E-02  0.9846055E-01
         -2   -1    0    0    0  501 -0.00000000000E+00  0.00000000000E+00  0.16536360153E+03  0.16536360155E+03  0.25500000000E-02 0. -1.
          2   -1    0    0  501    0  0.00000000000E+00 -0.00000000000E+00 -0.59906045405E+03  0.59906045406E+03  0.25500000000E-02 0.  1.
    5000001    1    1    2    0    0 -0.20972135152E+03 -0.71791233680E+02 -0.34024105248E+03  0.45221897385E+03  0.19900000000E+03 0.  0.
   -5000001    1    1    2    0    0  0.20972135152E+03  0.71791233680E+02 -0.93455800043E+02  0.31220508176E+03  0.19900000000E+03 0.  0.
<mgrwt>
<rscale>  0 0.62948485E+03</rscale>
<asrwt>0</asrwt>
<pdfrwt beam="1">  1        2 0.85580064E-01 0.62948485E+03</pdfrwt>
<pdfrwt beam="2">  1       -2 0.23623372E-01 0.62948485E+03</pdfrwt>
<totfact> 0.86550311E+02</totfact>
</mgrwt>
</event>
<event>
 4    1  0.5056513E-005  0.1548029E+04  0.7818608E-02  0.8853127E-01
         -2   -1    0    0    0  501 -0.00000000000E+00  0.00000000000E+00  0.44283085836E+03  0.44283085837E+03  0.25500000000E-02 0. -1.
          2   -1    0    0  501    0  0.00000000000E+00 -0.00000000000E+00 -0.13528839295E+04  0.13528839295E+04  0.25500000000E-02 0.  1.
    5000001    1    1    2    0    0 -0.74722568068E+03 -0.13574106528E+02 -0.41894926239E+03  0.87957373693E+03  0.19900000000E+03 0.  0.
   -5000001    1    1    2    0    0  0.74722568068E+03  0.13574106528E+02 -0.49110380872E+03  0.91614105092E+03  0.19900000000E+03 0.  0.
<mgrwt>
<rscale>  0 0.15480294E+04</rscale>
<asrwt>0</asrwt>
<pdfrwt beam="1">  1        2 0.19326913E+00 0.15480294E+04</pdfrwt>
<pdfrwt beam="2">  1       -2 0.63261552E-01 0.15480294E+04</pdfrwt>
<totfact> 0.39175832E+01</totfact>
</mgrwt>
</event>
<event>
 4    1  0.5056513E-005  0.4832251E+03  0.7818608E-02  0.1018253E+00
          2   -1    0    0  501    0  0.00000000000E+00  0.00000000000E+00  0.14073762283E+03  0.14073762285E+03  0.25500000000E-02 0.  1.
         -2   -1    0    0    0  501 -0.00000000000E+00 -0.00000000000E+00 -0.41479045569E+03  0.41479045570E+03  0.25500000000E-02 0. -1.
    5000001    1    1    2    0    0  0.67868105449E+02  0.61181120456E+02 -0.25441449875E+03  0.33567386912E+03  0.19900000000E+03 0.  0.
   -5000001    1    1    2    0    0 -0.67868105449E+02 -0.61181120456E+02 -0.19638334112E+02  0.21985420943E+03  0.19900000000E+03 0.  0.
<mgrwt>
<rscale>  0 0.48322509E+03</rscale>
<asrwt>0</asrwt>
<pdfrwt beam="1">  1        2 0.20105375E-01 0.48322509E+03</pdfrwt>
<pdfrwt beam="2">  1       -2 0.59255779E-01 0.48322509E+03</pdfrwt>
<totfact> 0.75466679E+02</totfact>
</mgrwt>
</event>
<event>
 4    1  0.5056513E-005  0.7507639E+03  0.7818608E-02  0.9634153E-01
          2   -1    0    0  501    0  0.00000000000E+00  0.00000000000E+00  0.12771030589E+03  0.12771030592E+03  0.25500000000E-02 0.  1.
         -2   -1    0    0    0  501 -0.00000000000E+00 -0.00000000000E+00 -0.11033692055E+04  0.11033692055E+04  0.25500000000E-02 0. -1.
    5000001    1    1    2    0    0 -0.28622448597E+03  0.11914076895E+03 -0.36967911055E+03  0.52190288749E+03  0.19900000000E+03 0.  0.
   -5000001    1    1    2    0    0  0.28622448597E+03 -0.11914076895E+03 -0.60597978907E+03  0.70917662395E+03  0.19900000000E+03 0.  0.
<mgrwt>
<rscale>  0 0.75076393E+03</rscale>
<asrwt>0</asrwt>
<pdfrwt beam="1">  1        2 0.18244330E-01 0.75076393E+03</pdfrwt>
<pdfrwt beam="2">  1       -2 0.15762417E+00 0.75076393E+03</pdfrwt>
<totfact> 0.84093407E+01</totfact>
</mgrwt>
</event>
<event>
 4    1  0.5056513E-005  0.4781818E+03  0.7818608E-02  0.1019636E+00
          2   -1    0    0  501    0  0.00000000000E+00  0.00000000000E+00  0.74330831842E+02  0.74330831886E+02  0.25500000000E-02 0. -1.
         -2   -1    0    0    0  501 -0.00000000000E+00 -0.00000000000E+00 -0.76905433041E+03  0.76905433041E+03  0.25500000000E-02 0.  1.
    5000001    1    1    2    0    0  0.19091978356E+02  0.13015931838E+03 -0.37566383729E+03  0.44500592181E+03  0.19900000000E+03 0.  0.
   -5000001    1    1    2    0    0 -0.19091978356E+02 -0.13015931838E+03 -0.31905966127E+03  0.39837924049E+03  0.19900000000E+03 0.  0.
<mgrwt>
<rscale>  0 0.47818176E+03</rscale>
<asrwt>0</asrwt>
<pdfrwt beam="1">  1        2 0.10618691E-01 0.47818176E+03</pdfrwt>
<pdfrwt beam="2">  1       -2 0.10986490E+00 0.47818176E+03</pdfrwt>
<totfact> 0.41018498E+02</totfact>
</mgrwt>
</event>
<event>
 4    1  0.5056513E-005  0.4927222E+03  0.7818608E-02  0.1015696E+00
         -2   -1    0    0    0  501 -0.00000000000E+00  0.00000000000E+00  0.21749458034E+03  0.21749458035E+03  0.25500000000E-02 0. -1.
          2   -1    0    0  501    0  0.00000000000E+00 -0.00000000000E+00 -0.27905887028E+03  0.27905887029E+03  0.25500000000E-02 0.  1.
    5000001    1    1    2    0    0 -0.10747670733E+03  0.93570270442E+02 -0.25256935233E+01  0.24477339981E+03  0.19900000000E+03 0.  0.
   -5000001    1    1    2    0    0  0.10747670733E+03 -0.93570270442E+02 -0.59038596420E+02  0.25178005083E+03  0.19900000000E+03 0.  0.
<mgrwt>
<rscale>  0 0.49272220E+03</rscale>
<asrwt>0</asrwt>
<pdfrwt beam="1">  1        2 0.39865553E-01 0.49272220E+03</pdfrwt>
<pdfrwt beam="2">  1       -2 0.31070654E-01 0.49272220E+03</pdfrwt>
<totfact> 0.12394392E+03</totfact>
</mgrwt>
</event>
<event>
 4    1  0.5056513E-005  0.5743856E+03  0.7818608E-02  0.9960021E-01
          2   -1    0    0  501    0  0.00000000000E+00  0.00000000000E+00  0.29647792419E+04  0.29647792419E+04  0.25500000000E-02 0.  1.
         -2   -1    0    0    0  501 -0.00000000000E+00 -0.00000000000E+00 -0.27819849944E+02  0.27819850061E+02  0.25500000000E-02 0. -1.
    5000001    1    1    2    0    0 -0.12492610882E+03 -0.13113760938E+03  0.19914413413E+04  0.20095380616E+04  0.19900000000E+03 0.  0.
   -5000001    1    1    2    0    0  0.12492610882E+03  0.13113760938E+03  0.94551805064E+03  0.98306103032E+03  0.19900000000E+03 0.  0.
<mgrwt>
<rscale>  0 0.57438563E+03</rscale>
<asrwt>0</asrwt>
<pdfrwt beam="1">  1        2 0.42353969E+00 0.57438563E+03</pdfrwt>
<pdfrwt beam="2">  1       -2 0.39742662E-02 0.57438563E+03</pdfrwt>
<totfact> 0.77283432E+02</totfact>
</mgrwt>
</event>
<event>
 4    1  0.5056513E-005  0.5007169E+03  0.7818608E-02  0.1013592E+00
         -2   -1    0    0    0  501 -0.00000000000E+00  0.00000000000E+00  0.47747339051E+03  0.47747339052E+03  0.25500000000E-02 0. -1.
          2   -1    0    0  501    0  0.00000000000E+00 -0.00000000000E+00 -0.13127298185E+03  0.13127298187E+03  0.25500000000E-02 0.  1.
    5000001    1    1    2    0    0  0.29931261229E+02 -0.11406163970E+03  0.28953587261E+03  0.37059136468E+03  0.19900000000E+03 0.  0.
   -5000001    1    1    2    0    0 -0.29931261229E+02  0.11406163970E+03  0.56664536051E+02  0.23815500771E+03  0.19900000000E+03 0.  0.
<mgrwt>
<rscale>  0 0.50071691E+03</rscale>
<asrwt>0</asrwt>
<pdfrwt beam="1">  1        2 0.18753283E-01 0.50071691E+03</pdfrwt>
<pdfrwt beam="2">  1       -2 0.68210487E-01 0.50071691E+03</pdfrwt>
<totfact> 0.60735841E+02</totfact>
</mgrwt>
</event>
<event>
 4    1  0.5056513E-005  0.6585720E+03  0.7818608E-02  0.9790826E-01
         -2   -1    0    0    0  501 -0.00000000000E+00  0.00000000000E+00  0.18410036386E+03  0.18410036388E+03  0.25500000000E-02 0. -1.
          2   -1    0    0  501    0  0.00000000000E+00 -0.00000000000E+00 -0.58896822920E+03  0.58896822921E+03  0.25500000000E-02 0.  1.
    5000001    1    1    2    0    0  0.21235896650E+03  0.89270759800E+02 -0.34981089970E+03  0.46371787194E+03  0.19900000000E+03 0.  0.
   -5000001    1    1    2    0    0 -0.21235896650E+03 -0.89270759800E+02 -0.55056965640E+02  0.30935072115E+03  0.19900000000E+03 0.  0.
<mgrwt>
<rscale>  0 0.65857199E+03</rscale>
<asrwt>0</asrwt>
<pdfrwt beam="1">  1        2 0.84138318E-01 0.65857199E+03</pdfrwt>
<pdfrwt beam="2">  1       -2 0.26300052E-01 0.65857199E+03</pdfrwt>
<totfact> 0.72766136E+02</totfact>
</mgrwt>
</event>
<event>
 4    1  0.5056513E-005  0.8864375E+03  0.7818608E-02  0.9442696E-01
          2   -1    0    0  501    0  0.00000000000E+00  0.00000000000E+00  0.19868006916E+04  0.19868006916E+04  0.25500000000E-02 0. -1.
         -2   -1    0    0    0  501 -0.00000000000E+00 -0.00000000000E+00 -0.98873967217E+02  0.98873967250E+02  0.25500000000E-02 0.  1.
    5000001    1    1    2    0    0 -0.10062506517E+03  0.18155873892E+03  0.17375231478E+04  0.17611577636E+04  0.19900000000E+03 0.  0.
   -5000001    1    1    2    0    0  0.10062506517E+03 -0.18155873892E+03  0.15040357662E+03  0.32451689521E+03  0.19900000000E+03 0.  0.
<mgrwt>
<rscale>  0 0.88643751E+03</rscale>
<asrwt>0</asrwt>
<pdfrwt beam="1">  1        2 0.28382864E+00 0.88643751E+03</pdfrwt>
<pdfrwt beam="2">  1       -2 0.14124854E-01 0.88643751E+03</pdfrwt>
<totfact> 0.31921621E+02</totfact>
</mgrwt>
</event>
<event>
 4    1  0.5056513E-005  0.1000700E+04  0.7818608E-02  0.9307778E-01
         -2   -1    0    0    0  501 -0.00000000000E+00  0.00000000000E+00  0.71215228686E+02  0.71215228731E+02  0.25500000000E-02 0.  1.
          2   -1    0    0  501    0  0.00000000000E+00 -0.00000000000E+00 -0.35154003726E+04  0.35154003726E+04  0.25500000000E-02 0. -1.
    5000001    1    1    2    0    0  0.15120539914E+03  0.43308878281E+03 -0.16579705966E+04  0.17317322153E+04  0.19900000000E+03 0.  0.
   -5000001    1    1    2    0    0 -0.15120539914E+03 -0.43308878281E+03 -0.17862145474E+04  0.18548833860E+04  0.19900000000E+03 0.  0.
<mgrwt>
<rscale>  0 0.10006998E+04</rscale>
<asrwt>0</asrwt>
<pdfrwt beam="1">  1        2 0.50219994E+00 0.10006998E+04</pdfrwt>
<pdfrwt beam="2">  1       -2 0.10173606E-01 0.10006998E+04</pdfrwt>
<totfact> 0.81217868E+01</totfact>
</mgrwt>
</event>
<event>
 4    1  0.5056513E-005  0.5159489E+03  0.7818608E-02  0.1009698E+00
         -2   -1    0    0    0  501 -0.00000000000E+00  0.00000000000E+00  0.55777882996E+02  0.55777883054E+02  0.25500000000E-02 0. -1.
          2   -1    0    0  501    0  0.00000000000E+00 -0.00000000000E+00 -0.11931400914E+04  0.11931400914E+04  0.25500000000E-02 0.  1.
    5000001    1    1    2    0    0  0.60507923137E+02  0.15215382610E+03 -0.59709976603E+03  0.65033923928E+03  0.19900000000E+03 0.  0.
   -5000001    1    1    2    0    0 -0.60507923137E+02 -0.15215382610E+03 -0.54026244234E+03  0.59857873514E+03  0.19900000000E+03 0.  0.
<mgrwt>
<rscale>  0 0.51594894E+03</rscale>
<asrwt>0</asrwt>
<pdfrwt beam="1">  1        2 0.17044857E+00 0.51594894E+03</pdfrwt>
<pdfrwt beam="2">  1       -2 0.79682697E-02 0.51594894E+03</pdfrwt>
<totfact> 0.21495337E+03</totfact>
</mgrwt>
</event>
<event>
 4    1  0.5056513E-005  0.1243256E+04  0.7818608E-02  0.9075815E-01
          2   -1    0    0  501    0  0.00000000000E+00  0.00000000000E+00  0.94578991928E+03  0.94578991929E+03  0.25500000000E-02 0.  1.
         -2   -1    0    0    0  501 -0.00000000000E+00 -0.00000000000E+00 -0.40857030883E+03  0.40857030883E+03  0.25500000000E-02 0. -1.
    5000001    1    1    2    0    0 -0.52677149208E+03  0.55023622803E+02  0.54911840886E+03  0.78844646672E+03  0.19900000000E+03 0.  0.
   -5000001    1    1    2    0    0  0.52677149208E+03 -0.55023622803E+02 -0.11898798405E+02  0.56591376140E+03  0.19900000000E+03 0.  0.
<mgrwt>
<rscale>  0 0.12432565E+04</rscale>
<asrwt>0</asrwt>
<pdfrwt beam="1">  1        2 0.13511284E+00 0.12432565E+04</pdfrwt>
<pdfrwt beam="2">  1       -2 0.58367188E-01 0.12432565E+04</pdfrwt>
<totfact> 0.82112970E+01</totfact>
</mgrwt>
</event>
<event>
 4    1  0.5056513E-005  0.9833121E+03  0.7818608E-02  0.9327039E-01
          2   -1    0    0  501    0  0.00000000000E+00  0.00000000000E+00  0.32483732495E+04  0.32483732495E+04  0.25500000000E-02 0.  1.
         -2   -1    0    0    0  501 -0.00000000000E+00 -0.00000000000E+00 -0.74414383048E+02  0.74414383092E+02  0.25500000000E-02 0. -1.
    5000001    1    1    2    0    0  0.44850421166E+03  0.26132625176E+02  0.15298573779E+04  0.16068302768E+04  0.19900000000E+03 0.  0.
   -5000001    1    1    2    0    0 -0.44850421166E+03 -0.26132625176E+02  0.16441014886E+04  0.17159573558E+04  0.19900000000E+03 0.  0.
<mgrwt>
<rscale>  0 0.98331214E+03</rscale>
<asrwt>0</asrwt>
<pdfrwt beam="1">  1        2 0.46405335E+00 0.98331214E+03</pdfrwt>
<pdfrwt beam="2">  1       -2 0.10630626E-01 0.98331214E+03</pdfrwt>
<totfact> 0.10870385E+02</totfact>
</mgrwt>
</event>
<event>
 4    1  0.5056513E-005  0.9650054E+03  0.7818608E-02  0.9347781E-01
          2   -1    0    0  501    0  0.00000000000E+00  0.00000000000E+00  0.21510861378E+04  0.21510861378E+04  0.25500000000E-02 0.  1.
         -2   -1    0    0    0  501 -0.00000000000E+00 -0.00000000000E+00 -0.10822852388E+03  0.10822852391E+03  0.25500000000E-02 0. -1.
    5000001    1    1    2    0    0 -0.80062815015E+02 -0.37179037308E+03  0.15374052248E+04  0.15961998500E+04  0.19900000000E+03 0.  0.
   -5000001    1    1    2    0    0  0.80062815015E+02  0.37179037308E+03  0.50545238913E+03  0.66311481173E+03  0.19900000000E+03 0.  0.
<mgrwt>
<rscale>  0 0.96500545E+03</rscale>
<asrwt>0</asrwt>
<pdfrwt beam="1">  1        2 0.30729804E+00 0.96500545E+03</pdfrwt>
<pdfrwt beam="2">  1       -2 0.15461216E-01 0.96500545E+03</pdfrwt>
<totfact> 0.22469185E+02</totfact>
</mgrwt>
</event>
<event>
 4    1  0.5056513E-005  0.8719150E+03  0.7818608E-02  0.9461386E-01
         -2   -1    0    0    0  501 -0.00000000000E+00  0.00000000000E+00  0.22787393923E+03  0.22787393925E+03  0.25500000000E-02 0. -1.
          2   -1    0    0  501    0  0.00000000000E+00 -0.00000000000E+00 -0.83405300243E+03  0.83405300243E+03  0.25500000000E-02 0.  1.
    5000001    1    1    2    0    0  0.36487672575E+03 -0.10809964534E+03 -0.39453439845E+03  0.58316288452E+03  0.19900000000E+03 0.  0.
   -5000001    1    1    2    0    0 -0.36487672575E+03  0.10809964534E+03 -0.21164466475E+03  0.47876405716E+03  0.19900000000E+03 0.  0.
<mgrwt>
<rscale>  0 0.87191500E+03</rscale>
<asrwt>0</asrwt>
<pdfrwt beam="1">  1        2 0.11915043E+00 0.87191500E+03</pdfrwt>
<pdfrwt beam="2">  1       -2 0.32553420E-01 0.87191500E+03</pdfrwt>
<totfact> 0.31689476E+02</totfact>
</mgrwt>
</event>
<event>
 4    1  0.5056513E-005  0.5631837E+03  0.7818608E-02  0.9984877E-01
          2   -1    0    0  501    0  0.00000000000E+00  0.00000000000E+00  0.11998969690E+04  0.11998969691E+04  0.25500000000E-02 0.  1.
         -2   -1    0    0    0  501 -0.00000000000E+00 -0.00000000000E+00 -0.66083974301E+02  0.66083974350E+02  0.25500000000E-02 0. -1.
    5000001    1    1    2    0    0  0.39719409468E+01  0.19919125700E+03  0.56727803084E+03  0.63332321721E+03  0.19900000000E+03 0.  0.
   -5000001    1    1    2    0    0 -0.39719409468E+01 -0.19919125700E+03  0.56653496391E+03  0.63265772619E+03  0.19900000000E+03 0.  0.
<mgrwt>
<rscale>  0 0.56318367E+03</rscale>
<asrwt>0</asrwt>
<pdfrwt beam="1">  1        2 0.17141386E+00 0.56318367E+03</pdfrwt>
<pdfrwt beam="2">  1       -2 0.94405671E-02 0.56318367E+03</pdfrwt>
<totfact> 0.16235245E+03</totfact>
</mgrwt>
</event>
<event>
 4    1  0.5056513E-005  0.5525741E+03  0.7818608E-02  0.1000900E+00
          2   -1    0    0  501    0  0.00000000000E+00  0.00000000000E+00  0.22253722048E+03  0.22253722050E+03  0.25500000000E-02 0.  1.
         -2   -1    0    0    0  501 -0.00000000000E+00 -0.00000000000E+00 -0.34301911841E+03  0.34301911842E+03  0.25500000000E-02 0. -1.
    5000001    1    1    2    0    0  0.93931771738E+02 -0.16342089556E+03 -0.95754197006E+02  0.29034364655E+03  0.19900000000E+03 0.  0.
   -5000001    1    1    2    0    0 -0.93931771738E+02  0.16342089556E+03 -0.24727700923E+02  0.27521269237E+03  0.19900000000E+03 0.  0.
<mgrwt>
<rscale>  0 0.55257405E+03</rscale>
<asrwt>0</asrwt>
<pdfrwt beam="1">  1        2 0.31791031E-01 0.55257405E+03</pdfrwt>
<pdfrwt beam="2">  1       -2 0.49002731E-01 0.55257405E+03</pdfrwt>
<totfact> 0.66122861E+02</totfact>
</mgrwt>
</event>
<event>
 4    1  0.5056513E-005  0.5311985E+03  0.7818608E-02  0.1005942E+00
          2   -1    0    0  501    0  0.00000000000E+00  0.00000000000E+00  0.19006500471E+04  0.19006500471E+04  0.25500000000E-02 0.  1.
         -2   -1    0    0    0  501 -0.00000000000E+00 -0.00000000000E+00 -0.37115182437E+02  0.37115182525E+02  0.25500000000E-02 0. -1.
    5000001    1    1    2    0    0  0.33479700065E+02  0.16976828697E+03  0.10471136618E+04  0.10798102529E+04  0.19900000000E+03 0.  0.
   -5000001    1    1    2    0    0 -0.33479700065E+02 -0.16976828697E+03  0.81642120283E+03  0.85795497668E+03  0.19900000000E+03 0.  0.
<mgrwt>
<rscale>  0 0.53119854E+03</rscale>
<asrwt>0</asrwt>
<pdfrwt beam="1">  1        2 0.27152149E+00 0.53119854E+03</pdfrwt>
<pdfrwt beam="2">  1       -2 0.53021678E-02 0.53119854E+03</pdfrwt>
<totfact> 0.17457150E+03</totfact>
</mgrwt>
</event>
<event>
 4    1  0.5056513E-005  0.8559343E+03  0.7818608E-02  0.9482407E-01
         -2   -1    0    0    0  501 -0.00000000000E+00  0.00000000000E+00  0.52691694519E+03  0.52691694519E+03  0.25500000000E-02 0. -1.
          2   -1    0    0  501    0  0.00000000000E+00 -0.00000000000E+00 -0.34759916865E+03  0.34759916866E+03  0.25500000000E-02 0.  1.
    5000001    1    1    2    0    0  0.23429376706E+03  0.28511655027E+03  0.19472038532E+01  0.41927295182E+03  0.19900000000E+03 0.  0.
   -5000001    1    1    2    0    0 -0.23429376706E+03 -0.28511655027E+03  0.17737057269E+03  0.45524316203E+03  0.19900000000E+03 0.  0.
<mgrwt>
<rscale>  0 0.85593432E+03</rscale>
<asrwt>0</asrwt>
<pdfrwt beam="1">  1        2 0.49657024E-01 0.85593432E+03</pdfrwt>
<pdfrwt beam="2">  1       -2 0.75273849E-01 0.85593432E+03</pdfrwt>
<totfact> 0.16118988E+02</totfact>
</mgrwt>
</event>
<event>
 4    1  0.5056513E-005  0.5309952E+03  0.7818608E-02  0.1005991E+00
          2   -1    0    0  501    0  0.00000000000E+00  0.00000000000E+00  0.87443358860E+03  0.87443358861E+03  0.25500000000E-02 0.  1.
         -2   -1    0    0    0  501 -0.00000000000E+00 -0.00000000000E+00 -0.80611016993E+02  0.80611017033E+02  0.25500000000E-02 0. -1.
    5000001    1    1    2    0    0 -0.88394486825E+00 -0.13242817189E+03  0.18909798870E+03  0.30479017602E+03  0.19900000000E+03 0.  0.
   -5000001    1    1    2    0    0  0.88394486825E+00  0.13242817189E+03  0.60472458291E+03  0.65025442962E+03  0.19900000000E+03 0.  0.
<mgrwt>
<rscale>  0 0.53099522E+03</rscale>
<asrwt>0</asrwt>
<pdfrwt beam="1">  1        2 0.12491908E+00 0.53099522E+03</pdfrwt>
<pdfrwt beam="2">  1       -2 0.11515860E-01 0.53099522E+03</pdfrwt>
<totfact> 0.18437925E+03</totfact>
</mgrwt>
</event>
<event>
 4    1  0.5056513E-005  0.6545999E+03  0.7818608E-02  0.9798186E-01
         -2   -1    0    0    0  501 -0.00000000000E+00  0.00000000000E+00  0.82209356225E+02  0.82209356264E+02  0.25500000000E-02 0. -1.
          2   -1    0    0  501    0  0.00000000000E+00 -0.00000000000E+00 -0.13030786226E+04  0.13030786226E+04  0.25500000000E-02 0.  1.
    5000001    1    1    2    0    0  0.91078176979E+02 -0.24332967536E+03 -0.61982497040E+03  0.70091979510E+03  0.19900000000E+03 0.  0.
   -5000001    1    1    2    0    0 -0.91078176979E+02  0.24332967536E+03 -0.60104429602E+03  0.68436818381E+03  0.19900000000E+03 0.  0.
<mgrwt>
<rscale>  0 0.65459989E+03</rscale>
<asrwt>0</asrwt>
<pdfrwt beam="1">  1        2 0.18615408E+00 0.65459989E+03</pdfrwt>
<pdfrwt beam="2">  1       -2 0.11744195E-01 0.65459989E+03</pdfrwt>
<totfact> 0.99534943E+02</totfact>
</mgrwt>
</event>
<event>
 4    1  0.5056513E-005  0.6100838E+03  0.7818608E-02  0.9884703E-01
         -2   -1    0    0    0  501 -0.00000000000E+00  0.00000000000E+00  0.13164795511E+03  0.13164795513E+03  0.25500000000E-02 0. -1.
          2   -1    0    0  501    0  0.00000000000E+00 -0.00000000000E+00 -0.70681355694E+03  0.70681355695E+03  0.25500000000E-02 0.  1.
    5000001    1    1    2    0    0 -0.81978863254E+01  0.22690707079E+03 -0.22774721038E+03  0.37818489651E+03  0.19900000000E+03 0.  0.
   -5000001    1    1    2    0    0  0.81978863254E+01 -0.22690707079E+03 -0.34741839146E+03  0.46027661557E+03  0.19900000000E+03 0.  0.
<mgrwt>
<rscale>  0 0.61008380E+03</rscale>
<asrwt>0</asrwt>
<pdfrwt beam="1">  1        2 0.10097336E+00 0.61008380E+03</pdfrwt>
<pdfrwt beam="2">  1       -2 0.18806851E-01 0.61008380E+03</pdfrwt>
<totfact> 0.10590053E+03</totfact>
</mgrwt>
</event>
<event>
 4    1  0.5056513E-005  0.7246168E+03  0.7818608E-02  0.9676036E-01
          2   -1    0    0  501    0  0.00000000000E+00  0.00000000000E+00  0.53554447023E+03  0.53554447023E+03  0.25500000000E-02 0.  1.
         -2   -1    0    0    0  501 -0.00000000000E+00 -0.00000000000E+00 -0.24511016489E+03  0.24511016490E+03  0.25500000000E-02 0. -1.
    5000001    1    1    2    0    0 -0.16688936405E+03 -0.22104829796E+03  0.13482533123E+02  0.34131684483E+03  0.19900000000E+03 0.  0.
   -5000001    1    1    2    0    0  0.16688936405E+03  0.22104829796E+03  0.27695177221E+03  0.43933779031E+03  0.19900000000E+03 0.  0.
<mgrwt>
<rscale>  0 0.72461685E+03</rscale>
<asrwt>0</asrwt>
<pdfrwt beam="1">  1        2 0.76506352E-01 0.72461685E+03</pdfrwt>
<pdfrwt beam="2">  1       -2 0.35015738E-01 0.72461685E+03</pdfrwt>
<totfact> 0.47718364E+02</totfact>
</mgrwt>
</event>
<event>
 4    1  0.5056513E-005  0.8890805E+03  0.7818608E-02  0.9439335E-01
          2   -1    0    0  501    0  0.00000000000E+00  0.00000000000E+00  0.40551911895E+04  0.40551911895E+04  0.25500000000E-02 0.  1.
         -2   -1    0    0    0  501 -0.00000000000E+00 -0.00000000000E+00 -0.48731617964E+02  0.48731618030E+02  0.25500000000E-02 0. -1.
    5000001    1    1    2    0    0 -0.31652254899E+03  0.23967664080E+03  0.19128223646E+04  0.19637010502E+04  0.19900000000E+03 0.  0.
   -5000001    1    1    2    0    0  0.31652254899E+03 -0.23967664080E+03  0.20936372070E+04  0.21402217574E+04  0.19900000000E+03 0.  0.
<mgrwt>
<rscale>  0 0.88908049E+03</rscale>
<asrwt>0</asrwt>
<pdfrwt beam="1">  1        2 0.57931289E+00 0.88908049E+03</pdfrwt>
<pdfrwt beam="2">  1       -2 0.69616614E-02 0.88908049E+03</pdfrwt>
<totfact> 0.68395307E+01</totfact>
</mgrwt>
</event>
<event>
 4    1  0.5056513E-005  0.4440617E+03  0.7818608E-02  0.1029508E+00
         -2   -1    0    0    0  501 -0.00000000000E+00  0.00000000000E+00  0.54282497090E+02  0.54282497150E+02  0.25500000000E-02 0. -1.
          2   -1    0    0  501    0  0.00000000000E+00 -0.00000000000E+00 -0.90816937503E+03  0.90816937504E+03  0.25500000000E-02 0.  1.
    5000001    1    1    2    0    0 -0.13248226940E+02  0.94037572565E+02 -0.37050314582E+03  0.43115213282E+03  0.19900000000E+03 0.  0.
   -5000001    1    1    2    0    0  0.13248226940E+02 -0.94037572565E+02 -0.48338373213E+03  0.53129973937E+03  0.19900000000E+03 0.  0.
<mgrwt>
<rscale>  0 0.44406171E+03</rscale>
<asrwt>0</asrwt>
<pdfrwt beam="1">  1        2 0.12973847E+00 0.44406171E+03</pdfrwt>
<pdfrwt beam="2">  1       -2 0.77546430E-02 0.44406171E+03</pdfrwt>
<totfact> 0.33085990E+03</totfact>
</mgrwt>
</event>
<event>
 4    1  0.5056513E-005  0.4810357E+03  0.7818608E-02  0.1018851E+00
          2   -1    0    0  501    0  0.00000000000E+00  0.00000000000E+00  0.14152166908E+04  0.14152166908E+04  0.25500000000E-02 0.  1.
         -2   -1    0    0    0  501 -0.00000000000E+00 -0.00000000000E+00 -0.40876315389E+02  0.40876315468E+02  0.25500000000E-02 0. -1.
    5000001    1    1    2    0    0  0.97087564745E+02 -0.64340649506E+02  0.48004472731E+03  0.53255014283E+03  0.19900000000E+03 0.  0.
   -5000001    1    1    2    0    0 -0.97087564745E+02  0.64340649506E+02  0.89429564812E+03  0.92354286346E+03  0.19900000000E+03 0.  0.
<mgrwt>
<rscale>  0 0.48103573E+03</rscale>
<asrwt>0</asrwt>
<pdfrwt beam="1">  1        2 0.20217388E+00 0.48103573E+03</pdfrwt>
<pdfrwt beam="2">  1       -2 0.58394718E-02 0.48103573E+03</pdfrwt>
<totfact> 0.26586700E+03</totfact>
</mgrwt>
</event>
<event>
 4    1  0.5056513E-005  0.5849764E+03  0.7818608E-02  0.9937075E-01
          2   -1    0    0  501    0  0.00000000000E+00  0.00000000000E+00  0.12411313667E+04  0.12411313667E+04  0.25500000000E-02 0.  1.
         -2   -1    0    0    0  501 -0.00000000000E+00 -0.00000000000E+00 -0.68928520543E+02  0.68928520590E+02  0.25500000000E-02 0. -1.
    5000001    1    1    2    0    0 -0.15354925230E+03 -0.74552527311E+02  0.87648635145E+03  0.91485779031E+03  0.19900000000E+03 0.  0.
   -5000001    1    1    2    0    0  0.15354925230E+03  0.74552527311E+02  0.29571649467E+03  0.39520209695E+03  0.19900000000E+03 0.  0.
<mgrwt>
<rscale>  0 0.58497641E+03</rscale>
<asrwt>0</asrwt>
<pdfrwt beam="1">  1        2 0.17730448E+00 0.58497641E+03</pdfrwt>
<pdfrwt beam="2">  1       -2 0.98469318E-02 0.58497641E+03</pdfrwt>
<totfact> 0.14380369E+03</totfact>
</mgrwt>
</event>
<event>
 4    1  0.5056513E-005  0.5640065E+03  0.7818608E-02  0.9983030E-01
          2   -1    0    0  501    0  0.00000000000E+00  0.00000000000E+00  0.21548773766E+04  0.21548773766E+04  0.25500000000E-02 0.  1.
         -2   -1    0    0    0  501 -0.00000000000E+00 -0.00000000000E+00 -0.36905033225E+02  0.36905033313E+02  0.25500000000E-02 0. -1.
    5000001    1    1    2    0    0 -0.11212660081E+03 -0.16434360297E+03  0.98694896035E+03  0.10262799057E+04  0.19900000000E+03 0.  0.
   -5000001    1    1    2    0    0  0.11212660081E+03  0.16434360297E+03  0.11310233830E+04  0.11655025042E+04  0.19900000000E+03 0.  0.
<mgrwt>
<rscale>  0 0.56400646E+03</rscale>
<asrwt>0</asrwt>
<pdfrwt beam="1">  1        2 0.30783971E+00 0.56400646E+03</pdfrwt>
<pdfrwt beam="2">  1       -2 0.52721461E-02 0.56400646E+03</pdfrwt>
<totfact> 0.13115141E+03</totfact>
</mgrwt>
</event>
<event>
 4    1  0.5056513E-005  0.8527106E+03  0.7818608E-02  0.9486706E-01
          2   -1    0    0  501    0  0.00000000000E+00  0.00000000000E+00  0.18991740444E+04  0.18991740444E+04  0.25500000000E-02 0.  1.
         -2   -1    0    0    0  501 -0.00000000000E+00 -0.00000000000E+00 -0.95714679457E+02  0.95714679491E+02  0.25500000000E-02 0. -1.
    5000001    1    1    2    0    0 -0.35775087318E+03  0.89575790972E+02  0.71799097456E+03  0.83133720544E+03  0.19900000000E+03 0.  0.
   -5000001    1    1    2    0    0  0.35775087318E+03 -0.89575790972E+02  0.10854683904E+04  0.11635515185E+04  0.19900000000E+03 0.  0.
<mgrwt>
<rscale>  0 0.85271058E+03</rscale>
<asrwt>0</asrwt>
<pdfrwt beam="1">  1        2 0.27131057E+00 0.85271058E+03</pdfrwt>
<pdfrwt beam="2">  1       -2 0.13673526E-01 0.85271058E+03</pdfrwt>
<totfact> 0.37438140E+02</totfact>
</mgrwt>
</event>
<event>
 4    1  0.5056513E-005  0.6898738E+03  0.7818608E-02  0.9734708E-01
         -2   -1    0    0    0  501 -0.00000000000E+00  0.00000000000E+00  0.28644930400E+02  0.28644930513E+02  0.25500000000E-02 0. -1.
          2   -1    0    0  501    0  0.00000000000E+00 -0.00000000000E+00 -0.41536653579E+04  0.41536653579E+04  0.25500000000E-02 0.  1.
    5000001    1    1    2    0    0  0.15381128518E+03  0.23270843111E+03 -0.18223485135E+04  0.18542832119E+04  0.19900000000E+03 0.  0.
   -5000001    1    1    2    0    0 -0.15381128518E+03 -0.23270843111E+03 -0.23026719140E+04  0.23280270765E+04  0.19900000000E+03 0.  0.
<mgrwt>
<rscale>  0 0.68987377E+03</rscale>
<asrwt>0</asrwt>
<pdfrwt beam="1">  1        2 0.59338038E+00 0.68987377E+03</pdfrwt>
<pdfrwt beam="2">  1       -2 0.40921356E-02 0.68987377E+03</pdfrwt>
<totfact> 0.13804961E+02</totfact>
</mgrwt>
</event>
<event>
 4    1  0.5056513E-005  0.6001197E+03  0.7818608E-02  0.9905158E-01
         -2   -1    0    0    0  501 -0.00000000000E+00  0.00000000000E+00  0.75017206354E+02  0.75017206398E+02  0.25500000000E-02 0. -1.
          2   -1    0    0  501    0  0.00000000000E+00 -0.00000000000E+00 -0.12002033474E+04  0.12002033474E+04  0.25500000000E-02 0.  1.
    5000001    1    1    2    0    0 -0.10203012389E+03 -0.19320472741E+03 -0.67294067421E+03  0.73497507705E+03  0.19900000000E+03 0.  0.
   -5000001    1    1    2    0    0  0.10203012389E+03  0.19320472741E+03 -0.45224546683E+03  0.54024547674E+03  0.19900000000E+03 0.  0.
<mgrwt>
<rscale>  0 0.60011966E+03</rscale>
<asrwt>0</asrwt>
<pdfrwt beam="1">  1        2 0.17145761E+00 0.60011966E+03</pdfrwt>
<pdfrwt beam="2">  1       -2 0.10716744E-01 0.60011966E+03</pdfrwt>
<totfact> 0.13203025E+03</totfact>
</mgrwt>
</event>
<event>
 4    1  0.5056513E-005  0.7258904E+03  0.7818608E-02  0.9673953E-01
         -2   -1    0    0    0  501 -0.00000000000E+00  0.00000000000E+00  0.75733971535E+02  0.75733971578E+02  0.25500000000E-02 0. -1.
          2   -1    0    0  501    0  0.00000000000E+00 -0.00000000000E+00 -0.17393674305E+04  0.17393674305E+04  0.25500000000E-02 0.  1.
    5000001    1    1    2    0    0  0.26938568298E+03 -0.13437561946E+03 -0.92875008865E+03  0.99639509255E+03  0.19900000000E+03 0.  0.
   -5000001    1    1    2    0    0 -0.26938568298E+03  0.13437561946E+03 -0.73488337035E+03  0.81870630956E+03  0.19900000000E+03 0.  0.
<mgrwt>
<rscale>  0 0.72589036E+03</rscale>
<asrwt>0</asrwt>
<pdfrwt beam="1">  1        2 0.24848104E+00 0.72589036E+03</pdfrwt>
<pdfrwt beam="2">  1       -2 0.10819140E-01 0.72589036E+03</pdfrwt>
<totfact> 0.67060579E+02</totfact>
</mgrwt>
</event>
<event>
 4    1  0.5056513E-005  0.4342022E+03  0.7818608E-02  0.1032541E+00
          2   -1    0    0  501    0  0.00000000000E+00  0.00000000000E+00  0.76055977597E+03  0.76055977597E+03  0.25500000000E-02 0.  1.
         -2   -1    0    0    0  501 -0.00000000000E+00 -0.00000000000E+00 -0.61971300976E+02  0.61971301028E+02  0.25500000000E-02 0. -1.
    5000001    1    1    2    0    0  0.13931031485E+02 -0.78682104212E+02  0.28513944495E+03  0.35677787240E+03  0.19900000000E+03 0.  0.
   -5000001    1    1    2    0    0 -0.13931031485E+02  0.78682104212E+02  0.41344903004E+03  0.46575320461E+03  0.19900000000E+03 0.  0.
<mgrwt>
<rscale>  0 0.43420216E+03</rscale>
<asrwt>0</asrwt>
<pdfrwt beam="1">  1        2 0.10865138E+00 0.43420216E+03</pdfrwt>
<pdfrwt beam="2">  1       -2 0.88530445E-02 0.43420216E+03</pdfrwt>
<totfact> 0.33655195E+03</totfact>
</mgrwt>
</event>
<event>
 4    1  0.5056513E-005  0.7421195E+03  0.7818608E-02  0.9647795E-01
          2   -1    0    0  501    0  0.00000000000E+00  0.00000000000E+00  0.62973021946E+03  0.62973021946E+03  0.25500000000E-02 0.  1.
         -2   -1    0    0    0  501 -0.00000000000E+00 -0.00000000000E+00 -0.21864177939E+03  0.21864177941E+03  0.25500000000E-02 0. -1.
    5000001    1    1    2    0    0  0.27204251905E+03 -0.12548369418E+03  0.10120147598E+03  0.37362551896E+03  0.19900000000E+03 0.  0.
   -5000001    1    1    2    0    0 -0.27204251905E+03  0.12548369418E+03  0.30988696409E+03  0.47474647991E+03  0.19900000000E+03 0.  0.
<mgrwt>
<rscale>  0 0.74211949E+03</rscale>
<asrwt>0</asrwt>
<pdfrwt beam="1">  1        2 0.89961460E-01 0.74211949E+03</pdfrwt>
<pdfrwt beam="2">  1       -2 0.31234540E-01 0.74211949E+03</pdfrwt>
<totfact> 0.48886487E+02</totfact>
</mgrwt>
</event>
<event>
 4    1  0.5056513E-005  0.7677240E+03  0.7818608E-02  0.9607947E-01
         -2   -1    0    0    0  501 -0.00000000000E+00  0.00000000000E+00  0.11177377217E+03  0.11177377220E+03  0.25500000000E-02 0. -1.
          2   -1    0    0  501    0  0.00000000000E+00 -0.00000000000E+00 -0.13182879485E+04  0.13182879485E+04  0.25500000000E-02 0.  1.
    5000001    1    1    2    0    0  0.26374078842E+03  0.19491206599E+03 -0.62954070936E+03  0.73720582044E+03  0.19900000000E+03 0.  0.
   -5000001    1    1    2    0    0 -0.26374078842E+03 -0.19491206599E+03 -0.57697346697E+03  0.69285590026E+03  0.19900000000E+03 0.  0.
<mgrwt>
<rscale>  0 0.76772395E+03</rscale>
<asrwt>0</asrwt>
<pdfrwt beam="1">  1        2 0.18832684E+00 0.76772395E+03</pdfrwt>
<pdfrwt beam="2">  1       -2 0.15967682E-01 0.76772395E+03</pdfrwt>
<totfact> 0.58130817E+02</totfact>
</mgrwt>
</event>
<event>
 4    1  0.5056513E-005  0.5143195E+03  0.7818608E-02  0.1010107E+00
         -2   -1    0    0    0  501 -0.00000000000E+00  0.00000000000E+00  0.11117994550E+03  0.11117994552E+03  0.25500000000E-02 0. -1.
          2   -1    0    0  501    0  0.00000000000E+00 -0.00000000000E+00 -0.59481177661E+03  0.59481177661E+03  0.25500000000E-02 0.  1.
    5000001    1    1    2    0    0 -0.14812155802E+03  0.57936336383E+02 -0.19360551495E+03  0.31996985865E+03  0.19900000000E+03 0.  0.
   -5000001    1    1    2    0    0  0.14812155802E+03 -0.57936336383E+02 -0.29002631616E+03  0.38602186349E+03  0.19900000000E+03 0.  0.
<mgrwt>
<rscale>  0 0.51431952E+03</rscale>
<asrwt>0</asrwt>
<pdfrwt beam="1">  1        2 0.84973109E-01 0.51431952E+03</pdfrwt>
<pdfrwt beam="2">  1       -2 0.15882850E-01 0.51431952E+03</pdfrwt>
<totfact> 0.17384117E+03</totfact>
</mgrwt>
</event>
<event>
 4    1  0.5056513E-005  0.4966419E+03  0.7818608E-02  0.1014659E+00
         -2   -1    0    0    0  501 -0.00000000000E+00  0.00000000000E+00  0.62669906957E+02  0.62669907009E+02  0.25500000000E-02 0. -1.
          2   -1    0    0  501    0  0.00000000000E+00 -0.00000000000E+00 -0.98393787639E+03  0.98393787639E+03  0.25500000000E-02 0.  1.
    5000001    1    1    2    0    0 -0.13374222717E+03 -0.24032131275E+02 -0.33423103480E+03  0.41203872547E+03  0.19900000000E+03 0.  0.
   -5000001    1    1    2    0    0  0.13374222717E+03  0.24032131275E+02 -0.58703693463E+03  0.63456905793E+03  0.19900000000E+03 0.  0.
<mgrwt>
<rscale>  0 0.49664190E+03</rscale>
<asrwt>0</asrwt>
<pdfrwt beam="1">  1        2 0.14056255E+00 0.49664190E+03</pdfrwt>
<pdfrwt beam="2">  1       -2 0.89528444E-02 0.49664190E+03</pdfrwt>
<totfact> 0.23633658E+03</totfact>
</mgrwt>
</event>
<event>
 4    1  0.5056513E-005  0.4823771E+03  0.7818608E-02  0.1018484E+00
          2   -1    0    0  501    0  0.00000000000E+00  0.00000000000E+00  0.16229188604E+04  0.16229188604E+04  0.25500000000E-02 0.  1.
         -2   -1    0    0    0  501 -0.00000000000E+00 -0.00000000000E+00 -0.35844012582E+02  0.35844012672E+02  0.25500000000E-02 0. -1.
    5000001    1    1    2    0    0 -0.86602120419E+02 -0.53126825865E+02  0.48122729768E+03  0.53056865618E+03  0.19900000000E+03 0.  0.
   -5000001    1    1    2    0    0  0.86602120419E+02  0.53126825865E+02  0.11058475501E+04  0.11281942169E+04  0.19900000000E+03 0.  0.
<mgrwt>
<rscale>  0 0.48237713E+03</rscale>
<asrwt>0</asrwt>
<pdfrwt beam="1">  1        2 0.23184559E+00 0.48237713E+03</pdfrwt>
<pdfrwt beam="2">  1       -2 0.51205724E-02 0.48237713E+03</pdfrwt>
<totfact> 0.25465991E+03</totfact>
</mgrwt>
</event>
<event>
 4    1  0.5056513E-005  0.5701932E+03  0.7818608E-02  0.9969251E-01
          2   -1    0    0  501    0  0.00000000000E+00  0.00000000000E+00  0.20313905050E+04  0.20313905050E+04  0.25500000000E-02 0.  1.
         -2   -1    0    0    0  501 -0.00000000000E+00 -0.00000000000E+00 -0.40012031810E+02  0.40012031891E+02  0.25500000000E-02 0. -1.
    5000001    1    1    2    0    0  0.16372855347E+03  0.98518968472E+02  0.12567978374E+04  0.12867225149E+04  0.19900000000E+03 0.  0.
   -5000001    1    1    2    0    0 -0.16372855347E+03 -0.98518968472E+02  0.73458063580E+03  0.78468002195E+03  0.19900000000E+03 0.  0.
<mgrwt>
<rscale>  0 0.57019317E+03</rscale>
<asrwt>0</asrwt>
<pdfrwt beam="1">  1        2 0.29019876E+00 0.57019317E+03</pdfrwt>
<pdfrwt beam="2">  1       -2 0.57160022E-02 0.57019317E+03</pdfrwt>
<totfact> 0.13332381E+03</totfact>
</mgrwt>
</event>
<event>
 4    1  0.5056513E-005  0.5669937E+03  0.7818608E-02  0.9976353E-01
         -2   -1    0    0    0  501 -0.00000000000E+00  0.00000000000E+00  0.25946638874E+04  0.25946638874E+04  0.25500000000E-02 0. -1.
          2   -1    0    0  501    0  0.00000000000E+00 -0.00000000000E+00 -0.30975288560E+02  0.30975288665E+02  0.25500000000E-02 0.  1.
    5000001    1    1    2    0    0  0.13292234094E+02  0.19860135561E+03  0.11247867724E+04  0.11594677509E+04  0.19900000000E+03 0.  0.
   -5000001    1    1    2    0    0 -0.13292234094E+02 -0.19860135561E+03  0.14389018264E+04  0.14661714252E+04  0.19900000000E+03 0.  0.
<mgrwt>
<rscale>  0 0.56699370E+03</rscale>
<asrwt>0</asrwt>
<pdfrwt beam="1">  1        2 0.44250392E-02 0.56699370E+03</pdfrwt>
<pdfrwt beam="2">  1       -2 0.37066644E+00 0.56699370E+03</pdfrwt>
<totfact> 0.24326901E+01</totfact>
</mgrwt>
</event>
<event>
 4    1  0.5056513E-005  0.7956642E+03  0.7818608E-02  0.9566314E-01
         -2   -1    0    0    0  501 -0.00000000000E+00  0.00000000000E+00  0.87008201471E+02  0.87008201509E+02  0.25500000000E-02 0. -1.
          2   -1    0    0  501    0  0.00000000000E+00 -0.00000000000E+00 -0.18190283465E+04  0.18190283465E+04  0.25500000000E-02 0.  1.
    5000001    1    1    2    0    0 -0.31221984509E+03 -0.81348026647E+02 -0.57684829303E+03  0.69025624682E+03  0.19900000000E+03 0.  0.
   -5000001    1    1    2    0    0  0.31221984509E+03  0.81348026647E+02 -0.11551718520E+04  0.12157803012E+04  0.19900000000E+03 0.  0.
<mgrwt>
<rscale>  0 0.79566421E+03</rscale>
<asrwt>0</asrwt>
<pdfrwt beam="1">  1        2 0.25986117E+00 0.79566421E+03</pdfrwt>
<pdfrwt beam="2">  1       -2 0.12429744E-01 0.79566421E+03</pdfrwt>
<totfact> 0.48391792E+02</totfact>
</mgrwt>
</event>
<event>
 4    1  0.5056513E-005  0.6754815E+03  0.7818608E-02  0.9760106E-01
          2   -1    0    0  501    0  0.00000000000E+00  0.00000000000E+00  0.93917895742E+03  0.93917895742E+03  0.25500000000E-02 0.  1.
         -2   -1    0    0    0  501 -0.00000000000E+00 -0.00000000000E+00 -0.12145587720E+03  0.12145587723E+03  0.25500000000E-02 0. -1.
    5000001    1    1    2    0    0 -0.23183150630E+03  0.46489154007E+02  0.19494232213E+03  0.36539102029E+03  0.19900000000E+03 0.  0.
   -5000001    1    1    2    0    0  0.23183150630E+03 -0.46489154007E+02  0.62278075809E+03  0.69524381436E+03  0.19900000000E+03 0.  0.
<mgrwt>
<rscale>  0 0.67548147E+03</rscale>
<asrwt>0</asrwt>
<pdfrwt beam="1">  1        2 0.13416842E+00 0.67548147E+03</pdfrwt>
<pdfrwt beam="2">  1       -2 0.17350840E-01 0.67548147E+03</pdfrwt>
<totfact> 0.84136844E+02</totfact>
</mgrwt>
</event>
<event>
 4    1  0.5056513E-005  0.6650688E+03  0.7818608E-02  0.9778907E-01
         -2   -1    0    0    0  501 -0.00000000000E+00  0.00000000000E+00  0.51100398931E+03  0.51100398932E+03  0.25500000000E-02 0. -1.
          2   -1    0    0  501    0  0.00000000000E+00 -0.00000000000E+00 -0.21639580975E+03  0.21639580976E+03  0.25500000000E-02 0.  1.
    5000001    1    1    2    0    0 -0.21067329287E+03  0.15292318214E+03  0.85343207160E+02  0.33860478286E+03  0.19900000000E+03 0.  0.
   -5000001    1    1    2    0    0  0.21067329287E+03 -0.15292318214E+03  0.20926497241E+03  0.38879501623E+03  0.19900000000E+03 0.  0.
<mgrwt>
<rscale>  0 0.66506878E+03</rscale>
<asrwt>0</asrwt>
<pdfrwt beam="1">  1        2 0.30913687E-01 0.66506878E+03</pdfrwt>
<pdfrwt beam="2">  1       -2 0.73000571E-01 0.66506878E+03</pdfrwt>
<totfact> 0.29443887E+02</totfact>
</mgrwt>
</event>
<event>
 4    1  0.5056513E-005  0.5293651E+03  0.7818608E-02  0.1006386E+00
         -2   -1    0    0    0  501 -0.00000000000E+00  0.00000000000E+00  0.38219888095E+03  0.38219888096E+03  0.25500000000E-02 0. -1.
          2   -1    0    0  501    0  0.00000000000E+00 -0.00000000000E+00 -0.18329946720E+03  0.18329946721E+03  0.25500000000E-02 0.  1.
    5000001    1    1    2    0    0  0.14821557522E+03 -0.80333882061E+02  0.51265932207E+02  0.26580177793E+03  0.19900000000E+03 0.  0.
   -5000001    1    1    2    0    0 -0.14821557522E+03  0.80333882061E+02  0.14763348155E+03  0.29969657025E+03  0.19900000000E+03 0.  0.
<mgrwt>
<rscale>  0 0.52936510E+03</rscale>
<asrwt>0</asrwt>
<pdfrwt beam="1">  1        2 0.26185639E-01 0.52936510E+03</pdfrwt>
<pdfrwt beam="2">  1       -2 0.54599839E-01 0.52936510E+03</pdfrwt>
<totfact> 0.66000444E+02</totfact>
</mgrwt>
</event>
<event>
 4    1  0.5056513E-005  0.6752689E+03  0.7818608E-02  0.9760486E-01
         -2   -1    0    0    0  501 -0.00000000000E+00  0.00000000000E+00  0.51173796451E+02  0.51173796514E+02  0.25500000000E-02 0. -1.
          2   -1    0    0  501    0  0.00000000000E+00 -0.00000000000E+00 -0.22276443928E+04  0.22276443928E+04  0.25500000000E-02 0.  1.
    5000001    1    1    2    0    0 -0.24895556184E+03 -0.40012344233E+02 -0.73726569136E+03  0.80420243666E+03  0.19900000000E+03 0.  0.
   -5000001    1    1    2    0    0  0.24895556184E+03  0.40012344233E+02 -0.14392049050E+04  0.14746157527E+04  0.19900000000E+03 0.  0.
<mgrwt>
<rscale>  0 0.67526890E+03</rscale>
<asrwt>0</asrwt>
<pdfrwt beam="1">  1        2 0.31823485E+00 0.67526890E+03</pdfrwt>
<pdfrwt beam="2">  1       -2 0.73105437E-02 0.67526890E+03</pdfrwt>
<totfact> 0.71636825E+02</totfact>
</mgrwt>
</event>
<event>
 4    1  0.5056513E-005  0.5336966E+03  0.7818608E-02  0.1005340E+00
          2   -1    0    0  501    0  0.00000000000E+00  0.00000000000E+00  0.98385609602E+03  0.98385609603E+03  0.25500000000E-02 0.  1.
         -2   -1    0    0    0  501 -0.00000000000E+00 -0.00000000000E+00 -0.72376440889E+02  0.72376440934E+02  0.25500000000E-02 0. -1.
    5000001    1    1    2    0    0  0.13855087804E+03 -0.11137890696E+03  0.45114259611E+03  0.52414907111E+03  0.19900000000E+03 0.  0.
   -5000001    1    1    2    0    0 -0.13855087804E+03  0.11137890696E+03  0.46033705903E+03  0.53208346585E+03  0.19900000000E+03 0.  0.
<mgrwt>
<rscale>  0 0.53369655E+03</rscale>
<asrwt>0</asrwt>
<pdfrwt beam="1">  1        2 0.14055087E+00 0.53369655E+03</pdfrwt>
<pdfrwt beam="2">  1       -2 0.10339492E-01 0.53369655E+03</pdfrwt>
<totfact> 0.18740309E+03</totfact>
</mgrwt>
</event>
<event>
 4    1  0.5056513E-005  0.6070296E+03  0.7818608E-02  0.9890928E-01
          2   -1    0    0  501    0  0.00000000000E+00  0.00000000000E+00  0.91944041370E+03  0.91944041371E+03  0.25500000000E-02 0.  1.
         -2   -1    0    0    0  501 -0.00000000000E+00 -0.00000000000E+00 -0.10019273283E+03  0.10019273287E+03  0.25500000000E-02 0. -1.
    5000001    1    1    2    0    0 -0.18875530287E+03  0.11174681740E+03  0.29814971413E+03  0.42025012504E+03  0.19900000000E+03 0.  0.
   -5000001    1    1    2    0    0  0.18875530287E+03 -0.11174681740E+03  0.52109796675E+03  0.59938302154E+03  0.19900000000E+03 0.  0.
<mgrwt>
<rscale>  0 0.60702965E+03</rscale>
<asrwt>0</asrwt>
<pdfrwt beam="1">  1        2 0.13134863E+00 0.60702965E+03</pdfrwt>
<pdfrwt beam="2">  1       -2 0.14313248E-01 0.60702965E+03</pdfrwt>
<totfact> 0.12020228E+03</totfact>
</mgrwt>
</event>
<event>
 4    1  0.5056513E-005  0.7568715E+03  0.7818608E-02  0.9624631E-01
          2   -1    0    0  501    0  0.00000000000E+00  0.00000000000E+00  0.62950073203E+03  0.62950073203E+03  0.25500000000E-02 0.  1.
         -2   -1    0    0    0  501 -0.00000000000E+00 -0.00000000000E+00 -0.22750348201E+03  0.22750348202E+03  0.25500000000E-02 0. -1.
    5000001    1    1    2    0    0  0.22860092272E+03  0.17828996920E+03  0.42610732428E+02  0.35420667626E+03  0.19900000000E+03 0.  0.
   -5000001    1    1    2    0    0 -0.22860092272E+03 -0.17828996920E+03  0.35938651759E+03  0.50279753780E+03  0.19900000000E+03 0.  0.
<mgrwt>
<rscale>  0 0.75687148E+03</rscale>
<asrwt>0</asrwt>
<pdfrwt beam="1">  1        2 0.89928676E-01 0.75687148E+03</pdfrwt>
<pdfrwt beam="2">  1       -2 0.32500497E-01 0.75687148E+03</pdfrwt>
<totfact> 0.45380304E+02</totfact>
</mgrwt>
</event>
<event>
 4    1  0.5056513E-005  0.6237619E+03  0.7818608E-02  0.9857298E-01
         -2   -1    0    0    0  501 -0.00000000000E+00  0.00000000000E+00  0.28499430907E+02  0.28499431021E+02  0.25500000000E-02 0. -1.
          2   -1    0    0  501    0  0.00000000000E+00 -0.00000000000E+00 -0.34130407903E+04  0.34130407903E+04  0.25500000000E-02 0.  1.
    5000001    1    1    2    0    0 -0.22379205125E+03 -0.84391583074E+01 -0.21705564907E+04  0.21911345420E+04  0.19900000000E+03 0.  0.
   -5000001    1    1    2    0    0  0.22379205125E+03  0.84391583074E+01 -0.12139848687E+04  0.12504056794E+04  0.19900000000E+03 0.  0.
<mgrwt>
<rscale>  0 0.62376188E+03</rscale>
<asrwt>0</asrwt>
<pdfrwt beam="1">  1        2 0.48757700E+00 0.62376188E+03</pdfrwt>
<pdfrwt beam="2">  1       -2 0.40713494E-02 0.62376188E+03</pdfrwt>
<totfact> 0.41517489E+02</totfact>
</mgrwt>
</event>
<event>
 4    1  0.5056513E-005  0.4893954E+03  0.7818608E-02  0.1016585E+00
          2   -1    0    0  501    0  0.00000000000E+00  0.00000000000E+00  0.27952804995E+03  0.27952804996E+03  0.25500000000E-02 0.  1.
         -2   -1    0    0    0  501 -0.00000000000E+00 -0.00000000000E+00 -0.21420732667E+03  0.21420732668E+03  0.25500000000E-02 0. -1.
    5000001    1    1    2    0    0 -0.78385204715E+02 -0.37247309362E+02 -0.81231660665E+02  0.23179988151E+03  0.19900000000E+03 0.  0.
   -5000001    1    1    2    0    0  0.78385204715E+02  0.37247309362E+02  0.14655238394E+03  0.26193549514E+03  0.19900000000E+03 0.  0.
<mgrwt>
<rscale>  0 0.48939537E+03</rscale>
<asrwt>0</asrwt>
<pdfrwt beam="1">  1        2 0.39932579E-01 0.48939537E+03</pdfrwt>
<pdfrwt beam="2">  1       -2 0.30601047E-01 0.48939537E+03</pdfrwt>
<totfact> 0.12724298E+03</totfact>
</mgrwt>
</event>
<event>
 4    1  0.5056513E-005  0.8091323E+03  0.7818608E-02  0.9546892E-01
          2   -1    0    0  501    0  0.00000000000E+00  0.00000000000E+00  0.40528648999E+04  0.40528648999E+04  0.25500000000E-02 0.  1.
         -2   -1    0    0    0  501 -0.00000000000E+00 -0.00000000000E+00 -0.40384706617E+02  0.40384706698E+02  0.25500000000E-02 0. -1.
    5000001    1    1    2    0    0 -0.31321598771E+03  0.70640936767E+02  0.27389541196E+04  0.27648806604E+04  0.19900000000E+03 0.  0.
   -5000001    1    1    2    0    0  0.31321598771E+03 -0.70640936767E+02  0.12735260736E+04  0.13283689461E+04  0.19900000000E+03 0.  0.
<mgrwt>
<rscale>  0 0.80913228E+03</rscale>
<asrwt>0</asrwt>
<pdfrwt beam="1">  1        2 0.57898085E+00 0.80913228E+03</pdfrwt>
<pdfrwt beam="2">  1       -2 0.57692423E-02 0.80913228E+03</pdfrwt>
<totfact> 0.93369301E+01</totfact>
</mgrwt>
</event>
<event>
 4    1  0.5056513E-005  0.5090900E+03  0.7818608E-02  0.1011433E+00
          2   -1    0    0  501    0  0.00000000000E+00  0.00000000000E+00  0.74127302345E+03  0.74127302346E+03  0.25500000000E-02 0.  1.
         -2   -1    0    0    0  501 -0.00000000000E+00 -0.00000000000E+00 -0.87407951349E+02  0.87407951387E+02  0.25500000000E-02 0. -1.
    5000001    1    1    2    0    0 -0.87773336912E+02  0.59886383402E+02  0.51885485911E+03  0.56577548764E+03  0.19900000000E+03 0.  0.
   -5000001    1    1    2    0    0  0.87773336912E+02 -0.59886383402E+02  0.13501021299E+03  0.26290548720E+03  0.19900000000E+03 0.  0.
<mgrwt>
<rscale>  0 0.50909000E+03</rscale>
<asrwt>0</asrwt>
<pdfrwt beam="1">  1        2 0.10589614E+00 0.50909000E+03</pdfrwt>
<pdfrwt beam="2">  1       -2 0.12486851E-01 0.50909000E+03</pdfrwt>
<totfact> 0.19930618E+03</totfact>
</mgrwt>
</event>
<event>
 4    1  0.5056513E-005  0.5527880E+03  0.7818608E-02  0.1000851E+00
          2   -1    0    0  501    0  0.00000000000E+00  0.00000000000E+00  0.60384802671E+02  0.60384802725E+02  0.25500000000E-02 0. -1.
         -2   -1    0    0    0  501 -0.00000000000E+00 -0.00000000000E+00 -0.12651136122E+04  0.12651136122E+04  0.25500000000E-02 0.  1.
    5000001    1    1    2    0    0 -0.10551313358E+03  0.64721555643E+02 -0.95371773980E+03  0.98208982702E+03  0.19900000000E+03 0.  0.
   -5000001    1    1    2    0    0  0.10551313358E+03 -0.64721555643E+02 -0.25101106972E+03  0.34340858790E+03  0.19900000000E+03 0.  0.
<mgrwt>
<rscale>  0 0.55278797E+03</rscale>
<asrwt>0</asrwt>
<pdfrwt beam="1">  1        2 0.86264011E-02 0.55278797E+03</pdfrwt>
<pdfrwt beam="2">  1       -2 0.18073050E+00 0.55278797E+03</pdfrwt>
<totfact> 0.14726615E+02</totfact>
</mgrwt>
</event>
<event>
 4    1  0.5056513E-005  0.6623066E+03  0.7818608E-02  0.9783957E-01
          2   -1    0    0  501    0  0.00000000000E+00  0.00000000000E+00  0.51020051517E+04  0.51020051517E+04  0.25500000000E-02 0. -1.
         -2   -1    0    0    0  501 -0.00000000000E+00 -0.00000000000E+00 -0.21494002341E+02  0.21494002492E+02  0.25500000000E-02 0.  1.
    5000001    1    1    2    0    0  0.25465393657E+03  0.63477502945E+02  0.22741279694E+04  0.22978548784E+04  0.19900000000E+03 0.  0.
   -5000001    1    1    2    0    0 -0.25465393657E+03 -0.63477502945E+02  0.28063831800E+04  0.28256442758E+04  0.19900000000E+03 0.  0.
<mgrwt>
<rscale>  0 0.66230661E+03</rscale>
<asrwt>0</asrwt>
<pdfrwt beam="1">  1        2 0.72885903E+00 0.66230661E+03</pdfrwt>
<pdfrwt beam="2">  1       -2 0.30705669E-02 0.66230661E+03</pdfrwt>
<totfact> 0.35782674E+01</totfact>
</mgrwt>
</event>
<event>
 4    1  0.5056513E-005  0.5224927E+03  0.7818608E-02  0.1008069E+00
         -2   -1    0    0    0  501 -0.00000000000E+00  0.00000000000E+00  0.40170899271E+02  0.40170899352E+02  0.25500000000E-02 0. -1.
          2   -1    0    0  501    0  0.00000000000E+00 -0.00000000000E+00 -0.16989822335E+04  0.16989822335E+04  0.25500000000E-02 0.  1.
    5000001    1    1    2    0    0  0.15786837736E+03 -0.35932381426E+01 -0.10322384441E+04  0.10630392944E+04  0.19900000000E+03 0.  0.
   -5000001    1    1    2    0    0 -0.15786837736E+03  0.35932381426E+01 -0.62657289021E+03  0.67611383855E+03  0.19900000000E+03 0.  0.
<mgrwt>
<rscale>  0 0.52249266E+03</rscale>
<asrwt>0</asrwt>
<pdfrwt beam="1">  1        2 0.24271170E+00 0.52249266E+03</pdfrwt>
<pdfrwt beam="2">  1       -2 0.57387010E-02 0.52249266E+03</pdfrwt>
<totfact> 0.19504560E+03</totfact>
</mgrwt>
</event>
<event>
 4    1  0.5056513E-005  0.6696641E+03  0.7818608E-02  0.9770565E-01
         -2   -1    0    0    0  501 -0.00000000000E+00  0.00000000000E+00  0.16061212140E+03  0.16061212142E+03  0.25500000000E-02 0. -1.
          2   -1    0    0  501    0  0.00000000000E+00 -0.00000000000E+00 -0.69803271468E+03  0.69803271469E+03  0.25500000000E-02 0.  1.
    5000001    1    1    2    0    0  0.71027297080E+02 -0.24286951011E+03 -0.38679157754E+03  0.50322877533E+03  0.19900000000E+03 0.  0.
   -5000001    1    1    2    0    0 -0.71027297080E+02  0.24286951011E+03 -0.15062901574E+03  0.35541606077E+03  0.19900000000E+03 0.  0.
<mgrwt>
<rscale>  0 0.66966414E+03</rscale>
<asrwt>0</asrwt>
<pdfrwt beam="1">  1        2 0.99718957E-01 0.66966414E+03</pdfrwt>
<pdfrwt beam="2">  1       -2 0.22944589E-01 0.66966414E+03</pdfrwt>
<totfact> 0.75800261E+02</totfact>
</mgrwt>
</event>
<event>
 4    1  0.5056513E-005  0.4948101E+03  0.7818608E-02  0.1015143E+00
          2   -1    0    0  501    0  0.00000000000E+00  0.00000000000E+00  0.48715529718E+03  0.48715529719E+03  0.25500000000E-02 0.  1.
         -2   -1    0    0    0  501 -0.00000000000E+00 -0.00000000000E+00 -0.12564629227E+03  0.12564629230E+03  0.25500000000E-02 0. -1.
    5000001    1    1    2    0    0 -0.12482940364E+03  0.74153662835E+02  0.15232086442E+03  0.28962698676E+03  0.19900000000E+03 0.  0.
   -5000001    1    1    2    0    0  0.12482940364E+03 -0.74153662835E+02  0.20918814049E+03  0.32317460273E+03  0.19900000000E+03 0.  0.
<mgrwt>
<rscale>  0 0.49481009E+03</rscale>
<asrwt>0</asrwt>
<pdfrwt beam="1">  1        2 0.69593614E-01 0.49481009E+03</pdfrwt>
<pdfrwt beam="2">  1       -2 0.17949470E-01 0.49481009E+03</pdfrwt>
<totfact> 0.17750504E+03</totfact>
</mgrwt>
</event>
<event>
 4    1  0.5056513E-005  0.5816009E+03  0.7818608E-02  0.9944331E-01
          2   -1    0    0  501    0  0.00000000000E+00  0.00000000000E+00  0.87432295577E+03  0.87432295577E+03  0.25500000000E-02 0.  1.
         -2   -1    0    0    0  501 -0.00000000000E+00 -0.00000000000E+00 -0.96720429987E+02  0.96720430020E+02  0.25500000000E-02 0. -1.
    5000001    1    1    2    0    0 -0.19042924850E+03  0.91796638023E+02  0.36116586400E+03  0.46339152210E+03  0.19900000000E+03 0.  0.
   -5000001    1    1    2    0    0  0.19042924850E+03 -0.91796638023E+02  0.41643666178E+03  0.50765186369E+03  0.19900000000E+03 0.  0.
<mgrwt>
<rscale>  0 0.58160087E+03</rscale>
<asrwt>0</asrwt>
<pdfrwt beam="1">  1        2 0.12490329E+00 0.58160087E+03</pdfrwt>
<pdfrwt beam="2">  1       -2 0.13817204E-01 0.58160087E+03</pdfrwt>
<totfact> 0.13642448E+03</totfact>
</mgrwt>
</event>
<event>
 4    1  0.5056513E-005  0.8259086E+03  0.7818608E-02  0.9523254E-01
         -2   -1    0    0    0  501 -0.00000000000E+00  0.00000000000E+00  0.15665820101E+03  0.15665820103E+03  0.25500000000E-02 0. -1.
          2   -1    0    0  501    0  0.00000000000E+00 -0.00000000000E+00 -0.10885563012E+04  0.10885563012E+04  0.25500000000E-02 0.  1.
    5000001    1    1    2    0    0  0.16801408647E+03  0.31413468662E+03 -0.56155299396E+03  0.69415567391E+03  0.19900000000E+03 0.  0.
   -5000001    1    1    2    0    0 -0.16801408647E+03 -0.31413468662E+03 -0.37034510626E+03  0.55105882837E+03  0.19900000000E+03 0.  0.
<mgrwt>
<rscale>  0 0.82590864E+03</rscale>
<asrwt>0</asrwt>
<pdfrwt beam="1">  1        2 0.15550804E+00 0.82590864E+03</pdfrwt>
<pdfrwt beam="2">  1       -2 0.22379744E-01 0.82590864E+03</pdfrwt>
<totfact> 0.43498115E+02</totfact>
</mgrwt>
</event>
<event>
 4    1  0.5056513E-005  0.5102356E+03  0.7818608E-02  0.1011141E+00
         -2   -1    0    0    0  501 -0.00000000000E+00  0.00000000000E+00  0.77103549868E+02  0.77103549910E+02  0.25500000000E-02 0. -1.
          2   -1    0    0  501    0  0.00000000000E+00 -0.00000000000E+00 -0.84412591064E+03  0.84412591065E+03  0.25500000000E-02 0.  1.
    5000001    1    1    2    0    0  0.11874136054E+03  0.97701235367E+02 -0.30608368241E+03  0.39614803134E+03  0.19900000000E+03 0.  0.
   -5000001    1    1    2    0    0 -0.11874136054E+03 -0.97701235367E+02 -0.46093867837E+03  0.52508142922E+03  0.19900000000E+03 0.  0.
<mgrwt>
<rscale>  0 0.51023565E+03</rscale>
<asrwt>0</asrwt>
<pdfrwt beam="1">  1        2 0.12058941E+00 0.51023565E+03</pdfrwt>
<pdfrwt beam="2">  1       -2 0.11014793E-01 0.51023565E+03</pdfrwt>
<totfact> 0.20762210E+03</totfact>
</mgrwt>
</event>
<event>
 4    1  0.5056513E-005  0.7019585E+03  0.7818608E-02  0.9713889E-01
         -2   -1    0    0    0  501 -0.00000000000E+00  0.00000000000E+00  0.15852115022E+04  0.15852115022E+04  0.25500000000E-02 0. -1.
          2   -1    0    0  501    0  0.00000000000E+00 -0.00000000000E+00 -0.77709779130E+02  0.77709779172E+02  0.25500000000E-02 0.  1.
    5000001    1    1    2    0    0  0.14915417836E+03 -0.23760005455E+03  0.91931960374E+03  0.98155503598E+03  0.19900000000E+03 0.  0.
   -5000001    1    1    2    0    0 -0.14915417836E+03  0.23760005455E+03  0.58818211929E+03  0.68136624534E+03  0.19900000000E+03 0.  0.
<mgrwt>
<rscale>  0 0.70195851E+03</rscale>
<asrwt>0</asrwt>
<pdfrwt beam="1">  1        2 0.11101397E-01 0.70195851E+03</pdfrwt>
<pdfrwt beam="2">  1       -2 0.22645878E+00 0.70195851E+03</pdfrwt>
<totfact> 0.53760981E+01</totfact>
</mgrwt>
</event>
<event>
 4    1  0.5056513E-005  0.6604560E+03  0.7818608E-02  0.9787355E-01
          2   -1    0    0  501    0  0.00000000000E+00  0.00000000000E+00  0.23336421772E+04  0.23336421772E+04  0.25500000000E-02 0.  1.
         -2   -1    0    0    0  501 -0.00000000000E+00 -0.00000000000E+00 -0.46729754822E+02  0.46729754891E+02  0.25500000000E-02 0. -1.
    5000001    1    1    2    0    0  0.55353244531E+02 -0.13618994723E+03  0.35516490372E+03  0.43284499794E+03  0.19900000000E+03 0.  0.
   -5000001    1    1    2    0    0 -0.55353244531E+02  0.13618994723E+03  0.19317475186E+04  0.19475269341E+04  0.19900000000E+03 0.  0.
<mgrwt>
<rscale>  0 0.66045598E+03</rscale>
<asrwt>0</asrwt>
<pdfrwt beam="1">  1        2 0.33337744E+00 0.66045598E+03</pdfrwt>
<pdfrwt beam="2">  1       -2 0.66756796E-02 0.66045598E+03</pdfrwt>
<totfact> 0.73161610E+02</totfact>
</mgrwt>
</event>
<event>
 4    1  0.5056513E-005  0.6163584E+03  0.7818608E-02  0.9872037E-01
         -2   -1    0    0    0  501 -0.00000000000E+00  0.00000000000E+00  0.19906655870E+04  0.19906655870E+04  0.25500000000E-02 0.  1.
          2   -1    0    0  501    0  0.00000000000E+00 -0.00000000000E+00 -0.47709883029E+02  0.47709883097E+02  0.25500000000E-02 0. -1.
    5000001    1    1    2    0    0  0.17137146222E+03 -0.15862836525E+03  0.87549787039E+03  0.92770073697E+03  0.19900000000E+03 0.  0.
   -5000001    1    1    2    0    0 -0.17137146222E+03  0.15862836525E+03  0.10674578336E+04  0.11106747332E+04  0.19900000000E+03 0.  0.
<mgrwt>
<rscale>  0 0.61635841E+03</rscale>
<asrwt>0</asrwt>
<pdfrwt beam="1">  1        2 0.68156964E-02 0.61635841E+03</pdfrwt>
<pdfrwt beam="2">  1       -2 0.28438085E+00 0.61635841E+03</pdfrwt>
<totfact> 0.45432916E+01</totfact>
</mgrwt>
</event>
<event>
 4    1  0.5056513E-005  0.5217386E+03  0.7818608E-02  0.1008256E+00
         -2   -1    0    0    0  501 -0.00000000000E+00  0.00000000000E+00  0.20440226024E+03  0.20440226025E+03  0.25500000000E-02 0. -1.
          2   -1    0    0  501    0  0.00000000000E+00 -0.00000000000E+00 -0.33293557001E+03  0.33293557001E+03  0.25500000000E-02 0.  1.
    5000001    1    1    2    0    0 -0.15110729608E+03 -0.44914363333E+02 -0.24635716621E+01  0.25388537600E+03  0.19900000000E+03 0.  0.
   -5000001    1    1    2    0    0  0.15110729608E+03  0.44914363333E+02 -0.12606973810E+03  0.28345245427E+03  0.19900000000E+03 0.  0.
<mgrwt>
<rscale>  0 0.52173857E+03</rscale>
<asrwt>0</asrwt>
<pdfrwt beam="1">  1        2 0.47562224E-01 0.52173857E+03</pdfrwt>
<pdfrwt beam="2">  1       -2 0.29200323E-01 0.52173857E+03</pdfrwt>
<totfact> 0.11447604E+03</totfact>
</mgrwt>
</event>
<event>
 4    1  0.5056513E-005  0.5311712E+03  0.7818608E-02  0.1005948E+00
          2   -1    0    0  501    0  0.00000000000E+00  0.00000000000E+00  0.22092804375E+04  0.22092804375E+04  0.25500000000E-02 0.  1.
         -2   -1    0    0    0  501 -0.00000000000E+00 -0.00000000000E+00 -0.31927011759E+02  0.31927011861E+02  0.25500000000E-02 0. -1.
    5000001    1    1    2    0    0  0.70594323830E+02  0.10083014084E+03  0.55857136685E+03  0.60560155856E+03  0.19900000000E+03 0.  0.
   -5000001    1    1    2    0    0 -0.70594323830E+02 -0.10083014084E+03  0.16187820589E+04  0.16356058908E+04  0.19900000000E+03 0.  0.
<mgrwt>
<rscale>  0 0.53117124E+03</rscale>
<asrwt>0</asrwt>
<pdfrwt beam="1">  1        2 0.31561160E+00 0.53117124E+03</pdfrwt>
<pdfrwt beam="2">  1       -2 0.45610002E-02 0.53117124E+03</pdfrwt>
<totfact> 0.15438772E+03</totfact>
</mgrwt>
</event>
<event>
 4    1  0.5056513E-005  0.5452483E+03  0.7818608E-02  0.1002600E+00
         -2   -1    0    0    0  501 -0.00000000000E+00  0.00000000000E+00  0.28654202917E+02  0.28654203030E+02  0.25500000000E-02 0. -1.
          2   -1    0    0  501    0  0.00000000000E+00 -0.00000000000E+00 -0.25938231915E+04  0.25938231915E+04  0.25500000000E-02 0.  1.
    5000001    1    1    2    0    0 -0.95432726707E+02 -0.15612135351E+03 -0.11131047975E+04  0.11454626020E+04  0.19900000000E+03 0.  0.
   -5000001    1    1    2    0    0  0.95432726707E+02  0.15612135351E+03 -0.14520641911E+04  0.14770147925E+04  0.19900000000E+03 0.  0.
<mgrwt>
<rscale>  0 0.54524833E+03</rscale>
<asrwt>0</asrwt>
<pdfrwt beam="1">  1        2 0.37054602E+00 0.54524833E+03</pdfrwt>
<pdfrwt beam="2">  1       -2 0.40934592E-02 0.54524833E+03</pdfrwt>
<totfact> 0.11617616E+03</totfact>
</mgrwt>
</event>
<event>
 4    1  0.5056513E-005  0.9055026E+03  0.7818608E-02  0.9418729E-01
         -2   -1    0    0    0  501 -0.00000000000E+00  0.00000000000E+00  0.20071640873E+03  0.20071640875E+03  0.25500000000E-02 0. -1.
          2   -1    0    0  501    0  0.00000000000E+00 -0.00000000000E+00 -0.10212604581E+04  0.10212604581E+04  0.25500000000E-02 0.  1.
    5000001    1    1    2    0    0 -0.34361435147E+03  0.18611950362E+03 -0.56218199059E+03  0.71299430763E+03  0.19900000000E+03 0.  0.
   -5000001    1    1    2    0    0  0.34361435147E+03 -0.18611950362E+03 -0.25836205875E+03  0.50898255920E+03  0.19900000000E+03 0.  0.
<mgrwt>
<rscale>  0 0.90550258E+03</rscale>
<asrwt>0</asrwt>
<pdfrwt beam="1">  1        2 0.14589435E+00 0.90550258E+03</pdfrwt>
<pdfrwt beam="2">  1       -2 0.28673773E-01 0.90550258E+03</pdfrwt>
<totfact> 0.30371463E+02</totfact>
</mgrwt>
</event>
<event>
 4    1  0.5056513E-005  0.6156386E+03  0.7818608E-02  0.9873482E-01
         -2   -1    0    0    0  501 -0.00000000000E+00  0.00000000000E+00  0.55012662342E+02  0.55012662401E+02  0.25500000000E-02 0. -1.
          2   -1    0    0  501    0  0.00000000000E+00 -0.00000000000E+00 -0.17223802450E+04  0.17223802450E+04  0.25500000000E-02 0.  1.
    5000001    1    1    2    0    0  0.22039623180E+03 -0.80205387207E+02 -0.86836709889E+03  0.92123277274E+03  0.19900000000E+03 0.  0.
   -5000001    1    1    2    0    0 -0.22039623180E+03  0.80205387207E+02 -0.79900048374E+03  0.85616013464E+03  0.19900000000E+03 0.  0.
<mgrwt>
<rscale>  0 0.61563860E+03</rscale>
<asrwt>0</asrwt>
<pdfrwt beam="1">  1        2 0.24605429E+00 0.61563860E+03</pdfrwt>
<pdfrwt beam="2">  1       -2 0.78589529E-02 0.61563860E+03</pdfrwt>
<totfact> 0.11525425E+03</totfact>
</mgrwt>
</event>
<event>
 4    1  0.5056513E-005  0.4820192E+03  0.7818608E-02  0.1018582E+00
         -2   -1    0    0    0  501 -0.00000000000E+00  0.00000000000E+00  0.76361949009E+02  0.76361949052E+02  0.25500000000E-02 0. -1.
          2   -1    0    0  501    0  0.00000000000E+00 -0.00000000000E+00 -0.76066188406E+03  0.76066188407E+03  0.25500000000E-02 0.  1.
    5000001    1    1    2    0    0 -0.72069433729E+02 -0.75098745670E+02 -0.49403916906E+03  0.54268731830E+03  0.19900000000E+03 0.  0.
   -5000001    1    1    2    0    0  0.72069433729E+02  0.75098745670E+02 -0.19026076600E+03  0.29433651482E+03  0.19900000000E+03 0.  0.
<mgrwt>
<rscale>  0 0.48201919E+03</rscale>
<asrwt>0</asrwt>
<pdfrwt beam="1">  1        2 0.10866598E+00 0.48201919E+03</pdfrwt>
<pdfrwt beam="2">  1       -2 0.10908850E-01 0.48201919E+03</pdfrwt>
<totfact> 0.24069258E+03</totfact>
</mgrwt>
</event>
<event>
 4    1  0.5056513E-005  0.5266946E+03  0.7818608E-02  0.1007037E+00
         -2   -1    0    0    0  501 -0.00000000000E+00  0.00000000000E+00  0.25959819683E+02  0.25959819808E+02  0.25500000000E-02 0. -1.
          2   -1    0    0  501    0  0.00000000000E+00 -0.00000000000E+00 -0.26715054576E+04  0.26715054576E+04  0.25500000000E-02 0.  1.
    5000001    1    1    2    0    0 -0.36916788279E+02 -0.16498507715E+03 -0.11477497820E+04  0.11770783691E+04  0.19900000000E+03 0.  0.
   -5000001    1    1    2    0    0  0.36916788279E+02  0.16498507715E+03 -0.14977958559E+04  0.15203869083E+04  0.19900000000E+03 0.  0.
<mgrwt>
<rscale>  0 0.52669460E+03</rscale>
<asrwt>0</asrwt>
<pdfrwt beam="1">  1        2 0.38164346E+00 0.52669460E+03</pdfrwt>
<pdfrwt beam="2">  1       -2 0.37085474E-02 0.52669460E+03</pdfrwt>
<totfact> 0.12335319E+03</totfact>
</mgrwt>
</event>
<event>
 4    1  0.5056513E-005  0.4219381E+03  0.7818608E-02  0.1036437E+00
          2   -1    0    0  501    0  0.00000000000E+00  0.00000000000E+00  0.27989286298E+04  0.27989286298E+04  0.25500000000E-02 0.  1.
         -2   -1    0    0    0  501 -0.00000000000E+00 -0.00000000000E+00 -0.15901777774E+02  0.15901777978E+02  0.25500000000E-02 0. -1.
    5000001    1    1    2    0    0 -0.37331631762E+02  0.14978159860E+02  0.17741018400E+04  0.17856809162E+04  0.19900000000E+03 0.  0.
   -5000001    1    1    2    0    0  0.37331631762E+02 -0.14978159860E+02  0.10089250120E+04  0.10291494915E+04  0.19900000000E+03 0.  0.
<mgrwt>
<rscale>  0 0.42193811E+03</rscale>
<asrwt>0</asrwt>
<pdfrwt beam="1">  1        2 0.39984678E+00 0.42193811E+03</pdfrwt>
<pdfrwt beam="2">  1       -2 0.22716835E-02 0.42193811E+03</pdfrwt>
<totfact> 0.22364748E+03</totfact>
</mgrwt>
</event>
<event>
 4    1  0.5056513E-005  0.7515851E+03  0.7818608E-02  0.9632867E-01
         -2   -1    0    0    0  501 -0.00000000000E+00  0.00000000000E+00  0.13534575316E+03  0.13534575318E+03  0.25500000000E-02 0. -1.
          2   -1    0    0  501    0  0.00000000000E+00 -0.00000000000E+00 -0.10434021237E+04  0.10434021237E+04  0.25500000000E-02 0.  1.
    5000001    1    1    2    0    0 -0.12963548770E+03 -0.29050435929E+03 -0.48620434499E+03  0.61416105992E+03  0.19900000000E+03 0.  0.
   -5000001    1    1    2    0    0  0.12963548770E+03  0.29050435929E+03 -0.42185202557E+03  0.56458681698E+03  0.19900000000E+03 0.  0.
<mgrwt>
<rscale>  0 0.75158512E+03</rscale>
<asrwt>0</asrwt>
<pdfrwt beam="1">  1        2 0.14905744E+00 0.75158512E+03</pdfrwt>
<pdfrwt beam="2">  1       -2 0.19335108E-01 0.75158512E+03</pdfrwt>
<totfact> 0.60036468E+02</totfact>
</mgrwt>
</event>
<event>
 4    1  0.5056513E-005  0.5255860E+03  0.7818608E-02  0.1007308E+00
         -2   -1    0    0    0  501 -0.00000000000E+00  0.00000000000E+00  0.66733293660E+03  0.66733293660E+03  0.25500000000E-02 0. -1.
          2   -1    0    0  501    0  0.00000000000E+00 -0.00000000000E+00 -0.10348680299E+03  0.10348680302E+03  0.25500000000E-02 0.  1.
    5000001    1    1    2    0    0  0.93624458340E+02  0.13792173239E+03  0.22196820464E+03  0.34155354973E+03  0.19900000000E+03 0.  0.
   -5000001    1    1    2    0    0 -0.93624458340E+02 -0.13792173239E+03  0.34187792897E+03  0.42926618989E+03  0.19900000000E+03 0.  0.
<mgrwt>
<rscale>  0 0.52558597E+03</rscale>
<asrwt>0</asrwt>
<pdfrwt beam="1">  1        2 0.14783829E-01 0.52558597E+03</pdfrwt>
<pdfrwt beam="2">  1       -2 0.95333276E-01 0.52558597E+03</pdfrwt>
<totfact> 0.38133184E+02</totfact>
</mgrwt>
</event>
<event>
 4    1  0.5056513E-005  0.4255639E+03  0.7818608E-02  0.1035271E+00
          2   -1    0    0  501    0  0.00000000000E+00  0.00000000000E+00  0.67756519252E+03  0.67756519253E+03  0.25500000000E-02 0.  1.
         -2   -1    0    0    0  501 -0.00000000000E+00 -0.00000000000E+00 -0.66821854329E+02  0.66821854377E+02  0.25500000000E-02 0. -1.
    5000001    1    1    2    0    0  0.53294605209E+02 -0.51052604771E+02  0.33181141972E+03  0.39388640705E+03  0.19900000000E+03 0.  0.
   -5000001    1    1    2    0    0 -0.53294605209E+02  0.51052604771E+02  0.27893191847E+03  0.35050063986E+03  0.19900000000E+03 0.  0.
<mgrwt>
<rscale>  0 0.42556392E+03</rscale>
<asrwt>0</asrwt>
<pdfrwt beam="1">  1        2 0.96795025E-01 0.42556392E+03</pdfrwt>
<pdfrwt beam="2">  1       -2 0.95459794E-02 0.42556392E+03</pdfrwt>
<totfact> 0.34339902E+03</totfact>
</mgrwt>
</event>
<event>
 4    1  0.5056513E-005  0.6007781E+03  0.7818608E-02  0.9903793E-01
         -2   -1    0    0    0  501 -0.00000000000E+00  0.00000000000E+00  0.56856308161E+02  0.56856308218E+02  0.25500000000E-02 0. -1.
          2   -1    0    0  501    0  0.00000000000E+00 -0.00000000000E+00 -0.15870460089E+04  0.15870460089E+04  0.25500000000E-02 0.  1.
    5000001    1    1    2    0    0 -0.20205644382E+03 -0.83033594046E+02 -0.61745710411E+03  0.68452586484E+03  0.19900000000E+03 0.  0.
   -5000001    1    1    2    0    0  0.20205644382E+03  0.83033594046E+02 -0.91273259665E+03  0.95937645229E+03  0.19900000000E+03 0.  0.
<mgrwt>
<rscale>  0 0.60077809E+03</rscale>
<asrwt>0</asrwt>
<pdfrwt beam="1">  1        2 0.22672083E+00 0.60077809E+03</pdfrwt>
<pdfrwt beam="2">  1       -2 0.81223308E-02 0.60077809E+03</pdfrwt>
<totfact> 0.12831850E+03</totfact>
</mgrwt>
</event>
<event>
 4    1  0.5056513E-005  0.5847201E+03  0.7818608E-02  0.9937624E-01
         -2   -1    0    0    0  501 -0.00000000000E+00  0.00000000000E+00  0.25987771667E+03  0.25987771669E+03  0.25500000000E-02 0. -1.
          2   -1    0    0  501    0  0.00000000000E+00 -0.00000000000E+00 -0.32890233670E+03  0.32890233671E+03  0.25500000000E-02 0.  1.
    5000001    1    1    2    0    0  0.11650330205E+03  0.16215720229E+03  0.43520356291E+02  0.28524200086E+03  0.19900000000E+03 0.  0.
   -5000001    1    1    2    0    0 -0.11650330205E+03 -0.16215720229E+03 -0.11254497631E+03  0.30353805253E+03  0.19900000000E+03 0.  0.
<mgrwt>
<rscale>  0 0.58472006E+03</rscale>
<asrwt>0</asrwt>
<pdfrwt beam="1">  1        2 0.46986048E-01 0.58472006E+03</pdfrwt>
<pdfrwt beam="2">  1       -2 0.37125388E-01 0.58472006E+03</pdfrwt>
<totfact> 0.73970069E+02</totfact>
</mgrwt>
</event>
<event>
 4    1  0.5056513E-005  0.4736407E+03  0.7818608E-02  0.1020898E+00
         -2   -1    0    0    0  501 -0.00000000000E+00  0.00000000000E+00  0.14966963472E+03  0.14966963474E+03  0.25500000000E-02 0. -1.
          2   -1    0    0  501    0  0.00000000000E+00 -0.00000000000E+00 -0.37471785613E+03  0.37471785613E+03  0.25500000000E-02 0.  1.
    5000001    1    1    2    0    0 -0.26333225661E+02  0.72011435073E+02 -0.22653177002E+03  0.31112172599E+03  0.19900000000E+03 0.  0.
   -5000001    1    1    2    0    0  0.26333225661E+02 -0.72011435073E+02  0.14835486057E+01  0.21326576488E+03  0.19900000000E+03 0.  0.
<mgrwt>
<rscale>  0 0.47364073E+03</rscale>
<asrwt>0</asrwt>
<pdfrwt beam="1">  1        2 0.53531122E-01 0.47364073E+03</pdfrwt>
<pdfrwt beam="2">  1       -2 0.21381377E-01 0.47364073E+03</pdfrwt>
<totfact> 0.17550571E+03</totfact>
</mgrwt>
</event>
<event>
 4    1  0.5056513E-005  0.5547586E+03  0.7818608E-02  0.1000398E+00
         -2   -1    0    0    0  501 -0.00000000000E+00  0.00000000000E+00  0.12203853479E+03  0.12203853481E+03  0.25500000000E-02 0. -1.
          2   -1    0    0  501    0  0.00000000000E+00 -0.00000000000E+00 -0.63045076613E+03  0.63045076614E+03  0.25500000000E-02 0.  1.
    5000001    1    1    2    0    0 -0.15320912352E+03  0.11231639383E+03 -0.30216840227E+03  0.40864991274E+03  0.19900000000E+03 0.  0.
   -5000001    1    1    2    0    0  0.15320912352E+03 -0.11231639383E+03 -0.20624382908E+03  0.34383938821E+03  0.19900000000E+03 0.  0.
<mgrwt>
<rscale>  0 0.55475864E+03</rscale>
<asrwt>0</asrwt>
<pdfrwt beam="1">  1        2 0.90064393E-01 0.55475864E+03</pdfrwt>
<pdfrwt beam="2">  1       -2 0.17434077E-01 0.55475864E+03</pdfrwt>
<totfact> 0.13856055E+03</totfact>
</mgrwt>
</event>
<event>
 4    1  0.5056513E-005  0.5329760E+03  0.7818608E-02  0.1005513E+00
         -2   -1    0    0    0  501 -0.00000000000E+00  0.00000000000E+00  0.12663509039E+04  0.12663509039E+04  0.25500000000E-02 0. -1.
          2   -1    0    0  501    0  0.00000000000E+00 -0.00000000000E+00 -0.56079118102E+02  0.56079118160E+02  0.25500000000E-02 0.  1.
    5000001    1    1    2    0    0 -0.16189618169E+03 -0.25409195110E+02  0.77266578616E+03  0.81453632083E+03  0.19900000000E+03 0.  0.
   -5000001    1    1    2    0    0  0.16189618169E+03  0.25409195110E+02  0.43760599968E+03  0.50789370128E+03  0.19900000000E+03 0.  0.
<mgrwt>
<rscale>  0 0.53297595E+03</rscale>
<asrwt>0</asrwt>
<pdfrwt beam="1">  1        2 0.80113039E-02 0.53297595E+03</pdfrwt>
<pdfrwt beam="2">  1       -2 0.18090724E+00 0.53297595E+03</pdfrwt>
<totfact> 0.16170996E+02</totfact>
</mgrwt>
</event>
<event>
 4    1  0.5056513E-005  0.7698007E+03  0.7818608E-02  0.9604788E-01
         -2   -1    0    0    0  501 -0.00000000000E+00  0.00000000000E+00  0.35785242483E+03  0.35785242483E+03  0.25500000000E-02 0. -1.
          2   -1    0    0  501    0  0.00000000000E+00 -0.00000000000E+00 -0.41399270800E+03  0.41399270800E+03  0.25500000000E-02 0.  1.
    5000001    1    1    2    0    0  0.16570841939E+02 -0.32902269491E+03 -0.23964409765E+02  0.38562393534E+03  0.19900000000E+03 0.  0.
   -5000001    1    1    2    0    0 -0.16570841939E+02  0.32902269491E+03 -0.32175873404E+02  0.38622119750E+03  0.19900000000E+03 0.  0.
<mgrwt>
<rscale>  0 0.76980074E+03</rscale>
<asrwt>0</asrwt>
<pdfrwt beam="1">  1        2 0.59141815E-01 0.76980074E+03</pdfrwt>
<pdfrwt beam="2">  1       -2 0.51121775E-01 0.76980074E+03</pdfrwt>
<totfact> 0.30302220E+02</totfact>
</mgrwt>
</event>
<event>
 4    1  0.5056513E-005  0.7263796E+03  0.7818608E-02  0.9673153E-01
          2   -1    0    0  501    0  0.00000000000E+00  0.00000000000E+00  0.19659025130E+04  0.19659025131E+04  0.25500000000E-02 0.  1.
         -2   -1    0    0    0  501 -0.00000000000E+00 -0.00000000000E+00 -0.67097346655E+02  0.67097346703E+02  0.25500000000E-02 0. -1.
    5000001    1    1    2    0    0  0.61533998037E+02 -0.15155180832E+03  0.16659828952E+04  0.16857800540E+04  0.19900000000E+03 0.  0.
   -5000001    1    1    2    0    0 -0.61533998037E+02  0.15155180832E+03  0.23282227123E+03  0.34721980575E+03  0.19900000000E+03 0.  0.
<mgrwt>
<rscale>  0 0.72637963E+03</rscale>
<asrwt>0</asrwt>
<pdfrwt beam="1">  1        2 0.28084321E+00 0.72637963E+03</pdfrwt>
<pdfrwt beam="2">  1       -2 0.95853356E-02 0.72637963E+03</pdfrwt>
<totfact> 0.62691149E+02</totfact>
</mgrwt>
</event>
<event>
 4    1  0.5056513E-005  0.8688456E+03  0.7818608E-02  0.9465386E-01
          2   -1    0    0  501    0  0.00000000000E+00  0.00000000000E+00  0.68978008460E+03  0.68978008460E+03  0.25500000000E-02 0.  1.
         -2   -1    0    0    0  501 -0.00000000000E+00 -0.00000000000E+00 -0.27359905454E+03  0.27359905456E+03  0.25500000000E-02 0. -1.
    5000001    1    1    2    0    0 -0.47484693083E+02  0.35924564570E+03  0.35606470047E+03  0.54561460845E+03  0.19900000000E+03 0.  0.
   -5000001    1    1    2    0    0  0.47484693083E+02 -0.35924564570E+03  0.60116329585E+02  0.41776453071E+03  0.19900000000E+03 0.  0.
<mgrwt>
<rscale>  0 0.86884562E+03</rscale>
<asrwt>0</asrwt>
<pdfrwt beam="1">  1        2 0.98540012E-01 0.86884562E+03</pdfrwt>
<pdfrwt beam="2">  1       -2 0.39085579E-01 0.86884562E+03</pdfrwt>
<totfact> 0.28430338E+02</totfact>
</mgrwt>
</event>
<event>
 4    1  0.5056513E-005  0.6752724E+03  0.7818608E-02  0.9760480E-01
          2   -1    0    0  501    0  0.00000000000E+00  0.00000000000E+00  0.10968567232E+04  0.10968567232E+04  0.25500000000E-02 0.  1.
         -2   -1    0    0    0  501 -0.00000000000E+00 -0.00000000000E+00 -0.10393171137E+03  0.10393171140E+03  0.25500000000E-02 0. -1.
    5000001    1    1    2    0    0  0.24259555822E+03  0.24534504352E+02  0.71383336264E+03  0.78013692157E+03  0.19900000000E+03 0.  0.
   -5000001    1    1    2    0    0 -0.24259555822E+03 -0.24534504352E+02  0.27909164915E+03  0.42065151301E+03  0.19900000000E+03 0.  0.
<mgrwt>
<rscale>  0 0.67527238E+03</rscale>
<asrwt>0</asrwt>
<pdfrwt beam="1">  1        2 0.15669382E+00 0.67527238E+03</pdfrwt>
<pdfrwt beam="2">  1       -2 0.14847387E-01 0.67527238E+03</pdfrwt>
<totfact> 0.87958430E+02</totfact>
</mgrwt>
</event>
<event>
 4    1  0.5056513E-005  0.5563470E+03  0.7818608E-02  0.1000035E+00
         -2   -1    0    0    0  501 -0.00000000000E+00  0.00000000000E+00  0.52327648636E+03  0.52327648637E+03  0.25500000000E-02 0. -1.
          2   -1    0    0  501    0  0.00000000000E+00 -0.00000000000E+00 -0.14787689698E+03  0.14787689700E+03  0.25500000000E-02 0.  1.
    5000001    1    1    2    0    0 -0.14628267019E+03 -0.12681931434E+03  0.16688374847E+03  0.32393354811E+03  0.19900000000E+03 0.  0.
   -5000001    1    1    2    0    0  0.14628267019E+03  0.12681931434E+03  0.20851584091E+03  0.34721983526E+03  0.19900000000E+03 0.  0.
<mgrwt>
<rscale>  0 0.55634703E+03</rscale>
<asrwt>0</asrwt>
<pdfrwt beam="1">  1        2 0.21125271E-01 0.55634703E+03</pdfrwt>
<pdfrwt beam="2">  1       -2 0.74753783E-01 0.55634703E+03</pdfrwt>
<totfact> 0.43263400E+02</totfact>
</mgrwt>
</event>
<event>
 4    1  0.5056513E-005  0.4841195E+03  0.7818608E-02  0.1018009E+00
         -2   -1    0    0    0  501 -0.00000000000E+00  0.00000000000E+00  0.46112240844E+02  0.46112240914E+02  0.25500000000E-02 0. -1.
          2   -1    0    0  501    0  0.00000000000E+00 -0.00000000000E+00 -0.12706589727E+04  0.12706589727E+04  0.25500000000E-02 0.  1.
    5000001    1    1    2    0    0  0.11629120104E+03  0.69938175103E+02 -0.67760497503E+03  0.71914149787E+03  0.19900000000E+03 0.  0.
   -5000001    1    1    2    0    0 -0.11629120104E+03 -0.69938175103E+02 -0.54694175679E+03  0.59762971570E+03  0.19900000000E+03 0.  0.
<mgrwt>
<rscale>  0 0.48411954E+03</rscale>
<asrwt>0</asrwt>
<pdfrwt beam="1">  1        2 0.18152269E+00 0.48411954E+03</pdfrwt>
<pdfrwt beam="2">  1       -2 0.65874638E-02 0.48411954E+03</pdfrwt>
<totfact> 0.26309429E+03</totfact>
</mgrwt>
</event>
<event>
 4    1  0.5056513E-005  0.5270292E+03  0.7818608E-02  0.1006955E+00
          2   -1    0    0  501    0  0.00000000000E+00  0.00000000000E+00  0.12928360251E+03  0.12928360253E+03  0.25500000000E-02 0.  1.
         -2   -1    0    0    0  501 -0.00000000000E+00 -0.00000000000E+00 -0.53711328767E+03  0.53711328768E+03  0.25500000000E-02 0. -1.
    5000001    1    1    2    0    0  0.12599888675E+03 -0.19013644843E+02 -0.35138187244E+03  0.42344711409E+03  0.19900000000E+03 0.  0.
   -5000001    1    1    2    0    0 -0.12599888675E+03  0.19013644843E+02 -0.56447812718E+02  0.24294977611E+03  0.19900000000E+03 0.  0.
<mgrwt>
<rscale>  0 0.52702919E+03</rscale>
<asrwt>0</asrwt>
<pdfrwt beam="1">  1        2 0.18469086E-01 0.52702919E+03</pdfrwt>
<pdfrwt beam="2">  1       -2 0.76730468E-01 0.52702919E+03</pdfrwt>
<totfact> 0.47812047E+02</totfact>
</mgrwt>
</event>
<event>
 4    1  0.5056513E-005  0.6951342E+03  0.7818608E-02  0.9725590E-01
         -2   -1    0    0    0  501 -0.00000000000E+00  0.00000000000E+00  0.13369672896E+03  0.13369672899E+03  0.25500000000E-02 0. -1.
          2   -1    0    0  501    0  0.00000000000E+00 -0.00000000000E+00 -0.90355894933E+03  0.90355894933E+03  0.25500000000E-02 0.  1.
    5000001    1    1    2    0    0  0.27739904516E+03  0.16881829825E+02 -0.47890973886E+03  0.58837977906E+03  0.19900000000E+03 0.  0.
   -5000001    1    1    2    0    0 -0.27739904516E+03 -0.16881829825E+02 -0.29095248151E+03  0.44887589925E+03  0.19900000000E+03 0.  0.
<mgrwt>
<rscale>  0 0.69513416E+03</rscale>
<asrwt>0</asrwt>
<pdfrwt beam="1">  1        2 0.12907985E+00 0.69513416E+03</pdfrwt>
<pdfrwt beam="2">  1       -2 0.19099533E-01 0.69513416E+03</pdfrwt>
<totfact> 0.75091039E+02</totfact>
</mgrwt>
</event>
<event>
 4    1  0.5056513E-005  0.1019012E+04  0.7818608E-02  0.9287935E-01
          2   -1    0    0  501    0  0.00000000000E+00  0.00000000000E+00  0.22262051491E+04  0.22262051491E+04  0.25500000000E-02 0.  1.
         -2   -1    0    0    0  501 -0.00000000000E+00 -0.00000000000E+00 -0.11660939589E+03  0.11660939592E+03  0.25500000000E-02 0. -1.
    5000001    1    1    2    0    0 -0.33344732006E+03  0.33491105434E+02  0.18092636139E+04  0.18507686495E+04  0.19900000000E+03 0.  0.
   -5000001    1    1    2    0    0  0.33344732006E+03 -0.33491105434E+02  0.30033213931E+03  0.49204589552E+03  0.19900000000E+03 0.  0.
<mgrwt>
<rscale>  0 0.10190121E+04</rscale>
<asrwt>0</asrwt>
<pdfrwt beam="1">  1        2 0.31802928E+00 0.10190121E+04</pdfrwt>
<pdfrwt beam="2">  1       -2 0.16658487E-01 0.10190121E+04</pdfrwt>
<totfact> 0.18033171E+02</totfact>
</mgrwt>
</event>
<event>
 4    1  0.5056513E-005  0.7316131E+03  0.7818608E-02  0.9664646E-01
          2   -1    0    0  501    0  0.00000000000E+00  0.00000000000E+00  0.54869490368E+02  0.54869490427E+02  0.25500000000E-02 0.  1.
         -2   -1    0    0    0  501 -0.00000000000E+00 -0.00000000000E+00 -0.24387767045E+04  0.24387767045E+04  0.25500000000E-02 0. -1.
    5000001    1    1    2    0    0  0.12995575298E+03 -0.24265532568E+03 -0.72906869280E+03  0.80430856245E+03  0.19900000000E+03 0.  0.
   -5000001    1    1    2    0    0 -0.12995575298E+03  0.24265532568E+03 -0.16548385214E+04  0.16893376325E+04  0.19900000000E+03 0.  0.
<mgrwt>
<rscale>  0 0.73161311E+03</rscale>
<asrwt>0</asrwt>
<pdfrwt beam="1">  1        2 0.78385002E-02 0.73161311E+03</pdfrwt>
<pdfrwt beam="2">  1       -2 0.34839660E+00 0.73161311E+03</pdfrwt>
<totfact> 0.15312614E+01</totfact>
</mgrwt>
</event>
<event>
 4    1  0.5056513E-005  0.4223207E+03  0.7818608E-02  0.1036314E+00
          2   -1    0    0  501    0  0.00000000000E+00  0.00000000000E+00  0.77655920014E+03  0.77655920014E+03  0.25500000000E-02 0.  1.
         -2   -1    0    0    0  501 -0.00000000000E+00 -0.00000000000E+00 -0.57418267917E+02  0.57418267973E+02  0.25500000000E-02 0. -1.
    5000001    1    1    2    0    0  0.38180306914E+02  0.44750034846E+02  0.28239381353E+03  0.35043910652E+03  0.19900000000E+03 0.  0.
   -5000001    1    1    2    0    0 -0.38180306914E+02 -0.44750034846E+02  0.43674711869E+03  0.48353836160E+03  0.19900000000E+03 0.  0.
<mgrwt>
<rscale>  0 0.42232066E+03</rscale>
<asrwt>0</asrwt>
<pdfrwt beam="1">  1        2 0.11093703E+00 0.42232066E+03</pdfrwt>
<pdfrwt beam="2">  1       -2 0.82026093E-02 0.42232066E+03</pdfrwt>
<totfact> 0.37007831E+03</totfact>
</mgrwt>
</event>
<event>
 4    1  0.5056513E-005  0.5943941E+03  0.7818608E-02  0.9917105E-01
          2   -1    0    0  501    0  0.00000000000E+00  0.00000000000E+00  0.23420848361E+03  0.23420848363E+03  0.25500000000E-02 0.  1.
         -2   -1    0    0    0  501 -0.00000000000E+00 -0.00000000000E+00 -0.37712596583E+03  0.37712596584E+03  0.25500000000E-02 0. -1.
    5000001    1    1    2    0    0  0.15607660178E+03 -0.13120867349E+03 -0.15842314845E+03  0.32599772329E+03  0.19900000000E+03 0.  0.
   -5000001    1    1    2    0    0 -0.15607660178E+03  0.13120867349E+03  0.15505666231E+02  0.28533672618E+03  0.19900000000E+03 0.  0.
<mgrwt>
<rscale>  0 0.59439415E+03</rscale>
<asrwt>0</asrwt>
<pdfrwt beam="1">  1        2 0.33458355E-01 0.59439415E+03</pdfrwt>
<pdfrwt beam="2">  1       -2 0.53875138E-01 0.59439415E+03</pdfrwt>
<totfact> 0.51469391E+02</totfact>
</mgrwt>
</event>
<event>
 4    1  0.5056513E-005  0.4931857E+03  0.7818608E-02  0.1015573E+00
         -2   -1    0    0    0  501 -0.00000000000E+00  0.00000000000E+00  0.46832569689E+03  0.46832569690E+03  0.25500000000E-02 0. -1.
          2   -1    0    0  501    0  0.00000000000E+00 -0.00000000000E+00 -0.12984133093E+03  0.12984133095E+03  0.25500000000E-02 0.  1.
    5000001    1    1    2    0    0 -0.20096372114E+02  0.14344096194E+03  0.18755032216E+03  0.30944352809E+03  0.19900000000E+03 0.  0.
   -5000001    1    1    2    0    0  0.20096372114E+02 -0.14344096194E+03  0.15093404380E+03  0.28872349976E+03  0.19900000000E+03 0.  0.
<mgrwt>
<rscale>  0 0.49318569E+03</rscale>
<asrwt>0</asrwt>
<pdfrwt beam="1">  1        2 0.18548762E-01 0.49318569E+03</pdfrwt>
<pdfrwt beam="2">  1       -2 0.66903669E-01 0.49318569E+03</pdfrwt>
<totfact> 0.64138358E+02</totfact>
</mgrwt>
</event>
<event>
 4    1  0.5056513E-005  0.6152102E+03  0.7818608E-02  0.9874343E-01
          2   -1    0    0  501    0  0.00000000000E+00  0.00000000000E+00  0.72779062551E+03  0.72779062552E+03  0.25500000000E-02 0. -1.
         -2   -1    0    0    0  501 -0.00000000000E+00 -0.00000000000E+00 -0.13001114472E+03  0.13001114474E+03  0.25500000000E-02 0.  1.
    5000001    1    1    2    0    0  0.11728129999E+02 -0.23417428716E+03  0.28956271426E+03  0.42240112605E+03  0.19900000000E+03 0.  0.
   -5000001    1    1    2    0    0 -0.11728129999E+02  0.23417428716E+03  0.30821676654E+03  0.43540064421E+03  0.19900000000E+03 0.  0.
<mgrwt>
<rscale>  0 0.61521018E+03</rscale>
<asrwt>0</asrwt>
<pdfrwt beam="1">  1        2 0.10397009E+00 0.61521018E+03</pdfrwt>
<pdfrwt beam="2">  1       -2 0.18573020E-01 0.61521018E+03</pdfrwt>
<totfact> 0.10436982E+03</totfact>
</mgrwt>
</event>
<event>
 4    1  0.5056513E-005  0.5659740E+03  0.7818608E-02  0.9978627E-01
          2   -1    0    0  501    0  0.00000000000E+00  0.00000000000E+00  0.19556142726E+04  0.19556142726E+04  0.25500000000E-02 0.  1.
         -2   -1    0    0    0  501 -0.00000000000E+00 -0.00000000000E+00 -0.40949606352E+02  0.40949606432E+02  0.25500000000E-02 0. -1.
    5000001    1    1    2    0    0 -0.17658143398E+03  0.78013871081E+02  0.11573064219E+04  0.11900530749E+04  0.19900000000E+03 0.  0.
   -5000001    1    1    2    0    0  0.17658143398E+03 -0.78013871081E+02  0.75735824441E+03  0.80651080420E+03  0.19900000000E+03 0.  0.
<mgrwt>
<rscale>  0 0.56597397E+03</rscale>
<asrwt>0</asrwt>
<pdfrwt beam="1">  1        2 0.27937355E+00 0.56597397E+03</pdfrwt>
<pdfrwt beam="2">  1       -2 0.58499420E-02 0.56597397E+03</pdfrwt>
<totfact> 0.14037236E+03</totfact>
</mgrwt>
</event>
<event>
 4    1  0.5056513E-005  0.4320864E+03  0.7818608E-02  0.1033203E+00
         -2   -1    0    0    0  501 -0.00000000000E+00  0.00000000000E+00  0.14924422918E+03  0.14924422920E+03  0.25500000000E-02 0. -1.
          2   -1    0    0  501    0  0.00000000000E+00 -0.00000000000E+00 -0.31274020162E+03  0.31274020163E+03  0.25500000000E-02 0.  1.
    5000001    1    1    2    0    0  0.62911276456E+02 -0.45270952597E+02 -0.11666308013E+03  0.24334864314E+03  0.19900000000E+03 0.  0.
   -5000001    1    1    2    0    0 -0.62911276456E+02  0.45270952597E+02 -0.46832892310E+02  0.21863578768E+03  0.19900000000E+03 0.  0.
<mgrwt>
<rscale>  0 0.43208643E+03</rscale>
<asrwt>0</asrwt>
<pdfrwt beam="1">  1        2 0.44677171E-01 0.43208643E+03</pdfrwt>
<pdfrwt beam="2">  1       -2 0.21320604E-01 0.43208643E+03</pdfrwt>
<totfact> 0.21482804E+03</totfact>
</mgrwt>
</event>
<event>
 4    1  0.5056513E-005  0.5293296E+03  0.7818608E-02  0.1006395E+00
         -2   -1    0    0    0  501 -0.00000000000E+00  0.00000000000E+00  0.29732132631E+02  0.29732132740E+02  0.25500000000E-02 0. -1.
          2   -1    0    0  501    0  0.00000000000E+00 -0.00000000000E+00 -0.23559510338E+04  0.23559510338E+04  0.25500000000E-02 0.  1.
    5000001    1    1    2    0    0 -0.11747069697E+03  0.12632426842E+03 -0.12814351791E+04  0.13082179878E+04  0.19900000000E+03 0.  0.
   -5000001    1    1    2    0    0  0.11747069697E+03 -0.12632426842E+03 -0.10447837221E+04  0.10774651787E+04  0.19900000000E+03 0.  0.
<mgrwt>
<rscale>  0 0.52932957E+03</rscale>
<asrwt>0</asrwt>
<pdfrwt beam="1">  1        2 0.33656431E+00 0.52932957E+03</pdfrwt>
<pdfrwt beam="2">  1       -2 0.42474490E-02 0.52932957E+03</pdfrwt>
<totfact> 0.14533891E+03</totfact>
</mgrwt>
</event>
<event>
 4    1  0.5056513E-005  0.6037080E+03  0.7818608E-02  0.9897743E-01
         -2   -1    0    0    0  501 -0.00000000000E+00  0.00000000000E+00  0.46916305578E+02  0.46916305647E+02  0.25500000000E-02 0. -1.
          2   -1    0    0  501    0  0.00000000000E+00 -0.00000000000E+00 -0.19420931471E+04  0.19420931471E+04  0.25500000000E-02 0.  1.
    5000001    1    1    2    0    0 -0.83842547981E+02  0.32219176049E+02 -0.16343259065E+04  0.16488449948E+04  0.19900000000E+03 0.  0.
   -5000001    1    1    2    0    0  0.83842547981E+02 -0.32219176049E+02 -0.26085093499E+03  0.34016445793E+03  0.19900000000E+03 0.  0.
<mgrwt>
<rscale>  0 0.60370799E+03</rscale>
<asrwt>0</asrwt>
<pdfrwt beam="1">  1        2 0.27744183E+00 0.60370799E+03</pdfrwt>
<pdfrwt beam="2">  1       -2 0.67023306E-02 0.60370799E+03</pdfrwt>
<totfact> 0.11495987E+03</totfact>
</mgrwt>
</event>
<event>
 4    1  0.5056513E-005  0.7199042E+03  0.7818608E-02  0.9683786E-01
         -2   -1    0    0    0  501 -0.00000000000E+00  0.00000000000E+00  0.13591497654E+03  0.13591497656E+03  0.25500000000E-02 0. -1.
          2   -1    0    0  501    0  0.00000000000E+00 -0.00000000000E+00 -0.95328344961E+03  0.95328344961E+03  0.25500000000E-02 0.  1.
    5000001    1    1    2    0    0  0.62544690746E+02 -0.87136281717E+02  0.15111201721E+02  0.22656989727E+03  0.19900000000E+03 0.  0.
   -5000001    1    1    2    0    0 -0.62544690746E+02  0.87136281717E+02 -0.83247967479E+03  0.86262852890E+03  0.19900000000E+03 0.  0.
<mgrwt>
<rscale>  0 0.71990415E+03</rscale>
<asrwt>0</asrwt>
<pdfrwt beam="1">  1        2 0.13618335E+00 0.71990415E+03</pdfrwt>
<pdfrwt beam="2">  1       -2 0.19416426E-01 0.71990415E+03</pdfrwt>
<totfact> 0.67780898E+02</totfact>
</mgrwt>
</event>
<event>
 4    1  0.5056513E-005  0.9515151E+03  0.7818608E-02  0.9363381E-01
          2   -1    0    0  501    0  0.00000000000E+00  0.00000000000E+00  0.96600902162E+03  0.96600902162E+03  0.25500000000E-02 0.  1.
         -2   -1    0    0    0  501 -0.00000000000E+00 -0.00000000000E+00 -0.23430964480E+03  0.23430964481E+03  0.25500000000E-02 0. -1.
    5000001    1    1    2    0    0  0.42415538511E+03 -0.74001110025E+02  0.31932383308E+03  0.57179774866E+03  0.19900000000E+03 0.  0.
   -5000001    1    1    2    0    0 -0.42415538511E+03  0.74001110025E+02  0.41237554374E+03  0.62852091777E+03  0.19900000000E+03 0.  0.
<mgrwt>
<rscale>  0 0.95151507E+03</rscale>
<asrwt>0</asrwt>
<pdfrwt beam="1">  1        2 0.13800129E+00 0.95151507E+03</pdfrwt>
<pdfrwt beam="2">  1       -2 0.33472807E-01 0.95151507E+03</pdfrwt>
<totfact> 0.24554316E+02</totfact>
</mgrwt>
</event>
<event>
 4    1  0.5056513E-005  0.5288248E+03  0.7818608E-02  0.1006518E+00
          2   -1    0    0  501    0  0.00000000000E+00  0.00000000000E+00  0.13540325704E+04  0.13540325704E+04  0.25500000000E-02 0.  1.
         -2   -1    0    0    0  501 -0.00000000000E+00 -0.00000000000E+00 -0.51633851256E+02  0.51633851319E+02  0.25500000000E-02 0. -1.
    5000001    1    1    2    0    0 -0.15914412072E+03 -0.64869988826E+02  0.57706044237E+03  0.63414093131E+03  0.19900000000E+03 0.  0.
   -5000001    1    1    2    0    0  0.15914412072E+03  0.64869988826E+02  0.72533827680E+03  0.77152549045E+03  0.19900000000E+03 0.  0.
<mgrwt>
<rscale>  0 0.52882480E+03</rscale>
<asrwt>0</asrwt>
<pdfrwt beam="1">  1        2 0.19343319E+00 0.52882480E+03</pdfrwt>
<pdfrwt beam="2">  1       -2 0.73762657E-02 0.52882480E+03</pdfrwt>
<totfact> 0.19843508E+03</totfact>
</mgrwt>
</event>
<event>
 4    1  0.5056513E-005  0.7992090E+03  0.7818608E-02  0.9561163E-01
         -2   -1    0    0    0  501 -0.00000000000E+00  0.00000000000E+00  0.86282015956E+02  0.86282015994E+02  0.25500000000E-02 0.  1.
          2   -1    0    0  501    0  0.00000000000E+00 -0.00000000000E+00 -0.18507190739E+04  0.18507190739E+04  0.25500000000E-02 0. -1.
    5000001    1    1    2    0    0 -0.34169346542E+03  0.20082889104E+02 -0.10132978970E+04  0.10879022818E+04  0.19900000000E+03 0.  0.
   -5000001    1    1    2    0    0  0.34169346542E+03 -0.20082889104E+02 -0.75113916089E+03  0.84909880802E+03  0.19900000000E+03 0.  0.
<mgrwt>
<rscale>  0 0.79920904E+03</rscale>
<asrwt>0</asrwt>
<pdfrwt beam="1">  1        2 0.26438842E+00 0.79920904E+03</pdfrwt>
<pdfrwt beam="2">  1       -2 0.12326003E-01 0.79920904E+03</pdfrwt>
<totfact> 0.47270465E+02</totfact>
</mgrwt>
</event>
<event>
 4    1  0.5056513E-005  0.8667497E+03  0.7818608E-02  0.9468128E-01
         -2   -1    0    0    0  501 -0.00000000000E+00  0.00000000000E+00  0.40493944589E+03  0.40493944589E+03  0.25500000000E-02 0. -1.
          2   -1    0    0  501    0  0.00000000000E+00 -0.00000000000E+00 -0.46380700842E+03  0.46380700843E+03  0.25500000000E-02 0.  1.
    5000001    1    1    2    0    0 -0.28094107874E+03 -0.20662225098E+03 -0.19288032537E+03  0.44544861010E+03  0.19900000000E+03 0.  0.
   -5000001    1    1    2    0    0  0.28094107874E+03  0.20662225098E+03  0.13401276283E+03  0.42329784423E+03  0.19900000000E+03 0.  0.
<mgrwt>
<rscale>  0 0.86674968E+03</rscale>
<asrwt>0</asrwt>
<pdfrwt beam="1">  1        2 0.66258144E-01 0.86674968E+03</pdfrwt>
<pdfrwt beam="2">  1       -2 0.57848493E-01 0.86674968E+03</pdfrwt>
<totfact> 0.20564805E+02</totfact>
</mgrwt>
</event>
<event>
 4    1  0.5056513E-005  0.7623092E+03  0.7818608E-02  0.9616235E-01
         -2   -1    0    0    0  501 -0.00000000000E+00  0.00000000000E+00  0.11652326584E+03  0.11652326587E+03  0.25500000000E-02 0. -1.
          2   -1    0    0  501    0  0.00000000000E+00 -0.00000000000E+00 -0.12467796529E+04  0.12467796529E+04  0.25500000000E-02 0.  1.
    5000001    1    1    2    0    0 -0.13753464774E+03  0.29432350742E+03 -0.58596351005E+03  0.69892513294E+03  0.19900000000E+03 0.  0.
   -5000001    1    1    2    0    0  0.13753464774E+03 -0.29432350742E+03 -0.54429287705E+03  0.66437778587E+03  0.19900000000E+03 0.  0.
<mgrwt>
<rscale>  0 0.76230922E+03</rscale>
<asrwt>0</asrwt>
<pdfrwt beam="1">  1        2 0.17811137E+00 0.76230922E+03</pdfrwt>
<pdfrwt beam="2">  1       -2 0.16646182E-01 0.76230922E+03</pdfrwt>
<totfact> 0.59303497E+02</totfact>
</mgrwt>
</event>
<event>
 4    1  0.5056513E-005  0.6846523E+03  0.7818608E-02  0.9743845E-01
          2   -1    0    0  501    0  0.00000000000E+00  0.00000000000E+00  0.89429565639E+03  0.89429565639E+03  0.25500000000E-02 0.  1.
         -2   -1    0    0    0  501 -0.00000000000E+00 -0.00000000000E+00 -0.13103855302E+03  0.13103855304E+03  0.25500000000E-02 0. -1.
    5000001    1    1    2    0    0 -0.18779554483E+03 -0.14596347658E+03  0.59872197596E+03  0.67427109359E+03  0.19900000000E+03 0.  0.
   -5000001    1    1    2    0    0  0.18779554483E+03  0.14596347658E+03  0.16453512741E+03  0.35106311585E+03  0.19900000000E+03 0.  0.
<mgrwt>
<rscale>  0 0.68465235E+03</rscale>
<asrwt>0</asrwt>
<pdfrwt beam="1">  1        2 0.12775653E+00 0.68465235E+03</pdfrwt>
<pdfrwt beam="2">  1       -2 0.18719793E-01 0.68465235E+03</pdfrwt>
<totfact> 0.78859919E+02</totfact>
</mgrwt>
</event>
<event>
 4    1  0.5056513E-005  0.6234121E+03  0.7818608E-02  0.9857990E-01
         -2   -1    0    0    0  501 -0.00000000000E+00  0.00000000000E+00  0.11306332960E+03  0.11306332963E+03  0.25500000000E-02 0. -1.
          2   -1    0    0  501    0  0.00000000000E+00 -0.00000000000E+00 -0.85934733072E+03  0.85934733072E+03  0.25500000000E-02 0.  1.
    5000001    1    1    2    0    0  0.15224290599E+03  0.17939506588E+03 -0.29999362322E+03  0.43006704833E+03  0.19900000000E+03 0.  0.
   -5000001    1    1    2    0    0 -0.15224290599E+03 -0.17939506588E+03 -0.44629037790E+03  0.54234361202E+03  0.19900000000E+03 0.  0.
<mgrwt>
<rscale>  0 0.62341213E+03</rscale>
<asrwt>0</asrwt>
<pdfrwt beam="1">  1        2 0.12276390E+00 0.62341213E+03</pdfrwt>
<pdfrwt beam="2">  1       -2 0.16151905E-01 0.62341213E+03</pdfrwt>
<totfact> 0.10723586E+03</totfact>
</mgrwt>
</event>
<event>
 4    1  0.5056513E-005  0.7029406E+03  0.7818608E-02  0.9712217E-01
          2   -1    0    0  501    0  0.00000000000E+00  0.00000000000E+00  0.10655547067E+04  0.10655547067E+04  0.25500000000E-02 0.  1.
         -2   -1    0    0    0  501 -0.00000000000E+00 -0.00000000000E+00 -0.11593151110E+03  0.11593151112E+03  0.25500000000E-02 0. -1.
    5000001    1    1    2    0    0 -0.26994733498E+02  0.26895070395E+03  0.65002538664E+03  0.73157173269E+03  0.19900000000E+03 0.  0.
   -5000001    1    1    2    0    0  0.26994733498E+02 -0.26895070395E+03  0.29959780893E+03  0.44991448511E+03  0.19900000000E+03 0.  0.
<mgrwt>
<rscale>  0 0.70294059E+03</rscale>
<asrwt>0</asrwt>
<pdfrwt beam="1">  1        2 0.15222210E+00 0.70294059E+03</pdfrwt>
<pdfrwt beam="2">  1       -2 0.16561645E-01 0.70294059E+03</pdfrwt>
<totfact> 0.76180063E+02</totfact>
</mgrwt>
</event>
<event>
 4    1  0.5056513E-005  0.1006188E+04  0.7818608E-02  0.9301784E-01
         -2   -1    0    0    0  501 -0.00000000000E+00  0.00000000000E+00  0.22736169823E+03  0.22736169825E+03  0.25500000000E-02 0. -1.
          2   -1    0    0  501    0  0.00000000000E+00 -0.00000000000E+00 -0.11132196526E+04  0.11132196526E+04  0.25500000000E-02 0.  1.
    5000001    1    1    2    0    0  0.74447282313E+02 -0.30421071726E+03  0.97048558919E+01  0.37118963155E+03  0.19900000000E+03 0.  0.
   -5000001    1    1    2    0    0 -0.74447282313E+02  0.30421071726E+03 -0.89556281031E+03  0.96939171935E+03  0.19900000000E+03 0.  0.
<mgrwt>
<rscale>  0 0.10061879E+04</rscale>
<asrwt>0</asrwt>
<pdfrwt beam="1">  1        2 0.15903138E+00 0.10061879E+04</pdfrwt>
<pdfrwt beam="2">  1       -2 0.32480243E-01 0.10061879E+04</pdfrwt>
<totfact> 0.21098580E+02</totfact>
</mgrwt>
</event>
<event>
 4    1  0.5056513E-005  0.6417627E+03  0.7818608E-02  0.9822360E-01
          2   -1    0    0  501    0  0.00000000000E+00  0.00000000000E+00  0.40808896487E+03  0.40808896488E+03  0.25500000000E-02 0.  1.
         -2   -1    0    0    0  501 -0.00000000000E+00 -0.00000000000E+00 -0.25230980576E+03  0.25230980578E+03  0.25500000000E-02 0. -1.
    5000001    1    1    2    0    0  0.13492144188E+03  0.10428123031E+03  0.26842988988E+03  0.37514527353E+03  0.19900000000E+03 0.  0.
   -5000001    1    1    2    0    0 -0.13492144188E+03 -0.10428123031E+03 -0.11265073077E+03  0.28525349712E+03  0.19900000000E+03 0.  0.
<mgrwt>
<rscale>  0 0.64176272E+03</rscale>
<asrwt>0</asrwt>
<pdfrwt beam="1">  1        2 0.58298424E-01 0.64176272E+03</pdfrwt>
<pdfrwt beam="2">  1       -2 0.36044258E-01 0.64176272E+03</pdfrwt>
<totfact> 0.61567368E+02</totfact>
</mgrwt>
</event>
<event>
 4    1  0.5056513E-005  0.7371526E+03  0.7818608E-02  0.9655724E-01
          2   -1    0    0  501    0  0.00000000000E+00  0.00000000000E+00  0.12890030086E+04  0.12890030086E+04  0.25500000000E-02 0.  1.
         -2   -1    0    0    0  501 -0.00000000000E+00 -0.00000000000E+00 -0.10539036116E+03  0.10539036119E+03  0.25500000000E-02 0. -1.
    5000001    1    1    2    0    0  0.14991095141E+03  0.27105219969E+03  0.62483640831E+03  0.72523384191E+03  0.19900000000E+03 0.  0.
   -5000001    1    1    2    0    0 -0.14991095141E+03 -0.27105219969E+03  0.55877623909E+03  0.66915952783E+03  0.19900000000E+03 0.  0.
<mgrwt>
<rscale>  0 0.73715261E+03</rscale>
<asrwt>0</asrwt>
<pdfrwt beam="1">  1        2 0.18414326E+00 0.73715261E+03</pdfrwt>
<pdfrwt beam="2">  1       -2 0.15055768E-01 0.73715261E+03</pdfrwt>
<totfact> 0.66735217E+02</totfact>
</mgrwt>
</event>
<event>
 4    1  0.5056513E-005  0.5888544E+03  0.7818608E-02  0.9928803E-01
          2   -1    0    0  501    0  0.00000000000E+00  0.00000000000E+00  0.33285554420E+03  0.33285554421E+03  0.25500000000E-02 0.  1.
         -2   -1    0    0    0  501 -0.00000000000E+00 -0.00000000000E+00 -0.26043544392E+03  0.26043544393E+03  0.25500000000E-02 0. -1.
    5000001    1    1    2    0    0 -0.21526144975E+03 -0.20042439946E+02  0.17436621751E+02  0.29435391440E+03  0.19900000000E+03 0.  0.
   -5000001    1    1    2    0    0  0.21526144975E+03  0.20042439946E+02  0.54983478534E+02  0.29893707374E+03  0.19900000000E+03 0.  0.
<mgrwt>
<rscale>  0 0.58885442E+03</rscale>
<asrwt>0</asrwt>
<pdfrwt beam="1">  1        2 0.47550792E-01 0.58885442E+03</pdfrwt>
<pdfrwt beam="2">  1       -2 0.37205063E-01 0.58885442E+03</pdfrwt>
<totfact> 0.72699173E+02</totfact>
</mgrwt>
</event>
<event>
 4    1  0.5056513E-005  0.5254623E+03  0.7818608E-02  0.1007339E+00
         -2   -1    0    0    0  501 -0.00000000000E+00  0.00000000000E+00  0.10002402685E+03  0.10002402688E+03  0.25500000000E-02 0. -1.
          2   -1    0    0  501    0  0.00000000000E+00 -0.00000000000E+00 -0.69011063704E+03  0.69011063704E+03  0.25500000000E-02 0.  1.
    5000001    1    1    2    0    0  0.16104245034E+03 -0.38844322874E+02 -0.22808089200E+03  0.34505861173E+03  0.19900000000E+03 0.  0.
   -5000001    1    1    2    0    0 -0.16104245034E+03  0.38844322874E+02 -0.36200571819E+03  0.44507605219E+03  0.19900000000E+03 0.  0.
<mgrwt>
<rscale>  0 0.52546225E+03</rscale>
<asrwt>0</asrwt>
<pdfrwt beam="1">  1        2 0.98587231E-01 0.52546225E+03</pdfrwt>
<pdfrwt beam="2">  1       -2 0.14289147E-01 0.52546225E+03</pdfrwt>
<totfact> 0.17397739E+03</totfact>
</mgrwt>
</event>
<event>
 4    1  0.5056513E-005  0.5966580E+03  0.7818608E-02  0.9912364E-01
          2   -1    0    0  501    0  0.00000000000E+00  0.00000000000E+00  0.59873584611E+03  0.59873584611E+03  0.25500000000E-02 0.  1.
         -2   -1    0    0    0  501 -0.00000000000E+00 -0.00000000000E+00 -0.14864681755E+03  0.14864681757E+03  0.25500000000E-02 0. -1.
    5000001    1    1    2    0    0  0.12480889157E+03  0.17549542793E+03  0.29391867203E+03  0.41516874931E+03  0.19900000000E+03 0.  0.
   -5000001    1    1    2    0    0 -0.12480889157E+03 -0.17549542793E+03  0.15617035653E+03  0.33221391437E+03  0.19900000000E+03 0.  0.
<mgrwt>
<rscale>  0 0.59665795E+03</rscale>
<asrwt>0</asrwt>
<pdfrwt beam="1">  1        2 0.85533694E-01 0.59665795E+03</pdfrwt>
<pdfrwt beam="2">  1       -2 0.21235259E-01 0.59665795E+03</pdfrwt>
<totfact> 0.10462513E+03</totfact>
</mgrwt>
</event>
<event>
 4    1  0.5056513E-005  0.6596927E+03  0.7818608E-02  0.9788760E-01
          2   -1    0    0  501    0  0.00000000000E+00  0.00000000000E+00  0.65849395935E+03  0.65849395936E+03  0.25500000000E-02 0.  1.
         -2   -1    0    0    0  501 -0.00000000000E+00 -0.00000000000E+00 -0.16522341076E+03  0.16522341078E+03  0.25500000000E-02 0. -1.
    5000001    1    1    2    0    0  0.22553235838E+03  0.13497948184E+03  0.23334371568E+03  0.40389923848E+03  0.19900000000E+03 0.  0.
   -5000001    1    1    2    0    0 -0.22553235838E+03 -0.13497948184E+03  0.25992683292E+03  0.41981813165E+03  0.19900000000E+03 0.  0.
<mgrwt>
<rscale>  0 0.65969271E+03</rscale>
<asrwt>0</asrwt>
<pdfrwt beam="1">  1        2 0.94070565E-01 0.65969271E+03</pdfrwt>
<pdfrwt beam="2">  1       -2 0.23603345E-01 0.65969271E+03</pdfrwt>
<totfact> 0.77391812E+02</totfact>
</mgrwt>
</event>
<event>
 4    1  0.5056513E-005  0.4289660E+03  0.7818608E-02  0.1034187E+00
         -2   -1    0    0    0  501 -0.00000000000E+00  0.00000000000E+00  0.32757085467E+03  0.32757085468E+03  0.25500000000E-02 0. -1.
          2   -1    0    0  501    0  0.00000000000E+00 -0.00000000000E+00 -0.14043664563E+03  0.14043664565E+03  0.25500000000E-02 0.  1.
    5000001    1    1    2    0    0 -0.67754746644E+02 -0.41553516585E+02  0.83535026286E+02  0.22999239346E+03  0.19900000000E+03 0.  0.
   -5000001    1    1    2    0    0  0.67754746644E+02  0.41553516585E+02  0.10359918275E+03  0.23801510688E+03  0.19900000000E+03 0.  0.
<mgrwt>
<rscale>  0 0.42896598E+03</rscale>
<asrwt>0</asrwt>
<pdfrwt beam="1">  1        2 0.20062377E-01 0.42896598E+03</pdfrwt>
<pdfrwt beam="2">  1       -2 0.46795837E-01 0.42896598E+03</pdfrwt>
<totfact> 0.12232095E+03</totfact>
</mgrwt>
</event>
<event>
 4    1  0.5056513E-005  0.1369609E+04  0.7818608E-02  0.8976116E-01
          2   -1    0    0  501    0  0.00000000000E+00  0.00000000000E+00  0.22369905744E+04  0.22369905744E+04  0.25500000000E-02 0.  1.
         -2   -1    0    0    0  501 -0.00000000000E+00 -0.00000000000E+00 -0.20963753753E+03  0.20963753755E+03  0.25500000000E-02 0. -1.
    5000001    1    1    2    0    0 -0.41858471010E+03 -0.48007882233E+03  0.12884952150E+04  0.14510374751E+04  0.19900000000E+03 0.  0.
   -5000001    1    1    2    0    0  0.41858471010E+03  0.48007882233E+03  0.73885782193E+03  0.99559063686E+03  0.19900000000E+03 0.  0.
<mgrwt>
<rscale>  0 0.13696090E+04</rscale>
<asrwt>0</asrwt>
<pdfrwt beam="1">  1        2 0.31957008E+00 0.13696090E+04</pdfrwt>
<pdfrwt beam="2">  1       -2 0.29948220E-01 0.13696090E+04</pdfrwt>
<totfact> 0.60832448E+01</totfact>
</mgrwt>
</event>
<event>
 4    1  0.5056513E-005  0.6867897E+03  0.7818608E-02  0.9740094E-01
         -2   -1    0    0    0  501 -0.00000000000E+00  0.00000000000E+00  0.79348178910E+02  0.79348178951E+02  0.25500000000E-02 0. -1.
          2   -1    0    0  501    0  0.00000000000E+00 -0.00000000000E+00 -0.14861087697E+04  0.14861087697E+04  0.25500000000E-02 0.  1.
    5000001    1    1    2    0    0  0.80496877140E+02 -0.24780942847E+03 -0.47059550359E+03  0.57354196714E+03  0.19900000000E+03 0.  0.
   -5000001    1    1    2    0    0 -0.80496877140E+02  0.24780942847E+03 -0.93616508720E+03  0.99191498151E+03  0.19900000000E+03 0.  0.
<mgrwt>
<rscale>  0 0.68678970E+03</rscale>
<asrwt>0</asrwt>
<pdfrwt beam="1">  1        2 0.21230124E+00 0.68678970E+03</pdfrwt>
<pdfrwt beam="2">  1       -2 0.11335455E-01 0.68678970E+03</pdfrwt>
<totfact> 0.84127165E+02</totfact>
</mgrwt>
</event>
<event>
 4    1  0.5056513E-005  0.4742934E+03  0.7818608E-02  0.1020715E+00
         -2   -1    0    0    0  501 -0.00000000000E+00  0.00000000000E+00  0.25994528474E+03  0.25994528475E+03  0.25500000000E-02 0. -1.
          2   -1    0    0  501    0  0.00000000000E+00 -0.00000000000E+00 -0.21634764658E+03  0.21634764659E+03  0.25500000000E-02 0.  1.
    5000001    1    1    2    0    0 -0.62063198551E+02  0.97226781120E+02 -0.36173781398E+02  0.23283992364E+03  0.19900000000E+03 0.  0.
   -5000001    1    1    2    0    0  0.62063198551E+02 -0.97226781120E+02  0.79771419559E+02  0.24345300770E+03  0.19900000000E+03 0.  0.
<mgrwt>
<rscale>  0 0.47429337E+03</rscale>
<asrwt>0</asrwt>
<pdfrwt beam="1">  1        2 0.30906807E-01 0.47429337E+03</pdfrwt>
<pdfrwt beam="2">  1       -2 0.37135041E-01 0.47429337E+03</pdfrwt>
<totfact> 0.11749912E+03</totfact>
</mgrwt>
</event>
<event>
 4    1  0.5056513E-005  0.5758196E+03  0.7818608E-02  0.9956883E-01
          2   -1    0    0  501    0  0.00000000000E+00  0.00000000000E+00  0.13499243660E+03  0.13499243662E+03  0.25500000000E-02 0.  1.
         -2   -1    0    0    0  501 -0.00000000000E+00 -0.00000000000E+00 -0.61404963563E+03  0.61404963563E+03  0.25500000000E-02 0. -1.
    5000001    1    1    2    0    0 -0.18010420304E+03  0.69180067303E+02 -0.13820046431E+03  0.30971563409E+03  0.19900000000E+03 0.  0.
   -5000001    1    1    2    0    0  0.18010420304E+03 -0.69180067303E+02 -0.34085673472E+03  0.43932643816E+03  0.19900000000E+03 0.  0.
<mgrwt>
<rscale>  0 0.57581961E+03</rscale>
<asrwt>0</asrwt>
<pdfrwt beam="1">  1        2 0.19284634E-01 0.57581961E+03</pdfrwt>
<pdfrwt beam="2">  1       -2 0.87721375E-01 0.57581961E+03</pdfrwt>
<totfact> 0.33610556E+02</totfact>
</mgrwt>
</event>
<event>
 4    1  0.5056513E-005  0.6210395E+03  0.7818608E-02  0.9862692E-01
          2   -1    0    0  501    0  0.00000000000E+00  0.00000000000E+00  0.28921907719E+04  0.28921907719E+04  0.25500000000E-02 0.  1.
         -2   -1    0    0    0  501 -0.00000000000E+00 -0.00000000000E+00 -0.33338916477E+02  0.33338916574E+02  0.25500000000E-02 0. -1.
    5000001    1    1    2    0    0 -0.11262699814E+03  0.35080460447E+01  0.43990607255E+03  0.49579784163E+03  0.19900000000E+03 0.  0.
   -5000001    1    1    2    0    0  0.11262699814E+03 -0.35080460447E+01  0.24189457829E+04  0.24297318469E+04  0.19900000000E+03 0.  0.
<mgrwt>
<rscale>  0 0.62103947E+03</rscale>
<asrwt>0</asrwt>
<pdfrwt beam="1">  1        2 0.41317015E+00 0.62103947E+03</pdfrwt>
<pdfrwt beam="2">  1       -2 0.47627019E-02 0.62103947E+03</pdfrwt>
<totfact> 0.63700089E+02</totfact>
</mgrwt>
</event>
<event>
 4    1  0.5056513E-005  0.6437948E+03  0.7818608E-02  0.9818493E-01
          2   -1    0    0  501    0  0.00000000000E+00  0.00000000000E+00  0.34411996965E+04  0.34411996965E+04  0.25500000000E-02 0.  1.
         -2   -1    0    0    0  501 -0.00000000000E+00 -0.00000000000E+00 -0.30110989306E+02  0.30110989414E+02  0.25500000000E-02 0. -1.
    5000001    1    1    2    0    0  0.47850359640E+02  0.21434757829E+03  0.10281643495E+04  0.10700268552E+04  0.19900000000E+03 0.  0.
   -5000001    1    1    2    0    0 -0.47850359640E+02 -0.21434757829E+03  0.23829243577E+04  0.24012838307E+04  0.19900000000E+03 0.  0.
<mgrwt>
<rscale>  0 0.64379477E+03</rscale>
<asrwt>0</asrwt>
<pdfrwt beam="1">  1        2 0.49160012E+00 0.64379477E+03</pdfrwt>
<pdfrwt beam="2">  1       -2 0.43015685E-02 0.64379477E+03</pdfrwt>
<totfact> 0.36637878E+02</totfact>
</mgrwt>
</event>
<event>
 4    1  0.5056513E-005  0.1374479E+04  0.7818608E-02  0.8972502E-01
          2   -1    0    0  501    0  0.00000000000E+00  0.00000000000E+00  0.10938657960E+04  0.10938657960E+04  0.25500000000E-02 0.  1.
         -2   -1    0    0    0  501 -0.00000000000E+00 -0.00000000000E+00 -0.43176976300E+03  0.43176976301E+03  0.25500000000E-02 0. -1.
    5000001    1    1    2    0    0  0.64117869721E+03  0.27110542158E+02  0.17076508259E+03  0.69325811693E+03  0.19900000000E+03 0.  0.
   -5000001    1    1    2    0    0 -0.64117869721E+03 -0.27110542158E+02  0.49133095040E+03  0.83237744208E+03  0.19900000000E+03 0.  0.
<mgrwt>
<rscale>  0 0.13744791E+04</rscale>
<asrwt>0</asrwt>
<pdfrwt beam="1">  1        2 0.15626654E+00 0.13744791E+04</pdfrwt>
<pdfrwt beam="2">  1       -2 0.61681395E-01 0.13744791E+04</pdfrwt>
<totfact> 0.58744549E+01</totfact>
</mgrwt>
</event>
<event>
 4    1  0.5056513E-005  0.1238823E+04  0.7818608E-02  0.9079538E-01
         -2   -1    0    0    0  501 -0.00000000000E+00  0.00000000000E+00  0.36211644527E+03  0.36211644528E+03  0.25500000000E-02 0. -1.
          2   -1    0    0  501    0  0.00000000000E+00 -0.00000000000E+00 -0.10595220843E+04  0.10595220843E+04  0.25500000000E-02 0.  1.
    5000001    1    1    2    0    0 -0.20812772284E+03 -0.54113385968E+03 -0.24653428418E+03  0.66069899075E+03  0.19900000000E+03 0.  0.
   -5000001    1    1    2    0    0  0.20812772284E+03  0.54113385968E+03 -0.45087135484E+03  0.76093953881E+03  0.19900000000E+03 0.  0.
<mgrwt>
<rscale>  0 0.12388226E+04</rscale>
<asrwt>0</asrwt>
<pdfrwt beam="1">  1        2 0.15136030E+00 0.12388226E+04</pdfrwt>
<pdfrwt beam="2">  1       -2 0.51730921E-01 0.12388226E+04</pdfrwt>
<totfact> 0.89750144E+01</totfact>
</mgrwt>
</event>
<event>
 4    1  0.5056513E-005  0.7268670E+03  0.7818608E-02  0.9672358E-01
          2   -1    0    0  501    0  0.00000000000E+00  0.00000000000E+00  0.32816141953E+04  0.32816141953E+04  0.25500000000E-02 0.  1.
         -2   -1    0    0    0  501 -0.00000000000E+00 -0.00000000000E+00 -0.40249681720E+02  0.40249681801E+02  0.25500000000E-02 0. -1.
    5000001    1    1    2    0    0  0.28497447983E+03  0.89182812167E+02  0.13573986246E+04  0.14040285091E+04  0.19900000000E+03 0.  0.
   -5000001    1    1    2    0    0 -0.28497447983E+03 -0.89182812167E+02  0.18839658890E+04  0.19178353680E+04  0.19900000000E+03 0.  0.
<mgrwt>
<rscale>  0 0.72686705E+03</rscale>
<asrwt>0</asrwt>
<pdfrwt beam="1">  1        2 0.46880202E+00 0.72686705E+03</pdfrwt>
<pdfrwt beam="2">  1       -2 0.57499546E-02 0.72686705E+03</pdfrwt>
<totfact> 0.28606037E+02</totfact>
</mgrwt>
</event>
<event>
 4    1  0.5056513E-005  0.4435822E+03  0.7818608E-02  0.1029653E+00
         -2   -1    0    0    0  501 -0.00000000000E+00  0.00000000000E+00  0.11233432471E+03  0.11233432474E+03  0.25500000000E-02 0. -1.
          2   -1    0    0  501    0  0.00000000000E+00 -0.00000000000E+00 -0.43790080990E+03  0.43790080991E+03  0.25500000000E-02 0.  1.
    5000001    1    1    2    0    0  0.51421524882E+02 -0.51260555083E+02 -0.81267898511E+02  0.22688607065E+03  0.19900000000E+03 0.  0.
   -5000001    1    1    2    0    0 -0.51421524882E+02  0.51260555083E+02 -0.24429858668E+03  0.32334906399E+03  0.19900000000E+03 0.  0.
<mgrwt>
<rscale>  0 0.44358220E+03</rscale>
<asrwt>0</asrwt>
<pdfrwt beam="1">  1        2 0.62557258E-01 0.44358220E+03</pdfrwt>
<pdfrwt beam="2">  1       -2 0.16047761E-01 0.44358220E+03</pdfrwt>
<totfact> 0.24158683E+03</totfact>
</mgrwt>
</event>
<event>
 4    1  0.5056513E-005  0.5485178E+03  0.7818608E-02  0.1001838E+00
          2   -1    0    0  501    0  0.00000000000E+00  0.00000000000E+00  0.23783446586E+03  0.23783446588E+03  0.25500000000E-02 0.  1.
         -2   -1    0    0    0  501 -0.00000000000E+00 -0.00000000000E+00 -0.31626169261E+03  0.31626169262E+03  0.25500000000E-02 0. -1.
    5000001    1    1    2    0    0 -0.13223652534E+03 -0.10190283681E+03  0.49694222258E+02  0.26446399095E+03  0.19900000000E+03 0.  0.
   -5000001    1    1    2    0    0  0.13223652534E+03  0.10190283681E+03 -0.12812144901E+03  0.28963216755E+03  0.19900000000E+03 0.  0.
<mgrwt>
<rscale>  0 0.54851775E+03</rscale>
<asrwt>0</asrwt>
<pdfrwt beam="1">  1        2 0.33976352E-01 0.54851775E+03</pdfrwt>
<pdfrwt beam="2">  1       -2 0.45180242E-01 0.54851775E+03</pdfrwt>
<totfact> 0.72227114E+02</totfact>
</mgrwt>
</event>
<event>
 4    1  0.5056513E-005  0.4773393E+03  0.7818608E-02  0.1019869E+00
         -2   -1    0    0    0  501 -0.00000000000E+00  0.00000000000E+00  0.45561406751E+02  0.45561406822E+02  0.25500000000E-02 0. -1.
          2   -1    0    0  501    0  0.00000000000E+00 -0.00000000000E+00 -0.12502509917E+04  0.12502509917E+04  0.25500000000E-02 0.  1.
    5000001    1    1    2    0    0  0.54662010435E+02  0.50358126830E+02 -0.89771042700E+03  0.92250142931E+03  0.19900000000E+03 0.  0.
   -5000001    1    1    2    0    0 -0.54662010435E+02 -0.50358126830E+02 -0.30697915792E+03  0.37331096920E+03  0.19900000000E+03 0.  0.
<mgrwt>
<rscale>  0 0.47733927E+03</rscale>
<asrwt>0</asrwt>
<pdfrwt beam="1">  1        2 0.17860726E+00 0.47733927E+03</pdfrwt>
<pdfrwt beam="2">  1       -2 0.65087731E-02 0.47733927E+03</pdfrwt>
<totfact> 0.27506081E+03</totfact>
</mgrwt>
</event>
<event>
 4    1  0.5056513E-005  0.5788545E+03  0.7818608E-02  0.9950274E-01
          2   -1    0    0  501    0  0.00000000000E+00  0.00000000000E+00  0.27620854608E+04  0.27620854608E+04  0.25500000000E-02 0.  1.
         -2   -1    0    0    0  501 -0.00000000000E+00 -0.00000000000E+00 -0.30327853161E+02  0.30327853268E+02  0.25500000000E-02 0. -1.
    5000001    1    1    2    0    0  0.10982634683E+03 -0.17702079773E+03  0.12321100741E+04  0.12653435991E+04  0.19900000000E+03 0.  0.
   -5000001    1    1    2    0    0 -0.10982634683E+03  0.17702079773E+03  0.14996475336E+04  0.15270697150E+04  0.19900000000E+03 0.  0.
<mgrwt>
<rscale>  0 0.57885446E+03</rscale>
<asrwt>0</asrwt>
<pdfrwt beam="1">  1        2 0.39458376E+00 0.57885446E+03</pdfrwt>
<pdfrwt beam="2">  1       -2 0.43325491E-02 0.57885446E+03</pdfrwt>
<totfact> 0.86771404E+02</totfact>
</mgrwt>
</event>
<event>
 4    1  0.5056513E-005  0.4942594E+03  0.7818608E-02  0.1015288E+00
          2   -1    0    0  501    0  0.00000000000E+00  0.00000000000E+00  0.33090041427E+04  0.33090041427E+04  0.25500000000E-02 0.  1.
         -2   -1    0    0    0  501 -0.00000000000E+00 -0.00000000000E+00 -0.18456634236E+02  0.18456634412E+02  0.25500000000E-02 0. -1.
    5000001    1    1    2    0    0  0.90363279183E+02  0.60453123289E+02  0.23066767859E+04  0.23177961293E+04  0.19900000000E+03 0.  0.
   -5000001    1    1    2    0    0 -0.90363279183E+02 -0.60453123289E+02  0.98387072248E+03  0.10096646477E+04  0.19900000000E+03 0.  0.
<mgrwt>
<rscale>  0 0.49425936E+03</rscale>
<asrwt>0</asrwt>
<pdfrwt beam="1">  1        2 0.47271511E+00 0.49425936E+03</pdfrwt>
<pdfrwt beam="2">  1       -2 0.26366607E-02 0.49425936E+03</pdfrwt>
<totfact> 0.93700556E+02</totfact>
</mgrwt>
</event>
<event>
 4    1  0.5056513E-005  0.5059358E+03  0.7818608E-02  0.1012241E+00
          2   -1    0    0  501    0  0.00000000000E+00  0.00000000000E+00  0.70170507962E+03  0.70170507962E+03  0.25500000000E-02 0.  1.
         -2   -1    0    0    0  501 -0.00000000000E+00 -0.00000000000E+00 -0.91196098399E+02  0.91196098435E+02  0.25500000000E-02 0. -1.
    5000001    1    1    2    0    0 -0.58286123754E+02 -0.13153433842E+03  0.21001310744E+03  0.32311771803E+03  0.19900000000E+03 0.  0.
   -5000001    1    1    2    0    0  0.58286123754E+02  0.13153433842E+03  0.40049587377E+03  0.46978346003E+03  0.19900000000E+03 0.  0.
<mgrwt>
<rscale>  0 0.50593583E+03</rscale>
<asrwt>0</asrwt>
<pdfrwt beam="1">  1        2 0.10024358E+00 0.50593583E+03</pdfrwt>
<pdfrwt beam="2">  1       -2 0.13028014E-01 0.50593583E+03</pdfrwt>
<totfact> 0.19877795E+03</totfact>
</mgrwt>
</event>
<event>
 4    1  0.5056513E-005  0.5749443E+03  0.7818608E-02  0.9958797E-01
          2   -1    0    0  501    0  0.00000000000E+00  0.00000000000E+00  0.26884279523E+04  0.26884279523E+04  0.25500000000E-02 0.  1.
         -2   -1    0    0    0  501 -0.00000000000E+00 -0.00000000000E+00 -0.30739244338E+02  0.30739244444E+02  0.25500000000E-02 0. -1.
    5000001    1    1    2    0    0  0.69718309271E+02  0.10799700647E+03  0.20989635821E+04  0.21122909636E+04  0.19900000000E+03 0.  0.
   -5000001    1    1    2    0    0 -0.69718309271E+02 -0.10799700647E+03  0.55872512590E+03  0.60687623315E+03  0.19900000000E+03 0.  0.
<mgrwt>
<rscale>  0 0.57494432E+03</rscale>
<asrwt>0</asrwt>
<pdfrwt beam="1">  1        2 0.38406103E+00 0.57494432E+03</pdfrwt>
<pdfrwt beam="2">  1       -2 0.43913218E-02 0.57494432E+03</pdfrwt>
<totfact> 0.92921139E+02</totfact>
</mgrwt>
</event>
<event>
 4    1  0.5056513E-005  0.6107631E+03  0.7818608E-02  0.9883324E-01
          2   -1    0    0  501    0  0.00000000000E+00  0.00000000000E+00  0.16803985670E+04  0.16803985670E+04  0.25500000000E-02 0.  1.
         -2   -1    0    0    0  501 -0.00000000000E+00 -0.00000000000E+00 -0.55497482645E+02  0.55497482704E+02  0.25500000000E-02 0. -1.
    5000001    1    1    2    0    0  0.43079129351E+02  0.22645319363E+03  0.87726399451E+03  0.92861723888E+03  0.19900000000E+03 0.  0.
   -5000001    1    1    2    0    0 -0.43079129351E+02 -0.22645319363E+03  0.74763708983E+03  0.80727881081E+03  0.19900000000E+03 0.  0.
<mgrwt>
<rscale>  0 0.61076310E+03</rscale>
<asrwt>0</asrwt>
<pdfrwt beam="1">  1        2 0.24005686E+00 0.61076310E+03</pdfrwt>
<pdfrwt beam="2">  1       -2 0.79282145E-02 0.61076310E+03</pdfrwt>
<totfact> 0.11941212E+03</totfact>
</mgrwt>
</event>
<event>
 4    1  0.5056513E-005  0.4572267E+03  0.7818608E-02  0.1025589E+00
         -2   -1    0    0    0  501 -0.00000000000E+00  0.00000000000E+00  0.45277338577E+02  0.45277338649E+02  0.25500000000E-02 0. -1.
          2   -1    0    0  501    0  0.00000000000E+00 -0.00000000000E+00 -0.11543096484E+04  0.11543096484E+04  0.25500000000E-02 0.  1.
    5000001    1    1    2    0    0 -0.68469681910E+02  0.86229952698E+02 -0.61544770426E+03  0.65612542914E+03  0.19900000000E+03 0.  0.
   -5000001    1    1    2    0    0  0.68469681910E+02 -0.86229952698E+02 -0.49358460558E+03  0.54346155793E+03  0.19900000000E+03 0.  0.
<mgrwt>
<rscale>  0 0.45722672E+03</rscale>
<asrwt>0</asrwt>
<pdfrwt beam="1">  1        2 0.16490136E+00 0.45722672E+03</pdfrwt>
<pdfrwt beam="2">  1       -2 0.64681920E-02 0.45722672E+03</pdfrwt>
<totfact> 0.31398431E+03</totfact>
</mgrwt>
</event>
<event>
 4    1  0.5056513E-005  0.6565478E+03  0.7818608E-02  0.9794570E-01
          2   -1    0    0  501    0  0.00000000000E+00  0.00000000000E+00  0.92042779935E+03  0.92042779935E+03  0.25500000000E-02 0.  1.
         -2   -1    0    0    0  501 -0.00000000000E+00 -0.00000000000E+00 -0.11708007617E+03  0.11708007620E+03  0.25500000000E-02 0. -1.
    5000001    1    1    2    0    0  0.16937601704E+03  0.11262380351E+03  0.14302257168E+03  0.31847890397E+03  0.19900000000E+03 0.  0.
   -5000001    1    1    2    0    0 -0.16937601704E+03 -0.11262380351E+03  0.66032515149E+03  0.71902897157E+03  0.19900000000E+03 0.  0.
<mgrwt>
<rscale>  0 0.65654781E+03</rscale>
<asrwt>0</asrwt>
<pdfrwt beam="1">  1        2 0.13148968E+00 0.65654781E+03</pdfrwt>
<pdfrwt beam="2">  1       -2 0.16725726E-01 0.65654781E+03</pdfrwt>
<totfact> 0.92129140E+02</totfact>
</mgrwt>
</event>
<event>
 4    1  0.5056513E-005  0.1938165E+04  0.7818608E-02  0.8636089E-01
          2   -1    0    0  501    0  0.00000000000E+00  0.00000000000E+00  0.27203483955E+04  0.27203483955E+04  0.25500000000E-02 0.  1.
         -2   -1    0    0    0  501 -0.00000000000E+00 -0.00000000000E+00 -0.34522066324E+03  0.34522066325E+03  0.25500000000E-02 0. -1.
    5000001    1    1    2    0    0 -0.74509353598E+03 -0.57521243985E+03  0.13712422248E+04  0.16750940175E+04  0.19900000000E+03 0.  0.
   -5000001    1    1    2    0    0  0.74509353598E+03  0.57521243985E+03  0.10038855075E+04  0.13904750413E+04  0.19900000000E+03 0.  0.
<mgrwt>
<rscale>  0 0.19381646E+04</rscale>
<asrwt>0</asrwt>
<pdfrwt beam="1">  1        2 0.38862121E+00 0.19381646E+04</pdfrwt>
<pdfrwt beam="2">  1       -2 0.49317236E-01 0.19381646E+04</pdfrwt>
<totfact> 0.12263930E+01</totfact>
</mgrwt>
</event>
<event>
 4    1  0.5056513E-005  0.5457179E+03  0.7818608E-02  0.1002490E+00
         -2   -1    0    0    0  501 -0.00000000000E+00  0.00000000000E+00  0.36108690422E+03  0.36108690423E+03  0.25500000000E-02 0. -1.
          2   -1    0    0  501    0  0.00000000000E+00 -0.00000000000E+00 -0.20618860755E+03  0.20618860757E+03  0.25500000000E-02 0.  1.
    5000001    1    1    2    0    0  0.11352405480E+03 -0.14534363762E+03  0.10755029667E+03  0.29185707175E+03  0.19900000000E+03 0.  0.
   -5000001    1    1    2    0    0 -0.11352405480E+03  0.14534363762E+03  0.47347999992E+02  0.27541844005E+03  0.19900000000E+03 0.  0.
<mgrwt>
<rscale>  0 0.54571790E+03</rscale>
<asrwt>0</asrwt>
<pdfrwt beam="1">  1        2 0.29455515E-01 0.54571790E+03</pdfrwt>
<pdfrwt beam="2">  1       -2 0.51583844E-01 0.54571790E+03</pdfrwt>
<totfact> 0.64913276E+02</totfact>
</mgrwt>
</event>
<event>
 4    1  0.5056513E-005  0.1347281E+04  0.7818608E-02  0.8992889E-01
          2   -1    0    0  501    0  0.00000000000E+00  0.00000000000E+00  0.12719734888E+04  0.12719734888E+04  0.25500000000E-02 0.  1.
         -2   -1    0    0    0  501 -0.00000000000E+00 -0.00000000000E+00 -0.35676163425E+03  0.35676163426E+03  0.25500000000E-02 0. -1.
    5000001    1    1    2    0    0 -0.60849032370E+03 -0.20112417591E+03  0.38630168634E+03  0.77430058830E+03  0.19900000000E+03 0.  0.
   -5000001    1    1    2    0    0  0.60849032370E+03  0.20112417591E+03  0.52891016824E+03  0.85443453479E+03  0.19900000000E+03 0.  0.
<mgrwt>
<rscale>  0 0.13472807E+04</rscale>
<asrwt>0</asrwt>
<pdfrwt beam="1">  1        2 0.18171050E+00 0.13472807E+04</pdfrwt>
<pdfrwt beam="2">  1       -2 0.50965948E-01 0.13472807E+04</pdfrwt>
<totfact> 0.69225930E+01</totfact>
</mgrwt>
</event>
<event>
 4    1  0.5056513E-005  0.6186706E+03  0.7818608E-02  0.9867410E-01
          2   -1    0    0  501    0  0.00000000000E+00  0.00000000000E+00  0.37062104290E+03  0.37062104291E+03  0.25500000000E-02 0.  1.
         -2   -1    0    0    0  501 -0.00000000000E+00 -0.00000000000E+00 -0.25818370884E+03  0.25818370885E+03  0.25500000000E-02 0. -1.
    5000001    1    1    2    0    0  0.21184260059E+03 -0.10320856897E+03  0.32209285289E+02  0.31010922945E+03  0.19900000000E+03 0.  0.
   -5000001    1    1    2    0    0 -0.21184260059E+03  0.10320856897E+03  0.80228048767E+02  0.31869552231E+03  0.19900000000E+03 0.  0.
<mgrwt>
<rscale>  0 0.61867056E+03</rscale>
<asrwt>0</asrwt>
<pdfrwt beam="1">  1        2 0.52945863E-01 0.61867056E+03</pdfrwt>
<pdfrwt beam="2">  1       -2 0.36883387E-01 0.61867056E+03</pdfrwt>
<totfact> 0.65606345E+02</totfact>
</mgrwt>
</event>
<event>
 4    1  0.5056513E-005  0.5315223E+03  0.7818608E-02  0.1005864E+00
          2   -1    0    0  501    0  0.00000000000E+00  0.00000000000E+00  0.17635011078E+04  0.17635011078E+04  0.25500000000E-02 0.  1.
         -2   -1    0    0    0  501 -0.00000000000E+00 -0.00000000000E+00 -0.40050430514E+02  0.40050430595E+02  0.25500000000E-02 0. -1.
    5000001    1    1    2    0    0 -0.11687468970E+03 -0.89755794975E+02  0.53428449878E+03  0.58887750973E+03  0.19900000000E+03 0.  0.
   -5000001    1    1    2    0    0  0.11687468970E+03  0.89755794975E+02  0.11891661785E+04  0.12146740287E+04  0.19900000000E+03 0.  0.
<mgrwt>
<rscale>  0 0.53152226E+03</rscale>
<asrwt>0</asrwt>
<pdfrwt beam="1">  1        2 0.25192878E+00 0.53152226E+03</pdfrwt>
<pdfrwt beam="2">  1       -2 0.57214889E-02 0.53152226E+03</pdfrwt>
<totfact> 0.18174028E+03</totfact>
</mgrwt>
</event>
<event>
 4    1  0.5056513E-005  0.4577487E+03  0.7818608E-02  0.1025436E+00
         -2   -1    0    0    0  501 -0.00000000000E+00  0.00000000000E+00  0.16959993464E+03  0.16959993466E+03  0.25500000000E-02 0. -1.
          2   -1    0    0  501    0  0.00000000000E+00 -0.00000000000E+00 -0.30886490088E+03  0.30886490089E+03  0.25500000000E-02 0.  1.
    5000001    1    1    2    0    0 -0.10664741256E+03 -0.29788106595E+02 -0.93501555251E+02  0.24617989913E+03  0.19900000000E+03 0.  0.
   -5000001    1    1    2    0    0  0.10664741256E+03  0.29788106595E+02 -0.45763410988E+02  0.23228493642E+03  0.19900000000E+03 0.  0.
<mgrwt>
<rscale>  0 0.45774870E+03</rscale>
<asrwt>0</asrwt>
<pdfrwt beam="1">  1        2 0.44123557E-01 0.45774870E+03</pdfrwt>
<pdfrwt beam="2">  1       -2 0.24228562E-01 0.45774870E+03</pdfrwt>
<totfact> 0.17398923E+03</totfact>
</mgrwt>
</event>
<event>
 4    1  0.5056513E-005  0.9872557E+03  0.7818608E-02  0.9322634E-01
         -2   -1    0    0    0  501 -0.00000000000E+00  0.00000000000E+00  0.31972773287E+03  0.31972773288E+03  0.25500000000E-02 0. -1.
          2   -1    0    0  501    0  0.00000000000E+00 -0.00000000000E+00 -0.76211232357E+03  0.76211232358E+03  0.25500000000E-02 0.  1.
    5000001    1    1    2    0    0  0.28381550066E+03 -0.34830956792E+03 -0.27255099683E+03  0.56192155982E+03  0.19900000000E+03 0.  0.
   -5000001    1    1    2    0    0 -0.28381550066E+03  0.34830956792E+03 -0.16983359388E+03  0.51991849663E+03  0.19900000000E+03 0.  0.
<mgrwt>
<rscale>  0 0.98725568E+03</rscale>
<asrwt>0</asrwt>
<pdfrwt beam="1">  1        2 0.10887319E+00 0.98725568E+03</pdfrwt>
<pdfrwt beam="2">  1       -2 0.45675391E-01 0.98725568E+03</pdfrwt>
<totfact> 0.18355186E+02</totfact>
</mgrwt>
</event>
<event>
 4    1  0.5056513E-005  0.1721853E+04  0.7818608E-02  0.8748998E-01
          2   -1    0    0  501    0  0.00000000000E+00  0.00000000000E+00  0.10770592048E+04  0.10770592048E+04  0.25500000000E-02 0.  1.
         -2   -1    0    0    0  501 -0.00000000000E+00 -0.00000000000E+00 -0.68816508966E+03  0.68816508966E+03  0.25500000000E-02 0. -1.
    5000001    1    1    2    0    0 -0.28486524111E+03 -0.46854651582E+03  0.84357001294E+03  0.10256195249E+04  0.19900000000E+03 0.  0.
   -5000001    1    1    2    0    0  0.28486524111E+03  0.46854651582E+03 -0.45467589783E+03  0.73960476955E+03  0.19900000000E+03 0.  0.
<mgrwt>
<rscale>  0 0.17218531E+04</rscale>
<asrwt>0</asrwt>
<pdfrwt beam="1">  1        2 0.15386560E+00 0.17218531E+04</pdfrwt>
<pdfrwt beam="2">  1       -2 0.98309299E-01 0.17218531E+04</pdfrwt>
<totfact> 0.20657726E+01</totfact>
</mgrwt>
</event>
<event>
 4    1  0.5056513E-005  0.1122011E+04  0.7818608E-02  0.9184000E-01
         -2   -1    0    0    0  501 -0.00000000000E+00  0.00000000000E+00  0.41930574611E+03  0.41930574611E+03  0.25500000000E-02 0. -1.
          2   -1    0    0  501    0  0.00000000000E+00 -0.00000000000E+00 -0.75059163291E+03  0.75059163292E+03  0.25500000000E-02 0.  1.
    5000001    1    1    2    0    0 -0.37021378358E+03  0.35410573562E+03 -0.28304165386E+03  0.61819308907E+03  0.19900000000E+03 0.  0.
   -5000001    1    1    2    0    0  0.37021378358E+03 -0.35410573562E+03 -0.48244232950E+02  0.55170428997E+03  0.19900000000E+03 0.  0.
<mgrwt>
<rscale>  0 0.11220114E+04</rscale>
<asrwt>0</asrwt>
<pdfrwt beam="1">  1        2 0.10722738E+00 0.11220114E+04</pdfrwt>
<pdfrwt beam="2">  1       -2 0.59900821E-01 0.11220114E+04</pdfrwt>
<totfact> 0.10635484E+02</totfact>
</mgrwt>
</event>
<event>
 4    1  0.5056513E-005  0.1101867E+04  0.7818608E-02  0.9203374E-01
          2   -1    0    0  501    0  0.00000000000E+00  0.00000000000E+00  0.15528079501E+04  0.15528079501E+04  0.25500000000E-02 0.  1.
         -2   -1    0    0    0  501 -0.00000000000E+00 -0.00000000000E+00 -0.19547040332E+03  0.19547040333E+03  0.25500000000E-02 0. -1.
    5000001    1    1    2    0    0  0.36754859449E+03 -0.24146038953E+03  0.11000488727E+04  0.12012924753E+04  0.19900000000E+03 0.  0.
   -5000001    1    1    2    0    0 -0.36754859449E+03  0.24146038953E+03  0.25728867413E+03  0.54698587812E+03  0.19900000000E+03 0.  0.
<mgrwt>
<rscale>  0 0.11018675E+04</rscale>
<asrwt>0</asrwt>
<pdfrwt beam="1">  1        2 0.22182971E+00 0.11018675E+04</pdfrwt>
<pdfrwt beam="2">  1       -2 0.27924343E-01 0.11018675E+04</pdfrwt>
<totfact> 0.15912530E+02</totfact>
</mgrwt>
</event>
<event>
 4    1  0.5056513E-005  0.5919853E+03  0.7818608E-02  0.9922175E-01
          2   -1    0    0  501    0  0.00000000000E+00  0.00000000000E+00  0.56535654487E+02  0.56535654545E+02  0.25500000000E-02 0.  1.
         -2   -1    0    0    0  501 -0.00000000000E+00 -0.00000000000E+00 -0.15496709122E+04  0.15496709122E+04  0.25500000000E-02 0. -1.
    5000001    1    1    2    0    0 -0.16832787286E+03  0.12159802007E+03 -0.55682777717E+03  0.62672045180E+03  0.19900000000E+03 0.  0.
   -5000001    1    1    2    0    0  0.16832787286E+03 -0.12159802007E+03 -0.93630748051E+03  0.97948611492E+03  0.19900000000E+03 0.  0.
<mgrwt>
<rscale>  0 0.59198534E+03</rscale>
<asrwt>0</asrwt>
<pdfrwt beam="1">  1        2 0.80765230E-02 0.59198534E+03</pdfrwt>
<pdfrwt beam="2">  1       -2 0.22138153E+00 0.59198534E+03</pdfrwt>
<totfact> 0.87428399E+01</totfact>
</mgrwt>
</event>
<event>
 4    1  0.5056513E-005  0.7270092E+03  0.7818608E-02  0.9672126E-01
          2   -1    0    0  501    0  0.00000000000E+00  0.00000000000E+00  0.13410392944E+04  0.13410392944E+04  0.25500000000E-02 0.  1.
         -2   -1    0    0    0  501 -0.00000000000E+00 -0.00000000000E+00 -0.98532219167E+02  0.98532219200E+02  0.25500000000E-02 0. -1.
    5000001    1    1    2    0    0  0.28562072905E+03  0.78478060330E+02  0.48411522615E+03  0.60142045111E+03  0.19900000000E+03 0.  0.
   -5000001    1    1    2    0    0 -0.28562072905E+03 -0.78478060330E+02  0.75839184909E+03  0.83815106251E+03  0.19900000000E+03 0.  0.
<mgrwt>
<rscale>  0 0.72700915E+03</rscale>
<asrwt>0</asrwt>
<pdfrwt beam="1">  1        2 0.19157704E+00 0.72700915E+03</pdfrwt>
<pdfrwt beam="2">  1       -2 0.14076031E-01 0.72700915E+03</pdfrwt>
<totfact> 0.70046107E+02</totfact>
</mgrwt>
</event>
<event>
 4    1  0.5056513E-005  0.6170290E+03  0.7818608E-02  0.9870693E-01
          2   -1    0    0  501    0  0.00000000000E+00  0.00000000000E+00  0.15104610860E+04  0.15104610860E+04  0.25500000000E-02 0.  1.
         -2   -1    0    0    0  501 -0.00000000000E+00 -0.00000000000E+00 -0.63014673113E+02  0.63014673164E+02  0.25500000000E-02 0. -1.
    5000001    1    1    2    0    0  0.10936547455E+03 -0.18263084878E+03  0.98209310377E+03  0.10244133435E+04  0.19900000000E+03 0.  0.
   -5000001    1    1    2    0    0 -0.10936547455E+03  0.18263084878E+03  0.46535330915E+03  0.54906241566E+03  0.19900000000E+03 0.  0.
<mgrwt>
<rscale>  0 0.61702905E+03</rscale>
<asrwt>0</asrwt>
<pdfrwt beam="1">  1        2 0.21578015E+00 0.61702905E+03</pdfrwt>
<pdfrwt beam="2">  1       -2 0.90020963E-02 0.61702905E+03</pdfrwt>
<totfact> 0.11915808E+03</totfact>
</mgrwt>
</event>
<event>
 4    1  0.5056513E-005  0.8854554E+03  0.7818608E-02  0.9443948E-01
         -2   -1    0    0    0  501 -0.00000000000E+00  0.00000000000E+00  0.44091217983E+03  0.44091217984E+03  0.25500000000E-02 0. -1.
          2   -1    0    0  501    0  0.00000000000E+00 -0.00000000000E+00 -0.44455069200E+03  0.44455069201E+03  0.25500000000E-02 0.  1.
    5000001    1    1    2    0    0 -0.24335209728E+03  0.10826838574E+03 -0.29416489257E+03  0.44393273209E+03  0.19900000000E+03 0.  0.
   -5000001    1    1    2    0    0  0.24335209728E+03 -0.10826838574E+03  0.29052638040E+03  0.44153013975E+03  0.19900000000E+03 0.  0.
<mgrwt>
<rscale>  0 0.88545540E+03</rscale>
<asrwt>0</asrwt>
<pdfrwt beam="1">  1        2 0.63507242E-01 0.88545540E+03</pdfrwt>
<pdfrwt beam="2">  1       -2 0.62987454E-01 0.88545540E+03</pdfrwt>
<totfact> 0.18008360E+02</totfact>
</mgrwt>
</event>
<event>
 4    1  0.5056513E-005  0.7726768E+03  0.7818608E-02  0.9600431E-01
         -2   -1    0    0    0  501 -0.00000000000E+00  0.00000000000E+00  0.21160140540E+03  0.21160140541E+03  0.25500000000E-02 0. -1.
          2   -1    0    0  501    0  0.00000000000E+00 -0.00000000000E+00 -0.70537033211E+03  0.70537033212E+03  0.25500000000E-02 0.  1.
    5000001    1    1    2    0    0  0.19156235564E+03  0.23610796556E+03 -0.91184154132E+02  0.37464470831E+03  0.19900000000E+03 0.  0.
   -5000001    1    1    2    0    0 -0.19156235564E+03 -0.23610796556E+03 -0.40258477258E+03  0.54232702922E+03  0.19900000000E+03 0.  0.
<mgrwt>
<rscale>  0 0.77267679E+03</rscale>
<asrwt>0</asrwt>
<pdfrwt beam="1">  1        2 0.10076719E+00 0.77267679E+03</pdfrwt>
<pdfrwt beam="2">  1       -2 0.30228773E-01 0.77267679E+03</pdfrwt>
<totfact> 0.45218349E+02</totfact>
</mgrwt>
</event>
<event>
 4    1  0.5056513E-005  0.7931427E+03  0.7818608E-02  0.9569996E-01
          2   -1    0    0  501    0  0.00000000000E+00  0.00000000000E+00  0.12136251424E+04  0.12136251424E+04  0.25500000000E-02 0.  1.
         -2   -1    0    0    0  501 -0.00000000000E+00 -0.00000000000E+00 -0.12958600756E+03  0.12958600759E+03  0.25500000000E-02 0. -1.
    5000001    1    1    2    0    0 -0.30324432030E+03  0.15741318724E+03  0.49032367046E+03  0.62988437917E+03  0.19900000000E+03 0.  0.
   -5000001    1    1    2    0    0  0.30324432030E+03 -0.15741318724E+03  0.59371546434E+03  0.71332677078E+03  0.19900000000E+03 0.  0.
<mgrwt>
<rscale>  0 0.79314270E+03</rscale>
<asrwt>0</asrwt>
<pdfrwt beam="1">  1        2 0.17337501E+00 0.79314270E+03</pdfrwt>
<pdfrwt beam="2">  1       -2 0.18512287E-01 0.79314270E+03</pdfrwt>
<totfact> 0.51478622E+02</totfact>
</mgrwt>
</event>
<event>
 4    1  0.5056513E-005  0.4398485E+03  0.7818608E-02  0.1030793E+00
          2   -1    0    0  501    0  0.00000000000E+00  0.00000000000E+00  0.50154323959E+03  0.50154323960E+03  0.25500000000E-02 0.  1.
         -2   -1    0    0    0  501 -0.00000000000E+00 -0.00000000000E+00 -0.96435715714E+02  0.96435715748E+02  0.25500000000E-02 0. -1.
    5000001    1    1    2    0    0  0.80825171092E+02 -0.46617447895E+02  0.21306574174E+03  0.30611093583E+03  0.19900000000E+03 0.  0.
   -5000001    1    1    2    0    0 -0.80825171092E+02  0.46617447895E+02  0.19204178213E+03  0.29186801951E+03  0.19900000000E+03 0.  0.
<mgrwt>
<rscale>  0 0.43984853E+03</rscale>
<asrwt>0</asrwt>
<pdfrwt beam="1">  1        2 0.71649035E-01 0.43984853E+03</pdfrwt>
<pdfrwt beam="2">  1       -2 0.13776531E-01 0.43984853E+03</pdfrwt>
<totfact> 0.26786277E+03</totfact>
</mgrwt>
</event>
<event>
 4    1  0.5056513E-005  0.7698344E+03  0.7818608E-02  0.9604737E-01
         -2   -1    0    0    0  501 -0.00000000000E+00  0.00000000000E+00  0.19416437567E+03  0.19416437568E+03  0.25500000000E-02 0. -1.
          2   -1    0    0  501    0  0.00000000000E+00 -0.00000000000E+00 -0.76307116768E+03  0.76307116769E+03  0.25500000000E-02 0.  1.
    5000001    1    1    2    0    0  0.29949111334E+03 -0.13677417337E+03 -0.26881702095E+03  0.46932471938E+03  0.19900000000E+03 0.  0.
   -5000001    1    1    2    0    0 -0.29949111334E+03  0.13677417337E+03 -0.30008977107E+03  0.48791082399E+03  0.19900000000E+03 0.  0.
<mgrwt>
<rscale>  0 0.76983436E+03</rscale>
<asrwt>0</asrwt>
<pdfrwt beam="1">  1        2 0.10901017E+00 0.76983436E+03</pdfrwt>
<pdfrwt beam="2">  1       -2 0.27737768E-01 0.76983436E+03</pdfrwt>
<totfact> 0.48032243E+02</totfact>
</mgrwt>
</event>
<event>
 4    1  0.5056513E-005  0.1156362E+04  0.7818608E-02  0.9151934E-01
          2   -1    0    0  501    0  0.00000000000E+00  0.00000000000E+00  0.14708506953E+04  0.14708506953E+04  0.25500000000E-02 0.  1.
         -2   -1    0    0    0  501 -0.00000000000E+00 -0.00000000000E+00 -0.22727904823E+03  0.22727904824E+03  0.25500000000E-02 0. -1.
    5000001    1    1    2    0    0 -0.18853522602E+02 -0.54244043952E+03  0.60743791818E+03  0.83855763676E+03  0.19900000000E+03 0.  0.
   -5000001    1    1    2    0    0  0.18853522602E+02  0.54244043952E+03  0.63613372892E+03  0.85957210681E+03  0.19900000000E+03 0.  0.
<mgrwt>
<rscale>  0 0.11563625E+04</rscale>
<asrwt>0</asrwt>
<pdfrwt beam="1">  1        2 0.21012153E+00 0.11563625E+04</pdfrwt>
<pdfrwt beam="2">  1       -2 0.32468435E-01 0.11563625E+04</pdfrwt>
<totfact> 0.13233448E+02</totfact>
</mgrwt>
</event>
<event>
 4    1  0.5056513E-005  0.6398065E+03  0.7818608E-02  0.9826097E-01
          2   -1    0    0  501    0  0.00000000000E+00  0.00000000000E+00  0.25585076844E+04  0.25585076844E+04  0.25500000000E-02 0.  1.
         -2   -1    0    0    0  501 -0.00000000000E+00 -0.00000000000E+00 -0.39999131361E+02  0.39999131442E+02  0.25500000000E-02 0. -1.
    5000001    1    1    2    0    0 -0.74962910904E+02  0.23196985799E+03  0.10256752649E+04  0.10728654166E+04  0.19900000000E+03 0.  0.
   -5000001    1    1    2    0    0  0.74962910904E+02 -0.23196985799E+03  0.14928332881E+04  0.15256413993E+04  0.19900000000E+03 0.  0.
<mgrwt>
<rscale>  0 0.63980649E+03</rscale>
<asrwt>0</asrwt>
<pdfrwt beam="1">  1        2 0.36550117E+00 0.63980649E+03</pdfrwt>
<pdfrwt beam="2">  1       -2 0.57141604E-02 0.63980649E+03</pdfrwt>
<totfact> 0.71755722E+02</totfact>
</mgrwt>
</event>
<event>
 4    1  0.5056513E-005  0.1032840E+04  0.7818608E-02  0.9273242E-01
          2   -1    0    0  501    0  0.00000000000E+00  0.00000000000E+00  0.14672378726E+04  0.14672378726E+04  0.25500000000E-02 0.  1.
         -2   -1    0    0    0  501 -0.00000000000E+00 -0.00000000000E+00 -0.18176317953E+03  0.18176317955E+03  0.25500000000E-02 0. -1.
    5000001    1    1    2    0    0  0.27205502571E+03  0.39044935832E+03  0.60284923383E+03  0.79340584643E+03  0.19900000000E+03 0.  0.
   -5000001    1    1    2    0    0 -0.27205502571E+03 -0.39044935832E+03  0.68262545920E+03  0.85559520567E+03  0.19900000000E+03 0.  0.
<mgrwt>
<rscale>  0 0.10328404E+04</rscale>
<asrwt>0</asrwt>
<pdfrwt beam="1">  1        2 0.20960541E+00 0.10328404E+04</pdfrwt>
<pdfrwt beam="2">  1       -2 0.25966168E-01 0.10328404E+04</pdfrwt>
<totfact> 0.20262382E+02</totfact>
</mgrwt>
</event>
<event>
 4    1  0.5056513E-005  0.5295314E+03  0.7818608E-02  0.1006346E+00
         -2   -1    0    0    0  501 -0.00000000000E+00  0.00000000000E+00  0.66773002334E+02  0.66773002383E+02  0.25500000000E-02 0. -1.
          2   -1    0    0  501    0  0.00000000000E+00 -0.00000000000E+00 -0.10498387626E+04  0.10498387626E+04  0.25500000000E-02 0.  1.
    5000001    1    1    2    0    0  0.77990584335E+02  0.13485958315E+03 -0.32509081005E+03  0.41177017035E+03  0.19900000000E+03 0.  0.
   -5000001    1    1    2    0    0 -0.77990584335E+02 -0.13485958315E+03 -0.65797495018E+03  0.70484159460E+03  0.19900000000E+03 0.  0.
<mgrwt>
<rscale>  0 0.52953144E+03</rscale>
<asrwt>0</asrwt>
<pdfrwt beam="1">  1        2 0.14997696E+00 0.52953144E+03</pdfrwt>
<pdfrwt beam="2">  1       -2 0.95390010E-02 0.52953144E+03</pdfrwt>
<totfact> 0.19482124E+03</totfact>
</mgrwt>
</event>
<event>
 4    1  0.5056513E-005  0.5542338E+03  0.7818608E-02  0.1000519E+00
          2   -1    0    0  501    0  0.00000000000E+00  0.00000000000E+00  0.12543709544E+03  0.12543709546E+03  0.25500000000E-02 0.  1.
         -2   -1    0    0    0  501 -0.00000000000E+00 -0.00000000000E+00 -0.61220939417E+03  0.61220939417E+03  0.25500000000E-02 0. -1.
    5000001    1    1    2    0    0  0.13662319387E+03 -0.10701562742E+03 -0.35533096539E+03  0.44269553485E+03  0.19900000000E+03 0.  0.
   -5000001    1    1    2    0    0 -0.13662319387E+03  0.10701562742E+03 -0.13144133334E+03  0.29495095478E+03  0.19900000000E+03 0.  0.
<mgrwt>
<rscale>  0 0.55423377E+03</rscale>
<asrwt>0</asrwt>
<pdfrwt beam="1">  1        2 0.17919585E-01 0.55423377E+03</pdfrwt>
<pdfrwt beam="2">  1       -2 0.87458483E-01 0.55423377E+03</pdfrwt>
<totfact> 0.36917457E+02</totfact>
</mgrwt>
</event>
<event>
 4    1  0.5056513E-005  0.4851242E+03  0.7818608E-02  0.1017736E+00
         -2   -1    0    0    0  501 -0.00000000000E+00  0.00000000000E+00  0.42066327056E+02  0.42066327133E+02  0.25500000000E-02 0. -1.
          2   -1    0    0  501    0  0.00000000000E+00 -0.00000000000E+00 -0.13986574785E+04  0.13986574785E+04  0.25500000000E-02 0.  1.
    5000001    1    1    2    0    0 -0.49335606392E+02  0.12949321570E+03 -0.69532682889E+03  0.73639859720E+03  0.19900000000E+03 0.  0.
   -5000001    1    1    2    0    0  0.49335606392E+02 -0.12949321570E+03 -0.66126432259E+03  0.70432520848E+03  0.19900000000E+03 0.  0.
<mgrwt>
<rscale>  0 0.48512424E+03</rscale>
<asrwt>0</asrwt>
<pdfrwt beam="1">  1        2 0.19980818E+00 0.48512424E+03</pdfrwt>
<pdfrwt beam="2">  1       -2 0.60094762E-02 0.48512424E+03</pdfrwt>
<totfact> 0.25938842E+03</totfact>
</mgrwt>
</event>
<event>
 4    1  0.5056513E-005  0.5164015E+03  0.7818608E-02  0.1009584E+00
          2   -1    0    0  501    0  0.00000000000E+00  0.00000000000E+00  0.14939530856E+04  0.14939530856E+04  0.25500000000E-02 0.  1.
         -2   -1    0    0    0  501 -0.00000000000E+00 -0.00000000000E+00 -0.44624981980E+02  0.44624982053E+02  0.25500000000E-02 0. -1.
    5000001    1    1    2    0    0  0.11821422487E+03  0.11422532573E+03  0.70476615522E+03  0.75054537608E+03  0.19900000000E+03 0.  0.
   -5000001    1    1    2    0    0 -0.11821422487E+03 -0.11422532573E+03  0.74456194844E+03  0.78803269162E+03  0.19900000000E+03 0.  0.
<mgrwt>
<rscale>  0 0.51640151E+03</rscale>
<asrwt>0</asrwt>
<pdfrwt beam="1">  1        2 0.21342183E+00 0.51640151E+03</pdfrwt>
<pdfrwt beam="2">  1       -2 0.63749987E-02 0.51640151E+03</pdfrwt>
<totfact> 0.21077987E+03</totfact>
</mgrwt>
</event>
<event>
 4    1  0.5056513E-005  0.5433104E+03  0.7818608E-02  0.1003054E+00
         -2   -1    0    0    0  501 -0.00000000000E+00  0.00000000000E+00  0.29679764592E+03  0.29679764593E+03  0.25500000000E-02 0. -1.
          2   -1    0    0  501    0  0.00000000000E+00 -0.00000000000E+00 -0.24864264293E+03  0.24864264294E+03  0.25500000000E-02 0.  1.
    5000001    1    1    2    0    0  0.12076613431E+03 -0.13910971910E+03  0.79029185975E+01  0.27129214745E+03  0.19900000000E+03 0.  0.
   -5000001    1    1    2    0    0 -0.12076613431E+03  0.13910971910E+03  0.40252084394E+02  0.27414814142E+03  0.19900000000E+03 0.  0.
<mgrwt>
<rscale>  0 0.54331041E+03</rscale>
<asrwt>0</asrwt>
<pdfrwt beam="1">  1        2 0.35520378E-01 0.54331041E+03</pdfrwt>
<pdfrwt beam="2">  1       -2 0.42399664E-01 0.54331041E+03</pdfrwt>
<totfact> 0.77920464E+02</totfact>
</mgrwt>
</event>
<event>
 4    1  0.5056513E-005  0.1194777E+04  0.7818608E-02  0.9117441E-01
          2   -1    0    0  501    0  0.00000000000E+00  0.00000000000E+00  0.68039008005E+03  0.68039008005E+03  0.25500000000E-02 0.  1.
         -2   -1    0    0    0  501 -0.00000000000E+00 -0.00000000000E+00 -0.52451200864E+03  0.52451200864E+03  0.25500000000E-02 0. -1.
    5000001    1    1    2    0    0 -0.42350155720E+03  0.34471827599E+01  0.45244361711E+03  0.65090066729E+03  0.19900000000E+03 0.  0.
   -5000001    1    1    2    0    0  0.42350155720E+03 -0.34471827599E+01 -0.29656554570E+03  0.55400142140E+03  0.19900000000E+03 0.  0.
<mgrwt>
<rscale>  0 0.11947766E+04</rscale>
<asrwt>0</asrwt>
<pdfrwt beam="1">  1        2 0.97198583E-01 0.11947766E+04</pdfrwt>
<pdfrwt beam="2">  1       -2 0.74930287E-01 0.11947766E+04</pdfrwt>
<totfact> 0.73718394E+01</totfact>
</mgrwt>
</event>
<event>
 4    1  0.5056513E-005  0.5374247E+03  0.7818608E-02  0.1004447E+00
          2   -1    0    0  501    0  0.00000000000E+00  0.00000000000E+00  0.82095976247E+03  0.82095976248E+03  0.25500000000E-02 0.  1.
         -2   -1    0    0    0  501 -0.00000000000E+00 -0.00000000000E+00 -0.87953557043E+02  0.87953557080E+02  0.25500000000E-02 0. -1.
    5000001    1    1    2    0    0  0.11873024551E+03  0.10067190863E+03  0.52126414152E+03  0.57926592306E+03  0.19900000000E+03 0.  0.
   -5000001    1    1    2    0    0 -0.11873024551E+03 -0.10067190863E+03  0.21174206391E+03  0.32964739649E+03  0.19900000000E+03 0.  0.
<mgrwt>
<rscale>  0 0.53742472E+03</rscale>
<asrwt>0</asrwt>
<pdfrwt beam="1">  1        2 0.11727996E+00 0.53742472E+03</pdfrwt>
<pdfrwt beam="2">  1       -2 0.12564794E-01 0.53742472E+03</pdfrwt>
<totfact> 0.17343963E+03</totfact>
</mgrwt>
</event>
<event>
 4    1  0.5056513E-005  0.5560712E+03  0.7818608E-02  0.1000098E+00
          2   -1    0    0  501    0  0.00000000000E+00  0.00000000000E+00  0.30348551820E+04  0.30348551820E+04  0.25500000000E-02 0.  1.
         -2   -1    0    0    0  501 -0.00000000000E+00 -0.00000000000E+00 -0.25471986961E+02  0.25471987089E+02  0.25500000000E-02 0. -1.
    5000001    1    1    2    0    0  0.16447175819E+03 -0.96289395087E+02  0.13002326545E+04  0.13291081832E+04  0.19900000000E+03 0.  0.
   -5000001    1    1    2    0    0 -0.16447175819E+03  0.96289395087E+02  0.17091505406E+04  0.17312189859E+04  0.19900000000E+03 0.  0.
<mgrwt>
<rscale>  0 0.55607119E+03</rscale>
<asrwt>0</asrwt>
<pdfrwt beam="1">  1        2 0.43355056E+00 0.55607119E+03</pdfrwt>
<pdfrwt beam="2">  1       -2 0.36388568E-02 0.55607119E+03</pdfrwt>
<totfact> 0.81174450E+02</totfact>
</mgrwt>
</event>
<event>
 4    1  0.5056513E-005  0.7657861E+03  0.7818608E-02  0.9610905E-01
         -2   -1    0    0    0  501 -0.00000000000E+00  0.00000000000E+00  0.50881033160E+03  0.50881033161E+03  0.25500000000E-02 0. -1.
          2   -1    0    0  501    0  0.00000000000E+00 -0.00000000000E+00 -0.28813701080E+03  0.28813701081E+03  0.25500000000E-02 0.  1.
    5000001    1    1    2    0    0  0.31034000711E+03 -0.93528444146E+02  0.64409264342E+02  0.38575645582E+03  0.19900000000E+03 0.  0.
   -5000001    1    1    2    0    0 -0.31034000711E+03  0.93528444146E+02  0.15626405646E+03  0.41119088659E+03  0.19900000000E+03 0.  0.
<mgrwt>
<rscale>  0 0.76578610E+03</rscale>
<asrwt>0</asrwt>
<pdfrwt beam="1">  1        2 0.41162430E-01 0.76578610E+03</pdfrwt>
<pdfrwt beam="2">  1       -2 0.72687191E-01 0.76578610E+03</pdfrwt>
<totfact> 0.21523283E+02</totfact>
</mgrwt>
</event>
<event>
 4    1  0.5056513E-005  0.4954555E+03  0.7818608E-02  0.1014972E+00
         -2   -1    0    0    0  501 -0.00000000000E+00  0.00000000000E+00  0.13382996315E+03  0.13382996317E+03  0.25500000000E-02 0. -1.
          2   -1    0    0  501    0  0.00000000000E+00 -0.00000000000E+00 -0.45855982398E+03  0.45855982398E+03  0.25500000000E-02 0.  1.
    5000001    1    1    2    0    0 -0.16276141858E+02  0.12577397937E+03 -0.72222064677E+02  0.24678134716E+03  0.19900000000E+03 0.  0.
   -5000001    1    1    2    0    0  0.16276141858E+02 -0.12577397937E+03 -0.25250779615E+03  0.34560844000E+03  0.19900000000E+03 0.  0.
<mgrwt>
<rscale>  0 0.49545553E+03</rscale>
<asrwt>0</asrwt>
<pdfrwt beam="1">  1        2 0.65508545E-01 0.49545553E+03</pdfrwt>
<pdfrwt beam="2">  1       -2 0.19118566E-01 0.49545553E+03</pdfrwt>
<totfact> 0.17046468E+03</totfact>
</mgrwt>
</event>
<event>
 4    1  0.5056513E-005  0.5768642E+03  0.7818608E-02  0.9954603E-01
          2   -1    0    0  501    0  0.00000000000E+00  0.00000000000E+00  0.29394915570E+03  0.29394915571E+03  0.25500000000E-02 0.  1.
         -2   -1    0    0    0  501 -0.00000000000E+00 -0.00000000000E+00 -0.28301863374E+03  0.28301863375E+03  0.25500000000E-02 0. -1.
    5000001    1    1    2    0    0  0.15386545558E+03 -0.22914281058E+02 -0.13381649760E+03  0.28584523387E+03  0.19900000000E+03 0.  0.
   -5000001    1    1    2    0    0 -0.15386545558E+03  0.22914281058E+02  0.14474701957E+03  0.29112255558E+03  0.19900000000E+03 0.  0.
<mgrwt>
<rscale>  0 0.57686424E+03</rscale>
<asrwt>0</asrwt>
<pdfrwt beam="1">  1        2 0.41992737E-01 0.57686424E+03</pdfrwt>
<pdfrwt beam="2">  1       -2 0.40431233E-01 0.57686424E+03</pdfrwt>
<totfact> 0.71030500E+02</totfact>
</mgrwt>
</event>
<event>
 4    1  0.5056513E-005  0.6122685E+03  0.7818608E-02  0.9880275E-01
         -2   -1    0    0    0  501 -0.00000000000E+00  0.00000000000E+00  0.87376501129E+02  0.87376501166E+02  0.25500000000E-02 0. -1.
          2   -1    0    0  501    0  0.00000000000E+00 -0.00000000000E+00 -0.10725786563E+04  0.10725786563E+04  0.25500000000E-02 0.  1.
    5000001    1    1    2    0    0 -0.13751522807E+03 -0.13370185956E+03 -0.74200622610E+03  0.79180860362E+03  0.19900000000E+03 0.  0.
   -5000001    1    1    2    0    0  0.13751522807E+03  0.13370185956E+03 -0.24319592911E+03  0.36814655388E+03  0.19900000000E+03 0.  0.
<mgrwt>
<rscale>  0 0.61226847E+03</rscale>
<asrwt>0</asrwt>
<pdfrwt beam="1">  1        2 0.15322551E+00 0.61226847E+03</pdfrwt>
<pdfrwt beam="2">  1       -2 0.12482358E-01 0.61226847E+03</pdfrwt>
<totfact> 0.12164285E+03</totfact>
</mgrwt>
</event>
<event>
 4    1  0.5056513E-005  0.4312770E+03  0.7818608E-02  0.1033457E+00
         -2   -1    0    0    0  501 -0.00000000000E+00  0.00000000000E+00  0.73401410735E+02  0.73401410779E+02  0.25500000000E-02 0. -1.
          2   -1    0    0  501    0  0.00000000000E+00 -0.00000000000E+00 -0.63350219431E+03  0.63350219432E+03  0.25500000000E-02 0.  1.
    5000001    1    1    2    0    0 -0.70045860643E+02  0.29012391077E+01 -0.35306123362E+03  0.41130046738E+03  0.19900000000E+03 0.  0.
   -5000001    1    1    2    0    0  0.70045860643E+02 -0.29012391077E+01 -0.20703954996E+03  0.29560313772E+03  0.19900000000E+03 0.  0.
<mgrwt>
<rscale>  0 0.43127696E+03</rscale>
<asrwt>0</asrwt>
<pdfrwt beam="1">  1        2 0.90500310E-01 0.43127696E+03</pdfrwt>
<pdfrwt beam="2">  1       -2 0.10485916E-01 0.43127696E+03</pdfrwt>
<totfact> 0.31985381E+03</totfact>
</mgrwt>
</event>
<event>
 4    1  0.5056513E-005  0.6677281E+03  0.7818608E-02  0.9774071E-01
          2   -1    0    0  501    0  0.00000000000E+00  0.00000000000E+00  0.61904471749E+03  0.61904471750E+03  0.25500000000E-02 0.  1.
         -2   -1    0    0    0  501 -0.00000000000E+00 -0.00000000000E+00 -0.18006004624E+03  0.18006004626E+03  0.25500000000E-02 0. -1.
    5000001    1    1    2    0    0  0.11637457878E+03  0.14631663466E+03  0.44942012933E+03  0.52586219945E+03  0.19900000000E+03 0.  0.
   -5000001    1    1    2    0    0 -0.11637457878E+03 -0.14631663466E+03 -0.10435458072E+02  0.27324256431E+03  0.19900000000E+03 0.  0.
<mgrwt>
<rscale>  0 0.66772815E+03</rscale>
<asrwt>0</asrwt>
<pdfrwt beam="1">  1        2 0.88434960E-01 0.66772815E+03</pdfrwt>
<pdfrwt beam="2">  1       -2 0.25722864E-01 0.66772815E+03</pdfrwt>
<totfact> 0.71402464E+02</totfact>
</mgrwt>
</event>
<event>
 4    1  0.5056513E-005  0.5218266E+03  0.7818608E-02  0.1008234E+00
          2   -1    0    0  501    0  0.00000000000E+00  0.00000000000E+00  0.34540708469E+03  0.34540708470E+03  0.25500000000E-02 0.  1.
         -2   -1    0    0    0  501 -0.00000000000E+00 -0.00000000000E+00 -0.19708848939E+03  0.19708848940E+03  0.25500000000E-02 0. -1.
    5000001    1    1    2    0    0  0.12001003827E+03  0.11495367983E+03  0.10461119066E+03  0.27957335174E+03  0.19900000000E+03 0.  0.
   -5000001    1    1    2    0    0 -0.12001003827E+03 -0.11495367983E+03  0.43707404648E+02  0.26292222236E+03  0.19900000000E+03 0.  0.
<mgrwt>
<rscale>  0 0.52182664E+03</rscale>
<asrwt>0</asrwt>
<pdfrwt beam="1">  1        2 0.49343869E-01 0.52182664E+03</pdfrwt>
<pdfrwt beam="2">  1       -2 0.28155498E-01 0.52182664E+03</pdfrwt>
<totfact> 0.11751387E+03</totfact>
</mgrwt>
</event>
<event>
 4    1  0.5056513E-005  0.4793856E+03  0.7818608E-02  0.1019304E+00
         -2   -1    0    0    0  501 -0.00000000000E+00  0.00000000000E+00  0.10828742988E+03  0.10828742991E+03  0.25500000000E-02 0. -1.
          2   -1    0    0  501    0  0.00000000000E+00 -0.00000000000E+00 -0.53055679396E+03  0.53055679397E+03  0.25500000000E-02 0.  1.
    5000001    1    1    2    0    0 -0.88222124914E+02 -0.94064483751E+02 -0.25768838277E+03  0.35019362222E+03  0.19900000000E+03 0.  0.
   -5000001    1    1    2    0    0  0.88222124914E+02  0.94064483751E+02 -0.16458098131E+03  0.28865060166E+03  0.19900000000E+03 0.  0.
<mgrwt>
<rscale>  0 0.47938557E+03</rscale>
<asrwt>0</asrwt>
<pdfrwt beam="1">  1        2 0.75793826E-01 0.47938557E+03</pdfrwt>
<pdfrwt beam="2">  1       -2 0.15469633E-01 0.47938557E+03</pdfrwt>
<totfact> 0.20729441E+03</totfact>
</mgrwt>
</event>
<event>
 4    1  0.5056513E-005  0.8306810E+03  0.7818608E-02  0.9516639E-01
         -2   -1    0    0    0  501 -0.00000000000E+00  0.00000000000E+00  0.31580153540E+03  0.31580153541E+03  0.25500000000E-02 0. -1.
          2   -1    0    0  501    0  0.00000000000E+00 -0.00000000000E+00 -0.54625358386E+03  0.54625358387E+03  0.25500000000E-02 0.  1.
    5000001    1    1    2    0    0 -0.24493354720E+03  0.60242588350E+02  0.15793625142E+03  0.35800345181E+03  0.19900000000E+03 0.  0.
   -5000001    1    1    2    0    0  0.24493354720E+03 -0.60242588350E+02 -0.38838829988E+03  0.50405166747E+03  0.19900000000E+03 0.  0.
<mgrwt>
<rscale>  0 0.83068097E+03</rscale>
<asrwt>0</asrwt>
<pdfrwt beam="1">  1        2 0.78036226E-01 0.83068097E+03</pdfrwt>
<pdfrwt beam="2">  1       -2 0.45114505E-01 0.83068097E+03</pdfrwt>
<totfact> 0.28371170E+02</totfact>
</mgrwt>
</event>
<event>
 4    1  0.5056513E-005  0.7044924E+03  0.7818608E-02  0.9709580E-01
         -2   -1    0    0    0  501 -0.00000000000E+00  0.00000000000E+00  0.20008757081E+03  0.20008757082E+03  0.25500000000E-02 0. -1.
          2   -1    0    0  501    0  0.00000000000E+00 -0.00000000000E+00 -0.62011542271E+03  0.62011542272E+03  0.25500000000E-02 0.  1.
    5000001    1    1    2    0    0 -0.15087155155E+03  0.22153914155E+03 -0.79148385259E+02  0.34308495041E+03  0.19900000000E+03 0.  0.
   -5000001    1    1    2    0    0  0.15087155155E+03 -0.22153914155E+03 -0.34087946664E+03  0.47711804313E+03  0.19900000000E+03 0.  0.
<mgrwt>
<rscale>  0 0.70449241E+03</rscale>
<asrwt>0</asrwt>
<pdfrwt beam="1">  1        2 0.88587917E-01 0.70449241E+03</pdfrwt>
<pdfrwt beam="2">  1       -2 0.28583939E-01 0.70449241E+03</pdfrwt>
<totfact> 0.58744777E+02</totfact>
</mgrwt>
</event>
<event>
 4    1  0.5056513E-005  0.4656765E+03  0.7818608E-02  0.1023148E+00
          2   -1    0    0  501    0  0.00000000000E+00  0.00000000000E+00  0.38826616111E+04  0.38826616111E+04  0.25500000000E-02 0.  1.
         -2   -1    0    0    0  501 -0.00000000000E+00 -0.00000000000E+00 -0.13963014070E+02  0.13963014303E+02  0.25500000000E-02 0. -1.
    5000001    1    1    2    0    0  0.60270873539E+01  0.87102144954E+02  0.26339154918E+04  0.26428649090E+04  0.19900000000E+03 0.  0.
   -5000001    1    1    2    0    0 -0.60270873539E+01 -0.87102144954E+02  0.12347831052E+04  0.12537597163E+04  0.19900000000E+03 0.  0.
<mgrwt>
<rscale>  0 0.46567654E+03</rscale>
<asrwt>0</asrwt>
<pdfrwt beam="1">  1        2 0.55466574E+00 0.46567654E+03</pdfrwt>
<pdfrwt beam="2">  1       -2 0.19947170E-02 0.46567654E+03</pdfrwt>
<totfact> 0.64435629E+02</totfact>
</mgrwt>
</event>
<event>
 4    1  0.5056513E-005  0.6043120E+03  0.7818608E-02  0.9896500E-01
         -2   -1    0    0    0  501 -0.00000000000E+00  0.00000000000E+00  0.32120680696E+03  0.32120680697E+03  0.25500000000E-02 0. -1.
          2   -1    0    0  501    0  0.00000000000E+00 -0.00000000000E+00 -0.28423508518E+03  0.28423508519E+03  0.25500000000E-02 0.  1.
    5000001    1    1    2    0    0 -0.20174259379E+03 -0.10140207674E+03 -0.82996624949E+01  0.30108526984E+03  0.19900000000E+03 0.  0.
   -5000001    1    1    2    0    0  0.20174259379E+03  0.10140207674E+03  0.45271384273E+02  0.30435662232E+03  0.19900000000E+03 0.  0.
<mgrwt>
<rscale>  0 0.60431199E+03</rscale>
<asrwt>0</asrwt>
<pdfrwt beam="1">  1        2 0.40605012E-01 0.60431199E+03</pdfrwt>
<pdfrwt beam="2">  1       -2 0.45886687E-01 0.60431199E+03</pdfrwt>
<totfact> 0.57442574E+02</totfact>
</mgrwt>
</event>
<event>
 4    1  0.5056513E-005  0.5013892E+03  0.7818608E-02  0.1013417E+00
         -2   -1    0    0    0  501 -0.00000000000E+00  0.00000000000E+00  0.65696475756E+02  0.65696475806E+02  0.25500000000E-02 0. -1.
          2   -1    0    0  501    0  0.00000000000E+00 -0.00000000000E+00 -0.95663841202E+03  0.95663841203E+03  0.25500000000E-02 0.  1.
    5000001    1    1    2    0    0  0.28967983621E+02 -0.27028810168E+02 -0.74567640144E+03  0.77278974911E+03  0.19900000000E+03 0.  0.
   -5000001    1    1    2    0    0 -0.28967983621E+02  0.27028810168E+02 -0.14526553482E+03  0.24954513873E+03  0.19900000000E+03 0.  0.
<mgrwt>
<rscale>  0 0.50138916E+03</rscale>
<asrwt>0</asrwt>
<pdfrwt beam="1">  1        2 0.13666262E+00 0.50138916E+03</pdfrwt>
<pdfrwt beam="2">  1       -2 0.93852114E-02 0.50138916E+03</pdfrwt>
<totfact> 0.22775883E+03</totfact>
</mgrwt>
</event>
<event>
 4    1  0.5056513E-005  0.5876287E+03  0.7818608E-02  0.9931410E-01
          2   -1    0    0  501    0  0.00000000000E+00  0.00000000000E+00  0.18733720260E+04  0.18733720260E+04  0.25500000000E-02 0.  1.
         -2   -1    0    0    0  501 -0.00000000000E+00 -0.00000000000E+00 -0.46081013753E+02  0.46081013823E+02  0.25500000000E-02 0. -1.
    5000001    1    1    2    0    0 -0.12513204895E+03 -0.17577616873E+03  0.95630861691E+03  0.10003411728E+04  0.19900000000E+03 0.  0.
   -5000001    1    1    2    0    0  0.12513204895E+03  0.17577616873E+03  0.87098239534E+03  0.91911186706E+03  0.19900000000E+03 0.  0.
<mgrwt>
<rscale>  0 0.58762873E+03</rscale>
<asrwt>0</asrwt>
<pdfrwt beam="1">  1        2 0.26762450E+00 0.58762873E+03</pdfrwt>
<pdfrwt beam="2">  1       -2 0.65830039E-02 0.58762873E+03</pdfrwt>
<totfact> 0.12815509E+03</totfact>
</mgrwt>
</event>
<event>
 4    1  0.5056513E-005  0.6442868E+03  0.7818608E-02  0.9817559E-01
         -2   -1    0    0    0  501 -0.00000000000E+00  0.00000000000E+00  0.81907648699E+02  0.81907648739E+02  0.25500000000E-02 0. -1.
          2   -1    0    0  501    0  0.00000000000E+00 -0.00000000000E+00 -0.12669925305E+04  0.12669925305E+04  0.25500000000E-02 0.  1.
    5000001    1    1    2    0    0 -0.19102258414E+03  0.51399450080E+02 -0.92386506290E+03  0.96553569875E+03  0.19900000000E+03 0.  0.
   -5000001    1    1    2    0    0  0.19102258414E+03 -0.51399450080E+02 -0.26121981892E+03  0.38336448051E+03  0.19900000000E+03 0.  0.
<mgrwt>
<rscale>  0 0.64428683E+03</rscale>
<asrwt>0</asrwt>
<pdfrwt beam="1">  1        2 0.18099892E+00 0.64428683E+03</pdfrwt>
<pdfrwt beam="2">  1       -2 0.11701093E-01 0.64428683E+03</pdfrwt>
<totfact> 0.10483864E+03</totfact>
</mgrwt>
</event>
<event>
 4    1  0.5056513E-005  0.7974820E+03  0.7818608E-02  0.9563669E-01
          2   -1    0    0  501    0  0.00000000000E+00  0.00000000000E+00  0.50009674369E+03  0.50009674369E+03  0.25500000000E-02 0.  1.
         -2   -1    0    0    0  501 -0.00000000000E+00 -0.00000000000E+00 -0.31792727246E+03  0.31792727247E+03  0.25500000000E-02 0. -1.
    5000001    1    1    2    0    0 -0.13463296426E+03  0.21723326730E+03 -0.14745004607E+03  0.35589161774E+03  0.19900000000E+03 0.  0.
   -5000001    1    1    2    0    0  0.13463296426E+03 -0.21723326730E+03  0.32961951730E+03  0.46213239842E+03  0.19900000000E+03 0.  0.
<mgrwt>
<rscale>  0 0.79748202E+03</rscale>
<asrwt>0</asrwt>
<pdfrwt beam="1">  1        2 0.71442392E-01 0.79748202E+03</pdfrwt>
<pdfrwt beam="2">  1       -2 0.45418182E-01 0.79748202E+03</pdfrwt>
<totfact> 0.31037270E+02</totfact>
</mgrwt>
</event>
<event>
 4    1  0.5056513E-005  0.8360418E+03  0.7818608E-02  0.9509265E-01
          2   -1    0    0  501    0  0.00000000000E+00  0.00000000000E+00  0.13145759816E+04  0.13145759816E+04  0.25500000000E-02 0.  1.
         -2   -1    0    0    0  501 -0.00000000000E+00 -0.00000000000E+00 -0.13292610236E+03  0.13292610238E+03  0.25500000000E-02 0. -1.
    5000001    1    1    2    0    0 -0.30879015659E+03 -0.55697146320E+02  0.92244966040E+03  0.99446865656E+03  0.19900000000E+03 0.  0.
   -5000001    1    1    2    0    0  0.30879015659E+03  0.55697146320E+02  0.25920021886E+03  0.45303342743E+03  0.19900000000E+03 0.  0.
<mgrwt>
<rscale>  0 0.83604177E+03</rscale>
<asrwt>0</asrwt>
<pdfrwt beam="1">  1        2 0.18779657E+00 0.83604177E+03</pdfrwt>
<pdfrwt beam="2">  1       -2 0.18989443E-01 0.83604177E+03</pdfrwt>
<totfact> 0.43203815E+02</totfact>
</mgrwt>
</event>
<event>
 4    1  0.5056513E-005  0.5270021E+03  0.7818608E-02  0.1006962E+00
          2   -1    0    0  501    0  0.00000000000E+00  0.00000000000E+00  0.17659514264E+03  0.17659514265E+03  0.25500000000E-02 0.  1.
         -2   -1    0    0    0  501 -0.00000000000E+00 -0.00000000000E+00 -0.39317503724E+03  0.39317503724E+03  0.25500000000E-02 0. -1.
    5000001    1    1    2    0    0 -0.16252775207E+03 -0.58376917245E+02 -0.10510703276E+03  0.28367520688E+03  0.19900000000E+03 0.  0.
   -5000001    1    1    2    0    0  0.16252775207E+03  0.58376917245E+02 -0.11147286184E+03  0.28609497302E+03  0.19900000000E+03 0.  0.
<mgrwt>
<rscale>  0 0.52700209E+03</rscale>
<asrwt>0</asrwt>
<pdfrwt beam="1">  1        2 0.25227878E-01 0.52700209E+03</pdfrwt>
<pdfrwt beam="2">  1       -2 0.56167862E-01 0.52700209E+03</pdfrwt>
<totfact> 0.64948412E+02</totfact>
</mgrwt>
</event>
<event>
 4    1  0.5056513E-005  0.4517736E+03  0.7818608E-02  0.1027194E+00
          2   -1    0    0  501    0  0.00000000000E+00  0.00000000000E+00  0.77374918603E+03  0.77374918604E+03  0.25500000000E-02 0.  1.
         -2   -1    0    0    0  501 -0.00000000000E+00 -0.00000000000E+00 -0.65944947959E+02  0.65944948008E+02  0.25500000000E-02 0. -1.
    5000001    1    1    2    0    0 -0.22268219304E+02  0.10281847269E+03  0.38898790999E+03  0.44942196880E+03  0.19900000000E+03 0.  0.
   -5000001    1    1    2    0    0  0.22268219304E+02 -0.10281847269E+03  0.31881632808E+03  0.39027216525E+03  0.19900000000E+03 0.  0.
<mgrwt>
<rscale>  0 0.45177362E+03</rscale>
<asrwt>0</asrwt>
<pdfrwt beam="1">  1        2 0.11053559E+00 0.45177362E+03</pdfrwt>
<pdfrwt beam="2">  1       -2 0.94207076E-02 0.45177362E+03</pdfrwt>
<totfact> 0.29839333E+03</totfact>
</mgrwt>
</event>
<event>
 4    1  0.5056513E-005  0.7448418E+03  0.7818608E-02  0.9643478E-01
          2   -1    0    0  501    0  0.00000000000E+00  0.00000000000E+00  0.71710520245E+03  0.71710520246E+03  0.25500000000E-02 0.  1.
         -2   -1    0    0    0  501 -0.00000000000E+00 -0.00000000000E+00 -0.19341281477E+03  0.19341281479E+03  0.25500000000E-02 0. -1.
    5000001    1    1    2    0    0  0.23652619467E+03  0.20166232225E+03  0.32277189314E+03  0.49030095654E+03  0.19900000000E+03 0.  0.
   -5000001    1    1    2    0    0 -0.23652619467E+03 -0.20166232225E+03  0.20092049454E+03  0.42021706070E+03  0.19900000000E+03 0.  0.
<mgrwt>
<rscale>  0 0.74484182E+03</rscale>
<asrwt>0</asrwt>
<pdfrwt beam="1">  1        2 0.10244360E+00 0.74484182E+03</pdfrwt>
<pdfrwt beam="2">  1       -2 0.27630402E-01 0.74484182E+03</pdfrwt>
<totfact> 0.52336541E+02</totfact>
</mgrwt>
</event>
<event>
 4    1  0.5056513E-005  0.7759137E+03  0.7818608E-02  0.9595551E-01
         -2   -1    0    0    0  501 -0.00000000000E+00  0.00000000000E+00  0.37255242301E+02  0.37255242389E+02  0.25500000000E-02 0. -1.
          2   -1    0    0  501    0  0.00000000000E+00 -0.00000000000E+00 -0.40399818287E+04  0.40399818287E+04  0.25500000000E-02 0.  1.
    5000001    1    1    2    0    0  0.27208245497E+03  0.18271606163E+03 -0.16906885016E+04  0.17336212479E+04  0.19900000000E+03 0.  0.
   -5000001    1    1    2    0    0 -0.27208245497E+03 -0.18271606163E+03 -0.23120380847E+04  0.23436158232E+04  0.19900000000E+03 0.  0.
<mgrwt>
<rscale>  0 0.77591366E+03</rscale>
<asrwt>0</asrwt>
<pdfrwt beam="1">  1        2 0.57713998E+00 0.77591366E+03</pdfrwt>
<pdfrwt beam="2">  1       -2 0.53221801E-02 0.77591366E+03</pdfrwt>
<totfact> 0.10859671E+02</totfact>
</mgrwt>
</event>
<event>
 4    1  0.5056513E-005  0.5529116E+03  0.7818608E-02  0.1000822E+00
         -2   -1    0    0    0  501 -0.00000000000E+00  0.00000000000E+00  0.42851001556E+03  0.42851001557E+03  0.25500000000E-02 0. -1.
          2   -1    0    0  501    0  0.00000000000E+00 -0.00000000000E+00 -0.17835712136E+03  0.17835712138E+03  0.25500000000E-02 0.  1.
    5000001    1    1    2    0    0 -0.92028314740E+02  0.11427631828E+02 -0.59327561659E+02  0.22742154923E+03  0.19900000000E+03 0.  0.
   -5000001    1    1    2    0    0  0.92028314740E+02 -0.11427631828E+02  0.30948045586E+03  0.37944558772E+03  0.19900000000E+03 0.  0.
<mgrwt>
<rscale>  0 0.55291161E+03</rscale>
<asrwt>0</asrwt>
<pdfrwt beam="1">  1        2 0.25479589E-01 0.55291161E+03</pdfrwt>
<pdfrwt beam="2">  1       -2 0.61215715E-01 0.55291161E+03</pdfrwt>
<totfact> 0.53639443E+02</totfact>
</mgrwt>
</event>
<event>
 4    1  0.5056513E-005  0.5112882E+03  0.7818608E-02  0.1010874E+00
          2   -1    0    0  501    0  0.00000000000E+00  0.00000000000E+00  0.18180851149E+03  0.18180851151E+03  0.25500000000E-02 0.  1.
         -2   -1    0    0    0  501 -0.00000000000E+00 -0.00000000000E+00 -0.35946556299E+03  0.35946556300E+03  0.25500000000E-02 0. -1.
    5000001    1    1    2    0    0  0.12048632156E+02 -0.10421573537E+03 -0.21738694402E+03  0.31283249906E+03  0.19900000000E+03 0.  0.
   -5000001    1    1    2    0    0 -0.12048632156E+02  0.10421573537E+03  0.39729892515E+02  0.22844157545E+03  0.19900000000E+03 0.  0.
<mgrwt>
<rscale>  0 0.51128817E+03</rscale>
<asrwt>0</asrwt>
<pdfrwt beam="1">  1        2 0.25972644E-01 0.51128817E+03</pdfrwt>
<pdfrwt beam="2">  1       -2 0.51352223E-01 0.51128817E+03</pdfrwt>
<totfact> 0.75521258E+02</totfact>
</mgrwt>
</event>
<event>
 4    1  0.5056513E-005  0.4702827E+03  0.7818608E-02  0.1021840E+00
          2   -1    0    0  501    0  0.00000000000E+00  0.00000000000E+00  0.91326278780E+03  0.91326278780E+03  0.25500000000E-02 0.  1.
         -2   -1    0    0    0  501 -0.00000000000E+00 -0.00000000000E+00 -0.60542768903E+02  0.60542768957E+02  0.25500000000E-02 0. -1.
    5000001    1    1    2    0    0  0.29248936410E+02 -0.12113424111E+03  0.40004905053E+03  0.46386339312E+03  0.19900000000E+03 0.  0.
   -5000001    1    1    2    0    0 -0.29248936410E+02  0.12113424111E+03  0.45267096836E+03  0.50994216363E+03  0.19900000000E+03 0.  0.
<mgrwt>
<rscale>  0 0.47028271E+03</rscale>
<asrwt>0</asrwt>
<pdfrwt beam="1">  1        2 0.13046612E+00 0.47028271E+03</pdfrwt>
<pdfrwt beam="2">  1       -2 0.86489667E-02 0.47028271E+03</pdfrwt>
<totfact> 0.27629414E+03</totfact>
</mgrwt>
</event>
<event>
 4    1  0.5056513E-005  0.8922276E+03  0.7818608E-02  0.9435350E-01
          2   -1    0    0  501    0  0.00000000000E+00  0.00000000000E+00  0.46881547816E+03  0.46881547817E+03  0.25500000000E-02 0.  1.
         -2   -1    0    0    0  501 -0.00000000000E+00 -0.00000000000E+00 -0.42451138103E+03  0.42451138104E+03  0.25500000000E-02 0. -1.
    5000001    1    1    2    0    0 -0.30013968769E+03  0.16573493539E+02  0.28526470145E+03  0.45971236954E+03  0.19900000000E+03 0.  0.
   -5000001    1    1    2    0    0  0.30013968769E+03 -0.16573493539E+02 -0.24096060433E+03  0.43361448967E+03  0.19900000000E+03 0.  0.
<mgrwt>
<rscale>  0 0.89222756E+03</rscale>
<asrwt>0</asrwt>
<pdfrwt beam="1">  1        2 0.66973640E-01 0.89222756E+03</pdfrwt>
<pdfrwt beam="2">  1       -2 0.60644482E-01 0.89222756E+03</pdfrwt>
<totfact> 0.18372215E+02</totfact>
</mgrwt>
</event>
<event>
 4    1  0.5056513E-005  0.6171075E+03  0.7818608E-02  0.9870536E-01
          2   -1    0    0  501    0  0.00000000000E+00  0.00000000000E+00  0.11487937492E+04  0.11487937492E+04  0.25500000000E-02 0.  1.
         -2   -1    0    0    0  501 -0.00000000000E+00 -0.00000000000E+00 -0.82874236226E+02  0.82874236265E+02  0.25500000000E-02 0. -1.
    5000001    1    1    2    0    0  0.14730294414E+03  0.18393530163E+03  0.51578457429E+03  0.60097011541E+03  0.19900000000E+03 0.  0.
   -5000001    1    1    2    0    0 -0.14730294414E+03 -0.18393530163E+03  0.55013493868E+03  0.63069787005E+03  0.19900000000E+03 0.  0.
<mgrwt>
<rscale>  0 0.61710746E+03</rscale>
<asrwt>0</asrwt>
<pdfrwt beam="1">  1        2 0.16411338E+00 0.61710746E+03</pdfrwt>
<pdfrwt beam="2">  1       -2 0.11839178E-01 0.61710746E+03</pdfrwt>
<totfact> 0.11987287E+03</totfact>
</mgrwt>
</event>
<event>
 4    1  0.5056513E-005  0.5497677E+03  0.7818608E-02  0.1001548E+00
          2   -1    0    0  501    0  0.00000000000E+00  0.00000000000E+00  0.24777856095E+04  0.24777856095E+04  0.25500000000E-02 0.  1.
         -2   -1    0    0    0  501 -0.00000000000E+00 -0.00000000000E+00 -0.30495421975E+02  0.30495422082E+02  0.25500000000E-02 0. -1.
    5000001    1    1    2    0    0  0.82739363174E+02 -0.16789401332E+03  0.10848152643E+04  0.11186864438E+04  0.19900000000E+03 0.  0.
   -5000001    1    1    2    0    0 -0.82739363174E+02  0.16789401332E+03  0.13624749232E+04  0.13895945878E+04  0.19900000000E+03 0.  0.
<mgrwt>
<rscale>  0 0.54976765E+03</rscale>
<asrwt>0</asrwt>
<pdfrwt beam="1">  1        2 0.35396936E+00 0.54976765E+03</pdfrwt>
<pdfrwt beam="2">  1       -2 0.43564891E-02 0.54976765E+03</pdfrwt>
<totfact> 0.12105276E+03</totfact>
</mgrwt>
</event>
<event>
 4    1  0.5056513E-005  0.6747475E+03  0.7818608E-02  0.9761419E-01
          2   -1    0    0  501    0  0.00000000000E+00  0.00000000000E+00  0.12563148292E+04  0.12563148292E+04  0.25500000000E-02 0.  1.
         -2   -1    0    0    0  501 -0.00000000000E+00 -0.00000000000E+00 -0.90599147345E+02  0.90599147381E+02  0.25500000000E-02 0. -1.
    5000001    1    1    2    0    0 -0.95095623503E+02  0.24311947592E+03  0.42733807884E+03  0.53885906396E+03  0.19900000000E+03 0.  0.
   -5000001    1    1    2    0    0  0.95095623503E+02 -0.24311947592E+03  0.73837760298E+03  0.80805491260E+03  0.19900000000E+03 0.  0.
<mgrwt>
<rscale>  0 0.67474752E+03</rscale>
<asrwt>0</asrwt>
<pdfrwt beam="1">  1        2 0.17947354E+00 0.67474752E+03</pdfrwt>
<pdfrwt beam="2">  1       -2 0.12942736E-01 0.67474752E+03</pdfrwt>
<totfact> 0.89854207E+02</totfact>
</mgrwt>
</event>
<event>
 4    1  0.5056513E-005  0.4817402E+03  0.7818608E-02  0.1018658E+00
         -2   -1    0    0    0  501 -0.00000000000E+00  0.00000000000E+00  0.34141348333E+02  0.34141348429E+02  0.25500000000E-02 0. -1.
          2   -1    0    0  501    0  0.00000000000E+00 -0.00000000000E+00 -0.16993588195E+04  0.16993588195E+04  0.25500000000E-02 0.  1.
    5000001    1    1    2    0    0  0.66551127874E+02 -0.11260438528E+03 -0.70243760319E+03  0.74170640187E+03  0.19900000000E+03 0.  0.
   -5000001    1    1    2    0    0 -0.66551127874E+02  0.11260438528E+03 -0.96277986798E+03  0.99179376606E+03  0.19900000000E+03 0.  0.
<mgrwt>
<rscale>  0 0.48174019E+03</rscale>
<asrwt>0</asrwt>
<pdfrwt beam="1">  1        2 0.24276549E+00 0.48174019E+03</pdfrwt>
<pdfrwt beam="2">  1       -2 0.48773366E-02 0.48174019E+03</pdfrwt>
<totfact> 0.25111947E+03</totfact>
</mgrwt>
</event>
<event>
 4    1  0.5056513E-005  0.4730072E+03  0.7818608E-02  0.1021075E+00
          2   -1    0    0  501    0  0.00000000000E+00  0.00000000000E+00  0.50657117169E+03  0.50657117169E+03  0.25500000000E-02 0.  1.
         -2   -1    0    0    0  501 -0.00000000000E+00 -0.00000000000E+00 -0.11041676925E+03  0.11041676927E+03  0.25500000000E-02 0. -1.
    5000001    1    1    2    0    0 -0.10255398685E+03 -0.88930033983E+01  0.99282378983E+02  0.24505998552E+03  0.19900000000E+03 0.  0.
   -5000001    1    1    2    0    0  0.10255398685E+03  0.88930033983E+01  0.29687202346E+03  0.37192795545E+03  0.19900000000E+03 0.  0.
<mgrwt>
<rscale>  0 0.47300720E+03</rscale>
<asrwt>0</asrwt>
<pdfrwt beam="1">  1        2 0.72367309E-01 0.47300720E+03</pdfrwt>
<pdfrwt beam="2">  1       -2 0.15773824E-01 0.47300720E+03</pdfrwt>
<totfact> 0.21141506E+03</totfact>
</mgrwt>
</event>
<event>
 4    1  0.5056513E-005  0.4250370E+03  0.7818608E-02  0.1035439E+00
         -2   -1    0    0    0  501 -0.00000000000E+00  0.00000000000E+00  0.46399700005E+02  0.46399700075E+02  0.25500000000E-02 0. -1.
          2   -1    0    0  501    0  0.00000000000E+00 -0.00000000000E+00 -0.97337101988E+03  0.97337101989E+03  0.25500000000E-02 0.  1.
    5000001    1    1    2    0    0  0.54760891838E+02 -0.46268890894E+02 -0.41410781870E+03  0.46500091510E+03  0.19900000000E+03 0.  0.
   -5000001    1    1    2    0    0 -0.54760891838E+02  0.46268890894E+02 -0.51286350118E+03  0.55476980486E+03  0.19900000000E+03 0.  0.
<mgrwt>
<rscale>  0 0.42503705E+03</rscale>
<asrwt>0</asrwt>
<pdfrwt beam="1">  1        2 0.13905299E+00 0.42503705E+03</pdfrwt>
<pdfrwt beam="2">  1       -2 0.66285292E-02 0.42503705E+03</pdfrwt>
<totfact> 0.38542822E+03</totfact>
</mgrwt>
</event>
<event>
 4    1  0.5056513E-005  0.5499344E+03  0.7818608E-02  0.1001509E+00
         -2   -1    0    0    0  501 -0.00000000000E+00  0.00000000000E+00  0.88501845770E+02  0.88501845807E+02  0.25500000000E-02 0. -1.
          2   -1    0    0  501    0  0.00000000000E+00 -0.00000000000E+00 -0.85429814014E+03  0.85429814014E+03  0.25500000000E-02 0.  1.
    5000001    1    1    2    0    0 -0.12915381595E+03  0.77963907647E+02 -0.18558068077E+03  0.31112741465E+03  0.19900000000E+03 0.  0.
   -5000001    1    1    2    0    0  0.12915381595E+03 -0.77963907647E+02 -0.58021561360E+03  0.63167257130E+03  0.19900000000E+03 0.  0.
<mgrwt>
<rscale>  0 0.54993440E+03</rscale>
<asrwt>0</asrwt>
<pdfrwt beam="1">  1        2 0.12204259E+00 0.54993440E+03</pdfrwt>
<pdfrwt beam="2">  1       -2 0.12643121E-01 0.54993440E+03</pdfrwt>
<totfact> 0.16303033E+03</totfact>
</mgrwt>
</event>
<event>
 4    1  0.5056513E-005  0.4604733E+03  0.7818608E-02  0.1024644E+00
         -2   -1    0    0    0  501 -0.00000000000E+00  0.00000000000E+00  0.29044438959E+02  0.29044439071E+02  0.25500000000E-02 0. -1.
          2   -1    0    0  501    0  0.00000000000E+00 -0.00000000000E+00 -0.18250965212E+04  0.18250965212E+04  0.25500000000E-02 0.  1.
    5000001    1    1    2    0    0  0.93364535954E+02 -0.41336038097E+02 -0.67813172641E+03  0.71406529322E+03  0.19900000000E+03 0.  0.
   -5000001    1    1    2    0    0 -0.93364535954E+02  0.41336038097E+02 -0.11179203558E+04  0.11400756670E+04  0.19900000000E+03 0.  0.
<mgrwt>
<rscale>  0 0.46047325E+03</rscale>
<asrwt>0</asrwt>
<pdfrwt beam="1">  1        2 0.26072800E+00 0.46047325E+03</pdfrwt>
<pdfrwt beam="2">  1       -2 0.41492067E-02 0.46047325E+03</pdfrwt>
<totfact> 0.27848999E+03</totfact>
</mgrwt>
</event>
<event>
 4    1  0.5056513E-005  0.1010966E+04  0.7818608E-02  0.9296599E-01
         -2   -1    0    0    0  501 -0.00000000000E+00  0.00000000000E+00  0.18446294999E+03  0.18446295001E+03  0.25500000000E-02 0. -1.
          2   -1    0    0  501    0  0.00000000000E+00 -0.00000000000E+00 -0.13851721360E+04  0.13851721360E+04  0.25500000000E-02 0.  1.
    5000001    1    1    2    0    0  0.43400464076E+03  0.71715960744E+02 -0.83277319689E+03  0.96260864565E+03  0.19900000000E+03 0.  0.
   -5000001    1    1    2    0    0 -0.43400464076E+03 -0.71715960744E+02 -0.36793598916E+03  0.60702644040E+03  0.19900000000E+03 0.  0.
<mgrwt>
<rscale>  0 0.10109658E+04</rscale>
<asrwt>0</asrwt>
<pdfrwt beam="1">  1        2 0.19788173E+00 0.10109658E+04</pdfrwt>
<pdfrwt beam="2">  1       -2 0.26351851E-01 0.10109658E+04</pdfrwt>
<totfact> 0.21860538E+02</totfact>
</mgrwt>
</event>
<event>
 4    1  0.5056513E-005  0.4335792E+03  0.7818608E-02  0.1032735E+00
         -2   -1    0    0    0  501 -0.00000000000E+00  0.00000000000E+00  0.60665372951E+03  0.60665372951E+03  0.25500000000E-02 0. -1.
          2   -1    0    0  501    0  0.00000000000E+00 -0.00000000000E+00 -0.77470444585E+02  0.77470444627E+02  0.25500000000E-02 0.  1.
    5000001    1    1    2    0    0  0.73120971537E+02  0.43865479073E+02  0.24688890642E+03  0.32836867824E+03  0.19900000000E+03 0.  0.
   -5000001    1    1    2    0    0 -0.73120971537E+02 -0.43865479073E+02  0.28229437850E+03  0.35575549591E+03  0.19900000000E+03 0.  0.
<mgrwt>
<rscale>  0 0.43357922E+03</rscale>
<asrwt>0</asrwt>
<pdfrwt beam="1">  1        2 0.11067205E-01 0.43357922E+03</pdfrwt>
<pdfrwt beam="2">  1       -2 0.86664827E-01 0.43357922E+03</pdfrwt>
<totfact> 0.67738485E+02</totfact>
</mgrwt>
</event>
<event>
 4    1  0.5056513E-005  0.9518033E+03  0.7818608E-02  0.9363045E-01
         -2   -1    0    0    0  501 -0.00000000000E+00  0.00000000000E+00  0.25544076716E+03  0.25544076717E+03  0.25500000000E-02 0. -1.
          2   -1    0    0  501    0  0.00000000000E+00 -0.00000000000E+00 -0.88663360230E+03  0.88663360230E+03  0.25500000000E-02 0.  1.
    5000001    1    1    2    0    0  0.25777875606E+03  0.26756992664E+03 -0.58076697610E+03  0.71758959945E+03  0.19900000000E+03 0.  0.
   -5000001    1    1    2    0    0 -0.25777875606E+03 -0.26756992664E+03 -0.50425859043E+02  0.42448477002E+03  0.19900000000E+03 0.  0.
<mgrwt>
<rscale>  0 0.95180327E+03</rscale>
<asrwt>0</asrwt>
<pdfrwt beam="1">  1        2 0.12666194E+00 0.95180327E+03</pdfrwt>
<pdfrwt beam="2">  1       -2 0.36491539E-01 0.95180327E+03</pdfrwt>
<totfact> 0.23426798E+02</totfact>
</mgrwt>
</event>
<event>
 4    1  0.5056513E-005  0.6646781E+03  0.7818608E-02  0.9779620E-01
         -2   -1    0    0    0  501 -0.00000000000E+00  0.00000000000E+00  0.26265441401E+03  0.26265441402E+03  0.25500000000E-02 0. -1.
          2   -1    0    0  501    0  0.00000000000E+00 -0.00000000000E+00 -0.42051163421E+03  0.42051163422E+03  0.25500000000E-02 0.  1.
    5000001    1    1    2    0    0 -0.15570712475E+03  0.10267345225E+03 -0.27410979919E+03  0.38668298192E+03  0.19900000000E+03 0.  0.
   -5000001    1    1    2    0    0  0.15570712475E+03 -0.10267345225E+03  0.11625257898E+03  0.29648306632E+03  0.19900000000E+03 0.  0.
<mgrwt>
<rscale>  0 0.66467808E+03</rscale>
<asrwt>0</asrwt>
<pdfrwt beam="1">  1        2 0.60073091E-01 0.66467808E+03</pdfrwt>
<pdfrwt beam="2">  1       -2 0.37522059E-01 0.66467808E+03</pdfrwt>
<totfact> 0.55105498E+02</totfact>
</mgrwt>
</event>
<event>
 4    1  0.5056513E-005  0.6468655E+03  0.7818608E-02  0.9812679E-01
          2   -1    0    0  501    0  0.00000000000E+00  0.00000000000E+00  0.95261844702E+03  0.95261844702E+03  0.25500000000E-02 0.  1.
         -2   -1    0    0    0  501 -0.00000000000E+00 -0.00000000000E+00 -0.10981179514E+03  0.10981179517E+03  0.25500000000E-02 0. -1.
    5000001    1    1    2    0    0 -0.21287375127E+03 -0.13564566780E+03  0.48045680551E+03  0.57806117595E+03  0.19900000000E+03 0.  0.
   -5000001    1    1    2    0    0  0.21287375127E+03  0.13564566780E+03  0.36234984636E+03  0.48436906624E+03  0.19900000000E+03 0.  0.
<mgrwt>
<rscale>  0 0.64686549E+03</rscale>
<asrwt>0</asrwt>
<pdfrwt beam="1">  1        2 0.13608836E+00 0.64686549E+03</pdfrwt>
<pdfrwt beam="2">  1       -2 0.15687398E-01 0.64686549E+03</pdfrwt>
<totfact> 0.98051729E+02</totfact>
</mgrwt>
</event>
<event>
 4    1  0.5056513E-005  0.7766777E+03  0.7818608E-02  0.9594403E-01
         -2   -1    0    0    0  501 -0.00000000000E+00  0.00000000000E+00  0.21966772404E+03  0.21966772405E+03  0.25500000000E-02 0. -1.
          2   -1    0    0  501    0  0.00000000000E+00 -0.00000000000E+00 -0.68652349169E+03  0.68652349170E+03  0.25500000000E-02 0.  1.
    5000001    1    1    2    0    0  0.23017147160E+03  0.23275392013E+03 -0.15915087115E+03  0.41482923410E+03  0.19900000000E+03 0.  0.
   -5000001    1    1    2    0    0 -0.23017147160E+03 -0.23275392013E+03 -0.30770489650E+03  0.49136198165E+03  0.19900000000E+03 0.  0.
<mgrwt>
<rscale>  0 0.77667768E+03</rscale>
<asrwt>0</asrwt>
<pdfrwt beam="1">  1        2 0.98074784E-01 0.77667768E+03</pdfrwt>
<pdfrwt beam="2">  1       -2 0.31381104E-01 0.77667768E+03</pdfrwt>
<totfact> 0.43598087E+02</totfact>
</mgrwt>
</event>
<event>
 4    1  0.5056513E-005  0.5270877E+03  0.7818608E-02  0.1006941E+00
          2   -1    0    0  501    0  0.00000000000E+00  0.00000000000E+00  0.60329627310E+03  0.60329627310E+03  0.25500000000E-02 0. -1.
         -2   -1    0    0    0  501 -0.00000000000E+00 -0.00000000000E+00 -0.11512643565E+03  0.11512643568E+03  0.25500000000E-02 0.  1.
    5000001    1    1    2    0    0 -0.12817483959E+03 -0.54966545797E+02  0.10505689049E+03  0.26474149826E+03  0.19900000000E+03 0.  0.
   -5000001    1    1    2    0    0  0.12817483959E+03  0.54966545797E+02  0.38311294696E+03  0.45368121053E+03  0.19900000000E+03 0.  0.
<mgrwt>
<rscale>  0 0.52708766E+03</rscale>
<asrwt>0</asrwt>
<pdfrwt beam="1">  1        2 0.86185185E-01 0.52708766E+03</pdfrwt>
<pdfrwt beam="2">  1       -2 0.16446633E-01 0.52708766E+03</pdfrwt>
<totfact> 0.16118775E+03</totfact>
</mgrwt>
</event>
<event>
 4    1  0.5056513E-005  0.5231815E+03  0.7818608E-02  0.1007899E+00
         -2   -1    0    0    0  501 -0.00000000000E+00  0.00000000000E+00  0.26769706655E+02  0.26769706777E+02  0.25500000000E-02 0. -1.
          2   -1    0    0  501    0  0.00000000000E+00 -0.00000000000E+00 -0.25562372015E+04  0.25562372015E+04  0.25500000000E-02 0.  1.
    5000001    1    1    2    0    0 -0.10148490702E+03 -0.15402520602E+02 -0.59699388640E+03  0.63760420669E+03  0.19900000000E+03 0.  0.
   -5000001    1    1    2    0    0  0.10148490702E+03  0.15402520602E+02 -0.19324736085E+04  0.19454027016E+04  0.19900000000E+03 0.  0.
<mgrwt>
<rscale>  0 0.52318150E+03</rscale>
<asrwt>0</asrwt>
<pdfrwt beam="1">  1        2 0.36517659E+00 0.52318150E+03</pdfrwt>
<pdfrwt beam="2">  1       -2 0.38242454E-02 0.52318150E+03</pdfrwt>
<totfact> 0.13502009E+03</totfact>
</mgrwt>
</event>
<event>
 4    1  0.5056513E-005  0.4284148E+03  0.7818608E-02  0.1034362E+00
          2   -1    0    0  501    0  0.00000000000E+00  0.00000000000E+00  0.37591881878E+03  0.37591881878E+03  0.25500000000E-02 0.  1.
         -2   -1    0    0    0  501 -0.00000000000E+00 -0.00000000000E+00 -0.12206041459E+03  0.12206041461E+03  0.25500000000E-02 0. -1.
    5000001    1    1    2    0    0  0.77298721382E+02 -0.11095623761E+02  0.11109348479E+03  0.24091693082E+03  0.19900000000E+03 0.  0.
   -5000001    1    1    2    0    0 -0.77298721382E+02  0.11095623761E+02  0.14276491940E+03  0.25706230258E+03  0.19900000000E+03 0.  0.
<mgrwt>
<rscale>  0 0.42841478E+03</rscale>
<asrwt>0</asrwt>
<pdfrwt beam="1">  1        2 0.53702689E-01 0.42841478E+03</pdfrwt>
<pdfrwt beam="2">  1       -2 0.17437202E-01 0.42841478E+03</pdfrwt>
<totfact> 0.24826546E+03</totfact>
</mgrwt>
</event>
<event>
 4    1  0.5056513E-005  0.5328750E+03  0.7818608E-02  0.1005537E+00
          2   -1    0    0  501    0  0.00000000000E+00  0.00000000000E+00  0.27166883556E+03  0.27166883557E+03  0.25500000000E-02 0.  1.
         -2   -1    0    0    0  501 -0.00000000000E+00 -0.00000000000E+00 -0.26130688713E+03  0.26130688714E+03  0.25500000000E-02 0. -1.
    5000001    1    1    2    0    0 -0.95316284106E+02 -0.13078560287E+03 -0.66928908978E+02  0.26508592341E+03  0.19900000000E+03 0.  0.
   -5000001    1    1    2    0    0  0.95316284106E+02  0.13078560287E+03  0.77290857404E+02  0.26788979930E+03  0.19900000000E+03 0.  0.
<mgrwt>
<rscale>  0 0.53287499E+03</rscale>
<asrwt>0</asrwt>
<pdfrwt beam="1">  1        2 0.38809833E-01 0.53287499E+03</pdfrwt>
<pdfrwt beam="2">  1       -2 0.37329556E-01 0.53287499E+03</pdfrwt>
<totfact> 0.90398442E+02</totfact>
</mgrwt>
</event>
<event>
 4    1  0.5056513E-005  0.7456052E+03  0.7818608E-02  0.9642270E-01
         -2   -1    0    0    0  501 -0.00000000000E+00  0.00000000000E+00  0.99158156428E+02  0.99158156461E+02  0.25500000000E-02 0. -1.
          2   -1    0    0  501    0  0.00000000000E+00 -0.00000000000E+00 -0.14016172503E+04  0.14016172503E+04  0.25500000000E-02 0.  1.
    5000001    1    1    2    0    0 -0.20287984123E+03 -0.42889502374E+02 -0.11291694854E+04  0.11651714321E+04  0.19900000000E+03 0.  0.
   -5000001    1    1    2    0    0  0.20287984123E+03  0.42889502374E+02 -0.17328960840E+03  0.33560397461E+03  0.19900000000E+03 0.  0.
<mgrwt>
<rscale>  0 0.74560521E+03</rscale>
<asrwt>0</asrwt>
<pdfrwt beam="1">  1        2 0.20023102E+00 0.74560521E+03</pdfrwt>
<pdfrwt beam="2">  1       -2 0.14165452E-01 0.74560521E+03</pdfrwt>
<totfact> 0.64239198E+02</totfact>
</mgrwt>
</event>
<event>
 4    1  0.5056513E-005  0.7152357E+03  0.7818608E-02  0.9691526E-01
          2   -1    0    0  501    0  0.00000000000E+00  0.00000000000E+00  0.15041073647E+04  0.15041073647E+04  0.25500000000E-02 0.  1.
         -2   -1    0    0    0  501 -0.00000000000E+00 -0.00000000000E+00 -0.85027513196E+02  0.85027513234E+02  0.25500000000E-02 0. -1.
    5000001    1    1    2    0    0  0.22501893834E+03 -0.48996338205E+02  0.11267205130E+04  0.11671050845E+04  0.19900000000E+03 0.  0.
   -5000001    1    1    2    0    0 -0.22501893834E+03  0.48996338205E+02  0.29235933851E+03  0.42202979348E+03  0.19900000000E+03 0.  0.
<mgrwt>
<rscale>  0 0.71523565E+03</rscale>
<asrwt>0</asrwt>
<pdfrwt beam="1">  1        2 0.21487249E+00 0.71523565E+03</pdfrwt>
<pdfrwt beam="2">  1       -2 0.12146787E-01 0.71523565E+03</pdfrwt>
<totfact> 0.73360063E+02</totfact>
</mgrwt>
</event>
<event>
 4    1  0.5056513E-005  0.6167892E+03  0.7818608E-02  0.9871173E-01
          2   -1    0    0  501    0  0.00000000000E+00  0.00000000000E+00  0.14710812900E+04  0.14710812900E+04  0.25500000000E-02 0.  1.
         -2   -1    0    0    0  501 -0.00000000000E+00 -0.00000000000E+00 -0.64651234357E+02  0.64651234407E+02  0.25500000000E-02 0. -1.
    5000001    1    1    2    0    0  0.10000818068E+02  0.22786791102E+03  0.85014805178E+03  0.90242811967E+03  0.19900000000E+03 0.  0.
   -5000001    1    1    2    0    0 -0.10000818068E+02 -0.22786791102E+03  0.55628200385E+03  0.63330440472E+03  0.19900000000E+03 0.  0.
<mgrwt>
<rscale>  0 0.61678917E+03</rscale>
<asrwt>0</asrwt>
<pdfrwt beam="1">  1        2 0.21015445E+00 0.61678917E+03</pdfrwt>
<pdfrwt beam="2">  1       -2 0.92358915E-02 0.61678917E+03</pdfrwt>
<totfact> 0.11988790E+03</totfact>
</mgrwt>
</event>
<event>
 4    1  0.5056513E-005  0.4870993E+03  0.7818608E-02  0.1017202E+00
         -2   -1    0    0    0  501 -0.00000000000E+00  0.00000000000E+00  0.15769207117E+02  0.15769207323E+02  0.25500000000E-02 0. -1.
          2   -1    0    0  501    0  0.00000000000E+00 -0.00000000000E+00 -0.37615354921E+04  0.37615354921E+04  0.25500000000E-02 0.  1.
    5000001    1    1    2    0    0 -0.12409069038E+03  0.41118387279E+02 -0.22702845079E+04  0.22827356326E+04  0.19900000000E+03 0.  0.
   -5000001    1    1    2    0    0  0.12409069038E+03 -0.41118387279E+02 -0.14754817771E+04  0.14945690669E+04  0.19900000000E+03 0.  0.
<mgrwt>
<rscale>  0 0.48709930E+03</rscale>
<asrwt>0</asrwt>
<pdfrwt beam="1">  1        2 0.53736164E+00 0.48709930E+03</pdfrwt>
<pdfrwt beam="2">  1       -2 0.22527463E-02 0.48709930E+03</pdfrwt>
<totfact> 0.63892292E+02</totfact>
</mgrwt>
</event>
<event>
 4    1  0.5056513E-005  0.1052283E+04  0.7818608E-02  0.9252990E-01
          2   -1    0    0  501    0  0.00000000000E+00  0.00000000000E+00  0.66677160883E+03  0.66677160883E+03  0.25500000000E-02 0.  1.
         -2   -1    0    0    0  501 -0.00000000000E+00 -0.00000000000E+00 -0.41517183547E+03  0.41517183548E+03  0.25500000000E-02 0. -1.
    5000001    1    1    2    0    0  0.10771833824E+03  0.45262409465E+03  0.27391584590E+03  0.57541524318E+03  0.19900000000E+03 0.  0.
   -5000001    1    1    2    0    0 -0.10771833824E+03 -0.45262409465E+03 -0.22316072543E+02  0.50652820113E+03  0.19900000000E+03 0.  0.
<mgrwt>
<rscale>  0 0.10522828E+04</rscale>
<asrwt>0</asrwt>
<pdfrwt beam="1">  1        2 0.95253086E-01 0.10522828E+04</pdfrwt>
<pdfrwt beam="2">  1       -2 0.59310263E-01 0.10522828E+04</pdfrwt>
<totfact> 0.12632759E+02</totfact>
</mgrwt>
</event>
<event>
 4    1  0.5056513E-005  0.5654293E+03  0.7818608E-02  0.9979844E-01
          2   -1    0    0  501    0  0.00000000000E+00  0.00000000000E+00  0.40199855848E+03  0.40199855849E+03  0.25500000000E-02 0.  1.
         -2   -1    0    0    0  501 -0.00000000000E+00 -0.00000000000E+00 -0.19882549860E+03  0.19882549862E+03  0.25500000000E-02 0. -1.
    5000001    1    1    2    0    0 -0.79269666777E+02 -0.16381021993E+03  0.11365158894E+02  0.26990301047E+03  0.19900000000E+03 0.  0.
   -5000001    1    1    2    0    0  0.79269666777E+02  0.16381021993E+03  0.19180790098E+03  0.33092104663E+03  0.19900000000E+03 0.  0.
<mgrwt>
<rscale>  0 0.56542927E+03</rscale>
<asrwt>0</asrwt>
<pdfrwt beam="1">  1        2 0.57428365E-01 0.56542927E+03</pdfrwt>
<pdfrwt beam="2">  1       -2 0.28403643E-01 0.56542927E+03</pdfrwt>
<totfact> 0.97780735E+02</totfact>
</mgrwt>
</event>
<event>
 4    1  0.5056513E-005  0.1063335E+04  0.7818608E-02  0.9241683E-01
          2   -1    0    0  501    0  0.00000000000E+00  0.00000000000E+00  0.54708393251E+03  0.54708393251E+03  0.25500000000E-02 0.  1.
         -2   -1    0    0    0  501 -0.00000000000E+00 -0.00000000000E+00 -0.51668587525E+03  0.51668587526E+03  0.25500000000E-02 0. -1.
    5000001    1    1    2    0    0  0.31355300120E+03 -0.53016999291E+02  0.39210651839E+03  0.54265533126E+03  0.19900000000E+03 0.  0.
   -5000001    1    1    2    0    0 -0.31355300120E+03  0.53016999291E+02 -0.36170846114E+03  0.52111447651E+03  0.19900000000E+03 0.  0.
<mgrwt>
<rscale>  0 0.10633354E+04</rscale>
<asrwt>0</asrwt>
<pdfrwt beam="1">  1        2 0.78154848E-01 0.10633354E+04</pdfrwt>
<pdfrwt beam="2">  1       -2 0.73812268E-01 0.10633354E+04</pdfrwt>
<totfact> 0.99682104E+01</totfact>
</mgrwt>
</event>
<event>
 4    1  0.5056513E-005  0.1169359E+04  0.7818608E-02  0.9140107E-01
          2   -1    0    0  501    0  0.00000000000E+00  0.00000000000E+00  0.87304643376E+03  0.87304643377E+03  0.25500000000E-02 0.  1.
         -2   -1    0    0    0  501 -0.00000000000E+00 -0.00000000000E+00 -0.39156018847E+03  0.39156018848E+03  0.25500000000E-02 0. -1.
    5000001    1    1    2    0    0  0.46585337558E+03  0.16640333373E+03 -0.18669827855E+02  0.53353444077E+03  0.19900000000E+03 0.  0.
   -5000001    1    1    2    0    0 -0.46585337558E+03 -0.16640333373E+03  0.50015607315E+03  0.73107218147E+03  0.19900000000E+03 0.  0.
<mgrwt>
<rscale>  0 0.11693592E+04</rscale>
<asrwt>0</asrwt>
<pdfrwt beam="1">  1        2 0.12472092E+00 0.11693592E+04</pdfrwt>
<pdfrwt beam="2">  1       -2 0.55937169E-01 0.11693592E+04</pdfrwt>
<totfact> 0.10057633E+02</totfact>
</mgrwt>
</event>
<event>
 4    1  0.5056513E-005  0.4706435E+03  0.7818608E-02  0.1021739E+00
         -2   -1    0    0    0  501 -0.00000000000E+00  0.00000000000E+00  0.16990653727E+03  0.16990653729E+03  0.25500000000E-02 0. -1.
          2   -1    0    0  501    0  0.00000000000E+00 -0.00000000000E+00 -0.32592230761E+03  0.32592230762E+03  0.25500000000E-02 0.  1.
    5000001    1    1    2    0    0  0.38739757800E+02  0.11572594312E+03 -0.10929681646E+03  0.25775968815E+03  0.19900000000E+03 0.  0.
   -5000001    1    1    2    0    0 -0.38739757800E+02 -0.11572594312E+03 -0.46718953883E+02  0.23806915675E+03  0.19900000000E+03 0.  0.
<mgrwt>
<rscale>  0 0.47064352E+03</rscale>
<asrwt>0</asrwt>
<pdfrwt beam="1">  1        2 0.46560329E-01 0.47064352E+03</pdfrwt>
<pdfrwt beam="2">  1       -2 0.24272363E-01 0.47064352E+03</pdfrwt>
<totfact> 0.16355343E+03</totfact>
</mgrwt>
</event>
<event>
 4    1  0.5056513E-005  0.8174061E+03  0.7818608E-02  0.9535159E-01
          2   -1    0    0  501    0  0.00000000000E+00  0.00000000000E+00  0.19640315860E+04  0.19640315860E+04  0.25500000000E-02 0.  1.
         -2   -1    0    0    0  501 -0.00000000000E+00 -0.00000000000E+00 -0.85048627889E+02  0.85048627927E+02  0.25500000000E-02 0. -1.
    5000001    1    1    2    0    0 -0.14685655934E+03  0.31536053790E+03  0.73866386737E+03  0.84038349986E+03  0.19900000000E+03 0.  0.
   -5000001    1    1    2    0    0  0.14685655934E+03 -0.31536053790E+03  0.11403190908E+04  0.12086967141E+04  0.19900000000E+03 0.  0.
<mgrwt>
<rscale>  0 0.81740612E+03</rscale>
<asrwt>0</asrwt>
<pdfrwt beam="1">  1        2 0.28057595E+00 0.81740612E+03</pdfrwt>
<pdfrwt beam="2">  1       -2 0.12149803E-01 0.81740612E+03</pdfrwt>
<totfact> 0.42355997E+02</totfact>
</mgrwt>
</event>
<event>
 4    1  0.5056513E-005  0.1230166E+04  0.7818608E-02  0.9086855E-01
         -2   -1    0    0    0  501 -0.00000000000E+00  0.00000000000E+00  0.16646357838E+03  0.16646357840E+03  0.25500000000E-02 0. -1.
          2   -1    0    0  501    0  0.00000000000E+00 -0.00000000000E+00 -0.22727310572E+04  0.22727310572E+04  0.25500000000E-02 0.  1.
    5000001    1    1    2    0    0 -0.38288880359E+03 -0.34561755354E+03 -0.15876516262E+04  0.16811585337E+04  0.19900000000E+03 0.  0.
   -5000001    1    1    2    0    0  0.38288880359E+03  0.34561755354E+03 -0.51861585265E+03  0.75803610194E+03  0.19900000000E+03 0.  0.
<mgrwt>
<rscale>  0 0.12301658E+04</rscale>
<asrwt>0</asrwt>
<pdfrwt beam="1">  1        2 0.32467585E+00 0.12301658E+04</pdfrwt>
<pdfrwt beam="2">  1       -2 0.23780513E-01 0.12301658E+04</pdfrwt>
<totfact> 0.89878489E+01</totfact>
</mgrwt>
</event>
<event>
 4    1  0.5056513E-005  0.4353744E+03  0.7818608E-02  0.1032176E+00
          2   -1    0    0  501    0  0.00000000000E+00  0.00000000000E+00  0.20979827805E+04  0.20979827805E+04  0.25500000000E-02 0.  1.
         -2   -1    0    0    0  501 -0.00000000000E+00 -0.00000000000E+00 -0.22587277906E+02  0.22587278050E+02  0.25500000000E-02 0. -1.
    5000001    1    1    2    0    0  0.43824125937E+02  0.18926942707E+02  0.67621780690E+03  0.70650570100E+03  0.19900000000E+03 0.  0.
   -5000001    1    1    2    0    0 -0.43824125937E+02 -0.18926942707E+02  0.13991776957E+04  0.14140643575E+04  0.19900000000E+03 0.  0.
<mgrwt>
<rscale>  0 0.43537441E+03</rscale>
<asrwt>0</asrwt>
<pdfrwt beam="1">  1        2 0.29971192E+00 0.43537441E+03</pdfrwt>
<pdfrwt beam="2">  1       -2 0.32267530E-02 0.43537441E+03</pdfrwt>
<totfact> 0.29881422E+03</totfact>
</mgrwt>
</event>
<event>
 4    1  0.5056513E-005  0.5396217E+03  0.7818608E-02  0.1003925E+00
         -2   -1    0    0    0  501 -0.00000000000E+00  0.00000000000E+00  0.37362963987E+02  0.37362964074E+02  0.25500000000E-02 0. -1.
          2   -1    0    0  501    0  0.00000000000E+00 -0.00000000000E+00 -0.19483972935E+04  0.19483972935E+04  0.25500000000E-02 0.  1.
    5000001    1    1    2    0    0 -0.11158020894E+03  0.43297690774E+02 -0.14610473709E+04  0.14793867828E+04  0.19900000000E+03 0.  0.
   -5000001    1    1    2    0    0  0.11158020894E+03 -0.43297690774E+02 -0.44998695860E+03  0.50637347478E+03  0.19900000000E+03 0.  0.
<mgrwt>
<rscale>  0 0.53962171E+03</rscale>
<asrwt>0</asrwt>
<pdfrwt beam="1">  1        2 0.27834241E+00 0.53962171E+03</pdfrwt>
<pdfrwt beam="2">  1       -2 0.53375675E-02 0.53962171E+03</pdfrwt>
<totfact> 0.16346503E+03</totfact>
</mgrwt>
</event>
<event>
 4    1  0.5056513E-005  0.5504184E+03  0.7818608E-02  0.1001397E+00
          2   -1    0    0  501    0  0.00000000000E+00  0.00000000000E+00  0.34544823341E+03  0.34544823342E+03  0.25500000000E-02 0.  1.
         -2   -1    0    0    0  501 -0.00000000000E+00 -0.00000000000E+00 -0.21925170469E+03  0.21925170471E+03  0.25500000000E-02 0. -1.
    5000001    1    1    2    0    0  0.10864157702E+03 -0.13465072326E+03  0.14391593280E+03  0.30041072758E+03  0.19900000000E+03 0.  0.
   -5000001    1    1    2    0    0 -0.10864157702E+03  0.13465072326E+03 -0.17719404076E+02  0.26428921055E+03  0.19900000000E+03 0.  0.
<mgrwt>
<rscale>  0 0.55041844E+03</rscale>
<asrwt>0</asrwt>
<pdfrwt beam="1">  1        2 0.49349747E-01 0.55041844E+03</pdfrwt>
<pdfrwt beam="2">  1       -2 0.31321672E-01 0.55041844E+03</pdfrwt>
<totfact> 0.96568769E+02</totfact>
</mgrwt>
</event>
<event>
 4    1  0.5056513E-005  0.8388893E+03  0.7818608E-02  0.9505372E-01
          2   -1    0    0  501    0  0.00000000000E+00  0.00000000000E+00  0.69878147616E+03  0.69878147617E+03  0.25500000000E-02 0.  1.
         -2   -1    0    0    0  501 -0.00000000000E+00 -0.00000000000E+00 -0.25177227028E+03  0.25177227029E+03  0.25500000000E-02 0. -1.
    5000001    1    1    2    0    0  0.74735184929E+02  0.17400773286E+03  0.58266427205E+03  0.64417597975E+03  0.19900000000E+03 0.  0.
   -5000001    1    1    2    0    0 -0.74735184929E+02 -0.17400773286E+03 -0.13565506617E+03  0.30637776671E+03  0.19900000000E+03 0.  0.
<mgrwt>
<rscale>  0 0.83888926E+03</rscale>
<asrwt>0</asrwt>
<pdfrwt beam="1">  1        2 0.99825925E-01 0.83888926E+03</pdfrwt>
<pdfrwt beam="2">  1       -2 0.35967467E-01 0.83888926E+03</pdfrwt>
<totfact> 0.32884240E+02</totfact>
</mgrwt>
</event>
<event>
 4    1  0.5056513E-005  0.5336878E+03  0.7818608E-02  0.1005342E+00
          2   -1    0    0  501    0  0.00000000000E+00  0.00000000000E+00  0.13323067100E+04  0.13323067100E+04  0.25500000000E-02 0.  1.
         -2   -1    0    0    0  501 -0.00000000000E+00 -0.00000000000E+00 -0.53445408503E+02  0.53445408563E+02  0.25500000000E-02 0. -1.
    5000001    1    1    2    0    0  0.15248436691E+03  0.91167861086E+02  0.62268025475E+03  0.67741771508E+03  0.19900000000E+03 0.  0.
   -5000001    1    1    2    0    0 -0.15248436691E+03 -0.91167861086E+02  0.65618104673E+03  0.70833440346E+03  0.19900000000E+03 0.  0.
<mgrwt>
<rscale>  0 0.53368784E+03</rscale>
<asrwt>0</asrwt>
<pdfrwt beam="1">  1        2 0.19032951E+00 0.53368784E+03</pdfrwt>
<pdfrwt beam="2">  1       -2 0.76350592E-02 0.53368784E+03</pdfrwt>
<totfact> 0.19297676E+03</totfact>
</mgrwt>
</event>
<event>
 4    1  0.5056513E-005  0.4863974E+03  0.7818608E-02  0.1017392E+00
         -2   -1    0    0    0  501 -0.00000000000E+00  0.00000000000E+00  0.80379181399E+03  0.80379181400E+03  0.25500000000E-02 0. -1.
          2   -1    0    0  501    0  0.00000000000E+00 -0.00000000000E+00 -0.73583230807E+02  0.73583230851E+02  0.25500000000E-02 0.  1.
    5000001    1    1    2    0    0 -0.13179459325E+03 -0.46609181339E+02  0.36788006827E+03  0.44099770433E+03  0.19900000000E+03 0.  0.
   -5000001    1    1    2    0    0  0.13179459325E+03  0.46609181339E+02  0.36232851492E+03  0.43637734052E+03  0.19900000000E+03 0.  0.
<mgrwt>
<rscale>  0 0.48639736E+03</rscale>
<asrwt>0</asrwt>
<pdfrwt beam="1">  1        2 0.10511890E-01 0.48639736E+03</pdfrwt>
<pdfrwt beam="2">  1       -2 0.11482740E+00 0.48639736E+03</pdfrwt>
<totfact> 0.37344142E+02</totfact>
</mgrwt>
</event>
<event>
 4    1  0.5056513E-005  0.5008457E+03  0.7818608E-02  0.1013558E+00
         -2   -1    0    0    0  501 -0.00000000000E+00  0.00000000000E+00  0.24418727641E+03  0.24418727642E+03  0.25500000000E-02 0. -1.
          2   -1    0    0  501    0  0.00000000000E+00 -0.00000000000E+00 -0.25681766137E+03  0.25681766138E+03  0.25500000000E-02 0.  1.
    5000001    1    1    2    0    0  0.12837851647E+03 -0.18478104649E+01  0.75111838015E+02  0.24844968526E+03  0.19900000000E+03 0.  0.
   -5000001    1    1    2    0    0 -0.12837851647E+03  0.18478104649E+01 -0.87742222974E+02  0.25255525254E+03  0.19900000000E+03 0.  0.
<mgrwt>
<rscale>  0 0.50084571E+03</rscale>
<asrwt>0</asrwt>
<pdfrwt beam="1">  1        2 0.36688237E-01 0.50084571E+03</pdfrwt>
<pdfrwt beam="2">  1       -2 0.34883897E-01 0.50084571E+03</pdfrwt>
<totfact> 0.10940736E+03</totfact>
</mgrwt>
</event>
<event>
 4    1  0.5056513E-005  0.4823595E+03  0.7818608E-02  0.1018489E+00
          2   -1    0    0  501    0  0.00000000000E+00  0.00000000000E+00  0.30904632847E+04  0.30904632847E+04  0.25500000000E-02 0.  1.
         -2   -1    0    0    0  501 -0.00000000000E+00 -0.00000000000E+00 -0.18821666219E+02  0.18821666392E+02  0.25500000000E-02 0. -1.
    5000001    1    1    2    0    0  0.47334947929E+02 -0.12117695434E+03  0.12746016739E+04  0.12965858547E+04  0.19900000000E+03 0.  0.
   -5000001    1    1    2    0    0 -0.47334947929E+02  0.12117695434E+03  0.17970399446E+04  0.18126990964E+04  0.19900000000E+03 0.  0.
<mgrwt>
<rscale>  0 0.48235949E+03</rscale>
<asrwt>0</asrwt>
<pdfrwt beam="1">  1        2 0.44149461E+00 0.48235949E+03</pdfrwt>
<pdfrwt beam="2">  1       -2 0.26888103E-02 0.48235949E+03</pdfrwt>
<totfact> 0.12063001E+03</totfact>
</mgrwt>
</event>
<event>
 4    1  0.5056513E-005  0.6330847E+03  0.7818608E-02  0.9839048E-01
          2   -1    0    0  501    0  0.00000000000E+00  0.00000000000E+00  0.68019171329E+03  0.68019171330E+03  0.25500000000E-02 0.  1.
         -2   -1    0    0    0  501 -0.00000000000E+00 -0.00000000000E+00 -0.14731004431E+03  0.14731004433E+03  0.25500000000E-02 0. -1.
    5000001    1    1    2    0    0  0.31723388853E+02  0.24171906849E+03  0.22185395649E+03  0.38503851689E+03  0.19900000000E+03 0.  0.
   -5000001    1    1    2    0    0 -0.31723388853E+02 -0.24171906849E+03  0.31102771249E+03  0.44246324074E+03  0.19900000000E+03 0.  0.
<mgrwt>
<rscale>  0 0.63308474E+03</rscale>
<asrwt>0</asrwt>
<pdfrwt beam="1">  1        2 0.97170243E-01 0.63308474E+03</pdfrwt>
<pdfrwt beam="2">  1       -2 0.21044292E-01 0.63308474E+03</pdfrwt>
<totfact> 0.91213565E+02</totfact>
</mgrwt>
</event>
<event>
 4    1  0.5056513E-005  0.4893587E+03  0.7818608E-02  0.1016594E+00
          2   -1    0    0  501    0  0.00000000000E+00  0.00000000000E+00  0.73854032744E+03  0.73854032744E+03  0.25500000000E-02 0.  1.
         -2   -1    0    0    0  501 -0.00000000000E+00 -0.00000000000E+00 -0.81062579225E+02  0.81062579265E+02  0.25500000000E-02 0. -1.
    5000001    1    1    2    0    0 -0.13803322030E+03 -0.57509812972E+01  0.27118781240E+03  0.36363453258E+03  0.19900000000E+03 0.  0.
   -5000001    1    1    2    0    0  0.13803322030E+03  0.57509812972E+01  0.38628993581E+03  0.45596837412E+03  0.19900000000E+03 0.  0.
<mgrwt>
<rscale>  0 0.48935870E+03</rscale>
<asrwt>0</asrwt>
<pdfrwt beam="1">  1        2 0.10550576E+00 0.48935870E+03</pdfrwt>
<pdfrwt beam="2">  1       -2 0.11580368E-01 0.48935870E+03</pdfrwt>
<totfact> 0.22653368E+03</totfact>
</mgrwt>
</event>
<event>
 4    1  0.5056513E-005  0.9378519E+03  0.7818608E-02  0.9379464E-01
         -2   -1    0    0    0  501 -0.00000000000E+00  0.00000000000E+00  0.16276441557E+03  0.16276441559E+03  0.25500000000E-02 0. -1.
          2   -1    0    0  501    0  0.00000000000E+00 -0.00000000000E+00 -0.13509804700E+04  0.13509804700E+04  0.25500000000E-02 0.  1.
    5000001    1    1    2    0    0  0.39365771511E+03  0.95439336094E+02 -0.79964188428E+03  0.91820651633E+03  0.19900000000E+03 0.  0.
   -5000001    1    1    2    0    0 -0.39365771511E+03 -0.95439336094E+02 -0.38857417013E+03  0.59553836924E+03  0.19900000000E+03 0.  0.
<mgrwt>
<rscale>  0 0.93785190E+03</rscale>
<asrwt>0</asrwt>
<pdfrwt beam="1">  1        2 0.19299720E+00 0.93785190E+03</pdfrwt>
<pdfrwt beam="2">  1       -2 0.23252060E-01 0.93785190E+03</pdfrwt>
<totfact> 0.28718841E+02</totfact>
</mgrwt>
</event>
<event>
 4    1  0.5056513E-005  0.6076996E+03  0.7818608E-02  0.9889559E-01
         -2   -1    0    0    0  501 -0.00000000000E+00  0.00000000000E+00  0.14487564804E+03  0.14487564806E+03  0.25500000000E-02 0. -1.
          2   -1    0    0  501    0  0.00000000000E+00 -0.00000000000E+00 -0.63726868327E+03  0.63726868328E+03  0.25500000000E-02 0.  1.
    5000001    1    1    2    0    0  0.22045869238E+03 -0.17024743797E+02 -0.16652530843E+03  0.34091575982E+03  0.19900000000E+03 0.  0.
   -5000001    1    1    2    0    0 -0.22045869238E+03  0.17024743797E+02 -0.32586772680E+03  0.44122857151E+03  0.19900000000E+03 0.  0.
<mgrwt>
<rscale>  0 0.60769964E+03</rscale>
<asrwt>0</asrwt>
<pdfrwt beam="1">  1        2 0.91038382E-01 0.60769964E+03</pdfrwt>
<pdfrwt beam="2">  1       -2 0.20696521E-01 0.60769964E+03</pdfrwt>
<totfact> 0.10163351E+03</totfact>
</mgrwt>
</event>
<event>
 4    1  0.5056513E-005  0.9950207E+03  0.7818608E-02  0.9314023E-01
         -2   -1    0    0    0  501 -0.00000000000E+00  0.00000000000E+00  0.17552066339E+03  0.17552066341E+03  0.25500000000E-02 0. -1.
          2   -1    0    0  501    0  0.00000000000E+00 -0.00000000000E+00 -0.14101847169E+04  0.14101847169E+04  0.25500000000E-02 0.  1.
    5000001    1    1    2    0    0  0.11780855305E+03  0.39600640892E+03 -0.92476683718E+03  0.10322279953E+04  0.19900000000E+03 0.  0.
   -5000001    1    1    2    0    0 -0.11780855305E+03 -0.39600640892E+03 -0.30989721637E+03  0.55347738507E+03  0.19900000000E+03 0.  0.
<mgrwt>
<rscale>  0 0.99502072E+03</rscale>
<asrwt>0</asrwt>
<pdfrwt beam="1">  1        2 0.20145495E+00 0.99502072E+03</pdfrwt>
<pdfrwt beam="2">  1       -2 0.25074381E-01 0.99502072E+03</pdfrwt>
<totfact> 0.23214326E+02</totfact>
</mgrwt>
</event>
<event>
 4    1  0.5056513E-005  0.6153727E+03  0.7818608E-02  0.9874016E-01
          2   -1    0    0  501    0  0.00000000000E+00  0.00000000000E+00  0.46738492554E+03  0.46738492555E+03  0.25500000000E-02 0.  1.
         -2   -1    0    0    0  501 -0.00000000000E+00 -0.00000000000E+00 -0.20255445945E+03  0.20255445947E+03  0.25500000000E-02 0. -1.
    5000001    1    1    2    0    0  0.15411641008E+03 -0.57151878029E+02 -0.49922613291E+02  0.26289060907E+03  0.19900000000E+03 0.  0.
   -5000001    1    1    2    0    0 -0.15411641008E+03  0.57151878029E+02  0.31475307938E+03  0.40704877594E+03  0.19900000000E+03 0.  0.
<mgrwt>
<rscale>  0 0.61537274E+03</rscale>
<asrwt>0</asrwt>
<pdfrwt beam="1">  1        2 0.66769275E-01 0.61537274E+03</pdfrwt>
<pdfrwt beam="2">  1       -2 0.28936351E-01 0.61537274E+03</pdfrwt>
<totfact> 0.79806432E+02</totfact>
</mgrwt>
</event>
<event>
 4    1  0.5056513E-005  0.4613080E+03  0.7818608E-02  0.1024403E+00
         -2   -1    0    0    0  501 -0.00000000000E+00  0.00000000000E+00  0.48085788775E+02  0.48085788843E+02  0.25500000000E-02 0. -1.
          2   -1    0    0  501    0  0.00000000000E+00 -0.00000000000E+00 -0.11063824950E+04  0.11063824950E+04  0.25500000000E-02 0.  1.
    5000001    1    1    2    0    0 -0.11337588072E+02 -0.10531704541E+03 -0.65123956363E+03  0.68915469250E+03  0.19900000000E+03 0.  0.
   -5000001    1    1    2    0    0  0.11337588072E+02  0.10531704541E+03 -0.40705714263E+03  0.46531359138E+03  0.19900000000E+03 0.  0.
<mgrwt>
<rscale>  0 0.46130803E+03</rscale>
<asrwt>0</asrwt>
<pdfrwt beam="1">  1        2 0.15805463E+00 0.46130803E+03</pdfrwt>
<pdfrwt beam="2">  1       -2 0.68693991E-02 0.46130803E+03</pdfrwt>
<totfact> 0.30427206E+03</totfact>
</mgrwt>
</event>
<event>
 4    1  0.5056513E-005  0.5095174E+03  0.7818608E-02  0.1011324E+00
          2   -1    0    0  501    0  0.00000000000E+00  0.00000000000E+00  0.67849860115E+03  0.67849860115E+03  0.25500000000E-02 0.  1.
         -2   -1    0    0    0  501 -0.00000000000E+00 -0.00000000000E+00 -0.95655321726E+02  0.95655321760E+02  0.25500000000E-02 0. -1.
    5000001    1    1    2    0    0  0.10081793964E+03 -0.11782663706E+03  0.23762529966E+03  0.34657489290E+03  0.19900000000E+03 0.  0.
   -5000001    1    1    2    0    0 -0.10081793964E+03  0.11782663706E+03  0.34521797977E+03  0.42757903001E+03  0.19900000000E+03 0.  0.
<mgrwt>
<rscale>  0 0.50951743E+03</rscale>
<asrwt>0</asrwt>
<pdfrwt beam="1">  1        2 0.96928372E-01 0.50951743E+03</pdfrwt>
<pdfrwt beam="2">  1       -2 0.13665046E-01 0.50951743E+03</pdfrwt>
<totfact> 0.19129679E+03</totfact>
</mgrwt>
</event>
<event>
 4    1  0.5056513E-005  0.5282676E+03  0.7818608E-02  0.1006653E+00
          2   -1    0    0  501    0  0.00000000000E+00  0.00000000000E+00  0.47842180345E+03  0.47842180346E+03  0.25500000000E-02 0.  1.
         -2   -1    0    0    0  501 -0.00000000000E+00 -0.00000000000E+00 -0.14582670490E+03  0.14582670493E+03  0.25500000000E-02 0. -1.
    5000001    1    1    2    0    0  0.18329143748E+02  0.73934068589E+02  0.35074518227E+03  0.41039662144E+03  0.19900000000E+03 0.  0.
   -5000001    1    1    2    0    0 -0.18329143748E+02 -0.73934068589E+02 -0.18150083719E+02  0.21385188694E+03  0.19900000000E+03 0.  0.
<mgrwt>
<rscale>  0 0.52826764E+03</rscale>
<asrwt>0</asrwt>
<pdfrwt beam="1">  1        2 0.68345972E-01 0.52826764E+03</pdfrwt>
<pdfrwt beam="2">  1       -2 0.20832386E-01 0.52826764E+03</pdfrwt>
<totfact> 0.14006252E+03</totfact>
</mgrwt>
</event>
<event>
 4    1  0.5056513E-005  0.5524127E+03  0.7818608E-02  0.1000937E+00
         -2   -1    0    0    0  501 -0.00000000000E+00  0.00000000000E+00  0.95387614363E+02  0.95387614397E+02  0.25500000000E-02 0. -1.
          2   -1    0    0  501    0  0.00000000000E+00 -0.00000000000E+00 -0.79978883848E+03  0.79978883848E+03  0.25500000000E-02 0.  1.
    5000001    1    1    2    0    0 -0.13724428259E+03 -0.60332078429E+02 -0.15900920042E+03  0.29556873753E+03  0.19900000000E+03 0.  0.
   -5000001    1    1    2    0    0  0.13724428259E+03  0.60332078429E+02 -0.54539202370E+03  0.59960771535E+03  0.19900000000E+03 0.  0.
<mgrwt>
<rscale>  0 0.55241271E+03</rscale>
<asrwt>0</asrwt>
<pdfrwt beam="1">  1        2 0.11425554E+00 0.55241271E+03</pdfrwt>
<pdfrwt beam="2">  1       -2 0.13626803E-01 0.55241271E+03</pdfrwt>
<totfact> 0.15676190E+03</totfact>
</mgrwt>
</event>
<event>
 4    1  0.5056513E-005  0.9343658E+03  0.7818608E-02  0.9383614E-01
         -2   -1    0    0    0  501 -0.00000000000E+00  0.00000000000E+00  0.99469823634E+02  0.99469823667E+02  0.25500000000E-02 0. -1.
          2   -1    0    0  501    0  0.00000000000E+00 -0.00000000000E+00 -0.21942317748E+04  0.21942317748E+04  0.25500000000E-02 0.  1.
    5000001    1    1    2    0    0 -0.18524042496E+03 -0.26363836226E+03 -0.37581936545E+03  0.53353575001E+03  0.19900000000E+03 0.  0.
   -5000001    1    1    2    0    0  0.18524042496E+03  0.26363836226E+03 -0.17189425857E+04  0.17601658485E+04  0.19900000000E+03 0.  0.
<mgrwt>
<rscale>  0 0.93436577E+03</rscale>
<asrwt>0</asrwt>
<pdfrwt beam="1">  1        2 0.31346165E+00 0.93436577E+03</pdfrwt>
<pdfrwt beam="2">  1       -2 0.14209976E-01 0.93436577E+03</pdfrwt>
<totfact> 0.24695549E+02</totfact>
</mgrwt>
</event>
<event>
 4    1  0.5056513E-005  0.7664155E+03  0.7818608E-02  0.9609943E-01
          2   -1    0    0  501    0  0.00000000000E+00  0.00000000000E+00  0.15814211891E+04  0.15814211891E+04  0.25500000000E-02 0.  1.
         -2   -1    0    0    0  501 -0.00000000000E+00 -0.00000000000E+00 -0.92858364566E+02  0.92858364601E+02  0.25500000000E-02 0. -1.
    5000001    1    1    2    0    0  0.20583247812E+03  0.87700423291E+02  0.12667007251E+04  0.13016105793E+04  0.19900000000E+03 0.  0.
   -5000001    1    1    2    0    0 -0.20583247812E+03 -0.87700423291E+02  0.22186209947E+03  0.37266897439E+03  0.19900000000E+03 0.  0.
<mgrwt>
<rscale>  0 0.76641551E+03</rscale>
<asrwt>0</asrwt>
<pdfrwt beam="1">  1        2 0.22591732E+00 0.76641551E+03</pdfrwt>
<pdfrwt beam="2">  1       -2 0.13265480E-01 0.76641551E+03</pdfrwt>
<totfact> 0.57603786E+02</totfact>
</mgrwt>
</event>
<event>
 4    1  0.5056513E-005  0.9303560E+03  0.7818608E-02  0.9388411E-01
         -2   -1    0    0    0  501 -0.00000000000E+00  0.00000000000E+00  0.48150713930E+03  0.48150713930E+03  0.25500000000E-02 0. -1.
          2   -1    0    0  501    0  0.00000000000E+00 -0.00000000000E+00 -0.44940257843E+03  0.44940257844E+03  0.25500000000E-02 0.  1.
    5000001    1    1    2    0    0 -0.17284791873E+03  0.37871303321E+03  0.75160154468E+02  0.46749332974E+03  0.19900000000E+03 0.  0.
   -5000001    1    1    2    0    0  0.17284791873E+03 -0.37871303321E+03 -0.43055593606E+02  0.46341638800E+03  0.19900000000E+03 0.  0.
<mgrwt>
<rscale>  0 0.93035595E+03</rscale>
<asrwt>0</asrwt>
<pdfrwt beam="1">  1        2 0.64200368E-01 0.93035595E+03</pdfrwt>
<pdfrwt beam="2">  1       -2 0.68786735E-01 0.93035595E+03</pdfrwt>
<totfact> 0.14683608E+02</totfact>
</mgrwt>
</event>
<event>
 4    1  0.5056513E-005  0.4450950E+03  0.7818608E-02  0.1029195E+00
         -2   -1    0    0    0  501 -0.00000000000E+00  0.00000000000E+00  0.36840115655E+02  0.36840115743E+02  0.25500000000E-02 0. -1.
          2   -1    0    0  501    0  0.00000000000E+00 -0.00000000000E+00 -0.13443876842E+04  0.13443876842E+04  0.25500000000E-02 0.  1.
    5000001    1    1    2    0    0 -0.71050637954E+02 -0.18024744878E+01 -0.87044334329E+03  0.89572543558E+03  0.19900000000E+03 0.  0.
   -5000001    1    1    2    0    0  0.71050637954E+02  0.18024744878E+01 -0.43710422526E+03  0.48550236437E+03  0.19900000000E+03 0.  0.
<mgrwt>
<rscale>  0 0.44509504E+03</rscale>
<asrwt>0</asrwt>
<pdfrwt beam="1">  1        2 0.19205535E+00 0.44509504E+03</pdfrwt>
<pdfrwt beam="2">  1       -2 0.52628745E-02 0.44509504E+03</pdfrwt>
<totfact> 0.34051477E+03</totfact>
</mgrwt>
</event>
<event>
 4    1  0.5056513E-005  0.4938269E+03  0.7818608E-02  0.1015403E+00
         -2   -1    0    0    0  501 -0.00000000000E+00  0.00000000000E+00  0.27725405222E+02  0.27725405339E+02  0.25500000000E-02 0. -1.
          2   -1    0    0  501    0  0.00000000000E+00 -0.00000000000E+00 -0.21989306080E+04  0.21989306080E+04  0.25500000000E-02 0.  1.
    5000001    1    1    2    0    0 -0.11945836711E+03  0.69891676405E+02 -0.12975772048E+04  0.13200237688E+04  0.19900000000E+03 0.  0.
   -5000001    1    1    2    0    0  0.11945836711E+03 -0.69891676405E+02 -0.87362799798E+03  0.90663224450E+03  0.19900000000E+03 0.  0.
<mgrwt>
<rscale>  0 0.49382686E+03</rscale>
<asrwt>0</asrwt>
<pdfrwt beam="1">  1        2 0.31413283E+00 0.49382686E+03</pdfrwt>
<pdfrwt beam="2">  1       -2 0.39607736E-02 0.49382686E+03</pdfrwt>
<totfact> 0.19439427E+03</totfact>
</mgrwt>
</event>
<event>
 4    1  0.5056513E-005  0.7056960E+03  0.7818608E-02  0.9707541E-01
         -2   -1    0    0    0  501 -0.00000000000E+00  0.00000000000E+00  0.20567712757E+03  0.20567712758E+03  0.25500000000E-02 0. -1.
          2   -1    0    0  501    0  0.00000000000E+00 -0.00000000000E+00 -0.60532593686E+03  0.60532593687E+03  0.25500000000E-02 0.  1.
    5000001    1    1    2    0    0  0.11792824695E+03  0.22249135718E+03 -0.31349414633E+02  0.32247986177E+03  0.19900000000E+03 0.  0.
   -5000001    1    1    2    0    0 -0.11792824695E+03 -0.22249135718E+03 -0.36829939466E+03  0.48852320268E+03  0.19900000000E+03 0.  0.
<mgrwt>
<rscale>  0 0.70569597E+03</rscale>
<asrwt>0</asrwt>
<pdfrwt beam="1">  1        2 0.86475133E-01 0.70569597E+03</pdfrwt>
<pdfrwt beam="2">  1       -2 0.29382447E-01 0.70569597E+03</pdfrwt>
<totfact> 0.57459830E+02</totfact>
</mgrwt>
</event>
<event>
 4    1  0.5056513E-005  0.6330719E+03  0.7818608E-02  0.9839072E-01
          2   -1    0    0  501    0  0.00000000000E+00  0.00000000000E+00  0.67608071315E+03  0.67608071315E+03  0.25500000000E-02 0.  1.
         -2   -1    0    0    0  501 -0.00000000000E+00 -0.00000000000E+00 -0.14819979070E+03  0.14819979072E+03  0.25500000000E-02 0. -1.
    5000001    1    1    2    0    0  0.18819779920E+03  0.75810209651E+02  0.44542545170E+03  0.52836581318E+03  0.19900000000E+03 0.  0.
   -5000001    1    1    2    0    0 -0.18819779920E+03 -0.75810209651E+02  0.82455470753E+02  0.29591469069E+03  0.19900000000E+03 0.  0.
<mgrwt>
<rscale>  0 0.63307194E+03</rscale>
<asrwt>0</asrwt>
<pdfrwt beam="1">  1        2 0.96582957E-01 0.63307194E+03</pdfrwt>
<pdfrwt beam="2">  1       -2 0.21171399E-01 0.63307194E+03</pdfrwt>
<totfact> 0.90921504E+02</totfact>
</mgrwt>
</event>
<event>
 4    1  0.5056513E-005  0.7976566E+03  0.7818608E-02  0.9563415E-01
         -2   -1    0    0    0  501 -0.00000000000E+00  0.00000000000E+00  0.11869174677E+04  0.11869174677E+04  0.25500000000E-02 0. -1.
          2   -1    0    0  501    0  0.00000000000E+00 -0.00000000000E+00 -0.13401437995E+03  0.13401437997E+03  0.25500000000E-02 0.  1.
    5000001    1    1    2    0    0 -0.81399988451E+02  0.32581513565E+03  0.39108760200E+03  0.55256852351E+03  0.19900000000E+03 0.  0.
   -5000001    1    1    2    0    0  0.81399988451E+02 -0.32581513565E+03  0.66181548577E+03  0.76836332418E+03  0.19900000000E+03 0.  0.
<mgrwt>
<rscale>  0 0.79765659E+03</rscale>
<asrwt>0</asrwt>
<pdfrwt beam="1">  1        2 0.19144910E-01 0.79765659E+03</pdfrwt>
<pdfrwt beam="2">  1       -2 0.16955965E+00 0.79765659E+03</pdfrwt>
<totfact> 0.64914389E+01</totfact>
</mgrwt>
</event>
<event>
 4    1  0.5056513E-005  0.7203453E+03  0.7818608E-02  0.9683058E-01
         -2   -1    0    0    0  501 -0.00000000000E+00  0.00000000000E+00  0.59277174546E+03  0.59277174547E+03  0.25500000000E-02 0. -1.
          2   -1    0    0  501    0  0.00000000000E+00 -0.00000000000E+00 -0.21884363035E+03  0.21884363036E+03  0.25500000000E-02 0.  1.
    5000001    1    1    2    0    0  0.27025658077E+03 -0.10809050402E+03  0.26976827467E+03  0.44395731612E+03  0.19900000000E+03 0.  0.
   -5000001    1    1    2    0    0 -0.27025658077E+03  0.10809050402E+03  0.10415984044E+03  0.36765805971E+03  0.19900000000E+03 0.  0.
<mgrwt>
<rscale>  0 0.72034525E+03</rscale>
<asrwt>0</asrwt>
<pdfrwt beam="1">  1        2 0.31263376E-01 0.72034525E+03</pdfrwt>
<pdfrwt beam="2">  1       -2 0.84681678E-01 0.72034525E+03</pdfrwt>
<totfact> 0.20832498E+02</totfact>
</mgrwt>
</event>
<event>
 4    1  0.5056513E-005  0.4081486E+03  0.7818608E-02  0.1040994E+00
          2   -1    0    0  501    0  0.00000000000E+00  0.00000000000E+00  0.16960929527E+04  0.16960929527E+04  0.25500000000E-02 0.  1.
         -2   -1    0    0    0  501 -0.00000000000E+00 -0.00000000000E+00 -0.24554262519E+02  0.24554262651E+02  0.25500000000E-02 0. -1.
    5000001    1    1    2    0    0 -0.21248417631E+02 -0.29850428256E+02  0.72401107154E+03  0.75175499668E+03  0.19900000000E+03 0.  0.
   -5000001    1    1    2    0    0  0.21248417631E+02  0.29850428256E+02  0.94752761863E+03  0.96889221866E+03  0.19900000000E+03 0.  0.
<mgrwt>
<rscale>  0 0.40814856E+03</rscale>
<asrwt>0</asrwt>
<pdfrwt beam="1">  1        2 0.24229901E+00 0.40814856E+03</pdfrwt>
<pdfrwt beam="2">  1       -2 0.35077515E-02 0.40814856E+03</pdfrwt>
<totfact> 0.41747965E+03</totfact>
</mgrwt>
</event>
<event>
 4    1  0.5056513E-005  0.5069231E+03  0.7818608E-02  0.1011988E+00
         -2   -1    0    0    0  501 -0.00000000000E+00  0.00000000000E+00  0.33995919631E+02  0.33995919727E+02  0.25500000000E-02 0.  1.
          2   -1    0    0  501    0  0.00000000000E+00 -0.00000000000E+00 -0.18897193562E+04  0.18897193562E+04  0.25500000000E-02 0. -1.
    5000001    1    1    2    0    0 -0.29566153384E+02 -0.15251250976E+03 -0.10133540587E+04  0.10443283350E+04  0.19900000000E+03 0.  0.
   -5000001    1    1    2    0    0  0.29566153384E+02  0.15251250976E+03 -0.84236937791E+03  0.87938694094E+03  0.19900000000E+03 0.  0.
<mgrwt>
<rscale>  0 0.50692306E+03</rscale>
<asrwt>0</asrwt>
<pdfrwt beam="1">  1        2 0.26995984E+00 0.50692306E+03</pdfrwt>
<pdfrwt beam="2">  1       -2 0.48565611E-02 0.50692306E+03</pdfrwt>
<totfact> 0.20270186E+03</totfact>
</mgrwt>
</event>
<event>
 4    1  0.5056513E-005  0.5214700E+03  0.7818608E-02  0.1008322E+00
         -2   -1    0    0    0  501 -0.00000000000E+00  0.00000000000E+00  0.29061264665E+02  0.29061264777E+02  0.25500000000E-02 0. -1.
          2   -1    0    0  501    0  0.00000000000E+00 -0.00000000000E+00 -0.23392908020E+04  0.23392908020E+04  0.25500000000E-02 0.  1.
    5000001    1    1    2    0    0 -0.16301388161E+03  0.40028943373E+02 -0.10899440015E+04  0.11206046441E+04  0.19900000000E+03 0.  0.
   -5000001    1    1    2    0    0  0.16301388161E+03 -0.40028943373E+02 -0.12202855358E+04  0.12477474227E+04  0.19900000000E+03 0.  0.
<mgrwt>
<rscale>  0 0.52147003E+03</rscale>
<asrwt>0</asrwt>
<pdfrwt beam="1">  1        2 0.33418428E+00 0.52147003E+03</pdfrwt>
<pdfrwt beam="2">  1       -2 0.41516107E-02 0.52147003E+03</pdfrwt>
<totfact> 0.15353789E+03</totfact>
</mgrwt>
</event>
<event>
 4    1  0.5056513E-005  0.7071914E+03  0.7818608E-02  0.9705012E-01
         -2   -1    0    0    0  501 -0.00000000000E+00  0.00000000000E+00  0.45957631737E+03  0.45957631737E+03  0.25500000000E-02 0. -1.
          2   -1    0    0  501    0  0.00000000000E+00 -0.00000000000E+00 -0.27205475941E+03  0.27205475942E+03  0.25500000000E-02 0.  1.
    5000001    1    1    2    0    0  0.56901497172E+02 -0.28240223211E+03  0.14486550413E+03  0.37891399469E+03  0.19900000000E+03 0.  0.
   -5000001    1    1    2    0    0 -0.56901497172E+02  0.28240223211E+03  0.42656053823E+02  0.35271708211E+03  0.19900000000E+03 0.  0.
<mgrwt>
<rscale>  0 0.70719142E+03</rscale>
<asrwt>0</asrwt>
<pdfrwt beam="1">  1        2 0.38864966E-01 0.70719142E+03</pdfrwt>
<pdfrwt beam="2">  1       -2 0.65653759E-01 0.70719142E+03</pdfrwt>
<totfact> 0.28675169E+02</totfact>
</mgrwt>
</event>
<event>
 4    1  0.5056513E-005  0.9086652E+03  0.7818608E-02  0.9414814E-01
         -2   -1    0    0    0  501 -0.00000000000E+00  0.00000000000E+00  0.12090458302E+03  0.12090458305E+03  0.25500000000E-02 0. -1.
          2   -1    0    0  501    0  0.00000000000E+00 -0.00000000000E+00 -0.17072810205E+04  0.17072810205E+04  0.25500000000E-02 0.  1.
    5000001    1    1    2    0    0 -0.15475634567E+03 -0.25710728369E+03 -0.23575409199E+03  0.43038897958E+03  0.19900000000E+03 0.  0.
   -5000001    1    1    2    0    0  0.15475634567E+03  0.25710728369E+03 -0.13506223455E+04  0.13977966240E+04  0.19900000000E+03 0.  0.
<mgrwt>
<rscale>  0 0.90866517E+03</rscale>
<asrwt>0</asrwt>
<pdfrwt beam="1">  1        2 0.24389727E+00 0.90866517E+03</pdfrwt>
<pdfrwt beam="2">  1       -2 0.17272084E-01 0.90866517E+03</pdfrwt>
<totfact> 0.31444482E+02</totfact>
</mgrwt>
</event>
<event>
 4    1  0.5056513E-005  0.4875510E+03  0.7818608E-02  0.1017080E+00
          2   -1    0    0  501    0  0.00000000000E+00  0.00000000000E+00  0.98279127800E+03  0.98279127800E+03  0.25500000000E-02 0.  1.
         -2   -1    0    0    0  501 -0.00000000000E+00 -0.00000000000E+00 -0.60467047407E+02  0.60467047461E+02  0.25500000000E-02 0. -1.
    5000001    1    1    2    0    0  0.91066114500E+02  0.21782897962E+02  0.23614826872E+03  0.32269883277E+03  0.19900000000E+03 0.  0.
   -5000001    1    1    2    0    0 -0.91066114500E+02 -0.21782897962E+02  0.68617596187E+03  0.72055949269E+03  0.19900000000E+03 0.  0.
<mgrwt>
<rscale>  0 0.48755097E+03</rscale>
<asrwt>0</asrwt>
<pdfrwt beam="1">  1        2 0.14039875E+00 0.48755097E+03</pdfrwt>
<pdfrwt beam="2">  1       -2 0.86381499E-02 0.48755097E+03</pdfrwt>
<totfact> 0.25063871E+03</totfact>
</mgrwt>
</event>
<event>
 4    1  0.5056513E-005  0.6302502E+03  0.7818608E-02  0.9844561E-01
          2   -1    0    0  501    0  0.00000000000E+00  0.00000000000E+00  0.11657580668E+04  0.11657580668E+04  0.25500000000E-02 0. -1.
         -2   -1    0    0    0  501 -0.00000000000E+00 -0.00000000000E+00 -0.85183895693E+02  0.85183895731E+02  0.25500000000E-02 0.  1.
    5000001    1    1    2    0    0  0.21029135077E+03 -0.28333288472E+02  0.29982228063E+03  0.41775546364E+03  0.19900000000E+03 0.  0.
   -5000001    1    1    2    0    0 -0.21029135077E+03  0.28333288472E+02  0.78075189047E+03  0.83318649888E+03  0.19900000000E+03 0.  0.
<mgrwt>
<rscale>  0 0.63025015E+03</rscale>
<asrwt>0</asrwt>
<pdfrwt beam="1">  1        2 0.16653687E+00 0.63025015E+03</pdfrwt>
<pdfrwt beam="2">  1       -2 0.12169128E-01 0.63025015E+03</pdfrwt>
<totfact> 0.11200208E+03</totfact>
</mgrwt>
</event>
<event>
 4    1  0.5056513E-005  0.8141017E+03  0.7818608E-02  0.9539827E-01
         -2   -1    0    0    0  501 -0.00000000000E+00  0.00000000000E+00  0.86974668180E+02  0.86974668217E+02  0.25500000000E-02 0. -1.
          2   -1    0    0  501    0  0.00000000000E+00 -0.00000000000E+00 -0.19050421116E+04  0.19050421116E+04  0.25500000000E-02 0.  1.
    5000001    1    1    2    0    0  0.34961056431E+02 -0.35017860573E+03 -0.79317217933E+03  0.89026425147E+03  0.19900000000E+03 0.  0.
   -5000001    1    1    2    0    0 -0.34961056431E+02  0.35017860573E+03 -0.10248952641E+04  0.11017525284E+04  0.19900000000E+03 0.  0.
<mgrwt>
<rscale>  0 0.81410173E+03</rscale>
<asrwt>0</asrwt>
<pdfrwt beam="1">  1        2 0.27214885E+00 0.81410173E+03</pdfrwt>
<pdfrwt beam="2">  1       -2 0.12424954E-01 0.81410173E+03</pdfrwt>
<totfact> 0.43733755E+02</totfact>
</mgrwt>
</event>
<event>
 4    1  0.5056513E-005  0.4425521E+03  0.7818608E-02  0.1029967E+00
          2   -1    0    0  501    0  0.00000000000E+00  0.00000000000E+00  0.95443434615E+02  0.95443434649E+02  0.25500000000E-02 0.  1.
         -2   -1    0    0    0  501 -0.00000000000E+00 -0.00000000000E+00 -0.51300642563E+03  0.51300642564E+03  0.25500000000E-02 0. -1.
    5000001    1    1    2    0    0  0.91936867896E+01 -0.83981428529E+02 -0.27362929158E+03  0.34872825155E+03  0.19900000000E+03 0.  0.
   -5000001    1    1    2    0    0 -0.91936867896E+01  0.83981428529E+02 -0.14393369944E+03  0.25972160874E+03  0.19900000000E+03 0.  0.
<mgrwt>
<rscale>  0 0.44255212E+03</rscale>
<asrwt>0</asrwt>
<pdfrwt beam="1">  1        2 0.13634777E-01 0.44255212E+03</pdfrwt>
<pdfrwt beam="2">  1       -2 0.73286630E-01 0.44255212E+03</pdfrwt>
<totfact> 0.76081076E+02</totfact>
</mgrwt>
</event>
<event>
 4    1  0.5056513E-005  0.5223659E+03  0.7818608E-02  0.1008101E+00
          2   -1    0    0  501    0  0.00000000000E+00  0.00000000000E+00  0.80043735783E+03  0.80043735784E+03  0.25500000000E-02 0.  1.
         -2   -1    0    0    0  501 -0.00000000000E+00 -0.00000000000E+00 -0.85224061364E+02  0.85224061402E+02  0.25500000000E-02 0. -1.
    5000001    1    1    2    0    0 -0.14459707528E+03  0.67662585286E+02  0.45244730157E+03  0.51941900266E+03  0.19900000000E+03 0.  0.
   -5000001    1    1    2    0    0  0.14459707528E+03 -0.67662585286E+02  0.26276599490E+03  0.36624241658E+03  0.19900000000E+03 0.  0.
<mgrwt>
<rscale>  0 0.52236586E+03</rscale>
<asrwt>0</asrwt>
<pdfrwt beam="1">  1        2 0.11434820E+00 0.52236586E+03</pdfrwt>
<pdfrwt beam="2">  1       -2 0.12174866E-01 0.52236586E+03</pdfrwt>
<totfact> 0.18869600E+03</totfact>
</mgrwt>
</event>
<event>
 4    1  0.5056513E-005  0.4374714E+03  0.7818608E-02  0.1031525E+00
         -2   -1    0    0    0  501 -0.00000000000E+00  0.00000000000E+00  0.31337669375E+02  0.31337669479E+02  0.25500000000E-02 0. -1.
          2   -1    0    0  501    0  0.00000000000E+00 -0.00000000000E+00 -0.15267664869E+04  0.15267664869E+04  0.25500000000E-02 0.  1.
    5000001    1    1    2    0    0 -0.50083005388E+02 -0.74541618777E+02 -0.79543778916E+03  0.82485576726E+03  0.19900000000E+03 0.  0.
   -5000001    1    1    2    0    0  0.50083005388E+02  0.74541618777E+02 -0.69999102838E+03  0.73324838914E+03  0.19900000000E+03 0.  0.
<mgrwt>
<rscale>  0 0.43747139E+03</rscale>
<asrwt>0</asrwt>
<pdfrwt beam="1">  1        2 0.21810945E+00 0.43747139E+03</pdfrwt>
<pdfrwt beam="2">  1       -2 0.44768109E-02 0.43747139E+03</pdfrwt>
<totfact> 0.35081577E+03</totfact>
</mgrwt>
</event>
<event>
 4    1  0.5056513E-005  0.7958333E+03  0.7818608E-02  0.9566068E-01
          2   -1    0    0  501    0  0.00000000000E+00  0.00000000000E+00  0.61056224653E+03  0.61056224653E+03  0.25500000000E-02 0.  1.
         -2   -1    0    0    0  501 -0.00000000000E+00 -0.00000000000E+00 -0.25933090097E+03  0.25933090098E+03  0.25500000000E-02 0. -1.
    5000001    1    1    2    0    0  0.23369952025E+03  0.25290330535E+03  0.16174157068E+03  0.42934471385E+03  0.19900000000E+03 0.  0.
   -5000001    1    1    2    0    0 -0.23369952025E+03 -0.25290330535E+03  0.18948977488E+03  0.44054843366E+03  0.19900000000E+03 0.  0.
<mgrwt>
<rscale>  0 0.79583329E+03</rscale>
<asrwt>0</asrwt>
<pdfrwt beam="1">  1        2 0.87223178E-01 0.79583329E+03</pdfrwt>
<pdfrwt beam="2">  1       -2 0.37047272E-01 0.79583329E+03</pdfrwt>
<totfact> 0.36649491E+02</totfact>
</mgrwt>
</event>
<event>
 4    1  0.5056513E-005  0.4554879E+03  0.7818608E-02  0.1026098E+00
         -2   -1    0    0    0  501 -0.00000000000E+00  0.00000000000E+00  0.51447045492E+02  0.51447045555E+02  0.25500000000E-02 0. -1.
          2   -1    0    0  501    0  0.00000000000E+00 -0.00000000000E+00 -0.10081687725E+04  0.10081687725E+04  0.25500000000E-02 0.  1.
    5000001    1    1    2    0    0 -0.10223325045E+03  0.42554523827E+02 -0.47383811232E+03  0.52572434001E+03  0.19900000000E+03 0.  0.
   -5000001    1    1    2    0    0  0.10223325045E+03 -0.42554523827E+02 -0.48288361469E+03  0.53389147805E+03  0.19900000000E+03 0.  0.
<mgrwt>
<rscale>  0 0.45548789E+03</rscale>
<asrwt>0</asrwt>
<pdfrwt beam="1">  1        2 0.14402410E+00 0.45548789E+03</pdfrwt>
<pdfrwt beam="2">  1       -2 0.73495786E-02 0.45548789E+03</pdfrwt>
<totfact> 0.31243884E+03</totfact>
</mgrwt>
</event>
<event>
 4    1  0.5056513E-005  0.6923864E+03  0.7818608E-02  0.9730342E-01
         -2   -1    0    0    0  501 -0.00000000000E+00  0.00000000000E+00  0.54990068327E+02  0.54990068386E+02  0.25500000000E-02 0. -1.
          2   -1    0    0  501    0  0.00000000000E+00 -0.00000000000E+00 -0.21794795694E+04  0.21794795694E+04  0.25500000000E-02 0.  1.
    5000001    1    1    2    0    0  0.26886848610E+03  0.37676831796E+02 -0.80128166586E+03  0.86911628366E+03  0.19900000000E+03 0.  0.
   -5000001    1    1    2    0    0 -0.26886848610E+03 -0.37676831796E+02 -0.13232078352E+04  0.13653533541E+04  0.19900000000E+03 0.  0.
<mgrwt>
<rscale>  0 0.69238640E+03</rscale>
<asrwt>0</asrwt>
<pdfrwt beam="1">  1        2 0.31135417E+00 0.69238640E+03</pdfrwt>
<pdfrwt beam="2">  1       -2 0.78557254E-02 0.69238640E+03</pdfrwt>
<totfact> 0.67494045E+02</totfact>
</mgrwt>
</event>
<event>
 4    1  0.5056513E-005  0.4974934E+03  0.7818608E-02  0.1014435E+00
         -2   -1    0    0    0  501 -0.00000000000E+00  0.00000000000E+00  0.10648315639E+03  0.10648315642E+03  0.25500000000E-02 0. -1.
          2   -1    0    0  501    0  0.00000000000E+00 -0.00000000000E+00 -0.58107718230E+03  0.58107718231E+03  0.25500000000E-02 0.  1.
    5000001    1    1    2    0    0 -0.89714515040E+02 -0.72882188142E+02 -0.10681646924E+03  0.25371492991E+03  0.19900000000E+03 0.  0.
   -5000001    1    1    2    0    0  0.89714515040E+02  0.72882188142E+02 -0.36777755667E+03  0.43384540882E+03  0.19900000000E+03 0.  0.
<mgrwt>
<rscale>  0 0.49749345E+03</rscale>
<asrwt>0</asrwt>
<pdfrwt beam="1">  1        2 0.83011024E-01 0.49749345E+03</pdfrwt>
<pdfrwt beam="2">  1       -2 0.15211880E-01 0.49749345E+03</pdfrwt>
<totfact> 0.19208432E+03</totfact>
</mgrwt>
</event>
<event>
 4    1  0.5056513E-005  0.5232422E+03  0.7818608E-02  0.1007884E+00
          2   -1    0    0  501    0  0.00000000000E+00  0.00000000000E+00  0.53189164152E+02  0.53189164213E+02  0.25500000000E-02 0.  1.
         -2   -1    0    0    0  501 -0.00000000000E+00 -0.00000000000E+00 -0.12868333913E+04  0.12868333913E+04  0.25500000000E-02 0. -1.
    5000001    1    1    2    0    0  0.15542594260E+03  0.21831024593E+02 -0.45063765734E+03  0.51701945368E+03  0.19900000000E+03 0.  0.
   -5000001    1    1    2    0    0 -0.15542594260E+03 -0.21831024593E+02 -0.78300656979E+03  0.82300310182E+03  0.19900000000E+03 0.  0.
<mgrwt>
<rscale>  0 0.52324217E+03</rscale>
<asrwt>0</asrwt>
<pdfrwt beam="1">  1        2 0.75984528E-02 0.52324217E+03</pdfrwt>
<pdfrwt beam="2">  1       -2 0.18383332E+00 0.52324217E+03</pdfrwt>
<totfact> 0.16557183E+02</totfact>
</mgrwt>
</event>
<event>
 4    1  0.5056513E-005  0.4907261E+03  0.7818608E-02  0.1016228E+00
         -2   -1    0    0    0  501 -0.00000000000E+00  0.00000000000E+00  0.61227910075E+02  0.61227910128E+02  0.25500000000E-02 0. -1.
          2   -1    0    0  501    0  0.00000000000E+00 -0.00000000000E+00 -0.98326114326E+03  0.98326114326E+03  0.25500000000E-02 0.  1.
    5000001    1    1    2    0    0 -0.13676877604E+03 -0.36255139478E+02 -0.51236015593E+03  0.56756855324E+03  0.19900000000E+03 0.  0.
   -5000001    1    1    2    0    0  0.13676877604E+03  0.36255139478E+02 -0.40967307725E+03  0.47692050015E+03  0.19900000000E+03 0.  0.
<mgrwt>
<rscale>  0 0.49072609E+03</rscale>
<asrwt>0</asrwt>
<pdfrwt beam="1">  1        2 0.14046587E+00 0.49072609E+03</pdfrwt>
<pdfrwt beam="2">  1       -2 0.87468449E-02 0.49072609E+03</pdfrwt>
<totfact> 0.24552728E+03</totfact>
</mgrwt>
</event>
<event>
 4    1  0.5056513E-005  0.5172766E+03  0.7818608E-02  0.1009365E+00
          2   -1    0    0  501    0  0.00000000000E+00  0.00000000000E+00  0.14487486596E+04  0.14487486596E+04  0.25500000000E-02 0.  1.
         -2   -1    0    0    0  501 -0.00000000000E+00 -0.00000000000E+00 -0.46173484090E+02  0.46173484160E+02  0.25500000000E-02 0. -1.
    5000001    1    1    2    0    0 -0.15390058569E+03 -0.54492295944E-01  0.87486438819E+03  0.91031537995E+03  0.19900000000E+03 0.  0.
   -5000001    1    1    2    0    0  0.15390058569E+03  0.54492295944E-01  0.52771078734E+03  0.58460676383E+03  0.19900000000E+03 0.  0.
<mgrwt>
<rscale>  0 0.51727661E+03</rscale>
<asrwt>0</asrwt>
<pdfrwt beam="1">  1        2 0.20696413E+00 0.51727661E+03</pdfrwt>
<pdfrwt beam="2">  1       -2 0.65962109E-02 0.51727661E+03</pdfrwt>
<totfact> 0.21093193E+03</totfact>
</mgrwt>
</event>
<event>
 4    1  0.5056513E-005  0.7468445E+03  0.7818608E-02  0.9640314E-01
         -2   -1    0    0    0  501 -0.00000000000E+00  0.00000000000E+00  0.42982142696E+03  0.42982142697E+03  0.25500000000E-02 0. -1.
          2   -1    0    0  501    0  0.00000000000E+00 -0.00000000000E+00 -0.32442350806E+03  0.32442350807E+03  0.25500000000E-02 0.  1.
    5000001    1    1    2    0    0 -0.28069095080E+02 -0.22467520779E+03 -0.16988541162E+03  0.34601860669E+03  0.19900000000E+03 0.  0.
   -5000001    1    1    2    0    0  0.28069095080E+02  0.22467520779E+03  0.27528333052E+03  0.40822632835E+03  0.19900000000E+03 0.  0.
<mgrwt>
<rscale>  0 0.74684450E+03</rscale>
<asrwt>0</asrwt>
<pdfrwt beam="1">  1        2 0.46346215E-01 0.74684450E+03</pdfrwt>
<pdfrwt beam="2">  1       -2 0.61403061E-01 0.74684450E+03</pdfrwt>
<totfact> 0.27175954E+02</totfact>
</mgrwt>
</event>
<event>
 4    1  0.5056513E-005  0.4839764E+03  0.7818608E-02  0.1018048E+00
         -2   -1    0    0    0  501 -0.00000000000E+00  0.00000000000E+00  0.31944896959E+02  0.31944897060E+02  0.25500000000E-02 0. -1.
          2   -1    0    0  501    0  0.00000000000E+00 -0.00000000000E+00 -0.18331028202E+04  0.18331028202E+04  0.25500000000E-02 0.  1.
    5000001    1    1    2    0    0  0.10900862507E+03  0.77827422295E+02 -0.10234894031E+04  0.10512238327E+04  0.19900000000E+03 0.  0.
   -5000001    1    1    2    0    0 -0.10900862507E+03 -0.77827422295E+02 -0.77766852010E+03  0.81382388461E+03  0.19900000000E+03 0.  0.
<mgrwt>
<rscale>  0 0.48397637E+03</rscale>
<asrwt>0</asrwt>
<pdfrwt beam="1">  1        2 0.26187176E+00 0.48397637E+03</pdfrwt>
<pdfrwt beam="2">  1       -2 0.45635579E-02 0.48397637E+03</pdfrwt>
<totfact> 0.23831116E+03</totfact>
</mgrwt>
</event>
<event>
 4    1  0.5056513E-005  0.5057619E+03  0.7818608E-02  0.1012286E+00
          2   -1    0    0  501    0  0.00000000000E+00  0.00000000000E+00  0.80895799545E+03  0.80895799545E+03  0.25500000000E-02 0.  1.
         -2   -1    0    0    0  501 -0.00000000000E+00 -0.00000000000E+00 -0.79050791946E+02  0.79050791988E+02  0.25500000000E-02 0. -1.
    5000001    1    1    2    0    0  0.59068401364E-01 -0.13074127493E+03  0.51449949298E+03  0.56692505037E+03  0.19900000000E+03 0.  0.
   -5000001    1    1    2    0    0 -0.59068401364E-01  0.13074127493E+03  0.21540771052E+03  0.32108373707E+03  0.19900000000E+03 0.  0.
<mgrwt>
<rscale>  0 0.50576188E+03</rscale>
<asrwt>0</asrwt>
<pdfrwt beam="1">  1        2 0.11556543E+00 0.50576188E+03</pdfrwt>
<pdfrwt beam="2">  1       -2 0.11292970E-01 0.50576188E+03</pdfrwt>
<totfact> 0.21055945E+03</totfact>
</mgrwt>
</event>
<event>
 4    1  0.5056513E-005  0.8708487E+03  0.7818608E-02  0.9462774E-01
          2   -1    0    0  501    0  0.00000000000E+00  0.00000000000E+00  0.58477000689E+03  0.58477000690E+03  0.25500000000E-02 0.  1.
         -2   -1    0    0    0  501 -0.00000000000E+00 -0.00000000000E+00 -0.32422040296E+03  0.32422040297E+03  0.25500000000E-02 0. -1.
    5000001    1    1    2    0    0 -0.27637310751E+03  0.14201269820E+03  0.37157890807E+03  0.52366170943E+03  0.19900000000E+03 0.  0.
   -5000001    1    1    2    0    0  0.27637310751E+03 -0.14201269820E+03 -0.11102930414E+03  0.38532870044E+03  0.19900000000E+03 0.  0.
<mgrwt>
<rscale>  0 0.87084871E+03</rscale>
<asrwt>0</asrwt>
<pdfrwt beam="1">  1        2 0.83538572E-01 0.87084871E+03</pdfrwt>
<pdfrwt beam="2">  1       -2 0.46317200E-01 0.87084871E+03</pdfrwt>
<totfact> 0.24809984E+02</totfact>
</mgrwt>
</event>
<event>
 4    1  0.5056513E-005  0.9006464E+03  0.7818608E-02  0.9424774E-01
          2   -1    0    0  501    0  0.00000000000E+00  0.00000000000E+00  0.29962173699E+04  0.29962173699E+04  0.25500000000E-02 0.  1.
         -2   -1    0    0    0  501 -0.00000000000E+00 -0.00000000000E+00 -0.67682337388E+02  0.67682337436E+02  0.25500000000E-02 0. -1.
    5000001    1    1    2    0    0  0.10288100129E+03  0.37855673176E+03  0.11361959529E+04  0.12183726617E+04  0.19900000000E+03 0.  0.
   -5000001    1    1    2    0    0 -0.10288100129E+03 -0.37855673176E+03  0.17923390797E+04  0.18455270456E+04  0.19900000000E+03 0.  0.
<mgrwt>
<rscale>  0 0.90064642E+03</rscale>
<asrwt>0</asrwt>
<pdfrwt beam="1">  1        2 0.42803111E+00 0.90064642E+03</pdfrwt>
<pdfrwt beam="2">  1       -2 0.96689040E-02 0.90064642E+03</pdfrwt>
<totfact> 0.17728412E+02</totfact>
</mgrwt>
</event>
<event>
 4    1  0.5056513E-005  0.8124430E+03  0.7818608E-02  0.9542179E-01
          2   -1    0    0  501    0  0.00000000000E+00  0.00000000000E+00  0.45147646454E+03  0.45147646454E+03  0.25500000000E-02 0.  1.
         -2   -1    0    0    0  501 -0.00000000000E+00 -0.00000000000E+00 -0.36550282008E+03  0.36550282009E+03  0.25500000000E-02 0. -1.
    5000001    1    1    2    0    0 -0.13557729578E+02 -0.29357131472E+03 -0.15571960635E+03  0.38757905601E+03  0.19900000000E+03 0.  0.
   -5000001    1    1    2    0    0  0.13557729578E+02  0.29357131472E+03  0.24169325080E+03  0.42940022862E+03  0.19900000000E+03 0.  0.
<mgrwt>
<rscale>  0 0.81244303E+03</rscale>
<asrwt>0</asrwt>
<pdfrwt beam="1">  1        2 0.64496638E-01 0.81244303E+03</pdfrwt>
<pdfrwt beam="2">  1       -2 0.52214689E-01 0.81244303E+03</pdfrwt>
<totfact> 0.26280482E+02</totfact>
</mgrwt>
</event>
<event>
 4    1  0.5056513E-005  0.5700474E+03  0.7818608E-02  0.9969574E-01
          2   -1    0    0  501    0  0.00000000000E+00  0.00000000000E+00  0.10396849580E+04  0.10396849580E+04  0.25500000000E-02 0.  1.
         -2   -1    0    0    0  501 -0.00000000000E+00 -0.00000000000E+00 -0.78137613863E+02  0.78137613905E+02  0.25500000000E-02 0. -1.
    5000001    1    1    2    0    0  0.47914440448E+02 -0.46489324800E+02  0.10266272383E+03  0.23366147690E+03  0.19900000000E+03 0.  0.
   -5000001    1    1    2    0    0 -0.47914440448E+02  0.46489324800E+02  0.85888462034E+03  0.88416109504E+03  0.19900000000E+03 0.  0.
<mgrwt>
<rscale>  0 0.57004737E+03</rscale>
<asrwt>0</asrwt>
<pdfrwt beam="1">  1        2 0.14852642E+00 0.57004737E+03</pdfrwt>
<pdfrwt beam="2">  1       -2 0.11162516E-01 0.57004737E+03</pdfrwt>
<totfact> 0.15300935E+03</totfact>
</mgrwt>
</event>
<event>
 4    1  0.5056513E-005  0.4374936E+03  0.7818608E-02  0.1031519E+00
         -2   -1    0    0    0  501 -0.00000000000E+00  0.00000000000E+00  0.29473544199E+02  0.29473544309E+02  0.25500000000E-02 0. -1.
          2   -1    0    0  501    0  0.00000000000E+00 -0.00000000000E+00 -0.16234953465E+04  0.16234953465E+04  0.25500000000E-02 0.  1.
    5000001    1    1    2    0    0 -0.43736934245E+02  0.79577907472E+02 -0.78984296359E+03  0.81957212612E+03  0.19900000000E+03 0.  0.
   -5000001    1    1    2    0    0  0.43736934245E+02 -0.79577907472E+02 -0.80417883875E+03  0.83339676473E+03  0.19900000000E+03 0.  0.
<mgrwt>
<rscale>  0 0.43749360E+03</rscale>
<asrwt>0</asrwt>
<pdfrwt beam="1">  1        2 0.23192785E+00 0.43749360E+03</pdfrwt>
<pdfrwt beam="2">  1       -2 0.42105073E-02 0.43749360E+03</pdfrwt>
<totfact> 0.34398771E+03</totfact>
</mgrwt>
</event>
<event>
 4    1  0.5056513E-005  0.1122124E+04  0.7818608E-02  0.9183893E-01
         -2   -1    0    0    0  501 -0.00000000000E+00  0.00000000000E+00  0.71987901684E+02  0.71987901729E+02  0.25500000000E-02 0. -1.
          2   -1    0    0  501    0  0.00000000000E+00 -0.00000000000E+00 -0.43728238647E+04  0.43728238647E+04  0.25500000000E-02 0.  1.
    5000001    1    1    2    0    0 -0.12729511318E+03  0.49701983050E+03 -0.17172887348E+04  0.18033065065E+04  0.19900000000E+03 0.  0.
   -5000001    1    1    2    0    0  0.12729511318E+03 -0.49701983050E+03 -0.25835472282E+04  0.26415052599E+04  0.19900000000E+03 0.  0.
<mgrwt>
<rscale>  0 0.11221237E+04</rscale>
<asrwt>0</asrwt>
<pdfrwt beam="1">  1        2 0.62468896E+00 0.11221237E+04</pdfrwt>
<pdfrwt beam="2">  1       -2 0.10283989E-01 0.11221237E+04</pdfrwt>
<totfact> 0.20920554E+01</totfact>
</mgrwt>
</event>
<event>
 4    1  0.5056513E-005  0.6242200E+03  0.7818608E-02  0.9856393E-01
         -2   -1    0    0    0  501 -0.00000000000E+00  0.00000000000E+00  0.63314999574E+03  0.63314999575E+03  0.25500000000E-02 0. -1.
          2   -1    0    0  501    0  0.00000000000E+00 -0.00000000000E+00 -0.15385398267E+03  0.15385398269E+03  0.25500000000E-02 0.  1.
    5000001    1    1    2    0    0  0.23029748826E+03  0.67952780919E+02  0.25545232077E+03  0.40312702926E+03  0.19900000000E+03 0.  0.
   -5000001    1    1    2    0    0 -0.23029748826E+03 -0.67952780919E+02  0.22384369230E+03  0.38387694918E+03  0.19900000000E+03 0.  0.
<mgrwt>
<rscale>  0 0.62421999E+03</rscale>
<asrwt>0</asrwt>
<pdfrwt beam="1">  1        2 0.21979141E-01 0.62421999E+03</pdfrwt>
<pdfrwt beam="2">  1       -2 0.90449999E-01 0.62421999E+03</pdfrwt>
<totfact> 0.26866018E+02</totfact>
</mgrwt>
</event>
<event>
 4    1  0.5056513E-005  0.5651635E+03  0.7818608E-02  0.9980439E-01
         -2   -1    0    0    0  501 -0.00000000000E+00  0.00000000000E+00  0.33002482872E+02  0.33002482971E+02  0.25500000000E-02 0. -1.
          2   -1    0    0  501    0  0.00000000000E+00 -0.00000000000E+00 -0.24195892424E+04  0.24195892424E+04  0.25500000000E-02 0.  1.
    5000001    1    1    2    0    0 -0.17927098463E+03  0.84474428771E+02 -0.13289670755E+04  0.13583182627E+04  0.19900000000E+03 0.  0.
   -5000001    1    1    2    0    0  0.17927098463E+03 -0.84474428771E+02 -0.10576196840E+04  0.10942734627E+04  0.19900000000E+03 0.  0.
<mgrwt>
<rscale>  0 0.56516353E+03</rscale>
<asrwt>0</asrwt>
<pdfrwt beam="1">  1        2 0.34565549E+00 0.56516353E+03</pdfrwt>
<pdfrwt beam="2">  1       -2 0.47146419E-02 0.56516353E+03</pdfrwt>
<totfact> 0.11462272E+03</totfact>
</mgrwt>
</event>
<event>
 4    1  0.5056513E-005  0.5147035E+03  0.7818608E-02  0.1010011E+00
          2   -1    0    0  501    0  0.00000000000E+00  0.00000000000E+00  0.28287603885E+04  0.28287603885E+04  0.25500000000E-02 0.  1.
         -2   -1    0    0    0  501 -0.00000000000E+00 -0.00000000000E+00 -0.23413056776E+02  0.23413056915E+02  0.25500000000E-02 0. -1.
    5000001    1    1    2    0    0  0.67009860498E+02 -0.81575827445E+02  0.20922149089E+04  0.21043072879E+04  0.19900000000E+03 0.  0.
   -5000001    1    1    2    0    0 -0.67009860498E+02  0.81575827445E+02  0.71313242286E+03  0.74786615752E+03  0.19900000000E+03 0.  0.
<mgrwt>
<rscale>  0 0.51470352E+03</rscale>
<asrwt>0</asrwt>
<pdfrwt beam="1">  1        2 0.40410867E+00 0.51470352E+03</pdfrwt>
<pdfrwt beam="2">  1       -2 0.33447220E-02 0.51470352E+03</pdfrwt>
<totfact> 0.11953288E+03</totfact>
</mgrwt>
</event>
<event>
 4    1  0.5056513E-005  0.9948698E+03  0.7818608E-02  0.9314189E-01
         -2   -1    0    0    0  501 -0.00000000000E+00  0.00000000000E+00  0.44264661395E+03  0.44264661395E+03  0.25500000000E-02 0. -1.
          2   -1    0    0  501    0  0.00000000000E+00 -0.00000000000E+00 -0.55900458226E+03  0.55900458227E+03  0.25500000000E-02 0.  1.
    5000001    1    1    2    0    0  0.29632704565E+03  0.25682987878E+03  0.17593381438E+03  0.47362961442E+03  0.19900000000E+03 0.  0.
   -5000001    1    1    2    0    0 -0.29632704565E+03 -0.25682987878E+03 -0.29229178270E+03  0.52802158180E+03  0.19900000000E+03 0.  0.
<mgrwt>
<rscale>  0 0.99486981E+03</rscale>
<asrwt>0</asrwt>
<pdfrwt beam="1">  1        2 0.79857797E-01 0.99486981E+03</pdfrwt>
<pdfrwt beam="2">  1       -2 0.63235231E-01 0.99486981E+03</pdfrwt>
<totfact> 0.13653339E+02</totfact>
</mgrwt>
</event>
<event>
 4    1  0.5056513E-005  0.6422316E+03  0.7818608E-02  0.9821466E-01
         -2   -1    0    0    0  501 -0.00000000000E+00  0.00000000000E+00  0.10558178886E+03  0.10558178889E+03  0.25500000000E-02 0. -1.
          2   -1    0    0  501    0  0.00000000000E+00 -0.00000000000E+00 -0.97663959281E+03  0.97663959281E+03  0.25500000000E-02 0.  1.
    5000001    1    1    2    0    0 -0.12135166930E+03 -0.16255646042E+03 -0.18353236578E+03  0.33828384495E+03  0.19900000000E+03 0.  0.
   -5000001    1    1    2    0    0  0.12135166930E+03  0.16255646042E+03 -0.68752543817E+03  0.74393753675E+03  0.19900000000E+03 0.  0.
<mgrwt>
<rscale>  0 0.64223159E+03</rscale>
<asrwt>0</asrwt>
<pdfrwt beam="1">  1        2 0.13951994E+00 0.64223159E+03</pdfrwt>
<pdfrwt beam="2">  1       -2 0.15083113E-01 0.64223159E+03</pdfrwt>
<totfact> 0.10124839E+03</totfact>
</mgrwt>
</event>
<event>
 4    1  0.5056513E-005  0.6453999E+03  0.7818608E-02  0.9815449E-01
          2   -1    0    0  501    0  0.00000000000E+00  0.00000000000E+00  0.91202051024E+03  0.91202051025E+03  0.25500000000E-02 0.  1.
         -2   -1    0    0    0  501 -0.00000000000E+00 -0.00000000000E+00 -0.11418083065E+03  0.11418083068E+03  0.25500000000E-02 0. -1.
    5000001    1    1    2    0    0 -0.16226159699E+03 -0.61889879084E+02  0.69371850776E+03  0.74229748147E+03  0.19900000000E+03 0.  0.
   -5000001    1    1    2    0    0  0.16226159699E+03  0.61889879084E+02  0.10412117183E+03  0.28390385945E+03  0.19900000000E+03 0.  0.
<mgrwt>
<rscale>  0 0.64539991E+03</rscale>
<asrwt>0</asrwt>
<pdfrwt beam="1">  1        2 0.13028864E+00 0.64539991E+03</pdfrwt>
<pdfrwt beam="2">  1       -2 0.16311548E-01 0.64539991E+03</pdfrwt>
<totfact> 0.97378542E+02</totfact>
</mgrwt>
</event>
<event>
 4    1  0.5056513E-005  0.1636159E+04  0.7818608E-02  0.8798637E-01
          2   -1    0    0  501    0  0.00000000000E+00  0.00000000000E+00  0.25184602313E+04  0.25184602313E+04  0.25500000000E-02 0.  1.
         -2   -1    0    0    0  501 -0.00000000000E+00 -0.00000000000E+00 -0.26573947966E+03  0.26573947967E+03  0.25500000000E-02 0. -1.
    5000001    1    1    2    0    0  0.51413075573E+03  0.44361821938E+03  0.18249271693E+04  0.19573164619E+04  0.19900000000E+03 0.  0.
   -5000001    1    1    2    0    0 -0.51413075573E+03 -0.44361821938E+03  0.42779358229E+03  0.82688324908E+03  0.19900000000E+03 0.  0.
<mgrwt>
<rscale>  0 0.16361593E+04</rscale>
<asrwt>0</asrwt>
<pdfrwt beam="1">  1        2 0.35978004E+00 0.16361593E+04</pdfrwt>
<pdfrwt beam="2">  1       -2 0.37962782E-01 0.16361593E+04</pdfrwt>
<totfact> 0.27077547E+01</totfact>
</mgrwt>
</event>
<event>
 4    1  0.5056513E-005  0.6386147E+03  0.7818608E-02  0.9828381E-01
          2   -1    0    0  501    0  0.00000000000E+00  0.00000000000E+00  0.39300134382E+04  0.39300134382E+04  0.25500000000E-02 0.  1.
         -2   -1    0    0    0  501 -0.00000000000E+00 -0.00000000000E+00 -0.25943216203E+02  0.25943216328E+02  0.25500000000E-02 0. -1.
    5000001    1    1    2    0    0 -0.12555304192E+03  0.11423106795E+03  0.30865737348E+04  0.30976363123E+04  0.19900000000E+03 0.  0.
   -5000001    1    1    2    0    0  0.12555304192E+03 -0.11423106795E+03  0.81749648718E+03  0.85832034216E+03  0.19900000000E+03 0.  0.
<mgrwt>
<rscale>  0 0.63861472E+03</rscale>
<asrwt>0</asrwt>
<pdfrwt beam="1">  1        2 0.56143102E+00 0.63861472E+03</pdfrwt>
<pdfrwt beam="2">  1       -2 0.37061703E-02 0.63861472E+03</pdfrwt>
<totfact> 0.22944446E+02</totfact>
</mgrwt>
</event>
<event>
 4    1  0.5056513E-005  0.2919199E+04  0.7818608E-02  0.8267188E-01
         -2   -1    0    0    0  501 -0.00000000000E+00  0.00000000000E+00  0.17015076511E+04  0.17015076511E+04  0.25500000000E-02 0. -1.
          2   -1    0    0  501    0  0.00000000000E+00 -0.00000000000E+00 -0.12520841873E+04  0.12520841873E+04  0.25500000000E-02 0.  1.
    5000001    1    1    2    0    0  0.87073582185E+03  0.11523922434E+04  0.29363975941E+03  0.14872841229E+04  0.19900000000E+03 0.  0.
   -5000001    1    1    2    0    0 -0.87073582185E+03 -0.11523922434E+04  0.15578370445E+03  0.14663077155E+04  0.19900000000E+03 0.  0.
<mgrwt>
<rscale>  0 0.29191991E+04</rscale>
<asrwt>0</asrwt>
<pdfrwt beam="1">  1        2 0.17886917E+00 0.29191991E+04</pdfrwt>
<pdfrwt beam="2">  1       -2 0.24307252E+00 0.29191991E+04</pdfrwt>
<totfact> 0.12283179E+00</totfact>
</mgrwt>
</event>
<event>
 4    1  0.5056513E-005  0.7311925E+03  0.7818608E-02  0.9665327E-01
         -2   -1    0    0    0  501 -0.00000000000E+00  0.00000000000E+00  0.93316986139E+02  0.93316986174E+02  0.25500000000E-02 0. -1.
          2   -1    0    0  501    0  0.00000000000E+00 -0.00000000000E+00 -0.14323287412E+04  0.14323287412E+04  0.25500000000E-02 0.  1.
    5000001    1    1    2    0    0 -0.18280224158E+03 -0.19577174037E+03 -0.98120368547E+03  0.10363903252E+04  0.19900000000E+03 0.  0.
   -5000001    1    1    2    0    0  0.18280224158E+03  0.19577174037E+03 -0.35780806955E+03  0.48925540211E+03  0.19900000000E+03 0.  0.
<mgrwt>
<rscale>  0 0.73119245E+03</rscale>
<asrwt>0</asrwt>
<pdfrwt beam="1">  1        2 0.20461838E+00 0.73119245E+03</pdfrwt>
<pdfrwt beam="2">  1       -2 0.13330999E-01 0.73119245E+03</pdfrwt>
<totfact> 0.68530329E+02</totfact>
</mgrwt>
</event>
<event>
 4    1  0.5056513E-005  0.7758427E+03  0.7818608E-02  0.9595657E-01
          2   -1    0    0  501    0  0.00000000000E+00  0.00000000000E+00  0.20386647312E+04  0.20386647312E+04  0.25500000000E-02 0.  1.
         -2   -1    0    0    0  501 -0.00000000000E+00 -0.00000000000E+00 -0.73814477705E+02  0.73814477749E+02  0.25500000000E-02 0. -1.
    5000001    1    1    2    0    0  0.23447679394E+03  0.15546441461E+03  0.49738550577E+03  0.60509659763E+03  0.19900000000E+03 0.  0.
   -5000001    1    1    2    0    0 -0.23447679394E+03 -0.15546441461E+03  0.14674647478E+04  0.15073826114E+04  0.19900000000E+03 0.  0.
<mgrwt>
<rscale>  0 0.77584270E+03</rscale>
<asrwt>0</asrwt>
<pdfrwt beam="1">  1        2 0.29123777E+00 0.77584270E+03</pdfrwt>
<pdfrwt beam="2">  1       -2 0.10544927E-01 0.77584270E+03</pdfrwt>
<totfact> 0.49153975E+02</totfact>
</mgrwt>
</event>
<event>
 4    1  0.5056513E-005  0.5723641E+03  0.7818608E-02  0.9964461E-01
         -2   -1    0    0    0  501 -0.00000000000E+00  0.00000000000E+00  0.33538894200E+03  0.33538894201E+03  0.25500000000E-02 0. -1.
          2   -1    0    0  501    0  0.00000000000E+00 -0.00000000000E+00 -0.24419457216E+03  0.24419457218E+03  0.25500000000E-02 0.  1.
    5000001    1    1    2    0    0  0.57149869408E+02 -0.14490841162E+03 -0.90389679192E+02  0.26839495046E+03  0.19900000000E+03 0.  0.
   -5000001    1    1    2    0    0 -0.57149869408E+02  0.14490841162E+03  0.18158404902E+03  0.31118856372E+03  0.19900000000E+03 0.  0.
<mgrwt>
<rscale>  0 0.57236408E+03</rscale>
<asrwt>0</asrwt>
<pdfrwt beam="1">  1        2 0.34884939E-01 0.57236408E+03</pdfrwt>
<pdfrwt beam="2">  1       -2 0.47912706E-01 0.57236408E+03</pdfrwt>
<totfact> 0.62370642E+02</totfact>
</mgrwt>
</event>
<event>
 4    1  0.5056513E-005  0.8659825E+03  0.7818608E-02  0.9469133E-01
         -2   -1    0    0    0  501 -0.00000000000E+00  0.00000000000E+00  0.78308971304E+02  0.78308971345E+02  0.25500000000E-02 0. -1.
          2   -1    0    0  501    0  0.00000000000E+00 -0.00000000000E+00 -0.23941243848E+04  0.23941243848E+04  0.25500000000E-02 0.  1.
    5000001    1    1    2    0    0  0.34726776480E+03  0.15412971377E+03 -0.13275269302E+04  0.13950912585E+04  0.19900000000E+03 0.  0.
   -5000001    1    1    2    0    0 -0.34726776480E+03 -0.15412971377E+03 -0.98828848321E+03  0.10773420976E+04  0.19900000000E+03 0.  0.
<mgrwt>
<rscale>  0 0.86598249E+03</rscale>
<asrwt>0</asrwt>
<pdfrwt beam="1">  1        2 0.34201772E+00 0.86598249E+03</pdfrwt>
<pdfrwt beam="2">  1       -2 0.11186997E-01 0.86598249E+03</pdfrwt>
<totfact> 0.29205217E+02</totfact>
</mgrwt>
</event>
<event>
 4    1  0.5056513E-005  0.8030187E+03  0.7818608E-02  0.9555658E-01
         -2   -1    0    0    0  501 -0.00000000000E+00  0.00000000000E+00  0.95707189698E+02  0.95707189732E+02  0.25500000000E-02 0. -1.
          2   -1    0    0  501    0  0.00000000000E+00 -0.00000000000E+00 -0.16844057741E+04  0.16844057741E+04  0.25500000000E-02 0.  1.
    5000001    1    1    2    0    0 -0.10988737616E+03 -0.30748589326E+03 -0.52297805308E+03  0.64786561415E+03  0.19900000000E+03 0.  0.
   -5000001    1    1    2    0    0  0.10988737616E+03  0.30748589326E+03 -0.10657205313E+04  0.11322473497E+04  0.19900000000E+03 0.  0.
<mgrwt>
<rscale>  0 0.80301866E+03</rscale>
<asrwt>0</asrwt>
<pdfrwt beam="1">  1        2 0.24062938E+00 0.80301866E+03</pdfrwt>
<pdfrwt beam="2">  1       -2 0.13672457E-01 0.80301866E+03</pdfrwt>
<totfact> 0.48352139E+02</totfact>
</mgrwt>
</event>
<event>
 4    1  0.5056513E-005  0.7764166E+03  0.7818608E-02  0.9594795E-01
          2   -1    0    0  501    0  0.00000000000E+00  0.00000000000E+00  0.28457410407E+04  0.28457410407E+04  0.25500000000E-02 0.  1.
         -2   -1    0    0    0  501 -0.00000000000E+00 -0.00000000000E+00 -0.52958328183E+02  0.52958328245E+02  0.25500000000E-02 0. -1.
    5000001    1    1    2    0    0 -0.20938181635E+03  0.25843636716E+03  0.14777242736E+04  0.15277107480E+04  0.19900000000E+03 0.  0.
   -5000001    1    1    2    0    0  0.20938181635E+03 -0.25843636716E+03  0.13150584389E+04  0.13709886209E+04  0.19900000000E+03 0.  0.
<mgrwt>
<rscale>  0 0.77641661E+03</rscale>
<asrwt>0</asrwt>
<pdfrwt beam="1">  1        2 0.40653460E+00 0.77641661E+03</pdfrwt>
<pdfrwt beam="2">  1       -2 0.75654723E-02 0.77641661E+03</pdfrwt>
<totfact> 0.32144963E+02</totfact>
</mgrwt>
</event>
<event>
 4    1  0.5056513E-005  0.5453637E+03  0.7818608E-02  0.1002573E+00
          2   -1    0    0  501    0  0.00000000000E+00  0.00000000000E+00  0.10161777106E+04  0.10161777106E+04  0.25500000000E-02 0. -1.
         -2   -1    0    0    0  501 -0.00000000000E+00 -0.00000000000E+00 -0.73171642161E+02  0.73171642206E+02  0.25500000000E-02 0.  1.
    5000001    1    1    2    0    0 -0.15134922065E+03  0.10032423541E+03  0.55584402978E+03  0.61768529547E+03  0.19900000000E+03 0.  0.
   -5000001    1    1    2    0    0  0.15134922065E+03 -0.10032423541E+03  0.38716203864E+03  0.47166405732E+03  0.19900000000E+03 0.  0.
<mgrwt>
<rscale>  0 0.54536370E+03</rscale>
<asrwt>0</asrwt>
<pdfrwt beam="1">  1        2 0.14516824E+00 0.54536370E+03</pdfrwt>
<pdfrwt beam="2">  1       -2 0.10453092E-01 0.54536370E+03</pdfrwt>
<totfact> 0.17595593E+03</totfact>
</mgrwt>
</event>
<event>
 4    1  0.5056513E-005  0.5239252E+03  0.7818608E-02  0.1007716E+00
         -2   -1    0    0    0  501 -0.00000000000E+00  0.00000000000E+00  0.75440944654E+02  0.75440944697E+02  0.25500000000E-02 0. -1.
          2   -1    0    0  501    0  0.00000000000E+00 -0.00000000000E+00 -0.90964412701E+03  0.90964412701E+03  0.25500000000E-02 0.  1.
    5000001    1    1    2    0    0 -0.13991431855E+02  0.82622912599E+02 -0.13821561013E+03  0.25637250386E+03  0.19900000000E+03 0.  0.
   -5000001    1    1    2    0    0  0.13991431855E+02 -0.82622912599E+02 -0.69598757222E+03  0.72871256785E+03  0.19900000000E+03 0.  0.
<mgrwt>
<rscale>  0 0.52392523E+03</rscale>
<asrwt>0</asrwt>
<pdfrwt beam="1">  1        2 0.12994915E+00 0.52392523E+03</pdfrwt>
<pdfrwt beam="2">  1       -2 0.10777278E-01 0.52392523E+03</pdfrwt>
<totfact> 0.19495349E+03</totfact>
</mgrwt>
</event>
<event>
 4    1  0.5056513E-005  0.5878568E+03  0.7818608E-02  0.9930925E-01
          2   -1    0    0  501    0  0.00000000000E+00  0.00000000000E+00  0.59201819759E+03  0.59201819759E+03  0.25500000000E-02 0.  1.
         -2   -1    0    0    0  501 -0.00000000000E+00 -0.00000000000E+00 -0.14593117725E+03  0.14593117728E+03  0.25500000000E-02 0. -1.
    5000001    1    1    2    0    0 -0.12170311807E+03  0.17547658797E+03  0.17975346363E+03  0.34280605240E+03  0.19900000000E+03 0.  0.
   -5000001    1    1    2    0    0  0.12170311807E+03 -0.17547658797E+03  0.26633355670E+03  0.39514332247E+03  0.19900000000E+03 0.  0.
<mgrwt>
<rscale>  0 0.58785683E+03</rscale>
<asrwt>0</asrwt>
<pdfrwt beam="1">  1        2 0.84574030E-01 0.58785683E+03</pdfrwt>
<pdfrwt beam="2">  1       -2 0.20847311E-01 0.58785683E+03</pdfrwt>
<totfact> 0.10951294E+03</totfact>
</mgrwt>
</event>
<event>
 4    1  0.5056513E-005  0.9834231E+03  0.7818608E-02  0.9326915E-01
          2   -1    0    0  501    0  0.00000000000E+00  0.00000000000E+00  0.17991335785E+03  0.17991335787E+03  0.25500000000E-02 0.  1.
         -2   -1    0    0    0  501 -0.00000000000E+00 -0.00000000000E+00 -0.13438704489E+04  0.13438704489E+04  0.25500000000E-02 0. -1.
    5000001    1    1    2    0    0 -0.11648629127E+03 -0.41389103819E+03 -0.37815178959E+03  0.60619685212E+03  0.19900000000E+03 0.  0.
   -5000001    1    1    2    0    0  0.11648629127E+03  0.41389103819E+03 -0.78580530141E+03  0.91758695461E+03  0.19900000000E+03 0.  0.
<mgrwt>
<rscale>  0 0.98342309E+03</rscale>
<asrwt>0</asrwt>
<pdfrwt beam="1">  1        2 0.25701909E-01 0.98342309E+03</pdfrwt>
<pdfrwt beam="2">  1       -2 0.19198149E+00 0.98342309E+03</pdfrwt>
<totfact> 0.31960134E+01</totfact>
</mgrwt>
</event>
<event>
 4    1  0.5056513E-005  0.7490799E+03  0.7818608E-02  0.9636795E-01
          2   -1    0    0  501    0  0.00000000000E+00  0.00000000000E+00  0.81409352721E+03  0.81409352721E+03  0.25500000000E-02 0.  1.
         -2   -1    0    0    0  501 -0.00000000000E+00 -0.00000000000E+00 -0.17231454888E+03  0.17231454889E+03  0.25500000000E-02 0. -1.
    5000001    1    1    2    0    0 -0.22903364534E+03  0.21742023099E+03  0.36150224361E+03  0.51962759711E+03  0.19900000000E+03 0.  0.
   -5000001    1    1    2    0    0  0.22903364534E+03 -0.21742023099E+03  0.28027673473E+03  0.46678047900E+03  0.19900000000E+03 0.  0.
<mgrwt>
<rscale>  0 0.74907986E+03</rscale>
<asrwt>0</asrwt>
<pdfrwt beam="1">  1        2 0.11629908E+00 0.74907986E+03</pdfrwt>
<pdfrwt beam="2">  1       -2 0.24616364E-01 0.74907986E+03</pdfrwt>
<totfact> 0.54946597E+02</totfact>
</mgrwt>
</event>
<event>
 4    1  0.5056513E-005  0.6315617E+03  0.7818608E-02  0.9842006E-01
         -2   -1    0    0    0  501 -0.00000000000E+00  0.00000000000E+00  0.30195706378E+02  0.30195706485E+02  0.25500000000E-02 0. -1.
          2   -1    0    0  501    0  0.00000000000E+00 -0.00000000000E+00 -0.33023750950E+04  0.33023750950E+04  0.25500000000E-02 0.  1.
    5000001    1    1    2    0    0 -0.81859648214E+02 -0.19884333248E+03 -0.22576874617E+04  0.22766188411E+04  0.19900000000E+03 0.  0.
   -5000001    1    1    2    0    0  0.81859648214E+02  0.19884333248E+03 -0.10144919269E+04  0.10559519604E+04  0.19900000000E+03 0.  0.
<mgrwt>
<rscale>  0 0.63156171E+03</rscale>
<asrwt>0</asrwt>
<pdfrwt beam="1">  1        2 0.47176764E+00 0.63156171E+03</pdfrwt>
<pdfrwt beam="2">  1       -2 0.43136745E-02 0.63156171E+03</pdfrwt>
<totfact> 0.43972181E+02</totfact>
</mgrwt>
</event>
<event>
 4    1  0.5056513E-005  0.4883924E+03  0.7818608E-02  0.1016854E+00
          2   -1    0    0  501    0  0.00000000000E+00  0.00000000000E+00  0.46504206214E+03  0.46504206215E+03  0.25500000000E-02 0.  1.
         -2   -1    0    0    0  501 -0.00000000000E+00 -0.00000000000E+00 -0.12822879778E+03  0.12822879781E+03  0.25500000000E-02 0. -1.
    5000001    1    1    2    0    0  0.23997711023E+02  0.12961007531E+03  0.10580175132E+03  0.26109322538E+03  0.19900000000E+03 0.  0.
   -5000001    1    1    2    0    0 -0.23997711023E+02 -0.12961007531E+03  0.23101151304E+03  0.33217763458E+03  0.19900000000E+03 0.  0.
<mgrwt>
<rscale>  0 0.48839240E+03</rscale>
<asrwt>0</asrwt>
<pdfrwt beam="1">  1        2 0.66434581E-01 0.48839240E+03</pdfrwt>
<pdfrwt beam="2">  1       -2 0.18318399E-01 0.48839240E+03</pdfrwt>
<totfact> 0.18059462E+03</totfact>
</mgrwt>
</event>
<event>
 4    1  0.5056513E-005  0.7200441E+03  0.7818608E-02  0.9683555E-01
          2   -1    0    0  501    0  0.00000000000E+00  0.00000000000E+00  0.15009367567E+04  0.15009367568E+04  0.25500000000E-02 0.  1.
         -2   -1    0    0    0  501 -0.00000000000E+00 -0.00000000000E+00 -0.86356663059E+02  0.86356663096E+02  0.25500000000E-02 0. -1.
    5000001    1    1    2    0    0 -0.12557484471E+03 -0.19472457884E+03  0.11274551286E+04  0.11680936479E+04  0.19900000000E+03 0.  0.
   -5000001    1    1    2    0    0  0.12557484471E+03  0.19472457884E+03  0.28712496506E+03  0.41919977194E+03  0.19900000000E+03 0.  0.
<mgrwt>
<rscale>  0 0.72004414E+03</rscale>
<asrwt>0</asrwt>
<pdfrwt beam="1">  1        2 0.21441954E+00 0.72004414E+03</pdfrwt>
<pdfrwt beam="2">  1       -2 0.12336666E-01 0.72004414E+03</pdfrwt>
<totfact> 0.71758939E+02</totfact>
</mgrwt>
</event>
<event>
 4    1  0.5056513E-005  0.7363910E+03  0.7818608E-02  0.9656946E-01
          2   -1    0    0  501    0  0.00000000000E+00  0.00000000000E+00  0.43817070063E+03  0.43817070064E+03  0.25500000000E-02 0.  1.
         -2   -1    0    0    0  501 -0.00000000000E+00 -0.00000000000E+00 -0.30939524721E+03  0.30939524722E+03  0.25500000000E-02 0. -1.
    5000001    1    1    2    0    0  0.15248099287E+03  0.21881435027E+03  0.22437612564E+03  0.40134252058E+03  0.19900000000E+03 0.  0.
   -5000001    1    1    2    0    0 -0.15248099287E+03 -0.21881435027E+03 -0.95600672220E+02  0.34622342728E+03  0.19900000000E+03 0.  0.
<mgrwt>
<rscale>  0 0.73639102E+03</rscale>
<asrwt>0</asrwt>
<pdfrwt beam="1">  1        2 0.62595814E-01 0.73639102E+03</pdfrwt>
<pdfrwt beam="2">  1       -2 0.44199322E-01 0.73639102E+03</pdfrwt>
<totfact> 0.38146636E+02</totfact>
</mgrwt>
</event>
<event>
 4    1  0.5056513E-005  0.9117950E+03  0.7818608E-02  0.9410956E-01
         -2   -1    0    0    0  501 -0.00000000000E+00  0.00000000000E+00  0.97733643414E+02  0.97733643447E+02  0.25500000000E-02 0. -1.
          2   -1    0    0  501    0  0.00000000000E+00 -0.00000000000E+00 -0.21266219863E+04  0.21266219863E+04  0.25500000000E-02 0.  1.
    5000001    1    1    2    0    0 -0.12289397153E+03 -0.30714986311E+03 -0.42290073213E+03  0.57261679672E+03  0.19900000000E+03 0.  0.
   -5000001    1    1    2    0    0  0.12289397153E+03  0.30714986311E+03 -0.16059876107E+04  0.16517388330E+04  0.19900000000E+03 0.  0.
<mgrwt>
<rscale>  0 0.91179497E+03</rscale>
<asrwt>0</asrwt>
<pdfrwt beam="1">  1        2 0.30380311E+00 0.91179497E+03</pdfrwt>
<pdfrwt beam="2">  1       -2 0.13961950E-01 0.91179497E+03</pdfrwt>
<totfact> 0.27585517E+02</totfact>
</mgrwt>
</event>
<event>
 4    1  0.5056513E-005  0.8628899E+03  0.7818608E-02  0.9473198E-01
          2   -1    0    0  501    0  0.00000000000E+00  0.00000000000E+00  0.28380992365E+04  0.28380992365E+04  0.25500000000E-02 0.  1.
         -2   -1    0    0    0  501 -0.00000000000E+00 -0.00000000000E+00 -0.65587826894E+02  0.65587826944E+02  0.25500000000E-02 0. -1.
    5000001    1    1    2    0    0  0.12849920803E+02 -0.37392842815E+03  0.16587262512E+04  0.17120050720E+04  0.19900000000E+03 0.  0.
   -5000001    1    1    2    0    0 -0.12849920803E+02  0.37392842815E+03  0.11137851583E+04  0.11916819915E+04  0.19900000000E+03 0.  0.
<mgrwt>
<rscale>  0 0.86288994E+03</rscale>
<asrwt>0</asrwt>
<pdfrwt beam="1">  1        2 0.40544277E+00 0.86288994E+03</pdfrwt>
<pdfrwt beam="2">  1       -2 0.93696890E-02 0.86288994E+03</pdfrwt>
<totfact> 0.22821091E+02</totfact>
</mgrwt>
</event>
<event>
 4    1  0.5056513E-005  0.6358031E+03  0.7818608E-02  0.9833789E-01
          2   -1    0    0  501    0  0.00000000000E+00  0.00000000000E+00  0.12693472326E+04  0.12693472326E+04  0.25500000000E-02 0.  1.
         -2   -1    0    0    0  501 -0.00000000000E+00 -0.00000000000E+00 -0.79616835082E+02  0.79616835123E+02  0.25500000000E-02 0. -1.
    5000001    1    1    2    0    0  0.86914105091E+02 -0.14042354241E+03  0.98715938118E+03  0.10204692434E+04  0.19900000000E+03 0.  0.
   -5000001    1    1    2    0    0 -0.86914105091E+02  0.14042354241E+03  0.20257101632E+03  0.32849482428E+03  0.19900000000E+03 0.  0.
<mgrwt>
<rscale>  0 0.63580314E+03</rscale>
<asrwt>0</asrwt>
<pdfrwt beam="1">  1        2 0.18133532E+00 0.63580314E+03</pdfrwt>
<pdfrwt beam="2">  1       -2 0.11373833E-01 0.63580314E+03</pdfrwt>
<totfact> 0.10954307E+03</totfact>
</mgrwt>
</event>
<event>
 4    1  0.5056513E-005  0.7288639E+03  0.7818608E-02  0.9669106E-01
         -2   -1    0    0    0  501 -0.00000000000E+00  0.00000000000E+00  0.59166150214E+03  0.59166150214E+03  0.25500000000E-02 0. -1.
          2   -1    0    0  501    0  0.00000000000E+00 -0.00000000000E+00 -0.22447064008E+03  0.22447064009E+03  0.25500000000E-02 0.  1.
    5000001    1    1    2    0    0  0.14753235321E+03 -0.21839170349E+03  0.11037132189E+02  0.33042934144E+03  0.19900000000E+03 0.  0.
   -5000001    1    1    2    0    0 -0.14753235321E+03  0.21839170349E+03  0.35615372987E+03  0.48570280079E+03  0.19900000000E+03 0.  0.
<mgrwt>
<rscale>  0 0.72886387E+03</rscale>
<asrwt>0</asrwt>
<pdfrwt beam="1">  1        2 0.32067235E-01 0.72886387E+03</pdfrwt>
<pdfrwt beam="2">  1       -2 0.84523071E-01 0.72886387E+03</pdfrwt>
<totfact> 0.20326800E+02</totfact>
</mgrwt>
</event>
<event>
 4    1  0.5056513E-005  0.5079847E+03  0.7818608E-02  0.1011716E+00
         -2   -1    0    0    0  501 -0.00000000000E+00  0.00000000000E+00  0.30644618318E+02  0.30644618424E+02  0.25500000000E-02 0. -1.
          2   -1    0    0  501    0  0.00000000000E+00 -0.00000000000E+00 -0.21051691786E+04  0.21051691786E+04  0.25500000000E-02 0.  1.
    5000001    1    1    2    0    0  0.10263626438E+03  0.16508187057E+02 -0.15365947750E+04  0.15529105659E+04  0.19900000000E+03 0.  0.
   -5000001    1    1    2    0    0 -0.10263626438E+03 -0.16508187057E+02 -0.53792978527E+03  0.58290323115E+03  0.19900000000E+03 0.  0.
<mgrwt>
<rscale>  0 0.50798467E+03</rscale>
<asrwt>0</asrwt>
<pdfrwt beam="1">  1        2 0.30073836E+00 0.50798467E+03</pdfrwt>
<pdfrwt beam="2">  1       -2 0.43778040E-02 0.50798467E+03</pdfrwt>
<totfact> 0.18562790E+03</totfact>
</mgrwt>
</event>
<event>
 4    1  0.5056513E-005  0.5332196E+03  0.7818608E-02  0.1005454E+00
         -2   -1    0    0    0  501 -0.00000000000E+00  0.00000000000E+00  0.17506875301E+03  0.17506875303E+03  0.25500000000E-02 0. -1.
          2   -1    0    0  501    0  0.00000000000E+00 -0.00000000000E+00 -0.40601643324E+03  0.40601643325E+03  0.25500000000E-02 0.  1.
    5000001    1    1    2    0    0  0.70685822177E+02 -0.10947190385E+03 -0.24669558722E+03  0.34269563163E+03  0.19900000000E+03 0.  0.
   -5000001    1    1    2    0    0 -0.70685822177E+02  0.10947190385E+03  0.15747906995E+02  0.23838955464E+03  0.19900000000E+03 0.  0.
<mgrwt>
<rscale>  0 0.53321962E+03</rscale>
<asrwt>0</asrwt>
<pdfrwt beam="1">  1        2 0.58002347E-01 0.53321962E+03</pdfrwt>
<pdfrwt beam="2">  1       -2 0.25009822E-01 0.53321962E+03</pdfrwt>
<totfact> 0.12176716E+03</totfact>
</mgrwt>
</event>
<event>
 4    1  0.5056513E-005  0.5615846E+03  0.7818608E-02  0.9988476E-01
          2   -1    0    0  501    0  0.00000000000E+00  0.00000000000E+00  0.52815776648E+03  0.52815776649E+03  0.25500000000E-02 0.  1.
         -2   -1    0    0    0  501 -0.00000000000E+00 -0.00000000000E+00 -0.14928175793E+03  0.14928175795E+03  0.25500000000E-02 0. -1.
    5000001    1    1    2    0    0  0.18605325755E+03  0.30291964047E+02  0.26291249021E+03  0.37981231581E+03  0.19900000000E+03 0.  0.
   -5000001    1    1    2    0    0 -0.18605325755E+03 -0.30291964047E+02  0.11596351835E+03  0.29762720863E+03  0.19900000000E+03 0.  0.
<mgrwt>
<rscale>  0 0.56158461E+03</rscale>
<asrwt>0</asrwt>
<pdfrwt beam="1">  1        2 0.75451110E-01 0.56158461E+03</pdfrwt>
<pdfrwt beam="2">  1       -2 0.21325965E-01 0.56158461E+03</pdfrwt>
<totfact> 0.12014597E+03</totfact>
</mgrwt>
</event>
<event>
 4    1  0.5056513E-005  0.5298455E+03  0.7818608E-02  0.1006270E+00
         -2   -1    0    0    0  501 -0.00000000000E+00  0.00000000000E+00  0.39251979238E+03  0.39251979239E+03  0.25500000000E-02 0. -1.
          2   -1    0    0  501    0  0.00000000000E+00 -0.00000000000E+00 -0.17880385408E+03  0.17880385410E+03  0.25500000000E-02 0.  1.
    5000001    1    1    2    0    0 -0.13986930170E+03 -0.80153559467E+02  0.33764681943E+02  0.25831970192E+03  0.19900000000E+03 0.  0.
   -5000001    1    1    2    0    0  0.13986930170E+03  0.80153559467E+02  0.17995125635E+03  0.31300394457E+03  0.19900000000E+03 0.  0.
<mgrwt>
<rscale>  0 0.52984546E+03</rscale>
<asrwt>0</asrwt>
<pdfrwt beam="1">  1        2 0.25543408E-01 0.52984546E+03</pdfrwt>
<pdfrwt beam="2">  1       -2 0.56074255E-01 0.52984546E+03</pdfrwt>
<totfact> 0.64256164E+02</totfact>
</mgrwt>
</event>
<event>
 4    1  0.5056513E-005  0.6406242E+03  0.7818608E-02  0.9824533E-01
          2   -1    0    0  501    0  0.00000000000E+00  0.00000000000E+00  0.10437420683E+04  0.10437420683E+04  0.25500000000E-02 0.  1.
         -2   -1    0    0    0  501 -0.00000000000E+00 -0.00000000000E+00 -0.98299984303E+02  0.98299984336E+02  0.25500000000E-02 0. -1.
    5000001    1    1    2    0    0 -0.20869868066E+03 -0.47705686587E+01  0.72115663003E+03  0.77668898709E+03  0.19900000000E+03 0.  0.
   -5000001    1    1    2    0    0  0.20869868066E+03  0.47705686587E+01  0.22428545395E+03  0.36535306552E+03  0.19900000000E+03 0.  0.
<mgrwt>
<rscale>  0 0.64062416E+03</rscale>
<asrwt>0</asrwt>
<pdfrwt beam="1">  1        2 0.14910600E+00 0.64062416E+03</pdfrwt>
<pdfrwt beam="2">  1       -2 0.14042856E-01 0.64062416E+03</pdfrwt>
<totfact> 0.10393750E+03</totfact>
</mgrwt>
</event>
<event>
 4    1  0.5056513E-005  0.5037530E+03  0.7818608E-02  0.1012804E+00
          2   -1    0    0  501    0  0.00000000000E+00  0.00000000000E+00  0.48213392470E+03  0.48213392470E+03  0.25500000000E-02 0.  1.
         -2   -1    0    0    0  501 -0.00000000000E+00 -0.00000000000E+00 -0.13158537126E+03  0.13158537128E+03  0.25500000000E-02 0. -1.
    5000001    1    1    2    0    0 -0.63560085553E+02  0.13815453635E+03  0.20783285469E+03  0.32545668818E+03  0.19900000000E+03 0.  0.
   -5000001    1    1    2    0    0  0.63560085553E+02 -0.13815453635E+03  0.14271569875E+03  0.28826260780E+03  0.19900000000E+03 0.  0.
<mgrwt>
<rscale>  0 0.50375300E+03</rscale>
<asrwt>0</asrwt>
<pdfrwt beam="1">  1        2 0.68876276E-01 0.50375300E+03</pdfrwt>
<pdfrwt beam="2">  1       -2 0.18797910E-01 0.50375300E+03</pdfrwt>
<totfact> 0.16591709E+03</totfact>
</mgrwt>
</event>
<event>
 4    1  0.5056513E-005  0.4636422E+03  0.7818608E-02  0.1023730E+00
         -2   -1    0    0    0  501 -0.00000000000E+00  0.00000000000E+00  0.14443571971E+03  0.14443571974E+03  0.25500000000E-02 0. -1.
          2   -1    0    0  501    0  0.00000000000E+00 -0.00000000000E+00 -0.37207568024E+03  0.37207568025E+03  0.25500000000E-02 0.  1.
    5000001    1    1    2    0    0 -0.20026227094E+02  0.11596098450E+03 -0.13285715536E+03  0.26664587645E+03  0.19900000000E+03 0.  0.
   -5000001    1    1    2    0    0  0.20026227094E+02 -0.11596098450E+03 -0.94782805166E+02  0.24986552354E+03  0.19900000000E+03 0.  0.
<mgrwt>
<rscale>  0 0.46364218E+03</rscale>
<asrwt>0</asrwt>
<pdfrwt beam="1">  1        2 0.53153668E-01 0.46364218E+03</pdfrwt>
<pdfrwt beam="2">  1       -2 0.20633674E-01 0.46364218E+03</pdfrwt>
<totfact> 0.18816969E+03</totfact>
</mgrwt>
</event>
<event>
 4    1  0.5056513E-005  0.7593095E+03  0.7818608E-02  0.9620857E-01
          2   -1    0    0  501    0  0.00000000000E+00  0.00000000000E+00  0.87886490874E+03  0.87886490874E+03  0.25500000000E-02 0.  1.
         -2   -1    0    0    0  501 -0.00000000000E+00 -0.00000000000E+00 -0.16400443540E+03  0.16400443542E+03  0.25500000000E-02 0. -1.
    5000001    1    1    2    0    0  0.54755312395E+01  0.32327442796E+03  0.35830531665E+03  0.52203451720E+03  0.19900000000E+03 0.  0.
   -5000001    1    1    2    0    0 -0.54755312395E+01 -0.32327442796E+03  0.35655515669E+03  0.52083482696E+03  0.19900000000E+03 0.  0.
<mgrwt>
<rscale>  0 0.75930954E+03</rscale>
<asrwt>0</asrwt>
<pdfrwt beam="1">  1        2 0.12555213E+00 0.75930954E+03</pdfrwt>
<pdfrwt beam="2">  1       -2 0.23429205E-01 0.75930954E+03</pdfrwt>
<totfact> 0.54269923E+02</totfact>
</mgrwt>
</event>
<event>
 4    1  0.5056513E-005  0.4848342E+03  0.7818608E-02  0.1017815E+00
          2   -1    0    0  501    0  0.00000000000E+00  0.00000000000E+00  0.49987667443E+03  0.49987667444E+03  0.25500000000E-02 0.  1.
         -2   -1    0    0    0  501 -0.00000000000E+00 -0.00000000000E+00 -0.11756112037E+03  0.11756112039E+03  0.25500000000E-02 0. -1.
    5000001    1    1    2    0    0  0.76704353266E+02  0.11524382414E+03  0.19192726119E+03  0.30919535960E+03  0.19900000000E+03 0.  0.
   -5000001    1    1    2    0    0 -0.76704353266E+02 -0.11524382414E+03  0.19038829288E+03  0.30824243523E+03  0.19900000000E+03 0.  0.
<mgrwt>
<rscale>  0 0.48483425E+03</rscale>
<asrwt>0</asrwt>
<pdfrwt beam="1">  1        2 0.71410955E-01 0.48483425E+03</pdfrwt>
<pdfrwt beam="2">  1       -2 0.16794445E-01 0.48483425E+03</pdfrwt>
<totfact> 0.19307689E+03</totfact>
</mgrwt>
</event>
<event>
 4    1  0.5056513E-005  0.5525697E+03  0.7818608E-02  0.1000901E+00
         -2   -1    0    0    0  501 -0.00000000000E+00  0.00000000000E+00  0.22676525561E+02  0.22676525704E+02  0.25500000000E-02 0. -1.
          2   -1    0    0  501    0  0.00000000000E+00 -0.00000000000E+00 -0.33661827695E+04  0.33661827695E+04  0.25500000000E-02 0.  1.
    5000001    1    1    2    0    0 -0.12130893888E+03 -0.12102540474E+03 -0.11452751286E+04  0.11749975010E+04  0.19900000000E+03 0.  0.
   -5000001    1    1    2    0    0  0.12130893888E+03  0.12102540474E+03 -0.21982311153E+04  0.22138617942E+04  0.19900000000E+03 0.  0.
<mgrwt>
<rscale>  0 0.55256974E+03</rscale>
<asrwt>0</asrwt>
<pdfrwt beam="1">  1        2 0.48088294E+00 0.55256974E+03</pdfrwt>
<pdfrwt beam="2">  1       -2 0.32395058E-02 0.55256974E+03</pdfrwt>
<totfact> 0.63212744E+02</totfact>
</mgrwt>
</event>
<event>
 4    1  0.5056513E-005  0.5320657E+03  0.7818608E-02  0.1005732E+00
          2   -1    0    0  501    0  0.00000000000E+00  0.00000000000E+00  0.15103548525E+04  0.15103548525E+04  0.25500000000E-02 0.  1.
         -2   -1    0    0    0  501 -0.00000000000E+00 -0.00000000000E+00 -0.46858832625E+02  0.46858832694E+02  0.25500000000E-02 0. -1.
    5000001    1    1    2    0    0 -0.70761731545E+02  0.16110858896E+03  0.68940989693E+03  0.73881676082E+03  0.19900000000E+03 0.  0.
   -5000001    1    1    2    0    0  0.70761731545E+02 -0.16110858896E+03  0.77408612293E+03  0.81839692436E+03  0.19900000000E+03 0.  0.
<mgrwt>
<rscale>  0 0.53206565E+03</rscale>
<asrwt>0</asrwt>
<pdfrwt beam="1">  1        2 0.21576501E+00 0.53206565E+03</pdfrwt>
<pdfrwt beam="2">  1       -2 0.66941180E-02 0.53206565E+03</pdfrwt>
<totfact> 0.19136913E+03</totfact>
</mgrwt>
</event>
<event>
 4    1  0.5056513E-005  0.7565437E+03  0.7818608E-02  0.9625140E-01
          2   -1    0    0  501    0  0.00000000000E+00  0.00000000000E+00  0.12732065958E+04  0.12732065958E+04  0.25500000000E-02 0.  1.
         -2   -1    0    0    0  501 -0.00000000000E+00 -0.00000000000E+00 -0.11238520181E+03  0.11238520184E+03  0.25500000000E-02 0. -1.
    5000001    1    1    2    0    0 -0.11939315106E+03 -0.26297747143E+03  0.83991676940E+03  0.91020495193E+03  0.19900000000E+03 0.  0.
   -5000001    1    1    2    0    0  0.11939315106E+03  0.26297747143E+03  0.32090462463E+03  0.47538684575E+03  0.19900000000E+03 0.  0.
<mgrwt>
<rscale>  0 0.75654367E+03</rscale>
<asrwt>0</asrwt>
<pdfrwt beam="1">  1        2 0.18188666E+00 0.75654367E+03</pdfrwt>
<pdfrwt beam="2">  1       -2 0.16055029E-01 0.75654367E+03</pdfrwt>
<totfact> 0.61001037E+02</totfact>
</mgrwt>
</event>
<event>
 4    1  0.5056513E-005  0.5910428E+03  0.7818608E-02  0.9924166E-01
          2   -1    0    0  501    0  0.00000000000E+00  0.00000000000E+00  0.38318689703E+03  0.38318689704E+03  0.25500000000E-02 0. -1.
         -2   -1    0    0    0  501 -0.00000000000E+00 -0.00000000000E+00 -0.22791200838E+03  0.22791200839E+03  0.25500000000E-02 0.  1.
    5000001    1    1    2    0    0  0.16805010352E+03 -0.13769451652E+03  0.10146906330E+03  0.31160485872E+03  0.19900000000E+03 0.  0.
   -5000001    1    1    2    0    0 -0.16805010352E+03  0.13769451652E+03  0.53805825345E+02  0.29949404671E+03  0.19900000000E+03 0.  0.
<mgrwt>
<rscale>  0 0.59104279E+03</rscale>
<asrwt>0</asrwt>
<pdfrwt beam="1">  1        2 0.54740985E-01 0.59104279E+03</pdfrwt>
<pdfrwt beam="2">  1       -2 0.32558858E-01 0.59104279E+03</pdfrwt>
<totfact> 0.80086475E+02</totfact>
</mgrwt>
</event>
<event>
 4    1  0.5056513E-005  0.7219209E+03  0.7818608E-02  0.9680462E-01
         -2   -1    0    0    0  501 -0.00000000000E+00  0.00000000000E+00  0.14186901800E+03  0.14186901803E+03  0.25500000000E-02 0. -1.
          2   -1    0    0  501    0  0.00000000000E+00 -0.00000000000E+00 -0.91839946620E+03  0.91839946621E+03  0.25500000000E-02 0.  1.
    5000001    1    1    2    0    0 -0.21019549967E+03 -0.13540691257E+03 -0.63478538865E+03  0.71068324146E+03  0.19900000000E+03 0.  0.
   -5000001    1    1    2    0    0  0.21019549967E+03  0.13540691257E+03 -0.14174505955E+03  0.34958524277E+03  0.19900000000E+03 0.  0.
<mgrwt>
<rscale>  0 0.72192086E+03</rscale>
<asrwt>0</asrwt>
<pdfrwt beam="1">  1        2 0.13119992E+00 0.72192086E+03</pdfrwt>
<pdfrwt beam="2">  1       -2 0.20267003E-01 0.72192086E+03</pdfrwt>
<totfact> 0.66181178E+02</totfact>
</mgrwt>
</event>
<event>
 4    1  0.5056513E-005  0.4758455E+03  0.7818608E-02  0.1020283E+00
         -2   -1    0    0    0  501 -0.00000000000E+00  0.00000000000E+00  0.85206497854E+02  0.85206497892E+02  0.25500000000E-02 0. -1.
          2   -1    0    0  501    0  0.00000000000E+00 -0.00000000000E+00 -0.66435347160E+03  0.66435347161E+03  0.25500000000E-02 0.  1.
    5000001    1    1    2    0    0 -0.46675079173E+02  0.12176113945E+03 -0.28740530315E+03  0.37310473915E+03  0.19900000000E+03 0.  0.
   -5000001    1    1    2    0    0  0.46675079173E+02 -0.12176113945E+03 -0.29174167060E+03  0.37645523035E+03  0.19900000000E+03 0.  0.
<mgrwt>
<rscale>  0 0.47584549E+03</rscale>
<asrwt>0</asrwt>
<pdfrwt beam="1">  1        2 0.94907636E-01 0.47584549E+03</pdfrwt>
<pdfrwt beam="2">  1       -2 0.12172357E-01 0.47584549E+03</pdfrwt>
<totfact> 0.23740088E+03</totfact>
</mgrwt>
</event>
<event>
 4    1  0.5056513E-005  0.4454560E+03  0.7818608E-02  0.1029086E+00
         -2   -1    0    0    0  501 -0.00000000000E+00  0.00000000000E+00  0.65690003670E+03  0.65690003670E+03  0.25500000000E-02 0. -1.
          2   -1    0    0  501    0  0.00000000000E+00 -0.00000000000E+00 -0.75517975439E+02  0.75517975482E+02  0.25500000000E-02 0.  1.
    5000001    1    1    2    0    0 -0.41744359989E+02 -0.90602741691E+02  0.30291931986E+03  0.37591563247E+03  0.19900000000E+03 0.  0.
   -5000001    1    1    2    0    0  0.41744359989E+02  0.90602741691E+02  0.27846274139E+03  0.35650237971E+03  0.19900000000E+03 0.  0.
<mgrwt>
<rscale>  0 0.44545599E+03</rscale>
<asrwt>0</asrwt>
<pdfrwt beam="1">  1        2 0.10788283E-01 0.44545599E+03</pdfrwt>
<pdfrwt beam="2">  1       -2 0.93842859E-01 0.44545599E+03</pdfrwt>
<totfact> 0.58305099E+02</totfact>
</mgrwt>
</event>
<event>
 4    1  0.5056513E-005  0.4461107E+03  0.7818608E-02  0.1028888E+00
          2   -1    0    0  501    0  0.00000000000E+00  0.00000000000E+00  0.23972371074E+03  0.23972371075E+03  0.25500000000E-02 0.  1.
         -2   -1    0    0    0  501 -0.00000000000E+00 -0.00000000000E+00 -0.20754592830E+03  0.20754592832E+03  0.25500000000E-02 0. -1.
    5000001    1    1    2    0    0 -0.96182549522E+02  0.30010976302E+02  0.15117583038E+02  0.22356494101E+03  0.19900000000E+03 0.  0.
   -5000001    1    1    2    0    0  0.96182549522E+02 -0.30010976302E+02  0.17060199396E+02  0.22370469806E+03  0.19900000000E+03 0.  0.
<mgrwt>
<rscale>  0 0.44611066E+03</rscale>
<asrwt>0</asrwt>
<pdfrwt beam="1">  1        2 0.34246244E-01 0.44611066E+03</pdfrwt>
<pdfrwt beam="2">  1       -2 0.29649418E-01 0.44611066E+03</pdfrwt>
<totfact> 0.15963125E+03</totfact>
</mgrwt>
</event>
<event>
 4    1  0.5056513E-005  0.5203655E+03  0.7818608E-02  0.1008596E+00
         -2   -1    0    0    0  501 -0.00000000000E+00  0.00000000000E+00  0.17538610049E+03  0.17538610051E+03  0.25500000000E-02 0. -1.
          2   -1    0    0  501    0  0.00000000000E+00 -0.00000000000E+00 -0.38597741251E+03  0.38597741252E+03  0.25500000000E-02 0.  1.
    5000001    1    1    2    0    0  0.13591017355E+03  0.92937258552E+02 -0.13915588676E+03  0.29338416815E+03  0.19900000000E+03 0.  0.
   -5000001    1    1    2    0    0 -0.13591017355E+03 -0.92937258552E+02 -0.71435425248E+02  0.26797934488E+03  0.19900000000E+03 0.  0.
<mgrwt>
<rscale>  0 0.52036554E+03</rscale>
<asrwt>0</asrwt>
<pdfrwt beam="1">  1        2 0.55139630E-01 0.52036554E+03</pdfrwt>
<pdfrwt beam="2">  1       -2 0.25055157E-01 0.52036554E+03</pdfrwt>
<totfact> 0.12836748E+03</totfact>
</mgrwt>
</event>
<event>
 4    1  0.5056513E-005  0.4799923E+03  0.7818608E-02  0.1019137E+00
          2   -1    0    0  501    0  0.00000000000E+00  0.00000000000E+00  0.20774985176E+04  0.20774985176E+04  0.25500000000E-02 0.  1.
         -2   -1    0    0    0  501 -0.00000000000E+00 -0.00000000000E+00 -0.27724761933E+02  0.27724762050E+02  0.25500000000E-02 0. -1.
    5000001    1    1    2    0    0 -0.44570166806E+02  0.10066545222E+03  0.68864939006E+03  0.72523031891E+03  0.19900000000E+03 0.  0.
   -5000001    1    1    2    0    0  0.44570166806E+02 -0.10066545222E+03  0.13611243656E+04  0.13799929607E+04  0.19900000000E+03 0.  0.
<mgrwt>
<rscale>  0 0.47999230E+03</rscale>
<asrwt>0</asrwt>
<pdfrwt beam="1">  1        2 0.29678547E+00 0.47999230E+03</pdfrwt>
<pdfrwt beam="2">  1       -2 0.39606807E-02 0.47999230E+03</pdfrwt>
<totfact> 0.22366922E+03</totfact>
</mgrwt>
</event>
<event>
 4    1  0.5056513E-005  0.1139762E+04  0.7818608E-02  0.9167281E-01
         -2   -1    0    0    0  501 -0.00000000000E+00  0.00000000000E+00  0.16007408022E+03  0.16007408025E+03  0.25500000000E-02 0. -1.
          2   -1    0    0  501    0  0.00000000000E+00 -0.00000000000E+00 -0.20288377874E+04  0.20288377874E+04  0.25500000000E-02 0.  1.
    5000001    1    1    2    0    0 -0.10804399563E+03  0.31794141413E+03 -0.17318009634E+04  0.17752452857E+04  0.19900000000E+03 0.  0.
   -5000001    1    1    2    0    0  0.10804399563E+03 -0.31794141413E+03 -0.13696274383E+03  0.41366658193E+03  0.19900000000E+03 0.  0.
<mgrwt>
<rscale>  0 0.11397620E+04</rscale>
<asrwt>0</asrwt>
<pdfrwt beam="1">  1        2 0.28983395E+00 0.11397620E+04</pdfrwt>
<pdfrwt beam="2">  1       -2 0.22867727E-01 0.11397620E+04</pdfrwt>
<totfact> 0.12949460E+02</totfact>
</mgrwt>
</event>
<event>
 4    1  0.5056513E-005  0.8388722E+03  0.7818608E-02  0.9505395E-01
          2   -1    0    0  501    0  0.00000000000E+00  0.00000000000E+00  0.19654766111E+04  0.19654766111E+04  0.25500000000E-02 0.  1.
         -2   -1    0    0    0  501 -0.00000000000E+00 -0.00000000000E+00 -0.89508384036E+02  0.89508384072E+02  0.25500000000E-02 0. -1.
    5000001    1    1    2    0    0 -0.31267612666E+03  0.14254110323E+03  0.60712670638E+03  0.72545721024E+03  0.19900000000E+03 0.  0.
   -5000001    1    1    2    0    0  0.31267612666E+03 -0.14254110323E+03  0.12688415207E+04  0.13295277849E+04  0.19900000000E+03 0.  0.
<mgrwt>
<rscale>  0 0.83887218E+03</rscale>
<asrwt>0</asrwt>
<pdfrwt beam="1">  1        2 0.28078239E+00 0.83887218E+03</pdfrwt>
<pdfrwt beam="2">  1       -2 0.12786911E-01 0.83887218E+03</pdfrwt>
<totfact> 0.38787572E+02</totfact>
</mgrwt>
</event>
<event>
 4    1  0.5056513E-005  0.6556723E+03  0.7818608E-02  0.9796193E-01
          2   -1    0    0  501    0  0.00000000000E+00  0.00000000000E+00  0.26491060069E+03  0.26491060070E+03  0.25500000000E-02 0.  1.
         -2   -1    0    0    0  501 -0.00000000000E+00 -0.00000000000E+00 -0.40570875429E+03  0.40570875430E+03  0.25500000000E-02 0. -1.
    5000001    1    1    2    0    0  0.22556279369E+03 -0.11289460406E+03 -0.37069079217E+01  0.32130749554E+03  0.19900000000E+03 0.  0.
   -5000001    1    1    2    0    0 -0.22556279369E+03  0.11289460406E+03 -0.13709124568E+03  0.34931185947E+03  0.19900000000E+03 0.  0.
<mgrwt>
<rscale>  0 0.65567233E+03</rscale>
<asrwt>0</asrwt>
<pdfrwt beam="1">  1        2 0.37844371E-01 0.65567233E+03</pdfrwt>
<pdfrwt beam="2">  1       -2 0.57958394E-01 0.65567233E+03</pdfrwt>
<totfact> 0.38518208E+02</totfact>
</mgrwt>
</event>
<event>
 4    1  0.5056513E-005  0.8279265E+03  0.7818608E-02  0.9520452E-01
          2   -1    0    0  501    0  0.00000000000E+00  0.00000000000E+00  0.88989440909E+03  0.88989440909E+03  0.25500000000E-02 0.  1.
         -2   -1    0    0    0  501 -0.00000000000E+00 -0.00000000000E+00 -0.19256843953E+03  0.19256843955E+03  0.25500000000E-02 0. -1.
    5000001    1    1    2    0    0  0.19255079233E+03  0.27176331724E+03  0.15994990170E+03  0.41966186302E+03  0.19900000000E+03 0.  0.
   -5000001    1    1    2    0    0 -0.19255079233E+03 -0.27176331724E+03  0.53737606786E+03  0.66280098561E+03  0.19900000000E+03 0.  0.
<mgrwt>
<rscale>  0 0.82792651E+03</rscale>
<asrwt>0</asrwt>
<pdfrwt beam="1">  1        2 0.12712778E+00 0.82792651E+03</pdfrwt>
<pdfrwt beam="2">  1       -2 0.27509776E-01 0.82792651E+03</pdfrwt>
<totfact> 0.39817862E+02</totfact>
</mgrwt>
</event>
<event>
 4    1  0.5056513E-005  0.9878759E+03  0.7818608E-02  0.9321943E-01
          2   -1    0    0  501    0  0.00000000000E+00  0.00000000000E+00  0.68098289712E+03  0.68098289713E+03  0.25500000000E-02 0.  1.
         -2   -1    0    0    0  501 -0.00000000000E+00 -0.00000000000E+00 -0.35826846383E+03  0.35826846384E+03  0.25500000000E-02 0. -1.
    5000001    1    1    2    0    0 -0.42355246777E+03 -0.10992927208E+03  0.28080766130E+03  0.55671813376E+03  0.19900000000E+03 0.  0.
   -5000001    1    1    2    0    0  0.42355246777E+03  0.10992927208E+03  0.41906772001E+02  0.48253322720E+03  0.19900000000E+03 0.  0.
<mgrwt>
<rscale>  0 0.98787590E+03</rscale>
<asrwt>0</asrwt>
<pdfrwt beam="1">  1        2 0.97283269E-01 0.98787590E+03</pdfrwt>
<pdfrwt beam="2">  1       -2 0.51181210E-01 0.98787590E+03</pdfrwt>
<totfact> 0.16779198E+02</totfact>
</mgrwt>
</event>
<event>
 4    1  0.5056513E-005  0.5999416E+03  0.7818608E-02  0.9905527E-01
          2   -1    0    0  501    0  0.00000000000E+00  0.00000000000E+00  0.26736201026E+04  0.26736201026E+04  0.25500000000E-02 0.  1.
         -2   -1    0    0    0  501 -0.00000000000E+00 -0.00000000000E+00 -0.33655667362E+02  0.33655667459E+02  0.25500000000E-02 0. -1.
    5000001    1    1    2    0    0 -0.21823998507E+02 -0.21590050468E+03  0.10610633926E+04  0.11011565910E+04  0.19900000000E+03 0.  0.
   -5000001    1    1    2    0    0  0.21823998507E+02  0.21590050468E+03  0.15789010427E+04  0.16061191791E+04  0.19900000000E+03 0.  0.
<mgrwt>
<rscale>  0 0.59994156E+03</rscale>
<asrwt>0</asrwt>
<pdfrwt beam="1">  1        2 0.38194580E+00 0.59994156E+03</pdfrwt>
<pdfrwt beam="2">  1       -2 0.48079515E-02 0.59994156E+03</pdfrwt>
<totfact> 0.82061792E+02</totfact>
</mgrwt>
</event>
<event>
 4    1  0.5056513E-005  0.7681930E+03  0.7818608E-02  0.9607233E-01
         -2   -1    0    0    0  501 -0.00000000000E+00  0.00000000000E+00  0.28191878453E+02  0.28191878568E+02  0.25500000000E-02 0. -1.
          2   -1    0    0  501    0  0.00000000000E+00 -0.00000000000E+00 -0.52330713017E+04  0.52330713017E+04  0.25500000000E-02 0.  1.
    5000001    1    1    2    0    0  0.27511341504E+03  0.86318831454E+02 -0.36808022209E+04  0.36974375345E+04  0.19900000000E+03 0.  0.
   -5000001    1    1    2    0    0 -0.27511341504E+03 -0.86318831454E+02 -0.15240772023E+04  0.15638256458E+04  0.19900000000E+03 0.  0.
<mgrwt>
<rscale>  0 0.76819297E+03</rscale>
<asrwt>0</asrwt>
<pdfrwt beam="1">  1        2 0.74758099E+00 0.76819297E+03</pdfrwt>
<pdfrwt beam="2">  1       -2 0.40274146E-02 0.76819297E+03</pdfrwt>
<totfact> 0.16978155E+01</totfact>
</mgrwt>
</event>
<event>
 4    1  0.5056513E-005  0.7976444E+03  0.7818608E-02  0.9563433E-01
         -2   -1    0    0    0  501 -0.00000000000E+00  0.00000000000E+00  0.79932856984E+02  0.79932857025E+02  0.25500000000E-02 0. -1.
          2   -1    0    0  501    0  0.00000000000E+00 -0.00000000000E+00 -0.19899095001E+04  0.19899095001E+04  0.25500000000E-02 0.  1.
    5000001    1    1    2    0    0  0.28133445319E+03 -0.18948938814E+03 -0.11271731282E+04  0.11938071719E+04  0.19900000000E+03 0.  0.
   -5000001    1    1    2    0    0 -0.28133445319E+03  0.18948938814E+03 -0.78280351491E+03  0.87603518521E+03  0.19900000000E+03 0.  0.
<mgrwt>
<rscale>  0 0.79764441E+03</rscale>
<asrwt>0</asrwt>
<pdfrwt beam="1">  1        2 0.28427276E+00 0.79764441E+03</pdfrwt>
<pdfrwt beam="2">  1       -2 0.11418981E-01 0.79764441E+03</pdfrwt>
<totfact> 0.45589745E+02</totfact>
</mgrwt>
</event>
<event>
 4    1  0.5056513E-005  0.5454783E+03  0.7818608E-02  0.1002546E+00
          2   -1    0    0  501    0  0.00000000000E+00  0.00000000000E+00  0.87533161398E+03  0.87533161398E+03  0.25500000000E-02 0.  1.
         -2   -1    0    0    0  501 -0.00000000000E+00 -0.00000000000E+00 -0.84981096672E+02  0.84981096710E+02  0.25500000000E-02 0. -1.
    5000001    1    1    2    0    0  0.15015208214E+03  0.10910176166E+03  0.36286650584E+03  0.45356580915E+03  0.19900000000E+03 0.  0.
   -5000001    1    1    2    0    0 -0.15015208214E+03 -0.10910176166E+03  0.42748401147E+03  0.50674690155E+03  0.19900000000E+03 0.  0.
<mgrwt>
<rscale>  0 0.54547829E+03</rscale>
<asrwt>0</asrwt>
<pdfrwt beam="1">  1        2 0.12504737E+00 0.54547829E+03</pdfrwt>
<pdfrwt beam="2">  1       -2 0.12140157E-01 0.54547829E+03</pdfrwt>
<totfact> 0.16884094E+03</totfact>
</mgrwt>
</event>
<event>
 4    1  0.5056513E-005  0.8586973E+03  0.7818608E-02  0.9478738E-01
          2   -1    0    0  501    0  0.00000000000E+00  0.00000000000E+00  0.51373251574E+03  0.51373251575E+03  0.25500000000E-02 0.  1.
         -2   -1    0    0    0  501 -0.00000000000E+00 -0.00000000000E+00 -0.35882535515E+03  0.35882535516E+03  0.25500000000E-02 0. -1.
    5000001    1    1    2    0    0 -0.36511497113E+03 -0.53811885175E+02 -0.16420462158E+02  0.41961326564E+03  0.19900000000E+03 0.  0.
   -5000001    1    1    2    0    0  0.36511497113E+03  0.53811885175E+02  0.17132762275E+03  0.45294460527E+03  0.19900000000E+03 0.  0.
<mgrwt>
<rscale>  0 0.85869727E+03</rscale>
<asrwt>0</asrwt>
<pdfrwt beam="1">  1        2 0.73390359E-01 0.85869727E+03</pdfrwt>
<pdfrwt beam="2">  1       -2 0.51260765E-01 0.85869727E+03</pdfrwt>
<totfact> 0.23508802E+02</totfact>
</mgrwt>
</event>
<event>
 4    1  0.5056513E-005  0.5475029E+03  0.7818608E-02  0.1002074E+00
          2   -1    0    0  501    0  0.00000000000E+00  0.00000000000E+00  0.38714754853E+03  0.38714754854E+03  0.25500000000E-02 0.  1.
         -2   -1    0    0    0  501 -0.00000000000E+00 -0.00000000000E+00 -0.19356923069E+03  0.19356923071E+03  0.25500000000E-02 0. -1.
    5000001    1    1    2    0    0 -0.40495776242E+02 -0.15361836910E+03  0.20338640827E+03  0.32589191810E+03  0.19900000000E+03 0.  0.
   -5000001    1    1    2    0    0  0.40495776242E+02  0.15361836910E+03 -0.98080904301E+01  0.25482486114E+03  0.19900000000E+03 0.  0.
<mgrwt>
<rscale>  0 0.54750289E+03</rscale>
<asrwt>0</asrwt>
<pdfrwt beam="1">  1        2 0.55306792E-01 0.54750289E+03</pdfrwt>
<pdfrwt beam="2">  1       -2 0.27652747E-01 0.54750289E+03</pdfrwt>
<totfact> 0.10706676E+03</totfact>
</mgrwt>
</event>
<event>
 4    1  0.5056513E-005  0.8672159E+03  0.7818608E-02  0.9467517E-01
         -2   -1    0    0    0  501 -0.00000000000E+00  0.00000000000E+00  0.39316409982E+03  0.39316409983E+03  0.25500000000E-02 0. -1.
          2   -1    0    0  501    0  0.00000000000E+00 -0.00000000000E+00 -0.47821220794E+03  0.47821220795E+03  0.25500000000E-02 0.  1.
    5000001    1    1    2    0    0  0.33929347933E+03 -0.65097759689E+02  0.12875511426E+03  0.41897095709E+03  0.19900000000E+03 0.  0.
   -5000001    1    1    2    0    0 -0.33929347933E+03  0.65097759689E+02 -0.21380322238E+03  0.45240535069E+03  0.19900000000E+03 0.  0.
<mgrwt>
<rscale>  0 0.86721594E+03</rscale>
<asrwt>0</asrwt>
<pdfrwt beam="1">  1        2 0.68316030E-01 0.86721594E+03</pdfrwt>
<pdfrwt beam="2">  1       -2 0.56166300E-01 0.86721594E+03</pdfrwt>
<totfact> 0.21124562E+02</totfact>
</mgrwt>
</event>
<event>
 4    1  0.5056513E-005  0.5034729E+03  0.7818608E-02  0.1012876E+00
          2   -1    0    0  501    0  0.00000000000E+00  0.00000000000E+00  0.38500938212E+04  0.38500938212E+04  0.25500000000E-02 0.  1.
         -2   -1    0    0    0  501 -0.00000000000E+00 -0.00000000000E+00 -0.16459659199E+02  0.16459659396E+02  0.25500000000E-02 0. -1.
    5000001    1    1    2    0    0 -0.50126218745E+02 -0.13906053951E+03  0.22533066017E+04  0.22669014342E+04  0.19900000000E+03 0.  0.
   -5000001    1    1    2    0    0  0.50126218745E+02  0.13906053951E+03  0.15803275603E+04  0.15996520463E+04  0.19900000000E+03 0.  0.
<mgrwt>
<rscale>  0 0.50347287E+03</rscale>
<asrwt>0</asrwt>
<pdfrwt beam="1">  1        2 0.55001324E+00 0.50347287E+03</pdfrwt>
<pdfrwt beam="2">  1       -2 0.23513806E-02 0.50347287E+03</pdfrwt>
<totfact> 0.52547916E+02</totfact>
</mgrwt>
</event>
<event>
 4    1  0.5056513E-005  0.4890178E+03  0.7818608E-02  0.1016686E+00
          2   -1    0    0  501    0  0.00000000000E+00  0.00000000000E+00  0.47056032863E+03  0.47056032863E+03  0.25500000000E-02 0.  1.
         -2   -1    0    0    0  501 -0.00000000000E+00 -0.00000000000E+00 -0.12704979712E+03  0.12704979714E+03  0.25500000000E-02 0. -1.
    5000001    1    1    2    0    0 -0.13682150576E+03  0.38254455816E+02  0.17144021138E+03  0.29862396740E+03  0.19900000000E+03 0.  0.
   -5000001    1    1    2    0    0  0.13682150576E+03 -0.38254455816E+02  0.17207032013E+03  0.29898615837E+03  0.19900000000E+03 0.  0.
<mgrwt>
<rscale>  0 0.48901777E+03</rscale>
<asrwt>0</asrwt>
<pdfrwt beam="1">  1        2 0.67222904E-01 0.48901777E+03</pdfrwt>
<pdfrwt beam="2">  1       -2 0.18149971E-01 0.48901777E+03</pdfrwt>
<totfact> 0.18106805E+03</totfact>
</mgrwt>
</event>
<event>
 4    1  0.5056513E-005  0.5630980E+03  0.7818608E-02  0.9985069E-01
          2   -1    0    0  501    0  0.00000000000E+00  0.00000000000E+00  0.95729421501E+03  0.95729421501E+03  0.25500000000E-02 0.  1.
         -2   -1    0    0    0  501 -0.00000000000E+00 -0.00000000000E+00 -0.82806143413E+02  0.82806143452E+02  0.25500000000E-02 0. -1.
    5000001    1    1    2    0    0 -0.17879540493E+03 -0.38113499481E+02  0.58325177910E+03  0.64280951572E+03  0.19900000000E+03 0.  0.
   -5000001    1    1    2    0    0  0.17879540493E+03  0.38113499481E+02  0.29123629249E+03  0.39729084275E+03  0.19900000000E+03 0.  0.
<mgrwt>
<rscale>  0 0.56309801E+03</rscale>
<asrwt>0</asrwt>
<pdfrwt beam="1">  1        2 0.13675631E+00 0.56309801E+03</pdfrwt>
<pdfrwt beam="2">  1       -2 0.11829450E-01 0.56309801E+03</pdfrwt>
<totfact> 0.15618925E+03</totfact>
</mgrwt>
</event>
<event>
 4    1  0.5056513E-005  0.5142839E+03  0.7818608E-02  0.1010116E+00
          2   -1    0    0  501    0  0.00000000000E+00  0.00000000000E+00  0.16357585335E+04  0.16357585335E+04  0.25500000000E-02 0.  1.
         -2   -1    0    0    0  501 -0.00000000000E+00 -0.00000000000E+00 -0.40422830636E+02  0.40422830716E+02  0.25500000000E-02 0. -1.
    5000001    1    1    2    0    0 -0.16246641239E+03  0.10561881524E+02  0.80990708831E+03  0.84973959552E+03  0.19900000000E+03 0.  0.
   -5000001    1    1    2    0    0  0.16246641239E+03 -0.10561881524E+02  0.78542861458E+03  0.82644176872E+03  0.19900000000E+03 0.  0.
<mgrwt>
<rscale>  0 0.51428393E+03</rscale>
<asrwt>0</asrwt>
<pdfrwt beam="1">  1        2 0.23367979E+00 0.51428393E+03</pdfrwt>
<pdfrwt beam="2">  1       -2 0.57746902E-02 0.51428393E+03</pdfrwt>
<totfact> 0.20801776E+03</totfact>
</mgrwt>
</event>
<event>
 4    1  0.5056513E-005  0.6901754E+03  0.7818608E-02  0.9734183E-01
         -2   -1    0    0    0  501 -0.00000000000E+00  0.00000000000E+00  0.64439595176E+03  0.64439595177E+03  0.25500000000E-02 0. -1.
          2   -1    0    0  501    0  0.00000000000E+00 -0.00000000000E+00 -0.18480176430E+03  0.18480176431E+03  0.25500000000E-02 0.  1.
    5000001    1    1    2    0    0 -0.62589028080E+02 -0.25153700445E+03  0.96572279781E+02  0.34075718080E+03  0.19900000000E+03 0.  0.
   -5000001    1    1    2    0    0  0.62589028080E+02  0.25153700445E+03  0.36302190768E+03  0.48844053528E+03  0.19900000000E+03 0.  0.
<mgrwt>
<rscale>  0 0.69017537E+03</rscale>
<asrwt>0</asrwt>
<pdfrwt beam="1">  1        2 0.26400252E-01 0.69017537E+03</pdfrwt>
<pdfrwt beam="2">  1       -2 0.92056565E-01 0.69017537E+03</pdfrwt>
<totfact> 0.20852934E+02</totfact>
</mgrwt>
</event>
<event>
 4    1  0.5056513E-005  0.4766306E+03  0.7818608E-02  0.1020065E+00
          2   -1    0    0  501    0  0.00000000000E+00  0.00000000000E+00  0.10953466656E+04  0.10953466656E+04  0.25500000000E-02 0.  1.
         -2   -1    0    0    0  501 -0.00000000000E+00 -0.00000000000E+00 -0.51850414164E+02  0.51850414227E+02  0.25500000000E-02 0. -1.
    5000001    1    1    2    0    0  0.53148806789E+02 -0.11940229953E+03  0.49633594396E+03  0.55048349118E+03  0.19900000000E+03 0.  0.
   -5000001    1    1    2    0    0 -0.53148806789E+02  0.11940229953E+03  0.54716030743E+03  0.59671358860E+03  0.19900000000E+03 0.  0.
<mgrwt>
<rscale>  0 0.47663058E+03</rscale>
<asrwt>0</asrwt>
<pdfrwt beam="1">  1        2 0.15647810E+00 0.47663058E+03</pdfrwt>
<pdfrwt beam="2">  1       -2 0.74072017E-02 0.47663058E+03</pdfrwt>
<totfact> 0.27425299E+03</totfact>
</mgrwt>
</event>
<event>
 4    1  0.5056513E-005  0.9600885E+03  0.7818608E-02  0.9353436E-01
          2   -1    0    0  501    0  0.00000000000E+00  0.00000000000E+00  0.18780158650E+04  0.18780158650E+04  0.25500000000E-02 0.  1.
         -2   -1    0    0    0  501 -0.00000000000E+00 -0.00000000000E+00 -0.12270528074E+03  0.12270528077E+03  0.25500000000E-02 0. -1.
    5000001    1    1    2    0    0  0.38423484802E+03 -0.18077553508E+03  0.10914473421E+04  0.11879286650E+04  0.19900000000E+03 0.  0.
   -5000001    1    1    2    0    0 -0.38423484802E+03  0.18077553508E+03  0.66386324211E+03  0.81279248074E+03  0.19900000000E+03 0.  0.
<mgrwt>
<rscale>  0 0.96008846E+03</rscale>
<asrwt>0</asrwt>
<pdfrwt beam="1">  1        2 0.26828799E+00 0.96008846E+03</pdfrwt>
<pdfrwt beam="2">  1       -2 0.17529325E-01 0.96008846E+03</pdfrwt>
<totfact> 0.24976915E+02</totfact>
</mgrwt>
</event>
<event>
 4    1  0.5056513E-005  0.4790269E+03  0.7818608E-02  0.1019403E+00
         -2   -1    0    0    0  501 -0.00000000000E+00  0.00000000000E+00  0.10983989937E+03  0.10983989940E+03  0.25500000000E-02 0. -1.
          2   -1    0    0  501    0  0.00000000000E+00 -0.00000000000E+00 -0.52227558279E+03  0.52227558280E+03  0.25500000000E-02 0.  1.
    5000001    1    1    2    0    0 -0.18021003775E+02  0.99969166036E+02 -0.92342341799E+02  0.24175752072E+03  0.19900000000E+03 0.  0.
   -5000001    1    1    2    0    0  0.18021003775E+02 -0.99969166036E+02 -0.32009334163E+03  0.39035796148E+03  0.19900000000E+03 0.  0.
<mgrwt>
<rscale>  0 0.47902692E+03</rscale>
<asrwt>0</asrwt>
<pdfrwt beam="1">  1        2 0.74610796E-01 0.47902692E+03</pdfrwt>
<pdfrwt beam="2">  1       -2 0.15691414E-01 0.47902692E+03</pdfrwt>
<totfact> 0.20604780E+03</totfact>
</mgrwt>
</event>
<event>
 4    1  0.5056513E-005  0.7453952E+03  0.7818608E-02  0.9642602E-01
         -2   -1    0    0    0  501 -0.00000000000E+00  0.00000000000E+00  0.69743897887E+02  0.69743897934E+02  0.25500000000E-02 0. -1.
          2   -1    0    0  501    0  0.00000000000E+00 -0.00000000000E+00 -0.19916220160E+04  0.19916220160E+04  0.25500000000E-02 0.  1.
    5000001    1    1    2    0    0  0.23492092880E+03 -0.16475760423E+03 -0.13211890406E+04  0.13665556673E+04  0.19900000000E+03 0.  0.
   -5000001    1    1    2    0    0 -0.23492092880E+03  0.16475760423E+03 -0.60068907757E+03  0.69481024665E+03  0.19900000000E+03 0.  0.
<mgrwt>
<rscale>  0 0.74539515E+03</rscale>
<asrwt>0</asrwt>
<pdfrwt beam="1">  1        2 0.28451740E+00 0.74539515E+03</pdfrwt>
<pdfrwt beam="2">  1       -2 0.99634152E-02 0.74539515E+03</pdfrwt>
<totfact> 0.57069124E+02</totfact>
</mgrwt>
</event>
<event>
 4    1  0.5056513E-005  0.4150727E+03  0.7818608E-02  0.1038682E+00
         -2   -1    0    0    0  501 -0.00000000000E+00  0.00000000000E+00  0.26775076137E+02  0.26775076259E+02  0.25500000000E-02 0. -1.
          2   -1    0    0  501    0  0.00000000000E+00 -0.00000000000E+00 -0.16086355134E+04  0.16086355134E+04  0.25500000000E-02 0.  1.
    5000001    1    1    2    0    0  0.48584650302E+01  0.57435077255E+02 -0.83885429487E+03  0.86406013726E+03  0.19900000000E+03 0.  0.
   -5000001    1    1    2    0    0 -0.48584650302E+01 -0.57435077255E+02 -0.74300614234E+03  0.77135045235E+03  0.19900000000E+03 0.  0.
<mgrwt>
<rscale>  0 0.41507271E+03</rscale>
<asrwt>0</asrwt>
<pdfrwt beam="1">  1        2 0.22980501E+00 0.41507271E+03</pdfrwt>
<pdfrwt beam="2">  1       -2 0.38250119E-02 0.41507271E+03</pdfrwt>
<totfact> 0.40518262E+03</totfact>
</mgrwt>
</event>
<event>
 4    1  0.5056513E-005  0.7098751E+03  0.7818608E-02  0.9700492E-01
         -2   -1    0    0    0  501 -0.00000000000E+00  0.00000000000E+00  0.53641097808E+02  0.53641097869E+02  0.25500000000E-02 0. -1.
          2   -1    0    0  501    0  0.00000000000E+00 -0.00000000000E+00 -0.23485848242E+04  0.23485848242E+04  0.25500000000E-02 0.  1.
    5000001    1    1    2    0    0 -0.28857230808E+03 -0.31377357648E+02 -0.99161789151E+03  0.10522193490E+04  0.19900000000E+03 0.  0.
   -5000001    1    1    2    0    0  0.28857230808E+03  0.31377357648E+02 -0.13033258348E+04  0.13500065731E+04  0.19900000000E+03 0.  0.
<mgrwt>
<rscale>  0 0.70987511E+03</rscale>
<asrwt>0</asrwt>
<pdfrwt beam="1">  1        2 0.33551205E+00 0.70987511E+03</pdfrwt>
<pdfrwt beam="2">  1       -2 0.76630155E-02 0.70987511E+03</pdfrwt>
<totfact> 0.57552602E+02</totfact>
</mgrwt>
</event>
<event>
 4    1  0.5056513E-005  0.5634214E+03  0.7818608E-02  0.9984343E-01
          2   -1    0    0  501    0  0.00000000000E+00  0.00000000000E+00  0.29984192870E+03  0.29984192871E+03  0.25500000000E-02 0.  1.
         -2   -1    0    0    0  501 -0.00000000000E+00 -0.00000000000E+00 -0.26467583855E+03  0.26467583857E+03  0.25500000000E-02 0. -1.
    5000001    1    1    2    0    0 -0.12369713686E+03 -0.92323567334E+02 -0.10889766377E+03  0.27437988980E+03  0.19900000000E+03 0.  0.
   -5000001    1    1    2    0    0  0.12369713686E+03  0.92323567334E+02  0.14406375391E+03  0.29013787747E+03  0.19900000000E+03 0.  0.
<mgrwt>
<rscale>  0 0.56342138E+03</rscale>
<asrwt>0</asrwt>
<pdfrwt beam="1">  1        2 0.42834561E-01 0.56342138E+03</pdfrwt>
<pdfrwt beam="2">  1       -2 0.37810834E-01 0.56342138E+03</pdfrwt>
<totfact> 0.79103308E+02</totfact>
</mgrwt>
</event>
<event>
 4    1  0.5056513E-005  0.5531499E+03  0.7818608E-02  0.1000767E+00
         -2   -1    0    0    0  501 -0.00000000000E+00  0.00000000000E+00  0.20419940649E+03  0.20419940650E+03  0.25500000000E-02 0. -1.
          2   -1    0    0  501    0  0.00000000000E+00 -0.00000000000E+00 -0.37460290260E+03  0.37460290261E+03  0.25500000000E-02 0.  1.
    5000001    1    1    2    0    0  0.14368352018E+03  0.10106837845E+03 -0.16647566865E+03  0.31332877197E+03  0.19900000000E+03 0.  0.
   -5000001    1    1    2    0    0 -0.14368352018E+03 -0.10106837845E+03 -0.39278274666E+01  0.26547353714E+03  0.19900000000E+03 0.  0.
<mgrwt>
<rscale>  0 0.55314985E+03</rscale>
<asrwt>0</asrwt>
<pdfrwt beam="1">  1        2 0.53514700E-01 0.55314985E+03</pdfrwt>
<pdfrwt beam="2">  1       -2 0.29171344E-01 0.55314985E+03</pdfrwt>
<totfact> 0.10069934E+03</totfact>
</mgrwt>
</event>
<event>
 4    1  0.5056513E-005  0.5314820E+03  0.7818608E-02  0.1005873E+00
         -2   -1    0    0    0  501 -0.00000000000E+00  0.00000000000E+00  0.57663267739E+03  0.57663267740E+03  0.25500000000E-02 0.  1.
          2   -1    0    0  501    0  0.00000000000E+00 -0.00000000000E+00 -0.12246667400E+03  0.12246667402E+03  0.25500000000E-02 0. -1.
    5000001    1    1    2    0    0  0.92538399959E+02 -0.13489614833E+03  0.31290529056E+03  0.40530364810E+03  0.19900000000E+03 0.  0.
   -5000001    1    1    2    0    0 -0.92538399959E+02  0.13489614833E+03  0.14126071283E+03  0.29379570332E+03  0.19900000000E+03 0.  0.
<mgrwt>
<rscale>  0 0.53148203E+03</rscale>
<asrwt>0</asrwt>
<pdfrwt beam="1">  1        2 0.17495239E-01 0.53148203E+03</pdfrwt>
<pdfrwt beam="2">  1       -2 0.82376097E-01 0.53148203E+03</pdfrwt>
<totfact> 0.43506332E+02</totfact>
</mgrwt>
</event>
<event>
 4    1  0.5056513E-005  0.7006976E+03  0.7818608E-02  0.9716040E-01
          2   -1    0    0  501    0  0.00000000000E+00  0.00000000000E+00  0.98288582640E+03  0.98288582640E+03  0.25500000000E-02 0.  1.
         -2   -1    0    0    0  501 -0.00000000000E+00 -0.00000000000E+00 -0.12488152862E+03  0.12488152865E+03  0.25500000000E-02 0. -1.
    5000001    1    1    2    0    0 -0.32975835718E+02  0.26113273129E+03  0.24284193214E+03  0.40969612287E+03  0.19900000000E+03 0.  0.
   -5000001    1    1    2    0    0  0.32975835718E+02 -0.26113273129E+03  0.61516236564E+03  0.69807123218E+03  0.19900000000E+03 0.  0.
<mgrwt>
<rscale>  0 0.70069761E+03</rscale>
<asrwt>0</asrwt>
<pdfrwt beam="1">  1        2 0.14041225E+00 0.70069761E+03</pdfrwt>
<pdfrwt beam="2">  1       -2 0.17840220E-01 0.70069761E+03</pdfrwt>
<totfact> 0.75261161E+02</totfact>
</mgrwt>
</event>
<event>
 4    1  0.5056513E-005  0.1207700E+04  0.7818608E-02  0.9106143E-01
         -2   -1    0    0    0  501 -0.00000000000E+00  0.00000000000E+00  0.43899636838E+03  0.43899636838E+03  0.25500000000E-02 0. -1.
          2   -1    0    0  501    0  0.00000000000E+00 -0.00000000000E+00 -0.83060996221E+03  0.83060996221E+03  0.25500000000E-02 0.  1.
    5000001    1    1    2    0    0  0.39929843177E+03  0.37991723634E+03 -0.42533938804E+02  0.58752572712E+03  0.19900000000E+03 0.  0.
   -5000001    1    1    2    0    0 -0.39929843177E+03 -0.37991723634E+03 -0.34907965503E+03  0.68208060348E+03  0.19900000000E+03 0.  0.
<mgrwt>
<rscale>  0 0.12076999E+04</rscale>
<asrwt>0</asrwt>
<pdfrwt beam="1">  1        2 0.11865857E+00 0.12076999E+04</pdfrwt>
<pdfrwt beam="2">  1       -2 0.62713767E-01 0.12076999E+04</pdfrwt>
<totfact> 0.84227853E+01</totfact>
</mgrwt>
</event>
<event>
 4    1  0.5056513E-005  0.7170716E+03  0.7818608E-02  0.9688475E-01
          2   -1    0    0  501    0  0.00000000000E+00  0.00000000000E+00  0.56863956927E+03  0.56863956928E+03  0.25500000000E-02 0.  1.
         -2   -1    0    0    0  501 -0.00000000000E+00 -0.00000000000E+00 -0.22606222332E+03  0.22606222333E+03  0.25500000000E-02 0. -1.
    5000001    1    1    2    0    0 -0.22167313611E+03  0.15823863796E+03  0.36606674151E+02  0.33929263831E+03  0.19900000000E+03 0.  0.
   -5000001    1    1    2    0    0  0.22167313611E+03 -0.15823863796E+03  0.30597067180E+03  0.45540915430E+03  0.19900000000E+03 0.  0.
<mgrwt>
<rscale>  0 0.71707162E+03</rscale>
<asrwt>0</asrwt>
<pdfrwt beam="1">  1        2 0.81234224E-01 0.71707162E+03</pdfrwt>
<pdfrwt beam="2">  1       -2 0.32294603E-01 0.71707162E+03</pdfrwt>
<totfact> 0.51859117E+02</totfact>
</mgrwt>
</event>
<event>
 4    1  0.5056513E-005  0.1051480E+04  0.7818608E-02  0.9253817E-01
          2   -1    0    0  501    0  0.00000000000E+00  0.00000000000E+00  0.35922530216E+03  0.35922530217E+03  0.25500000000E-02 0.  1.
         -2   -1    0    0    0  501 -0.00000000000E+00 -0.00000000000E+00 -0.76944087977E+03  0.76944087977E+03  0.25500000000E-02 0. -1.
    5000001    1    1    2    0    0 -0.33507947564E+03 -0.44867330164E+02 -0.58081603862E+03  0.70088487145E+03  0.19900000000E+03 0.  0.
   -5000001    1    1    2    0    0  0.33507947564E+03  0.44867330164E+02  0.17060046101E+03  0.42778131049E+03  0.19900000000E+03 0.  0.
<mgrwt>
<rscale>  0 0.10514802E+04</rscale>
<asrwt>0</asrwt>
<pdfrwt beam="1">  1        2 0.51317901E-01 0.10514802E+04</pdfrwt>
<pdfrwt beam="2">  1       -2 0.10992013E+00 0.10514802E+04</pdfrwt>
<totfact> 0.63959058E+01</totfact>
</mgrwt>
</event>
<event>
 4    1  0.5056513E-005  0.5193081E+03  0.7818608E-02  0.1008859E+00
         -2   -1    0    0    0  501 -0.00000000000E+00  0.00000000000E+00  0.11854073936E+03  0.11854073938E+03  0.25500000000E-02 0. -1.
          2   -1    0    0  501    0  0.00000000000E+00 -0.00000000000E+00 -0.56875153315E+03  0.56875153315E+03  0.25500000000E-02 0.  1.
    5000001    1    1    2    0    0 -0.32319839325E+02 -0.12340736496E+03 -0.82899191578E+02  0.25049396341E+03  0.19900000000E+03 0.  0.
   -5000001    1    1    2    0    0  0.32319839325E+02  0.12340736496E+03 -0.36731160221E+03  0.43679830913E+03  0.19900000000E+03 0.  0.
<mgrwt>
<rscale>  0 0.51930811E+03</rscale>
<asrwt>0</asrwt>
<pdfrwt beam="1">  1        2 0.81250218E-01 0.51930811E+03</pdfrwt>
<pdfrwt beam="2">  1       -2 0.16934392E-01 0.51930811E+03</pdfrwt>
<totfact> 0.16429059E+03</totfact>
</mgrwt>
</event>
<event>
 4    1  0.5056513E-005  0.1269640E+04  0.7818608E-02  0.9053994E-01
         -2   -1    0    0    0  501 -0.00000000000E+00  0.00000000000E+00  0.15807595267E+03  0.15807595269E+03  0.25500000000E-02 0. -1.
          2   -1    0    0  501    0  0.00000000000E+00 -0.00000000000E+00 -0.25493834753E+04  0.25493834753E+04  0.25500000000E-02 0.  1.
    5000001    1    1    2    0    0 -0.35981296367E+03 -0.38662397924E+03 -0.18153599096E+04  0.19010723478E+04  0.19900000000E+03 0.  0.
   -5000001    1    1    2    0    0  0.35981296367E+03  0.38662397924E+03 -0.57594761296E+03  0.80638708014E+03  0.19900000000E+03 0.  0.
<mgrwt>
<rscale>  0 0.12696397E+04</rscale>
<asrwt>0</asrwt>
<pdfrwt beam="1">  1        2 0.36419761E+00 0.12696397E+04</pdfrwt>
<pdfrwt beam="2">  1       -2 0.22582281E-01 0.12696397E+04</pdfrwt>
<totfact> 0.70562297E+01</totfact>
</mgrwt>
</event>
<event>
 4    1  0.5056513E-005  0.6383952E+03  0.7818608E-02  0.9828802E-01
         -2   -1    0    0    0  501 -0.00000000000E+00  0.00000000000E+00  0.18816285895E+03  0.18816285896E+03  0.25500000000E-02 0. -1.
          2   -1    0    0  501    0  0.00000000000E+00 -0.00000000000E+00 -0.54148369109E+03  0.54148369109E+03  0.25500000000E-02 0.  1.
    5000001    1    1    2    0    0  0.16944532706E+03 -0.32529117043E+02 -0.38275812786E+03  0.46462312336E+03  0.19900000000E+03 0.  0.
   -5000001    1    1    2    0    0 -0.16944532706E+03  0.32529117043E+02  0.29437295717E+02  0.26502342670E+03  0.19900000000E+03 0.  0.
<mgrwt>
<rscale>  0 0.63839524E+03</rscale>
<asrwt>0</asrwt>
<pdfrwt beam="1">  1        2 0.77354812E-01 0.63839524E+03</pdfrwt>
<pdfrwt beam="2">  1       -2 0.26880409E-01 0.63839524E+03</pdfrwt>
<totfact> 0.77167536E+02</totfact>
</mgrwt>
</event>
<event>
 4    1  0.5056513E-005  0.5257319E+03  0.7818608E-02  0.1007273E+00
          2   -1    0    0  501    0  0.00000000000E+00  0.00000000000E+00  0.79817344020E+03  0.79817344020E+03  0.25500000000E-02 0.  1.
         -2   -1    0    0    0  501 -0.00000000000E+00 -0.00000000000E+00 -0.86570780328E+02  0.86570780366E+02  0.25500000000E-02 0. -1.
    5000001    1    1    2    0    0  0.40187028325E+02 -0.16697884380E+03  0.35453519125E+03  0.44135375081E+03  0.19900000000E+03 0.  0.
   -5000001    1    1    2    0    0 -0.40187028325E+02  0.16697884380E+03  0.35706746862E+03  0.44339046975E+03  0.19900000000E+03 0.  0.
<mgrwt>
<rscale>  0 0.52573186E+03</rscale>
<asrwt>0</asrwt>
<pdfrwt beam="1">  1        2 0.11402478E+00 0.52573186E+03</pdfrwt>
<pdfrwt beam="2">  1       -2 0.12367254E-01 0.52573186E+03</pdfrwt>
<totfact> 0.18455427E+03</totfact>
</mgrwt>
</event>
<event>
 4    1  0.5056513E-005  0.8037837E+03  0.7818608E-02  0.9554556E-01
         -2   -1    0    0    0  501 -0.00000000000E+00  0.00000000000E+00  0.78778433272E+02  0.78778433313E+02  0.25500000000E-02 0. -1.
          2   -1    0    0  501    0  0.00000000000E+00 -0.00000000000E+00 -0.20502700043E+04  0.20502700043E+04  0.25500000000E-02 0.  1.
    5000001    1    1    2    0    0 -0.29299209954E+03 -0.88243840895E+02 -0.54027191508E+03  0.65201693849E+03  0.19900000000E+03 0.  0.
   -5000001    1    1    2    0    0  0.29299209954E+03  0.88243840895E+02 -0.14312196560E+04  0.14770314991E+04  0.19900000000E+03 0.  0.
<mgrwt>
<rscale>  0 0.80378370E+03</rscale>
<asrwt>0</asrwt>
<pdfrwt beam="1">  1        2 0.29289568E+00 0.80378370E+03</pdfrwt>
<pdfrwt beam="2">  1       -2 0.11254063E-01 0.80378370E+03</pdfrwt>
<totfact> 0.43501251E+02</totfact>
</mgrwt>
</event>
<event>
 4    1  0.5056513E-005  0.5787730E+03  0.7818608E-02  0.9950451E-01
          2   -1    0    0  501    0  0.00000000000E+00  0.00000000000E+00  0.83853233963E+03  0.83853233963E+03  0.25500000000E-02 0.  1.
         -2   -1    0    0    0  501 -0.00000000000E+00 -0.00000000000E+00 -0.99870399587E+02  0.99870399619E+02  0.25500000000E-02 0. -1.
    5000001    1    1    2    0    0  0.20754597571E+03 -0.17937257420E+02  0.32503228705E+03  0.43433174517E+03  0.19900000000E+03 0.  0.
   -5000001    1    1    2    0    0 -0.20754597571E+03  0.17937257420E+02  0.41362965299E+03  0.50407099408E+03  0.19900000000E+03 0.  0.
<mgrwt>
<rscale>  0 0.57877305E+03</rscale>
<asrwt>0</asrwt>
<pdfrwt beam="1">  1        2 0.11979033E+00 0.57877305E+03</pdfrwt>
<pdfrwt beam="2">  1       -2 0.14267200E-01 0.57877305E+03</pdfrwt>
<totfact> 0.13659117E+03</totfact>
</mgrwt>
</event>
<event>
 4    1  0.5056513E-005  0.4758374E+03  0.7818608E-02  0.1020285E+00
         -2   -1    0    0    0  501 -0.00000000000E+00  0.00000000000E+00  0.64350936442E+02  0.64350936493E+02  0.25500000000E-02 0. -1.
          2   -1    0    0  501    0  0.00000000000E+00 -0.00000000000E+00 -0.87963467484E+03  0.87963467484E+03  0.25500000000E-02 0.  1.
    5000001    1    1    2    0    0 -0.70603117852E+02 -0.10906376175E+03 -0.38549642265E+03  0.45286664290E+03  0.19900000000E+03 0.  0.
   -5000001    1    1    2    0    0  0.70603117852E+02  0.10906376175E+03 -0.42978731575E+03  0.49111896843E+03  0.19900000000E+03 0.  0.
<mgrwt>
<rscale>  0 0.47583743E+03</rscale>
<asrwt>0</asrwt>
<pdfrwt beam="1">  1        2 0.12566209E+00 0.47583743E+03</pdfrwt>
<pdfrwt beam="2">  1       -2 0.91929914E-02 0.47583743E+03</pdfrwt>
<totfact> 0.26341338E+03</totfact>
</mgrwt>
</event>
<event>
 4    1  0.5056513E-005  0.5802690E+03  0.7818608E-02  0.9947209E-01
         -2   -1    0    0    0  501 -0.00000000000E+00  0.00000000000E+00  0.56867631579E+02  0.56867631636E+02  0.25500000000E-02 0. -1.
          2   -1    0    0  501    0  0.00000000000E+00 -0.00000000000E+00 -0.14802452581E+04  0.14802452581E+04  0.25500000000E-02 0.  1.
    5000001    1    1    2    0    0 -0.17380751938E+03 -0.10661239076E+03 -0.56655578749E+03  0.63416221584E+03  0.19900000000E+03 0.  0.
   -5000001    1    1    2    0    0  0.17380751938E+03  0.10661239076E+03 -0.85682183903E+03  0.90295067390E+03  0.19900000000E+03 0.  0.
<mgrwt>
<rscale>  0 0.58026905E+03</rscale>
<asrwt>0</asrwt>
<pdfrwt beam="1">  1        2 0.21146358E+00 0.58026905E+03</pdfrwt>
<pdfrwt beam="2">  1       -2 0.81239483E-02 0.58026905E+03</pdfrwt>
<totfact> 0.14582546E+03</totfact>
</mgrwt>
</event>
<event>
 4    1  0.5056513E-005  0.6447039E+03  0.7818608E-02  0.9816768E-01
          2   -1    0    0  501    0  0.00000000000E+00  0.00000000000E+00  0.65849502642E+03  0.65849502643E+03  0.25500000000E-02 0.  1.
         -2   -1    0    0    0  501 -0.00000000000E+00 -0.00000000000E+00 -0.15780039923E+03  0.15780039926E+03  0.25500000000E-02 0. -1.
    5000001    1    1    2    0    0  0.22492557878E+03  0.98782341879E+02  0.33002775214E+03  0.45702164526E+03  0.19900000000E+03 0.  0.
   -5000001    1    1    2    0    0 -0.22492557878E+03 -0.98782341879E+02  0.17066687505E+03  0.35927378042E+03  0.19900000000E+03 0.  0.
<mgrwt>
<rscale>  0 0.64470390E+03</rscale>
<asrwt>0</asrwt>
<pdfrwt beam="1">  1        2 0.94070717E-01 0.64470390E+03</pdfrwt>
<pdfrwt beam="2">  1       -2 0.22542914E-01 0.64470390E+03</pdfrwt>
<totfact> 0.84008894E+02</totfact>
</mgrwt>
</event>
<event>
 4    1  0.5056513E-005  0.1058020E+04  0.7818608E-02  0.9247102E-01
          2   -1    0    0  501    0  0.00000000000E+00  0.00000000000E+00  0.57317075507E+03  0.57317075508E+03  0.25500000000E-02 0.  1.
         -2   -1    0    0    0  501 -0.00000000000E+00 -0.00000000000E+00 -0.48825209442E+03  0.48825209443E+03  0.25500000000E-02 0. -1.
    5000001    1    1    2    0    0  0.80955622530E+02  0.48306713563E+03  0.23875416568E+02  0.52922462704E+03  0.19900000000E+03 0.  0.
   -5000001    1    1    2    0    0 -0.80955622530E+02 -0.48306713563E+03  0.61043244088E+02  0.53219822247E+03  0.19900000000E+03 0.  0.
<mgrwt>
<rscale>  0 0.10580205E+04</rscale>
<asrwt>0</asrwt>
<pdfrwt beam="1">  1        2 0.81881537E-01 0.10580205E+04</pdfrwt>
<pdfrwt beam="2">  1       -2 0.69750299E-01 0.10580205E+04</pdfrwt>
<totfact> 0.10691260E+02</totfact>
</mgrwt>
</event>
<event>
 4    1  0.5056513E-005  0.5302201E+03  0.7818608E-02  0.1006179E+00
          2   -1    0    0  501    0  0.00000000000E+00  0.00000000000E+00  0.11426663722E+04  0.11426663722E+04  0.25500000000E-02 0.  1.
         -2   -1    0    0    0  501 -0.00000000000E+00 -0.00000000000E+00 -0.61508196368E+02  0.61508196421E+02  0.25500000000E-02 0. -1.
    5000001    1    1    2    0    0 -0.13473437318E+03  0.13329961409E+02  0.79297930238E+03  0.82870272908E+03  0.19900000000E+03 0.  0.
   -5000001    1    1    2    0    0  0.13473437318E+03 -0.13329961409E+02  0.28817887347E+03  0.37547183956E+03  0.19900000000E+03 0.  0.
<mgrwt>
<rscale>  0 0.53022013E+03</rscale>
<asrwt>0</asrwt>
<pdfrwt beam="1">  1        2 0.16323806E+00 0.53022013E+03</pdfrwt>
<pdfrwt beam="2">  1       -2 0.87868849E-02 0.53022013E+03</pdfrwt>
<totfact> 0.19634994E+03</totfact>
</mgrwt>
</event>
<event>
 4    1  0.5056513E-005  0.1105864E+04  0.7818608E-02  0.9199495E-01
          2   -1    0    0  501    0  0.00000000000E+00  0.00000000000E+00  0.15174299091E+04  0.15174299091E+04  0.25500000000E-02 0.  1.
         -2   -1    0    0    0  501 -0.00000000000E+00 -0.00000000000E+00 -0.20148125865E+03  0.20148125867E+03  0.25500000000E-02 0. -1.
    5000001    1    1    2    0    0 -0.41564049333E+03 -0.23917305017E+03  0.95359688495E+03  0.10857756613E+04  0.19900000000E+03 0.  0.
   -5000001    1    1    2    0    0  0.41564049333E+03  0.23917305017E+03  0.36235176548E+03  0.63313550648E+03  0.19900000000E+03 0.  0.
<mgrwt>
<rscale>  0 0.11058638E+04</rscale>
<asrwt>0</asrwt>
<pdfrwt beam="1">  1        2 0.21677570E+00 0.11058638E+04</pdfrwt>
<pdfrwt beam="2">  1       -2 0.28783037E-01 0.11058638E+04</pdfrwt>
<totfact> 0.15704796E+02</totfact>
</mgrwt>
</event>
<event>
 4    1  0.5056513E-005  0.5104019E+03  0.7818608E-02  0.1011099E+00
          2   -1    0    0  501    0  0.00000000000E+00  0.00000000000E+00  0.38210579555E+03  0.38210579556E+03  0.25500000000E-02 0. -1.
         -2   -1    0    0    0  501 -0.00000000000E+00 -0.00000000000E+00 -0.17044369232E+03  0.17044369234E+03  0.25500000000E-02 0.  1.
    5000001    1    1    2    0    0  0.10622560796E+03  0.10686459666E+03  0.48315718427E+02  0.25424266057E+03  0.19900000000E+03 0.  0.
   -5000001    1    1    2    0    0 -0.10622560796E+03 -0.10686459666E+03  0.16334638481E+03  0.29830682734E+03  0.19900000000E+03 0.  0.
<mgrwt>
<rscale>  0 0.51040189E+03</rscale>
<asrwt>0</asrwt>
<pdfrwt beam="1">  1        2 0.54586541E-01 0.51040189E+03</pdfrwt>
<pdfrwt beam="2">  1       -2 0.24349099E-01 0.51040189E+03</pdfrwt>
<totfact> 0.13660360E+03</totfact>
</mgrwt>
</event>
<event>
 4    1  0.5056513E-005  0.5512847E+03  0.7818608E-02  0.1001197E+00
         -2   -1    0    0    0  501 -0.00000000000E+00  0.00000000000E+00  0.20200157312E+03  0.20200157313E+03  0.25500000000E-02 0. -1.
          2   -1    0    0  501    0  0.00000000000E+00 -0.00000000000E+00 -0.37612933921E+03  0.37612933922E+03  0.25500000000E-02 0.  1.
    5000001    1    1    2    0    0 -0.13415255645E+03 -0.12512153245E+03 -0.32316131026E+02  0.27257593182E+03  0.19900000000E+03 0.  0.
   -5000001    1    1    2    0    0  0.13415255645E+03  0.12512153245E+03 -0.14181163507E+03  0.30555498053E+03  0.19900000000E+03 0.  0.
<mgrwt>
<rscale>  0 0.55128475E+03</rscale>
<asrwt>0</asrwt>
<pdfrwt beam="1">  1        2 0.53732763E-01 0.55128475E+03</pdfrwt>
<pdfrwt beam="2">  1       -2 0.28857368E-01 0.55128475E+03</pdfrwt>
<totfact> 0.10225834E+03</totfact>
</mgrwt>
</event>
<event>
 4    1  0.5056513E-005  0.4668569E+03  0.7818608E-02  0.1022811E+00
          2   -1    0    0  501    0  0.00000000000E+00  0.00000000000E+00  0.99330240769E+03  0.99330240770E+03  0.25500000000E-02 0.  1.
         -2   -1    0    0    0  501 -0.00000000000E+00 -0.00000000000E+00 -0.54856247837E+02  0.54856247896E+02  0.25500000000E-02 0. -1.
    5000001    1    1    2    0    0  0.19780388105E+02 -0.11534938767E+03  0.39173819344E+03  0.45470491221E+03  0.19900000000E+03 0.  0.
   -5000001    1    1    2    0    0 -0.19780388105E+02  0.11534938767E+03  0.54670796641E+03  0.59345374338E+03  0.19900000000E+03 0.  0.
<mgrwt>
<rscale>  0 0.46685691E+03</rscale>
<asrwt>0</asrwt>
<pdfrwt beam="1">  1        2 0.14190036E+00 0.46685691E+03</pdfrwt>
<pdfrwt beam="2">  1       -2 0.78366061E-02 0.46685691E+03</pdfrwt>
<totfact> 0.28826395E+03</totfact>
</mgrwt>
</event>
<event>
 4    1  0.5056513E-005  0.4385808E+03  0.7818608E-02  0.1031183E+00
         -2   -1    0    0    0  501 -0.00000000000E+00  0.00000000000E+00  0.16535049190E+03  0.16535049192E+03  0.25500000000E-02 0. -1.
          2   -1    0    0  501    0  0.00000000000E+00 -0.00000000000E+00 -0.29082631375E+03  0.29082631377E+03  0.25500000000E-02 0.  1.
    5000001    1    1    2    0    0  0.12695429812E+02  0.81045835582E+02 -0.19131272818E+02  0.21609397725E+03  0.19900000000E+03 0.  0.
   -5000001    1    1    2    0    0 -0.12695429812E+02 -0.81045835582E+02 -0.10634454903E+03  0.24008282844E+03  0.19900000000E+03 0.  0.
<mgrwt>
<rscale>  0 0.43858077E+03</rscale>
<asrwt>0</asrwt>
<pdfrwt beam="1">  1        2 0.41546616E-01 0.43858077E+03</pdfrwt>
<pdfrwt beam="2">  1       -2 0.23621499E-01 0.43858077E+03</pdfrwt>
<totfact> 0.19430298E+03</totfact>
</mgrwt>
</event>
<event>
 4    1  0.5056513E-005  0.5193639E+03  0.7818608E-02  0.1008845E+00
          2   -1    0    0  501    0  0.00000000000E+00  0.00000000000E+00  0.12504810082E+03  0.12504810085E+03  0.25500000000E-02 0.  1.
         -2   -1    0    0    0  501 -0.00000000000E+00 -0.00000000000E+00 -0.53927011056E+03  0.53927011057E+03  0.25500000000E-02 0. -1.
    5000001    1    1    2    0    0 -0.38990647459E+02 -0.15738629602E+03 -0.25735515295E+03  0.36348781481E+03  0.19900000000E+03 0.  0.
   -5000001    1    1    2    0    0  0.38990647459E+02  0.15738629602E+03 -0.15686685679E+03  0.30083039661E+03  0.19900000000E+03 0.  0.
<mgrwt>
<rscale>  0 0.51936385E+03</rscale>
<asrwt>0</asrwt>
<pdfrwt beam="1">  1        2 0.17864015E-01 0.51936385E+03</pdfrwt>
<pdfrwt beam="2">  1       -2 0.77038586E-01 0.51936385E+03</pdfrwt>
<totfact> 0.49295148E+02</totfact>
</mgrwt>
</event>
<event>
 4    1  0.5056513E-005  0.4435035E+03  0.7818608E-02  0.1029677E+00
         -2   -1    0    0    0  501 -0.00000000000E+00  0.00000000000E+00  0.31893659402E+02  0.31893659504E+02  0.25500000000E-02 0. -1.
          2   -1    0    0  501    0  0.00000000000E+00 -0.00000000000E+00 -0.15418061925E+04  0.15418061925E+04  0.25500000000E-02 0.  1.
    5000001    1    1    2    0    0  0.42603163654E+02 -0.86104734797E+02 -0.68916482516E+03  0.72372523180E+03  0.19900000000E+03 0.  0.
   -5000001    1    1    2    0    0 -0.42603163654E+02  0.86104734797E+02 -0.82074770796E+03  0.84997462023E+03  0.19900000000E+03 0.  0.
<mgrwt>
<rscale>  0 0.44350351E+03</rscale>
<asrwt>0</asrwt>
<pdfrwt beam="1">  1        2 0.22025798E+00 0.44350351E+03</pdfrwt>
<pdfrwt beam="2">  1       -2 0.45562380E-02 0.44350351E+03</pdfrwt>
<totfact> 0.33546669E+03</totfact>
</mgrwt>
</event>
<event>
 4    1  0.5056513E-005  0.5048899E+03  0.7818608E-02  0.1012510E+00
         -2   -1    0    0    0  501 -0.00000000000E+00  0.00000000000E+00  0.21829517508E+02  0.21829517657E+02  0.25500000000E-02 0. -1.
          2   -1    0    0  501    0  0.00000000000E+00 -0.00000000000E+00 -0.29193703917E+04  0.29193703917E+04  0.25500000000E-02 0.  1.
    5000001    1    1    2    0    0  0.14959513398E+03 -0.20433877909E+02 -0.16613147578E+04  0.16799892774E+04  0.19900000000E+03 0.  0.
   -5000001    1    1    2    0    0 -0.14959513398E+03  0.20433877909E+02 -0.12362261164E+04  0.12612106320E+04  0.19900000000E+03 0.  0.
<mgrwt>
<rscale>  0 0.50488988E+03</rscale>
<asrwt>0</asrwt>
<pdfrwt beam="1">  1        2 0.41705266E+00 0.50488988E+03</pdfrwt>
<pdfrwt beam="2">  1       -2 0.31185044E-02 0.50488988E+03</pdfrwt>
<totfact> 0.11907874E+03</totfact>
</mgrwt>
</event>
<event>
 4    1  0.5056513E-005  0.6126624E+03  0.7818608E-02  0.9879478E-01
         -2   -1    0    0    0  501 -0.00000000000E+00  0.00000000000E+00  0.57850639837E+02  0.57850639894E+02  0.25500000000E-02 0. -1.
          2   -1    0    0  501    0  0.00000000000E+00 -0.00000000000E+00 -0.16220877831E+04  0.16220877831E+04  0.25500000000E-02 0.  1.
    5000001    1    1    2    0    0 -0.16517026123E+03  0.14174135524E+03 -0.55491054736E+03  0.62840953410E+03  0.19900000000E+03 0.  0.
   -5000001    1    1    2    0    0  0.16517026123E+03 -0.14174135524E+03 -0.10093265959E+04  0.10515288889E+04  0.19900000000E+03 0.  0.
<mgrwt>
<rscale>  0 0.61266244E+03</rscale>
<asrwt>0</asrwt>
<pdfrwt beam="1">  1        2 0.23172680E+00 0.61266244E+03</pdfrwt>
<pdfrwt beam="2">  1       -2 0.82643781E-02 0.61266244E+03</pdfrwt>
<totfact> 0.11968802E+03</totfact>
</mgrwt>
</event>
<event>
 4    1  0.5056513E-005  0.7122192E+03  0.7818608E-02  0.9696561E-01
          2   -1    0    0  501    0  0.00000000000E+00  0.00000000000E+00  0.40236374840E+03  0.40236374841E+03  0.25500000000E-02 0.  1.
         -2   -1    0    0    0  501 -0.00000000000E+00 -0.00000000000E+00 -0.31517261134E+03  0.31517261135E+03  0.25500000000E-02 0. -1.
    5000001    1    1    2    0    0 -0.19560838054E+03 -0.18915385252E+03  0.15921828709E+03  0.37281802720E+03  0.19900000000E+03 0.  0.
   -5000001    1    1    2    0    0  0.19560838054E+03  0.18915385252E+03 -0.72027150036E+02  0.34471833256E+03  0.19900000000E+03 0.  0.
<mgrwt>
<rscale>  0 0.71221916E+03</rscale>
<asrwt>0</asrwt>
<pdfrwt beam="1">  1        2 0.57480536E-01 0.71221916E+03</pdfrwt>
<pdfrwt beam="2">  1       -2 0.45024659E-01 0.71221916E+03</pdfrwt>
<totfact> 0.40484649E+02</totfact>
</mgrwt>
</event>
<event>
 4    1  0.5056513E-005  0.7426303E+03  0.7818608E-02  0.9646984E-01
          2   -1    0    0  501    0  0.00000000000E+00  0.00000000000E+00  0.15228397644E+04  0.15228397644E+04  0.25500000000E-02 0.  1.
         -2   -1    0    0    0  501 -0.00000000000E+00 -0.00000000000E+00 -0.90538051602E+02  0.90538051638E+02  0.25500000000E-02 0. -1.
    5000001    1    1    2    0    0 -0.26214936109E+03  0.16527835184E+03  0.61344969264E+03  0.71551432306E+03  0.19900000000E+03 0.  0.
   -5000001    1    1    2    0    0  0.26214936109E+03 -0.16527835184E+03  0.81885202018E+03  0.89786349300E+03  0.19900000000E+03 0.  0.
<mgrwt>
<rscale>  0 0.74263031E+03</rscale>
<asrwt>0</asrwt>
<pdfrwt beam="1">  1        2 0.21754852E+00 0.74263031E+03</pdfrwt>
<pdfrwt beam="2">  1       -2 0.12934008E-01 0.74263031E+03</pdfrwt>
<totfact> 0.64541161E+02</totfact>
</mgrwt>
</event>
<event>
 4    1  0.5056513E-005  0.9144997E+03  0.7818608E-02  0.9407635E-01
         -2   -1    0    0    0  501 -0.00000000000E+00  0.00000000000E+00  0.45552130138E+03  0.45552130139E+03  0.25500000000E-02 0. -1.
          2   -1    0    0  501    0  0.00000000000E+00 -0.00000000000E+00 -0.45898493494E+03  0.45898493495E+03  0.25500000000E-02 0.  1.
    5000001    1    1    2    0    0  0.31410083046E+03 -0.12513932346E+03 -0.23658927172E+03  0.45814262568E+03  0.19900000000E+03 0.  0.
   -5000001    1    1    2    0    0 -0.31410083046E+03  0.12513932346E+03  0.23312563816E+03  0.45636361066E+03  0.19900000000E+03 0.  0.
<mgrwt>
<rscale>  0 0.91449968E+03</rscale>
<asrwt>0</asrwt>
<pdfrwt beam="1">  1        2 0.65569276E-01 0.91449968E+03</pdfrwt>
<pdfrwt beam="2">  1       -2 0.65074472E-01 0.91449968E+03</pdfrwt>
<totfact> 0.16175885E+02</totfact>
</mgrwt>
</event>
<event>
 4    1  0.5056513E-005  0.7184985E+03  0.7818608E-02  0.9686110E-01
          2   -1    0    0  501    0  0.00000000000E+00  0.00000000000E+00  0.21278717589E+04  0.21278717589E+04  0.25500000000E-02 0.  1.
         -2   -1    0    0    0  501 -0.00000000000E+00 -0.00000000000E+00 -0.60652162450E+02  0.60652162504E+02  0.25500000000E-02 0. -1.
    5000001    1    1    2    0    0 -0.10308463433E+03  0.26588008127E+03  0.13084291748E+04  0.13538487969E+04  0.19900000000E+03 0.  0.
   -5000001    1    1    2    0    0  0.10308463433E+03 -0.26588008127E+03  0.75879042167E+03  0.83467512450E+03  0.19900000000E+03 0.  0.
<mgrwt>
<rscale>  0 0.71849850E+03</rscale>
<asrwt>0</asrwt>
<pdfrwt beam="1">  1        2 0.30398163E+00 0.71849850E+03</pdfrwt>
<pdfrwt beam="2">  1       -2 0.86645960E-02 0.71849850E+03</pdfrwt>
<totfact> 0.61150810E+02</totfact>
</mgrwt>
</event>
<event>
 4    1  0.5056513E-005  0.7181873E+03  0.7818608E-02  0.9686625E-01
         -2   -1    0    0    0  501 -0.00000000000E+00  0.00000000000E+00  0.26871756129E+03  0.26871756130E+03  0.25500000000E-02 0. -1.
          2   -1    0    0  501    0  0.00000000000E+00 -0.00000000000E+00 -0.47986540291E+03  0.47986540292E+03  0.25500000000E-02 0.  1.
    5000001    1    1    2    0    0  0.26582509743E+03 -0.54819703653E+02  0.24941691880E+02  0.33747780716E+03  0.19900000000E+03 0.  0.
   -5000001    1    1    2    0    0 -0.26582509743E+03  0.54819703653E+02 -0.23608953350E+03  0.41110515706E+03  0.19900000000E+03 0.  0.
<mgrwt>
<rscale>  0 0.71818733E+03</rscale>
<asrwt>0</asrwt>
<pdfrwt beam="1">  1        2 0.68552200E-01 0.71818733E+03</pdfrwt>
<pdfrwt beam="2">  1       -2 0.38388223E-01 0.71818733E+03</pdfrwt>
<totfact> 0.45382912E+02</totfact>
</mgrwt>
</event>
<event>
 4    1  0.5056513E-005  0.8389121E+03  0.7818608E-02  0.9505341E-01
          2   -1    0    0  501    0  0.00000000000E+00  0.00000000000E+00  0.22380969791E+04  0.22380969791E+04  0.25500000000E-02 0.  1.
         -2   -1    0    0    0  501 -0.00000000000E+00 -0.00000000000E+00 -0.78612930418E+02  0.78612930459E+02  0.25500000000E-02 0. -1.
    5000001    1    1    2    0    0 -0.27677865860E+03  0.18795432908E+03  0.64829134407E+03  0.75618511125E+03  0.19900000000E+03 0.  0.
   -5000001    1    1    2    0    0  0.27677865860E+03 -0.18795432908E+03  0.15111927047E+04  0.15605247984E+04  0.19900000000E+03 0.  0.
<mgrwt>
<rscale>  0 0.83891206E+03</rscale>
<asrwt>0</asrwt>
<pdfrwt beam="1">  1        2 0.31972813E+00 0.83891206E+03</pdfrwt>
<pdfrwt beam="2">  1       -2 0.11230419E-01 0.83891206E+03</pdfrwt>
<totfact> 0.34953791E+02</totfact>
</mgrwt>
</event>
<event>
 4    1  0.5056513E-005  0.5694854E+03  0.7818608E-02  0.9970818E-01
         -2   -1    0    0    0  501 -0.00000000000E+00  0.00000000000E+00  0.12486615389E+04  0.12486615389E+04  0.25500000000E-02 0. -1.
          2   -1    0    0  501    0  0.00000000000E+00 -0.00000000000E+00 -0.64932247381E+02  0.64932247431E+02  0.25500000000E-02 0.  1.
    5000001    1    1    2    0    0  0.11505078696E+03  0.14306673234E+03  0.38850611093E+03  0.47354278763E+03  0.19900000000E+03 0.  0.
   -5000001    1    1    2    0    0 -0.11505078696E+03 -0.14306673234E+03  0.79522318063E+03  0.84005099874E+03  0.19900000000E+03 0.  0.
<mgrwt>
<rscale>  0 0.56948538E+03</rscale>
<asrwt>0</asrwt>
<pdfrwt beam="1">  1        2 0.92760359E-02 0.56948538E+03</pdfrwt>
<pdfrwt beam="2">  1       -2 0.17838021E+00 0.56948538E+03</pdfrwt>
<totfact> 0.13911742E+02</totfact>
</mgrwt>
</event>
<event>
 4    1  0.5056513E-005  0.5974366E+03  0.7818608E-02  0.9910739E-01
          2   -1    0    0  501    0  0.00000000000E+00  0.00000000000E+00  0.46682806877E+02  0.46682806946E+02  0.25500000000E-02 0.  1.
         -2   -1    0    0    0  501 -0.00000000000E+00 -0.00000000000E+00 -0.19114667628E+04  0.19114667628E+04  0.25500000000E-02 0. -1.
    5000001    1    1    2    0    0  0.16117780075E+03 -0.17936249413E+02 -0.43175069871E+03  0.50230434832E+03  0.19900000000E+03 0.  0.
   -5000001    1    1    2    0    0 -0.16117780075E+03  0.17936249413E+02 -0.14330332572E+04  0.14558452214E+04  0.19900000000E+03 0.  0.
<mgrwt>
<rscale>  0 0.59743664E+03</rscale>
<asrwt>0</asrwt>
<pdfrwt beam="1">  1        2 0.66689736E-02 0.59743664E+03</pdfrwt>
<pdfrwt beam="2">  1       -2 0.27306663E+00 0.59743664E+03</pdfrwt>
<totfact> 0.54697065E+01</totfact>
</mgrwt>
</event>
<event>
 4    1  0.5056513E-005  0.8128536E+03  0.7818608E-02  0.9541596E-01
          2   -1    0    0  501    0  0.00000000000E+00  0.00000000000E+00  0.22349016415E+04  0.22349016415E+04  0.25500000000E-02 0. -1.
         -2   -1    0    0    0  501 -0.00000000000E+00 -0.00000000000E+00 -0.73910524713E+02  0.73910524757E+02  0.25500000000E-02 0.  1.
    5000001    1    1    2    0    0  0.19759324550E+03 -0.88601011413E+02  0.18772636873E+04  0.19001613568E+04  0.19900000000E+03 0.  0.
   -5000001    1    1    2    0    0 -0.19759324550E+03  0.88601011413E+02  0.28372742946E+03  0.40865080952E+03  0.19900000000E+03 0.  0.
<mgrwt>
<rscale>  0 0.81285362E+03</rscale>
<asrwt>0</asrwt>
<pdfrwt beam="1">  1        2 0.31927165E+00 0.81285362E+03</pdfrwt>
<pdfrwt beam="2">  1       -2 0.10558647E-01 0.81285362E+03</pdfrwt>
<totfact> 0.38898008E+02</totfact>
</mgrwt>
</event>
<event>
 4    1  0.5056513E-005  0.5795914E+03  0.7818608E-02  0.9948676E-01
         -2   -1    0    0    0  501 -0.00000000000E+00  0.00000000000E+00  0.28752963743E+02  0.28752963857E+02  0.25500000000E-02 0. -1.
          2   -1    0    0  501    0  0.00000000000E+00 -0.00000000000E+00 -0.29207962309E+04  0.29207962309E+04  0.25500000000E-02 0.  1.
    5000001    1    1    2    0    0  0.17911482956E+03 -0.83226247942E+02 -0.18190091926E+04  0.18404901992E+04  0.19900000000E+03 0.  0.
   -5000001    1    1    2    0    0 -0.17911482956E+03  0.83226247942E+02 -0.10730340746E+04  0.11090589956E+04  0.19900000000E+03 0.  0.
<mgrwt>
<rscale>  0 0.57959140E+03</rscale>
<asrwt>0</asrwt>
<pdfrwt beam="1">  1        2 0.41725641E+00 0.57959140E+03</pdfrwt>
<pdfrwt beam="2">  1       -2 0.41075681E-02 0.57959140E+03</pdfrwt>
<totfact> 0.77549603E+02</totfact>
</mgrwt>
</event>
<event>
 4    1  0.5056513E-005  0.4417277E+03  0.7818608E-02  0.1030218E+00
         -2   -1    0    0    0  501 -0.00000000000E+00  0.00000000000E+00  0.52715275305E+02  0.52715275366E+02  0.25500000000E-02 0. -1.
          2   -1    0    0  501    0  0.00000000000E+00 -0.00000000000E+00 -0.92536441326E+03  0.92536441326E+03  0.25500000000E-02 0.  1.
    5000001    1    1    2    0    0  0.20798745486E+02  0.60668112185E+02 -0.59393294594E+03  0.62965907595E+03  0.19900000000E+03 0.  0.
   -5000001    1    1    2    0    0 -0.20798745486E+02 -0.60668112185E+02 -0.27871619201E+03  0.34842061268E+03  0.19900000000E+03 0.  0.
<mgrwt>
<rscale>  0 0.44172770E+03</rscale>
<asrwt>0</asrwt>
<pdfrwt beam="1">  1        2 0.13219491E+00 0.44172770E+03</pdfrwt>
<pdfrwt beam="2">  1       -2 0.75307542E-02 0.44172770E+03</pdfrwt>
<totfact> 0.33794106E+03</totfact>
</mgrwt>
</event>
<event>
 4    1  0.5056513E-005  0.4815032E+03  0.7818608E-02  0.1018723E+00
          2   -1    0    0  501    0  0.00000000000E+00  0.00000000000E+00  0.30564789239E+04  0.30564789239E+04  0.25500000000E-02 0.  1.
         -2   -1    0    0    0  501 -0.00000000000E+00 -0.00000000000E+00 -0.18963436364E+02  0.18963436535E+02  0.25500000000E-02 0. -1.
    5000001    1    1    2    0    0  0.11957828121E+03 -0.37829026402E+02  0.11911798493E+04  0.12141830315E+04  0.19900000000E+03 0.  0.
   -5000001    1    1    2    0    0 -0.11957828121E+03  0.37829026402E+02  0.18463356382E+04  0.18612593289E+04  0.19900000000E+03 0.  0.
<mgrwt>
<rscale>  0 0.48150325E+03</rscale>
<asrwt>0</asrwt>
<pdfrwt beam="1">  1        2 0.43663935E+00 0.48150325E+03</pdfrwt>
<pdfrwt beam="2">  1       -2 0.27090654E-02 0.48150325E+03</pdfrwt>
<totfact> 0.12449432E+03</totfact>
</mgrwt>
</event>
<event>
 4    1  0.5056513E-005  0.4250181E+03  0.7818608E-02  0.1035445E+00
         -2   -1    0    0    0  501 -0.00000000000E+00  0.00000000000E+00  0.50010559261E+02  0.50010559326E+02  0.25500000000E-02 0. -1.
          2   -1    0    0  501    0  0.00000000000E+00 -0.00000000000E+00 -0.90301103140E+03  0.90301103141E+03  0.25500000000E-02 0.  1.
    5000001    1    1    2    0    0 -0.25235177802E+02 -0.64918127142E+02 -0.36684010958E+03  0.42311209321E+03  0.19900000000E+03 0.  0.
   -5000001    1    1    2    0    0  0.25235177802E+02  0.64918127142E+02 -0.48616036257E+03  0.52990949752E+03  0.19900000000E+03 0.  0.
<mgrwt>
<rscale>  0 0.42501805E+03</rscale>
<asrwt>0</asrwt>
<pdfrwt beam="1">  1        2 0.12900157E+00 0.42501805E+03</pdfrwt>
<pdfrwt beam="2">  1       -2 0.71443661E-02 0.42501805E+03</pdfrwt>
<totfact> 0.37912934E+03</totfact>
</mgrwt>
</event>
<event>
 4    1  0.5056513E-005  0.7414182E+03  0.7818608E-02  0.9648911E-01
          2   -1    0    0  501    0  0.00000000000E+00  0.00000000000E+00  0.25663617140E+04  0.25663617140E+04  0.25500000000E-02 0.  1.
         -2   -1    0    0    0  501 -0.00000000000E+00 -0.00000000000E+00 -0.53548669355E+02  0.53548669416E+02  0.25500000000E-02 0. -1.
    5000001    1    1    2    0    0  0.25346018459E+03 -0.17991721879E+03  0.11333876796E+04  0.11919651434E+04  0.19900000000E+03 0.  0.
   -5000001    1    1    2    0    0 -0.25346018459E+03  0.17991721879E+03  0.13794253651E+04  0.14279452400E+04  0.19900000000E+03 0.  0.
<mgrwt>
<rscale>  0 0.74141825E+03</rscale>
<asrwt>0</asrwt>
<pdfrwt beam="1">  1        2 0.36662310E+00 0.74141825E+03</pdfrwt>
<pdfrwt beam="2">  1       -2 0.76498099E-02 0.74141825E+03</pdfrwt>
<totfact> 0.44477301E+02</totfact>
</mgrwt>
</event>
<event>
 4    1  0.5056513E-005  0.6737871E+03  0.7818608E-02  0.9763141E-01
         -2   -1    0    0    0  501 -0.00000000000E+00  0.00000000000E+00  0.31237862693E+02  0.31237862797E+02  0.25500000000E-02 0. -1.
          2   -1    0    0  501    0  0.00000000000E+00 -0.00000000000E+00 -0.36333230684E+04  0.36333230684E+04  0.25500000000E-02 0.  1.
    5000001    1    1    2    0    0 -0.22355467807E+03 -0.10066570198E+03 -0.11624587297E+04  0.12045835695E+04  0.19900000000E+03 0.  0.
   -5000001    1    1    2    0    0  0.22355467807E+03  0.10066570198E+03 -0.24396264760E+04  0.24599773617E+04  0.19900000000E+03 0.  0.
<mgrwt>
<rscale>  0 0.67378705E+03</rscale>
<asrwt>0</asrwt>
<pdfrwt beam="1">  1        2 0.51904589E+00 0.67378705E+03</pdfrwt>
<pdfrwt beam="2">  1       -2 0.44625541E-02 0.67378705E+03</pdfrwt>
<totfact> 0.26450803E+02</totfact>
</mgrwt>
</event>
<event>
 4    1  0.5056513E-005  0.8493874E+03  0.7818608E-02  0.9491160E-01
          2   -1    0    0  501    0  0.00000000000E+00  0.00000000000E+00  0.15716549204E+03  0.15716549206E+03  0.25500000000E-02 0.  1.
         -2   -1    0    0    0  501 -0.00000000000E+00 -0.00000000000E+00 -0.11476102077E+04  0.11476102077E+04  0.25500000000E-02 0. -1.
    5000001    1    1    2    0    0  0.30253114890E+03  0.47398477229E+02 -0.82822070760E+03  0.90516421283E+03  0.19900000000E+03 0.  0.
   -5000001    1    1    2    0    0 -0.30253114890E+03 -0.47398477229E+02 -0.16222400808E+03  0.39961148694E+03  0.19900000000E+03 0.  0.
<mgrwt>
<rscale>  0 0.84938736E+03</rscale>
<asrwt>0</asrwt>
<pdfrwt beam="1">  1        2 0.22452214E-01 0.84938736E+03</pdfrwt>
<pdfrwt beam="2">  1       -2 0.16394431E+00 0.84938736E+03</pdfrwt>
<totfact> 0.58908938E+01</totfact>
</mgrwt>
</event>
<event>
 4    1  0.5056513E-005  0.5414783E+03  0.7818608E-02  0.1003486E+00
         -2   -1    0    0    0  501 -0.00000000000E+00  0.00000000000E+00  0.14013878964E+03  0.14013878966E+03  0.25500000000E-02 0.  1.
          2   -1    0    0  501    0  0.00000000000E+00 -0.00000000000E+00 -0.52305064379E+03  0.52305064379E+03  0.25500000000E-02 0. -1.
    5000001    1    1    2    0    0 -0.88187856002E+01 -0.18334890882E+03 -0.18897872738E+03  0.33016443289E+03  0.19900000000E+03 0.  0.
   -5000001    1    1    2    0    0  0.88187856002E+01  0.18334890882E+03 -0.19393312677E+03  0.33302500056E+03  0.19900000000E+03 0.  0.
<mgrwt>
<rscale>  0 0.54147829E+03</rscale>
<asrwt>0</asrwt>
<pdfrwt beam="1">  1        2 0.74721519E-01 0.54147829E+03</pdfrwt>
<pdfrwt beam="2">  1       -2 0.20019827E-01 0.54147829E+03</pdfrwt>
<totfact> 0.13567345E+03</totfact>
</mgrwt>
</event>
<event>
 4    1  0.5056513E-005  0.4958226E+03  0.7818608E-02  0.1014875E+00
         -2   -1    0    0    0  501 -0.00000000000E+00  0.00000000000E+00  0.21875718760E+02  0.21875718909E+02  0.25500000000E-02 0. -1.
          2   -1    0    0  501    0  0.00000000000E+00 -0.00000000000E+00 -0.28095080488E+04  0.28095080488E+04  0.25500000000E-02 0.  1.
    5000001    1    1    2    0    0 -0.73889014996E+02 -0.12482403446E+03 -0.15571779525E+04  0.15765293533E+04  0.19900000000E+03 0.  0.
   -5000001    1    1    2    0    0  0.73889014996E+02  0.12482403446E+03 -0.12304543775E+04  0.12548544144E+04  0.19900000000E+03 0.  0.
<mgrwt>
<rscale>  0 0.49582258E+03</rscale>
<asrwt>0</asrwt>
<pdfrwt beam="1">  1        2 0.40135806E+00 0.49582258E+03</pdfrwt>
<pdfrwt beam="2">  1       -2 0.31251045E-02 0.49582258E+03</pdfrwt>
<totfact> 0.13585838E+03</totfact>
</mgrwt>
</event>
<event>
 4    1  0.5056513E-005  0.9717405E+03  0.7818608E-02  0.9340094E-01
          2   -1    0    0  501    0  0.00000000000E+00  0.00000000000E+00  0.29342065225E+04  0.29342065225E+04  0.25500000000E-02 0.  1.
         -2   -1    0    0    0  501 -0.00000000000E+00 -0.00000000000E+00 -0.80454427677E+02  0.80454427718E+02  0.25500000000E-02 0. -1.
    5000001    1    1    2    0    0  0.33060671004E+03 -0.25405781261E+03  0.18934932496E+04  0.19490417787E+04  0.19900000000E+03 0.  0.
   -5000001    1    1    2    0    0 -0.33060671004E+03  0.25405781261E+03  0.96025884529E+03  0.10656191716E+04  0.19900000000E+03 0.  0.
<mgrwt>
<rscale>  0 0.97174051E+03</rscale>
<asrwt>0</asrwt>
<pdfrwt beam="1">  1        2 0.41917237E+00 0.97174051E+03</pdfrwt>
<pdfrwt beam="2">  1       -2 0.11493489E-01 0.97174051E+03</pdfrwt>
<totfact> 0.14343390E+02</totfact>
</mgrwt>
</event>
<event>
 4    1  0.5056513E-005  0.4409602E+03  0.7818608E-02  0.1030453E+00
         -2   -1    0    0    0  501 -0.00000000000E+00  0.00000000000E+00  0.11147974851E+03  0.11147974854E+03  0.25500000000E-02 0. -1.
          2   -1    0    0  501    0  0.00000000000E+00 -0.00000000000E+00 -0.43605658714E+03  0.43605658715E+03  0.25500000000E-02 0.  1.
    5000001    1    1    2    0    0  0.86372345086E+02 -0.12443455637E+02 -0.11590403694E+03  0.24627173480E+03  0.19900000000E+03 0.  0.
   -5000001    1    1    2    0    0 -0.86372345086E+02  0.12443455637E+02 -0.20867280169E+03  0.30126460089E+03  0.19900000000E+03 0.  0.
<mgrwt>
<rscale>  0 0.44096022E+03</rscale>
<asrwt>0</asrwt>
<pdfrwt beam="1">  1        2 0.62293797E-01 0.44096022E+03</pdfrwt>
<pdfrwt beam="2">  1       -2 0.15925679E-01 0.44096022E+03</pdfrwt>
<totfact> 0.24584304E+03</totfact>
</mgrwt>
</event>
<event>
 4    1  0.5056513E-005  0.5768287E+03  0.7818608E-02  0.9954680E-01
         -2   -1    0    0    0  501 -0.00000000000E+00  0.00000000000E+00  0.30247638234E+03  0.30247638235E+03  0.25500000000E-02 0. -1.
          2   -1    0    0  501    0  0.00000000000E+00 -0.00000000000E+00 -0.27500607602E+03  0.27500607603E+03  0.25500000000E-02 0.  1.
    5000001    1    1    2    0    0 -0.57900935957E+02  0.17041275138E+03  0.11963224686E+03  0.29377865597E+03  0.19900000000E+03 0.  0.
   -5000001    1    1    2    0    0  0.57900935957E+02 -0.17041275138E+03 -0.92161940541E+02  0.28370380241E+03  0.19900000000E+03 0.  0.
<mgrwt>
<rscale>  0 0.57682872E+03</rscale>
<asrwt>0</asrwt>
<pdfrwt beam="1">  1        2 0.39286582E-01 0.57682872E+03</pdfrwt>
<pdfrwt beam="2">  1       -2 0.43210912E-01 0.57682872E+03</pdfrwt>
<totfact> 0.67127482E+02</totfact>
</mgrwt>
</event>
<event>
 4    1  0.5056513E-005  0.9880032E+03  0.7818608E-02  0.9321801E-01
          2   -1    0    0  501    0  0.00000000000E+00  0.00000000000E+00  0.18897590297E+03  0.18897590299E+03  0.25500000000E-02 0.  1.
         -2   -1    0    0    0  501 -0.00000000000E+00 -0.00000000000E+00 -0.12913688075E+04  0.12913688075E+04  0.25500000000E-02 0. -1.
    5000001    1    1    2    0    0 -0.11917873047E+03 -0.42740085576E+03 -0.68148588736E+03  0.83719715478E+03  0.19900000000E+03 0.  0.
   -5000001    1    1    2    0    0  0.11917873047E+03  0.42740085576E+03 -0.42090701715E+03  0.64314755569E+03  0.19900000000E+03 0.  0.
<mgrwt>
<rscale>  0 0.98800321E+03</rscale>
<asrwt>0</asrwt>
<pdfrwt beam="1">  1        2 0.26996558E-01 0.98800321E+03</pdfrwt>
<pdfrwt beam="2">  1       -2 0.18448125E+00 0.98800321E+03</pdfrwt>
<totfact> 0.33915029E+01</totfact>
</mgrwt>
</event>
<event>
 4    1  0.5056513E-005  0.8459548E+03  0.7818608E-02  0.9495782E-01
          2   -1    0    0  501    0  0.00000000000E+00  0.00000000000E+00  0.23416129603E+04  0.23416129603E+04  0.25500000000E-02 0.  1.
         -2   -1    0    0    0  501 -0.00000000000E+00 -0.00000000000E+00 -0.76404543062E+02  0.76404543105E+02  0.25500000000E-02 0. -1.
    5000001    1    1    2    0    0  0.15511593245E+03  0.25827393605E+03  0.50284674906E+03  0.61904945811E+03  0.19900000000E+03 0.  0.
   -5000001    1    1    2    0    0 -0.15511593245E+03 -0.25827393605E+03  0.17623616681E+04  0.17989680453E+04  0.19900000000E+03 0.  0.
<mgrwt>
<rscale>  0 0.84595477E+03</rscale>
<asrwt>0</asrwt>
<pdfrwt beam="1">  1        2 0.33451612E+00 0.84595477E+03</pdfrwt>
<pdfrwt beam="2">  1       -2 0.10914935E-01 0.84595477E+03</pdfrwt>
<totfact> 0.32411307E+02</totfact>
</mgrwt>
</event>
<event>
 4    1  0.5056513E-005  0.1566036E+04  0.7818608E-02  0.8841690E-01
         -2   -1    0    0    0  501 -0.00000000000E+00  0.00000000000E+00  0.11304906631E+04  0.11304906631E+04  0.25500000000E-02 0. -1.
          2   -1    0    0  501    0  0.00000000000E+00 -0.00000000000E+00 -0.54234596893E+03  0.54234596894E+03  0.25500000000E-02 0.  1.
    5000001    1    1    2    0    0  0.14936869839E+03 -0.44490701758E+03  0.92896570655E+03  0.10596374598E+04  0.19900000000E+03 0.  0.
   -5000001    1    1    2    0    0 -0.14936869839E+03  0.44490701758E+03 -0.34082101235E+03  0.61319917222E+03  0.19900000000E+03 0.  0.
<mgrwt>
<rscale>  0 0.15660358E+04</rscale>
<asrwt>0</asrwt>
<pdfrwt beam="1">  1        2 0.77477995E-01 0.15660358E+04</pdfrwt>
<pdfrwt beam="2">  1       -2 0.16149867E+00 0.15660358E+04</pdfrwt>
<totfact> 0.14447762E+01</totfact>
</mgrwt>
</event>
<event>
 4    1  0.5056513E-005  0.5711914E+03  0.7818608E-02  0.9967046E-01
          2   -1    0    0  501    0  0.00000000000E+00  0.00000000000E+00  0.12680508400E+04  0.12680508400E+04  0.25500000000E-02 0.  1.
         -2   -1    0    0    0  501 -0.00000000000E+00 -0.00000000000E+00 -0.64323056086E+02  0.64323056136E+02  0.25500000000E-02 0. -1.
    5000001    1    1    2    0    0  0.14535420810E+03 -0.33590320875E+02  0.92932744694E+03  0.96203256655E+03  0.19900000000E+03 0.  0.
   -5000001    1    1    2    0    0 -0.14535420810E+03  0.33590320875E+02  0.27440033697E+03  0.37034132959E+03  0.19900000000E+03 0.  0.
<mgrwt>
<rscale>  0 0.57119141E+03</rscale>
<asrwt>0</asrwt>
<pdfrwt beam="1">  1        2 0.18115012E+00 0.57119141E+03</pdfrwt>
<pdfrwt beam="2">  1       -2 0.91890080E-02 0.57119141E+03</pdfrwt>
<totfact> 0.15543851E+03</totfact>
</mgrwt>
</event>
<event>
 4    1  0.5056513E-005  0.5431782E+03  0.7818608E-02  0.1003085E+00
          2   -1    0    0  501    0  0.00000000000E+00  0.00000000000E+00  0.11511421501E+04  0.11511421501E+04  0.25500000000E-02 0.  1.
         -2   -1    0    0    0  501 -0.00000000000E+00 -0.00000000000E+00 -0.64076055433E+02  0.64076055484E+02  0.25500000000E-02 0. -1.
    5000001    1    1    2    0    0  0.13418996742E+03  0.12321363525E+03  0.61325091672E+03  0.66997480111E+03  0.19900000000E+03 0.  0.
   -5000001    1    1    2    0    0 -0.13418996742E+03 -0.12321363525E+03  0.47381517791E+03  0.54524340444E+03  0.19900000000E+03 0.  0.
<mgrwt>
<rscale>  0 0.54317823E+03</rscale>
<asrwt>0</asrwt>
<pdfrwt beam="1">  1        2 0.16444887E+00 0.54317823E+03</pdfrwt>
<pdfrwt beam="2">  1       -2 0.91537226E-02 0.54317823E+03</pdfrwt>
<totfact> 0.18182394E+03</totfact>
</mgrwt>
</event>
<event>
 4    1  0.5056513E-005  0.4714088E+03  0.7818608E-02  0.1021523E+00
          2   -1    0    0  501    0  0.00000000000E+00  0.00000000000E+00  0.98789918848E+03  0.98789918848E+03  0.25500000000E-02 0.  1.
         -2   -1    0    0    0  501 -0.00000000000E+00 -0.00000000000E+00 -0.56237084569E+02  0.56237084627E+02  0.25500000000E-02 0. -1.
    5000001    1    1    2    0    0 -0.15111817247E+02  0.83860265315E+02  0.67236229274E+03  0.70635186970E+03  0.19900000000E+03 0.  0.
   -5000001    1    1    2    0    0  0.15111817247E+02 -0.83860265315E+02  0.25929981117E+03  0.33778440341E+03  0.19900000000E+03 0.  0.
<mgrwt>
<rscale>  0 0.47140883E+03</rscale>
<asrwt>0</asrwt>
<pdfrwt beam="1">  1        2 0.14112846E+00 0.47140883E+03</pdfrwt>
<pdfrwt beam="2">  1       -2 0.80338692E-02 0.47140883E+03</pdfrwt>
<totfact> 0.27924335E+03</totfact>
</mgrwt>
</event>
<event>
 4    1  0.5056513E-005  0.4494750E+03  0.7818608E-02  0.1027879E+00
         -2   -1    0    0    0  501 -0.00000000000E+00  0.00000000000E+00  0.47681386656E+02  0.47681386724E+02  0.25500000000E-02 0. -1.
          2   -1    0    0  501    0  0.00000000000E+00 -0.00000000000E+00 -0.10592591818E+04  0.10592591818E+04  0.25500000000E-02 0.  1.
    5000001    1    1    2    0    0 -0.18962571418E+02  0.10263755661E+03 -0.49729350611E+03  0.54570676957E+03  0.19900000000E+03 0.  0.
   -5000001    1    1    2    0    0  0.18962571418E+02 -0.10263755661E+03 -0.51428428908E+03  0.56123379899E+03  0.19900000000E+03 0.  0.
<mgrwt>
<rscale>  0 0.44947501E+03</rscale>
<asrwt>0</asrwt>
<pdfrwt beam="1">  1        2 0.15132273E+00 0.44947501E+03</pdfrwt>
<pdfrwt beam="2">  1       -2 0.68116274E-02 0.44947501E+03</pdfrwt>
<totfact> 0.32832100E+03</totfact>
</mgrwt>
</event>
<event>
 4    1  0.5056513E-005  0.7944151E+03  0.7818608E-02  0.9568136E-01
          2   -1    0    0  501    0  0.00000000000E+00  0.00000000000E+00  0.15223575735E+04  0.15223575735E+04  0.25500000000E-02 0.  1.
         -2   -1    0    0    0  501 -0.00000000000E+00 -0.00000000000E+00 -0.10363783680E+03  0.10363783683E+03  0.25500000000E-02 0. -1.
    5000001    1    1    2    0    0  0.25435393792E+03  0.16049461009E+03  0.10501255840E+04  0.11103239112E+04  0.19900000000E+03 0.  0.
   -5000001    1    1    2    0    0 -0.25435393792E+03 -0.16049461009E+03  0.36859415268E+03  0.51567149911E+03  0.19900000000E+03 0.  0.
<mgrwt>
<rscale>  0 0.79441512E+03</rscale>
<asrwt>0</asrwt>
<pdfrwt beam="1">  1        2 0.21747965E+00 0.79441512E+03</pdfrwt>
<pdfrwt beam="2">  1       -2 0.14805405E-01 0.79441512E+03</pdfrwt>
<totfact> 0.51347202E+02</totfact>
</mgrwt>
</event>
<event>
 4    1  0.5056513E-005  0.6760455E+03  0.7818608E-02  0.9759098E-01
          2   -1    0    0  501    0  0.00000000000E+00  0.00000000000E+00  0.36789289175E+03  0.36789289176E+03  0.25500000000E-02 0.  1.
         -2   -1    0    0    0  501 -0.00000000000E+00 -0.00000000000E+00 -0.31057779476E+03  0.31057779477E+03  0.25500000000E-02 0. -1.
    5000001    1    1    2    0    0  0.25011816936E+03 -0.10568117273E+03 -0.19601595645E+01  0.33664885435E+03  0.19900000000E+03 0.  0.
   -5000001    1    1    2    0    0 -0.25011816936E+03  0.10568117273E+03  0.59275256553E+02  0.34182183218E+03  0.19900000000E+03 0.  0.
<mgrwt>
<rscale>  0 0.67604545E+03</rscale>
<asrwt>0</asrwt>
<pdfrwt beam="1">  1        2 0.52556127E-01 0.67604545E+03</pdfrwt>
<pdfrwt beam="2">  1       -2 0.44368256E-01 0.67604545E+03</pdfrwt>
<totfact> 0.46099848E+02</totfact>
</mgrwt>
</event>
<event>
 4    1  0.5056513E-005  0.1092436E+04  0.7818608E-02  0.9212596E-01
         -2   -1    0    0    0  501 -0.00000000000E+00  0.00000000000E+00  0.51771121450E+03  0.51771121450E+03  0.25500000000E-02 0. -1.
          2   -1    0    0  501    0  0.00000000000E+00 -0.00000000000E+00 -0.57629465168E+03  0.57629465168E+03  0.25500000000E-02 0.  1.
    5000001    1    1    2    0    0 -0.32285016233E+03  0.38852883585E+03  0.30512766431E+02  0.54380043446E+03  0.19900000000E+03 0.  0.
   -5000001    1    1    2    0    0  0.32285016233E+03 -0.38852883585E+03 -0.89096203613E+02  0.55020543173E+03  0.19900000000E+03 0.  0.
<mgrwt>
<rscale>  0 0.10924362E+04</rscale>
<asrwt>0</asrwt>
<pdfrwt beam="1">  1        2 0.82327807E-01 0.10924362E+04</pdfrwt>
<pdfrwt beam="2">  1       -2 0.73958745E-01 0.10924362E+04</pdfrwt>
<totfact> 0.93217969E+01</totfact>
</mgrwt>
</event>
<event>
 4    1  0.5056513E-005  0.6347488E+03  0.7818608E-02  0.9835826E-01
          2   -1    0    0  501    0  0.00000000000E+00  0.00000000000E+00  0.56086487079E+03  0.56086487079E+03  0.25500000000E-02 0.  1.
         -2   -1    0    0    0  501 -0.00000000000E+00 -0.00000000000E+00 -0.17959137872E+03  0.17959137873E+03  0.25500000000E-02 0. -1.
    5000001    1    1    2    0    0 -0.21043933657E+03 -0.11206332324E+03  0.11429696175E+03  0.33091947397E+03  0.19900000000E+03 0.  0.
   -5000001    1    1    2    0    0  0.21043933657E+03  0.11206332324E+03  0.26697653032E+03  0.40953677555E+03  0.19900000000E+03 0.  0.
<mgrwt>
<rscale>  0 0.63474875E+03</rscale>
<asrwt>0</asrwt>
<pdfrwt beam="1">  1        2 0.80123553E-01 0.63474875E+03</pdfrwt>
<pdfrwt beam="2">  1       -2 0.25655911E-01 0.63474875E+03</pdfrwt>
<totfact> 0.80616628E+02</totfact>
</mgrwt>
</event>
<event>
 4    1  0.5056513E-005  0.8774952E+03  0.7818608E-02  0.9454159E-01
          2   -1    0    0  501    0  0.00000000000E+00  0.00000000000E+00  0.15694077088E+04  0.15694077088E+04  0.25500000000E-02 0.  1.
         -2   -1    0    0    0  501 -0.00000000000E+00 -0.00000000000E+00 -0.12265738225E+03  0.12265738227E+03  0.25500000000E-02 0. -1.
    5000001    1    1    2    0    0 -0.23743190492E+03  0.23547327217E+03  0.11141899656E+04  0.11801872101E+04  0.19900000000E+03 0.  0.
   -5000001    1    1    2    0    0  0.23743190492E+03 -0.23547327217E+03  0.33256036095E+03  0.51187788100E+03  0.19900000000E+03 0.  0.
<mgrwt>
<rscale>  0 0.87749517E+03</rscale>
<asrwt>0</asrwt>
<pdfrwt beam="1">  1        2 0.22420113E+00 0.87749517E+03</pdfrwt>
<pdfrwt beam="2">  1       -2 0.17522481E-01 0.87749517E+03</pdfrwt>
<totfact> 0.36228829E+02</totfact>
</mgrwt>
</event>
<event>
 4    1  0.5056513E-005  0.5143873E+03  0.7818608E-02  0.1010090E+00
         -2   -1    0    0    0  501 -0.00000000000E+00  0.00000000000E+00  0.37663197312E+02  0.37663197398E+02  0.25500000000E-02 0. -1.
          2   -1    0    0  501    0  0.00000000000E+00 -0.00000000000E+00 -0.17563184293E+04  0.17563184293E+04  0.25500000000E-02 0.  1.
    5000001    1    1    2    0    0 -0.41542159399E+02  0.14081720243E+03 -0.11057496327E+04  0.11330659670E+04  0.19900000000E+03 0.  0.
   -5000001    1    1    2    0    0  0.41542159399E+02 -0.14081720243E+03 -0.61290559929E+03  0.66091565964E+03  0.19900000000E+03 0.  0.
<mgrwt>
<rscale>  0 0.51438728E+03</rscale>
<asrwt>0</asrwt>
<pdfrwt beam="1">  1        2 0.25090258E+00 0.51438728E+03</pdfrwt>
<pdfrwt beam="2">  1       -2 0.53804579E-02 0.51438728E+03</pdfrwt>
<totfact> 0.20175261E+03</totfact>
</mgrwt>
</event>
<event>
 4    1  0.5056513E-005  0.5070008E+03  0.7818608E-02  0.1011968E+00
          2   -1    0    0  501    0  0.00000000000E+00  0.00000000000E+00  0.17680886543E+03  0.17680886545E+03  0.25500000000E-02 0.  1.
         -2   -1    0    0    0  501 -0.00000000000E+00 -0.00000000000E+00 -0.36345722046E+03  0.36345722047E+03  0.25500000000E-02 0. -1.
    5000001    1    1    2    0    0  0.47291067832E+02  0.14781098666E+03 -0.67728945770E+02  0.26129053364E+03  0.19900000000E+03 0.  0.
   -5000001    1    1    2    0    0 -0.47291067832E+02 -0.14781098666E+03 -0.11891940926E+03  0.27897555228E+03  0.19900000000E+03 0.  0.
<mgrwt>
<rscale>  0 0.50700082E+03</rscale>
<asrwt>0</asrwt>
<pdfrwt beam="1">  1        2 0.25258410E-01 0.50700082E+03</pdfrwt>
<pdfrwt beam="2">  1       -2 0.51922460E-01 0.50700082E+03</pdfrwt>
<totfact> 0.76222177E+02</totfact>
</mgrwt>
</event>
<event>
 4    1  0.5056513E-005  0.8395822E+03  0.7818608E-02  0.9504427E-01
         -2   -1    0    0    0  501 -0.00000000000E+00  0.00000000000E+00  0.96914955382E+03  0.96914955382E+03  0.25500000000E-02 0. -1.
          2   -1    0    0  501    0  0.00000000000E+00 -0.00000000000E+00 -0.18183422656E+03  0.18183422658E+03  0.25500000000E-02 0.  1.
    5000001    1    1    2    0    0  0.15473947411E+03 -0.23298892744E+03  0.72493777493E+03  0.80209969622E+03  0.19900000000E+03 0.  0.
   -5000001    1    1    2    0    0 -0.15473947411E+03  0.23298892744E+03  0.62377552328E+02  0.34888408418E+03  0.19900000000E+03 0.  0.
<mgrwt>
<rscale>  0 0.83958218E+03</rscale>
<asrwt>0</asrwt>
<pdfrwt beam="1">  1        2 0.25976318E-01 0.83958218E+03</pdfrwt>
<pdfrwt beam="2">  1       -2 0.13844994E+00 0.83958218E+03</pdfrwt>
<totfact> 0.78016438E+01</totfact>
</mgrwt>
</event>
<event>
 4    1  0.5056513E-005  0.8069698E+03  0.7818608E-02  0.9549983E-01
          2   -1    0    0  501    0  0.00000000000E+00  0.00000000000E+00  0.78838102876E+03  0.78838102877E+03  0.25500000000E-02 0.  1.
         -2   -1    0    0    0  501 -0.00000000000E+00 -0.00000000000E+00 -0.20649923213E+03  0.20649923214E+03  0.25500000000E-02 0. -1.
    5000001    1    1    2    0    0  0.33989881783E+03 -0.55642663966E+02  0.37430046505E+03  0.54619515793E+03  0.19900000000E+03 0.  0.
   -5000001    1    1    2    0    0 -0.33989881783E+03  0.55642663966E+02  0.20758133159E+03  0.44868510298E+03  0.19900000000E+03 0.  0.
<mgrwt>
<rscale>  0 0.80696983E+03</rscale>
<asrwt>0</asrwt>
<pdfrwt beam="1">  1        2 0.11262586E+00 0.80696983E+03</pdfrwt>
<pdfrwt beam="2">  1       -2 0.29499890E-01 0.80696983E+03</pdfrwt>
<totfact> 0.41079445E+02</totfact>
</mgrwt>
</event>
<event>
 4    1  0.5056513E-005  0.1249276E+04  0.7818608E-02  0.9070786E-01
         -2   -1    0    0    0  501 -0.00000000000E+00  0.00000000000E+00  0.51091569758E+03  0.51091569759E+03  0.25500000000E-02 0.  1.
          2   -1    0    0  501    0  0.00000000000E+00 -0.00000000000E+00 -0.76367309073E+03  0.76367309073E+03  0.25500000000E-02 0. -1.
    5000001    1    1    2    0    0 -0.39332658083E+03 -0.44062949119E+03 -0.16858626282E+03  0.64566436769E+03  0.19900000000E+03 0.  0.
   -5000001    1    1    2    0    0  0.39332658083E+03  0.44062949119E+03 -0.84171130323E+02  0.62892442063E+03  0.19900000000E+03 0.  0.
<mgrwt>
<rscale>  0 0.12492759E+04</rscale>
<asrwt>0</asrwt>
<pdfrwt beam="1">  1        2 0.10909616E+00 0.12492759E+04</pdfrwt>
<pdfrwt beam="2">  1       -2 0.72987956E-01 0.12492759E+04</pdfrwt>
<totfact> 0.67388942E+01</totfact>
</mgrwt>
</event>
<event>
 4    1  0.5056513E-005  0.6904083E+03  0.7818608E-02  0.9733777E-01
         -2   -1    0    0    0  501 -0.00000000000E+00  0.00000000000E+00  0.75711617925E+03  0.75711617926E+03  0.25500000000E-02 0. -1.
          2   -1    0    0  501    0  0.00000000000E+00 -0.00000000000E+00 -0.15739445902E+03  0.15739445904E+03  0.25500000000E-02 0.  1.
    5000001    1    1    2    0    0 -0.18173329218E+03 -0.16744759385E+02  0.14973007088E+02  0.27043033742E+03  0.19900000000E+03 0.  0.
   -5000001    1    1    2    0    0  0.18173329218E+03  0.16744759385E+02  0.58474871315E+03  0.64408030088E+03  0.19900000000E+03 0.  0.
<mgrwt>
<rscale>  0 0.69040826E+03</rscale>
<asrwt>0</asrwt>
<pdfrwt beam="1">  1        2 0.22484922E-01 0.69040826E+03</pdfrwt>
<pdfrwt beam="2">  1       -2 0.10815946E+00 0.69040826E+03</pdfrwt>
<totfact> 0.17137384E+02</totfact>
</mgrwt>
</event>
<event>
 4    1  0.5056513E-005  0.5266969E+03  0.7818608E-02  0.1007036E+00
          2   -1    0    0  501    0  0.00000000000E+00  0.00000000000E+00  0.11244733228E+04  0.11244733228E+04  0.25500000000E-02 0.  1.
         -2   -1    0    0    0  501 -0.00000000000E+00 -0.00000000000E+00 -0.61675449134E+02  0.61675449187E+02  0.25500000000E-02 0. -1.
    5000001    1    1    2    0    0  0.86744399995E+02  0.11625291433E+03  0.74160198695E+03  0.78141783834E+03  0.19900000000E+03 0.  0.
   -5000001    1    1    2    0    0 -0.86744399995E+02 -0.11625291433E+03  0.32119588675E+03  0.40473093369E+03  0.19900000000E+03 0.  0.
<mgrwt>
<rscale>  0 0.52669687E+03</rscale>
<asrwt>0</asrwt>
<pdfrwt beam="1">  1        2 0.16063903E+00 0.52669687E+03</pdfrwt>
<pdfrwt beam="2">  1       -2 0.88107795E-02 0.52669687E+03</pdfrwt>
<totfact> 0.20024271E+03</totfact>
</mgrwt>
</event>
<event>
 4    1  0.5056513E-005  0.4449732E+03  0.7818608E-02  0.1029232E+00
          2   -1    0    0  501    0  0.00000000000E+00  0.00000000000E+00  0.29442164941E+04  0.29442164941E+04  0.25500000000E-02 0.  1.
         -2   -1    0    0    0  501 -0.00000000000E+00 -0.00000000000E+00 -0.16812718472E+02  0.16812718665E+02  0.25500000000E-02 0. -1.
    5000001    1    1    2    0    0 -0.21720983124E+01 -0.55574717396E+02  0.20126803926E+04  0.20232589132E+04  0.19900000000E+03 0.  0.
   -5000001    1    1    2    0    0  0.21720983124E+01  0.55574717396E+02  0.91472338303E+03  0.93777029953E+03  0.19900000000E+03 0.  0.
<mgrwt>
<rscale>  0 0.44497318E+03</rscale>
<asrwt>0</asrwt>
<pdfrwt beam="1">  1        2 0.42060214E+00 0.44497318E+03</pdfrwt>
<pdfrwt beam="2">  1       -2 0.24018182E-02 0.44497318E+03</pdfrwt>
<totfact> 0.17208766E+03</totfact>
</mgrwt>
</event>
<event>
 4    1  0.5056513E-005  0.4405968E+03  0.7818608E-02  0.1030564E+00
         -2   -1    0    0    0  501 -0.00000000000E+00  0.00000000000E+00  0.12676061046E+04  0.12676061046E+04  0.25500000000E-02 0. -1.
          2   -1    0    0  501    0  0.00000000000E+00 -0.00000000000E+00 -0.38285859900E+02  0.38285859985E+02  0.25500000000E-02 0.  1.
    5000001    1    1    2    0    0  0.90567277679E+02  0.18491141210E+02  0.55642572010E+03  0.59812618742E+03  0.19900000000E+03 0.  0.
   -5000001    1    1    2    0    0 -0.90567277679E+02 -0.18491141210E+02  0.67289452456E+03  0.70776577713E+03  0.19900000000E+03 0.  0.
<mgrwt>
<rscale>  0 0.44059682E+03</rscale>
<asrwt>0</asrwt>
<pdfrwt beam="1">  1        2 0.54694094E-02 0.44059682E+03</pdfrwt>
<pdfrwt beam="2">  1       -2 0.18108656E+00 0.44059682E+03</pdfrwt>
<totfact> 0.26712273E+02</totfact>
</mgrwt>
</event>
<event>
 4    1  0.5056513E-005  0.9171444E+03  0.7818608E-02  0.9404400E-01
         -2   -1    0    0    0  501 -0.00000000000E+00  0.00000000000E+00  0.16973531535E+04  0.16973531535E+04  0.25500000000E-02 0. -1.
          2   -1    0    0  501    0  0.00000000000E+00 -0.00000000000E+00 -0.12389198293E+03  0.12389198295E+03  0.25500000000E-02 0.  1.
    5000001    1    1    2    0    0 -0.11009461216E+03  0.25644114904E+03  0.18178632181E+03  0.38798215596E+03  0.19900000000E+03 0.  0.
   -5000001    1    1    2    0    0  0.11009461216E+03 -0.25644114904E+03  0.13916748487E+04  0.14332629805E+04  0.19900000000E+03 0.  0.
<mgrwt>
<rscale>  0 0.91714437E+03</rscale>
<asrwt>0</asrwt>
<pdfrwt beam="1">  1        2 0.17698854E-01 0.91714437E+03</pdfrwt>
<pdfrwt beam="2">  1       -2 0.24247903E+00 0.91714437E+03</pdfrwt>
<totfact> 0.23796110E+01</totfact>
</mgrwt>
</event>
<event>
 4    1  0.5056513E-005  0.5801084E+03  0.7818608E-02  0.9947556E-01
         -2   -1    0    0    0  501 -0.00000000000E+00  0.00000000000E+00  0.71367773672E+02  0.71367773717E+02  0.25500000000E-02 0. -1.
          2   -1    0    0  501    0  0.00000000000E+00 -0.00000000000E+00 -0.11788436303E+04  0.11788436303E+04  0.25500000000E-02 0.  1.
    5000001    1    1    2    0    0  0.17436495521E+03  0.89846091585E+02 -0.72143709947E+03  0.77365880482E+03  0.19900000000E+03 0.  0.
   -5000001    1    1    2    0    0 -0.17436495521E+03 -0.89846091585E+02 -0.38603875715E+03  0.47655259919E+03  0.19900000000E+03 0.  0.
<mgrwt>
<rscale>  0 0.58010842E+03</rscale>
<asrwt>0</asrwt>
<pdfrwt beam="1">  1        2 0.16840622E+00 0.58010842E+03</pdfrwt>
<pdfrwt beam="2">  1       -2 0.10195397E-01 0.58010842E+03</pdfrwt>
<totfact> 0.14726915E+03</totfact>
</mgrwt>
</event>
<event>
 4    1  0.5056513E-005  0.1112467E+04  0.7818608E-02  0.9193125E-01
         -2   -1    0    0    0  501 -0.00000000000E+00  0.00000000000E+00  0.17570875457E+03  0.17570875459E+03  0.25500000000E-02 0. -1.
          2   -1    0    0  501    0  0.00000000000E+00 -0.00000000000E+00 -0.17608446333E+04  0.17608446333E+04  0.25500000000E-02 0.  1.
    5000001    1    1    2    0    0 -0.38187560426E+03 -0.34313875588E+03 -0.65526036018E+03  0.85588569479E+03  0.19900000000E+03 0.  0.
   -5000001    1    1    2    0    0  0.38187560426E+03  0.34313875588E+03 -0.92987551852E+03  0.10806676931E+04  0.19900000000E+03 0.  0.
<mgrwt>
<rscale>  0 0.11124672E+04</rscale>
<asrwt>0</asrwt>
<pdfrwt beam="1">  1        2 0.25154922E+00 0.11124672E+04</pdfrwt>
<pdfrwt beam="2">  1       -2 0.25101252E-01 0.11124672E+04</pdfrwt>
<totfact> 0.15055057E+02</totfact>
</mgrwt>
</event>
<event>
 4    1  0.5056513E-005  0.1437492E+04  0.7818608E-02  0.8927118E-01
         -2   -1    0    0    0  501 -0.00000000000E+00  0.00000000000E+00  0.27086043195E+03  0.27086043196E+03  0.25500000000E-02 0. -1.
          2   -1    0    0  501    0  0.00000000000E+00 -0.00000000000E+00 -0.19072398597E+04  0.19072398597E+04  0.25500000000E-02 0.  1.
    5000001    1    1    2    0    0 -0.62701206084E+03 -0.92623013677E+02 -0.12338975380E+04  0.14013662196E+04  0.19900000000E+03 0.  0.
   -5000001    1    1    2    0    0  0.62701206084E+03  0.92623013677E+02 -0.40248188966E+03  0.77673407200E+03  0.19900000000E+03 0.  0.
<mgrwt>
<rscale>  0 0.14374920E+04</rscale>
<asrwt>0</asrwt>
<pdfrwt beam="1">  1        2 0.27246283E+00 0.14374920E+04</pdfrwt>
<pdfrwt beam="2">  1       -2 0.38694348E-01 0.14374920E+04</pdfrwt>
<totfact> 0.54924292E+01</totfact>
</mgrwt>
</event>
<event>
 4    1  0.5056513E-005  0.7719451E+03  0.7818608E-02  0.9601537E-01
         -2   -1    0    0    0  501 -0.00000000000E+00  0.00000000000E+00  0.22300738239E+03  0.22300738240E+03  0.25500000000E-02 0. -1.
          2   -1    0    0  501    0  0.00000000000E+00 -0.00000000000E+00 -0.66802627567E+03  0.66802627567E+03  0.25500000000E-02 0.  1.
    5000001    1    1    2    0    0  0.32714102135E+03 -0.28336509413E+02 -0.26794705795E+03  0.46821024282E+03  0.19900000000E+03 0.  0.
   -5000001    1    1    2    0    0 -0.32714102135E+03  0.28336509413E+02 -0.17707183533E+03  0.42282341525E+03  0.19900000000E+03 0.  0.
<mgrwt>
<rscale>  0 0.77194505E+03</rscale>
<asrwt>0</asrwt>
<pdfrwt beam="1">  1        2 0.95432324E-01 0.77194505E+03</pdfrwt>
<pdfrwt beam="2">  1       -2 0.31858198E-01 0.77194505E+03</pdfrwt>
<totfact> 0.43829742E+02</totfact>
</mgrwt>
</event>
<event>
 4    1  0.5056513E-005  0.4524749E+03  0.7818608E-02  0.1026987E+00
         -2   -1    0    0    0  501 -0.00000000000E+00  0.00000000000E+00  0.10181635823E+03  0.10181635827E+03  0.25500000000E-02 0. -1.
          2   -1    0    0  501    0  0.00000000000E+00 -0.00000000000E+00 -0.50270289114E+03  0.50270289114E+03  0.25500000000E-02 0.  1.
    5000001    1    1    2    0    0 -0.80812456049E+02  0.64356342632E+02 -0.24074585757E+03  0.32898626085E+03  0.19900000000E+03 0.  0.
   -5000001    1    1    2    0    0  0.80812456049E+02 -0.64356342632E+02 -0.16014067533E+03  0.27553298856E+03  0.19900000000E+03 0.  0.
<mgrwt>
<rscale>  0 0.45247487E+03</rscale>
<asrwt>0</asrwt>
<pdfrwt beam="1">  1        2 0.71814697E-01 0.45247487E+03</pdfrwt>
<pdfrwt beam="2">  1       -2 0.14545194E-01 0.45247487E+03</pdfrwt>
<totfact> 0.24418837E+03</totfact>
</mgrwt>
</event>
<event>
 4    1  0.5056513E-005  0.4679623E+03  0.7818608E-02  0.1022497E+00
         -2   -1    0    0    0  501 -0.00000000000E+00  0.00000000000E+00  0.11647140834E+03  0.11647140837E+03  0.25500000000E-02 0. -1.
          2   -1    0    0  501    0  0.00000000000E+00 -0.00000000000E+00 -0.47004814211E+03  0.47004814212E+03  0.25500000000E-02 0.  1.
    5000001    1    1    2    0    0  0.11741311677E+03 -0.30152620260E+02 -0.15016693096E+03  0.27721134113E+03  0.19900000000E+03 0.  0.
   -5000001    1    1    2    0    0 -0.11741311677E+03  0.30152620260E+02 -0.20340980281E+03  0.30930820936E+03  0.19900000000E+03 0.  0.
<mgrwt>
<rscale>  0 0.46796226E+03</rscale>
<asrwt>0</asrwt>
<pdfrwt beam="1">  1        2 0.67149733E-01 0.46796226E+03</pdfrwt>
<pdfrwt beam="2">  1       -2 0.16638773E-01 0.46796226E+03</pdfrwt>
<totfact> 0.21014324E+03</totfact>
</mgrwt>
</event>
<event>
 4    1  0.5056513E-005  0.5427973E+03  0.7818608E-02  0.1003175E+00
          2   -1    0    0  501    0  0.00000000000E+00  0.00000000000E+00  0.20687158728E+04  0.20687158728E+04  0.25500000000E-02 0.  1.
         -2   -1    0    0    0  501 -0.00000000000E+00 -0.00000000000E+00 -0.35605287076E+02  0.35605287167E+02  0.25500000000E-02 0. -1.
    5000001    1    1    2    0    0  0.17581951167E+03 -0.25536039617E+02  0.82303952321E+03  0.86519341581E+03  0.19900000000E+03 0.  0.
   -5000001    1    1    2    0    0 -0.17581951167E+03  0.25536039617E+02  0.12100710625E+04  0.12391277442E+04  0.19900000000E+03 0.  0.
<mgrwt>
<rscale>  0 0.54279728E+03</rscale>
<asrwt>0</asrwt>
<pdfrwt beam="1">  1        2 0.29553093E+00 0.54279728E+03</pdfrwt>
<pdfrwt beam="2">  1       -2 0.50864681E-02 0.54279728E+03</pdfrwt>
<totfact> 0.15332379E+03</totfact>
</mgrwt>
</event>
<event>
 4    1  0.5056513E-005  0.7417186E+03  0.7818608E-02  0.9648433E-01
         -2   -1    0    0    0  501 -0.00000000000E+00  0.00000000000E+00  0.64333547139E+02  0.64333547189E+02  0.25500000000E-02 0. -1.
          2   -1    0    0  501    0  0.00000000000E+00 -0.00000000000E+00 -0.21378678902E+04  0.21378678902E+04  0.25500000000E-02 0.  1.
    5000001    1    1    2    0    0  0.33676265615E+02 -0.26854134157E+03 -0.57026599586E+03  0.66185561041E+03  0.19900000000E+03 0.  0.
   -5000001    1    1    2    0    0 -0.33676265615E+02  0.26854134157E+03 -0.15032683472E+04  0.15403458270E+04  0.19900000000E+03 0.  0.
<mgrwt>
<rscale>  0 0.74171861E+03</rscale>
<asrwt>0</asrwt>
<pdfrwt beam="1">  1        2 0.30540965E+00 0.74171861E+03</pdfrwt>
<pdfrwt beam="2">  1       -2 0.91905081E-02 0.74171861E+03</pdfrwt>
<totfact> 0.54879004E+02</totfact>
</mgrwt>
</event>
<event>
 4    1  0.5056513E-005  0.8224298E+03  0.7818608E-02  0.9528107E-01
          2   -1    0    0  501    0  0.00000000000E+00  0.00000000000E+00  0.25842330581E+04  0.25842330581E+04  0.25500000000E-02 0.  1.
         -2   -1    0    0    0  501 -0.00000000000E+00 -0.00000000000E+00 -0.65434383187E+02  0.65434383236E+02  0.25500000000E-02 0. -1.
    5000001    1    1    2    0    0 -0.26876594216E+03 -0.32129940325E+01  0.20302761482E+04  0.20576364336E+04  0.19900000000E+03 0.  0.
   -5000001    1    1    2    0    0  0.26876594216E+03  0.32129940325E+01  0.48852252670E+03  0.59203100771E+03  0.19900000000E+03 0.  0.
<mgrwt>
<rscale>  0 0.82242981E+03</rscale>
<asrwt>0</asrwt>
<pdfrwt beam="1">  1        2 0.36917609E+00 0.82242981E+03</pdfrwt>
<pdfrwt beam="2">  1       -2 0.93477705E-02 0.82242981E+03</pdfrwt>
<totfact> 0.31328525E+02</totfact>
</mgrwt>
</event>
<event>
 4    1  0.5056513E-005  0.9710544E+03  0.7818608E-02  0.9340874E-01
         -2   -1    0    0    0  501 -0.00000000000E+00  0.00000000000E+00  0.95638887022E+02  0.95638887056E+02  0.25500000000E-02 0. -1.
          2   -1    0    0  501    0  0.00000000000E+00 -0.00000000000E+00 -0.24648618318E+04  0.24648618318E+04  0.25500000000E-02 0.  1.
    5000001    1    1    2    0    0  0.44410670292E+02 -0.35428419885E+03 -0.49375296848E+03  0.64100124421E+03  0.19900000000E+03 0.  0.
   -5000001    1    1    2    0    0 -0.44410670292E+02  0.35428419885E+03 -0.18754699763E+04  0.19194994747E+04  0.19900000000E+03 0.  0.
<mgrwt>
<rscale>  0 0.97105436E+03</rscale>
<asrwt>0</asrwt>
<pdfrwt beam="1">  1        2 0.35212308E+00 0.97105436E+03</pdfrwt>
<pdfrwt beam="2">  1       -2 0.13662700E-01 0.97105436E+03</pdfrwt>
<totfact> 0.19095388E+02</totfact>
</mgrwt>
</event>
<event>
 4    1  0.5056513E-005  0.9778490E+03  0.7818608E-02  0.9333179E-01
         -2   -1    0    0    0  501 -0.00000000000E+00  0.00000000000E+00  0.72894092305E+03  0.72894092305E+03  0.25500000000E-02 0. -1.
          2   -1    0    0  501    0  0.00000000000E+00 -0.00000000000E+00 -0.32793763152E+03  0.32793763153E+03  0.25500000000E-02 0.  1.
    5000001    1    1    2    0    0 -0.57997748360E-01 -0.44659017115E+03  0.20248738515E+03  0.52919271110E+03  0.19900000000E+03 0.  0.
   -5000001    1    1    2    0    0  0.57997748360E-01  0.44659017115E+03  0.19851590637E+03  0.52768584349E+03  0.19900000000E+03 0.  0.
<mgrwt>
<rscale>  0 0.97784899E+03</rscale>
<asrwt>0</asrwt>
<pdfrwt beam="1">  1        2 0.46848233E-01 0.97784899E+03</pdfrwt>
<pdfrwt beam="2">  1       -2 0.10413442E+00 0.97784899E+03</pdfrwt>
<totfact> 0.80977029E+01</totfact>
</mgrwt>
</event>
<event>
 4    1  0.5056513E-005  0.8573531E+03  0.7818608E-02  0.9480521E-01
         -2   -1    0    0    0  501 -0.00000000000E+00  0.00000000000E+00  0.64214192421E+03  0.64214192421E+03  0.25500000000E-02 0. -1.
          2   -1    0    0  501    0  0.00000000000E+00 -0.00000000000E+00 -0.28617282556E+03  0.28617282557E+03  0.25500000000E-02 0.  1.
    5000001    1    1    2    0    0  0.14597414251E+03 -0.29977096608E+03  0.37465381164E+03  0.53957164581E+03  0.19900000000E+03 0.  0.
   -5000001    1    1    2    0    0 -0.14597414251E+03  0.29977096608E+03 -0.18684712989E+02  0.38874310397E+03  0.19900000000E+03 0.  0.
<mgrwt>
<rscale>  0 0.85735306E+03</rscale>
<asrwt>0</asrwt>
<pdfrwt beam="1">  1        2 0.40881833E-01 0.85735306E+03</pdfrwt>
<pdfrwt beam="2">  1       -2 0.91734559E-01 0.85735306E+03</pdfrwt>
<totfact> 0.12778200E+02</totfact>
</mgrwt>
</event>
<event>
 4    1  0.5056513E-005  0.5976293E+03  0.7818608E-02  0.9910337E-01
          2   -1    0    0  501    0  0.00000000000E+00  0.00000000000E+00  0.24928545251E+03  0.24928545253E+03  0.25500000000E-02 0.  1.
         -2   -1    0    0    0  501 -0.00000000000E+00 -0.00000000000E+00 -0.35818452104E+03  0.35818452105E+03  0.25500000000E-02 0. -1.
    5000001    1    1    2    0    0 -0.21511149612E+03 -0.51870738000E+02 -0.81831201960E+02  0.30864360489E+03  0.19900000000E+03 0.  0.
   -5000001    1    1    2    0    0  0.21511149612E+03  0.51870738000E+02 -0.27067866571E+02  0.29882636869E+03  0.19900000000E+03 0.  0.
<mgrwt>
<rscale>  0 0.59762928E+03</rscale>
<asrwt>0</asrwt>
<pdfrwt beam="1">  1        2 0.35612208E-01 0.59762928E+03</pdfrwt>
<pdfrwt beam="2">  1       -2 0.51169217E-01 0.59762928E+03</pdfrwt>
<totfact> 0.53351809E+02</totfact>
</mgrwt>
</event>
<event>
 4    1  0.5056513E-005  0.5165338E+03  0.7818608E-02  0.1009551E+00
         -2   -1    0    0    0  501 -0.00000000000E+00  0.00000000000E+00  0.14626807768E+03  0.14626807771E+03  0.25500000000E-02 0. -1.
          2   -1    0    0  501    0  0.00000000000E+00 -0.00000000000E+00 -0.45602428422E+03  0.45602428423E+03  0.25500000000E-02 0.  1.
    5000001    1    1    2    0    0  0.66720669349E+02 -0.28225919441E+02  0.17490680683E+02  0.21249770389E+03  0.19900000000E+03 0.  0.
   -5000001    1    1    2    0    0 -0.66720669349E+02  0.28225919441E+02 -0.32724688722E+03  0.38979465805E+03  0.19900000000E+03 0.  0.
<mgrwt>
<rscale>  0 0.51653381E+03</rscale>
<asrwt>0</asrwt>
<pdfrwt beam="1">  1        2 0.65146326E-01 0.51653381E+03</pdfrwt>
<pdfrwt beam="2">  1       -2 0.20895440E-01 0.51653381E+03</pdfrwt>
<totfact> 0.14702723E+03</totfact>
</mgrwt>
</event>
<event>
 4    1  0.5056513E-005  0.5244126E+03  0.7818608E-02  0.1007596E+00
          2   -1    0    0  501    0  0.00000000000E+00  0.00000000000E+00  0.14876140938E+03  0.14876140940E+03  0.25500000000E-02 0.  1.
         -2   -1    0    0    0  501 -0.00000000000E+00 -0.00000000000E+00 -0.46216391027E+03  0.46216391028E+03  0.25500000000E-02 0. -1.
    5000001    1    1    2    0    0  0.11110976569E+03 -0.97664078904E+02 -0.57387916314E+02  0.25451527514E+03  0.19900000000E+03 0.  0.
   -5000001    1    1    2    0    0 -0.11110976569E+03  0.97664078904E+02 -0.25601458458E+03  0.35641004455E+03  0.19900000000E+03 0.  0.
<mgrwt>
<rscale>  0 0.52441264E+03</rscale>
<asrwt>0</asrwt>
<pdfrwt beam="1">  1        2 0.21251630E-01 0.52441264E+03</pdfrwt>
<pdfrwt beam="2">  1       -2 0.66023415E-01 0.52441264E+03</pdfrwt>
<totfact> 0.56284672E+02</totfact>
</mgrwt>
</event>
<event>
 4    1  0.5056513E-005  0.5024434E+03  0.7818608E-02  0.1013143E+00
          2   -1    0    0  501    0  0.00000000000E+00  0.00000000000E+00  0.13493750367E+03  0.13493750369E+03  0.25500000000E-02 0.  1.
         -2   -1    0    0    0  501 -0.00000000000E+00 -0.00000000000E+00 -0.46771536862E+03  0.46771536863E+03  0.25500000000E-02 0. -1.
    5000001    1    1    2    0    0  0.81284733359E+02  0.83856255177E+02 -0.47213022011E+02  0.23551889278E+03  0.19900000000E+03 0.  0.
   -5000001    1    1    2    0    0 -0.81284733359E+02 -0.83856255177E+02 -0.28556484294E+03  0.36713397954E+03  0.19900000000E+03 0.  0.
<mgrwt>
<rscale>  0 0.50244341E+03</rscale>
<asrwt>0</asrwt>
<pdfrwt beam="1">  1        2 0.19276786E-01 0.50244341E+03</pdfrwt>
<pdfrwt beam="2">  1       -2 0.66816481E-01 0.50244341E+03</pdfrwt>
<totfact> 0.61474528E+02</totfact>
</mgrwt>
</event>
<event>
 4    1  0.5056513E-005  0.6328956E+03  0.7818608E-02  0.9839415E-01
         -2   -1    0    0    0  501 -0.00000000000E+00  0.00000000000E+00  0.29233478832E+03  0.29233478833E+03  0.25500000000E-02 0.  1.
          2   -1    0    0  501    0  0.00000000000E+00 -0.00000000000E+00 -0.34254970724E+03  0.34254970725E+03  0.25500000000E-02 0. -1.
    5000001    1    1    2    0    0 -0.13354494562E+03  0.19936680554E+03 -0.79654997788E+02  0.32175657619E+03  0.19900000000E+03 0.  0.
   -5000001    1    1    2    0    0  0.13354494562E+03 -0.19936680554E+03  0.29440078868E+02  0.31312791938E+03  0.19900000000E+03 0.  0.
<mgrwt>
<rscale>  0 0.63289556E+03</rscale>
<asrwt>0</asrwt>
<pdfrwt beam="1">  1        2 0.48935673E-01 0.63289556E+03</pdfrwt>
<pdfrwt beam="2">  1       -2 0.41762112E-01 0.63289556E+03</pdfrwt>
<totfact> 0.56269402E+02</totfact>
</mgrwt>
</event>
<event>
 4    1  0.5056513E-005  0.6447167E+03  0.7818608E-02  0.9816744E-01
          2   -1    0    0  501    0  0.00000000000E+00  0.00000000000E+00  0.39580186403E+03  0.39580186404E+03  0.25500000000E-02 0.  1.
         -2   -1    0    0    0  501 -0.00000000000E+00 -0.00000000000E+00 -0.26254272890E+03  0.26254272891E+03  0.25500000000E-02 0. -1.
    5000001    1    1    2    0    0  0.23332537427E+03 -0.34170193667E+01  0.16803372151E+03  0.34969806672E+03  0.19900000000E+03 0.  0.
   -5000001    1    1    2    0    0 -0.23332537427E+03  0.34170193667E+01 -0.34774586379E+02  0.30864652623E+03  0.19900000000E+03 0.  0.
<mgrwt>
<rscale>  0 0.64471669E+03</rscale>
<asrwt>0</asrwt>
<pdfrwt beam="1">  1        2 0.56543123E-01 0.64471669E+03</pdfrwt>
<pdfrwt beam="2">  1       -2 0.37506104E-01 0.64471669E+03</pdfrwt>
<totfact> 0.59029873E+02</totfact>
</mgrwt>
</event>
<event>
 4    1  0.5056513E-005  0.6770845E+03  0.7818608E-02  0.9757244E-01
          2   -1    0    0  501    0  0.00000000000E+00  0.00000000000E+00  0.43078715591E+03  0.43078715591E+03  0.25500000000E-02 0.  1.
         -2   -1    0    0    0  501 -0.00000000000E+00 -0.00000000000E+00 -0.26604986416E+03  0.26604986418E+03  0.25500000000E-02 0. -1.
    5000001    1    1    2    0    0 -0.35358799939E+02  0.26185462825E+03  0.15652462673E+03  0.36594951816E+03  0.19900000000E+03 0.  0.
   -5000001    1    1    2    0    0  0.35358799939E+02 -0.26185462825E+03  0.82126650154E+01  0.33088750193E+03  0.19900000000E+03 0.  0.
<mgrwt>
<rscale>  0 0.67708453E+03</rscale>
<asrwt>0</asrwt>
<pdfrwt beam="1">  1        2 0.61541022E-01 0.67708453E+03</pdfrwt>
<pdfrwt beam="2">  1       -2 0.38007124E-01 0.67708453E+03</pdfrwt>
<totfact> 0.52311451E+02</totfact>
</mgrwt>
</event>
<event>
 4    1  0.5056513E-005  0.8483083E+03  0.7818608E-02  0.9492610E-01
          2   -1    0    0  501    0  0.00000000000E+00  0.00000000000E+00  0.22931314860E+04  0.22931314860E+04  0.25500000000E-02 0. -1.
         -2   -1    0    0    0  501 -0.00000000000E+00 -0.00000000000E+00 -0.78454607706E+02  0.78454607747E+02  0.25500000000E-02 0.  1.
    5000001    1    1    2    0    0 -0.35060977258E+03 -0.71351450622E+02  0.14172350062E+04  0.14751861933E+04  0.19900000000E+03 0.  0.
   -5000001    1    1    2    0    0  0.35060977258E+03  0.71351450622E+02  0.79744187206E+03  0.89639990040E+03  0.19900000000E+03 0.  0.
<mgrwt>
<rscale>  0 0.84830827E+03</rscale>
<asrwt>0</asrwt>
<pdfrwt beam="1">  1        2 0.32759014E+00 0.84830827E+03</pdfrwt>
<pdfrwt beam="2">  1       -2 0.11207803E-01 0.84830827E+03</pdfrwt>
<totfact> 0.32849738E+02</totfact>
</mgrwt>
</event>
<event>
 4    1  0.5056513E-005  0.6955187E+03  0.7818608E-02  0.9724927E-01
         -2   -1    0    0    0  501 -0.00000000000E+00  0.00000000000E+00  0.80049199727E+02  0.80049199768E+02  0.25500000000E-02 0. -1.
          2   -1    0    0  501    0  0.00000000000E+00 -0.00000000000E+00 -0.15107778397E+04  0.15107778397E+04  0.25500000000E-02 0.  1.
    5000001    1    1    2    0    0  0.63954068589E+02 -0.26363606384E+03 -0.91660955487E+03  0.97640574206E+03  0.19900000000E+03 0.  0.
   -5000001    1    1    2    0    0 -0.63954068589E+02  0.26363606384E+03 -0.51411908512E+03  0.61442129743E+03  0.19900000000E+03 0.  0.
<mgrwt>
<rscale>  0 0.69551868E+03</rscale>
<asrwt>0</asrwt>
<pdfrwt beam="1">  1        2 0.21582539E+00 0.69551868E+03</pdfrwt>
<pdfrwt beam="2">  1       -2 0.11435601E-01 0.69551868E+03</pdfrwt>
<totfact> 0.80456974E+02</totfact>
</mgrwt>
</event>
<event>
 4    1  0.5056513E-005  0.6154723E+03  0.7818608E-02  0.9873816E-01
         -2   -1    0    0    0  501 -0.00000000000E+00  0.00000000000E+00  0.46713783038E+02  0.46713783108E+02  0.25500000000E-02 0. -1.
          2   -1    0    0  501    0  0.00000000000E+00 -0.00000000000E+00 -0.20272718565E+04  0.20272718565E+04  0.25500000000E-02 0.  1.
    5000001    1    1    2    0    0 -0.10391996948E+01  0.18159553351E+03 -0.48907503240E+03  0.55836672988E+03  0.19900000000E+03 0.  0.
   -5000001    1    1    2    0    0  0.10391996948E+01 -0.18159553351E+03 -0.14914830410E+04  0.15156189097E+04  0.19900000000E+03 0.  0.
<mgrwt>
<rscale>  0 0.61547230E+03</rscale>
<asrwt>0</asrwt>
<pdfrwt beam="1">  1        2 0.28961021E+00 0.61547230E+03</pdfrwt>
<pdfrwt beam="2">  1       -2 0.66733989E-02 0.61547230E+03</pdfrwt>
<totfact> 0.10481660E+03</totfact>
</mgrwt>
</event>
<event>
 4    1  0.5056513E-005  0.5332919E+03  0.7818608E-02  0.1005437E+00
          2   -1    0    0  501    0  0.00000000000E+00  0.00000000000E+00  0.10788531462E+04  0.10788531462E+04  0.25500000000E-02 0.  1.
         -2   -1    0    0    0  501 -0.00000000000E+00 -0.00000000000E+00 -0.65903370648E+02  0.65903370697E+02  0.25500000000E-02 0. -1.
    5000001    1    1    2    0    0 -0.17147921183E+03  0.20553272665E+02  0.59423588695E+03  0.65003449635E+03  0.19900000000E+03 0.  0.
   -5000001    1    1    2    0    0  0.17147921183E+03 -0.20553272665E+02  0.41871388861E+03  0.49472202056E+03  0.19900000000E+03 0.  0.
<mgrwt>
<rscale>  0 0.53329189E+03</rscale>
<asrwt>0</asrwt>
<pdfrwt beam="1">  1        2 0.15412188E+00 0.53329189E+03</pdfrwt>
<pdfrwt beam="2">  1       -2 0.94147672E-02 0.53329189E+03</pdfrwt>
<totfact> 0.19130101E+03</totfact>
</mgrwt>
</event>
<event>
 4    1  0.5056513E-005  0.4809460E+03  0.7818608E-02  0.1018876E+00
          2   -1    0    0  501    0  0.00000000000E+00  0.00000000000E+00  0.89098291256E+03  0.89098291256E+03  0.25500000000E-02 0.  1.
         -2   -1    0    0    0  501 -0.00000000000E+00 -0.00000000000E+00 -0.64902764123E+02  0.64902764173E+02  0.25500000000E-02 0. -1.
    5000001    1    1    2    0    0  0.10732647718E+03 -0.80611147043E+02  0.38429842250E+03  0.45310419030E+03  0.19900000000E+03 0.  0.
   -5000001    1    1    2    0    0 -0.10732647718E+03  0.80611147043E+02  0.44178172594E+03  0.50278148644E+03  0.19900000000E+03 0.  0.
<mgrwt>
<rscale>  0 0.48094596E+03</rscale>
<asrwt>0</asrwt>
<pdfrwt beam="1">  1        2 0.12728328E+00 0.48094596E+03</pdfrwt>
<pdfrwt beam="2">  1       -2 0.92718233E-02 0.48094596E+03</pdfrwt>
<totfact> 0.25549318E+03</totfact>
</mgrwt>
</event>
<event>
 4    1  0.5056513E-005  0.4662472E+03  0.7818608E-02  0.1022985E+00
         -2   -1    0    0    0  501 -0.00000000000E+00  0.00000000000E+00  0.14589986474E+03  0.14589986477E+03  0.25500000000E-02 0. -1.
          2   -1    0    0  501    0  0.00000000000E+00 -0.00000000000E+00 -0.37249249478E+03  0.37249249478E+03  0.25500000000E-02 0.  1.
    5000001    1    1    2    0    0 -0.30771978854E+02 -0.11726111193E+03 -0.12104110717E+03  0.26258147817E+03  0.19900000000E+03 0.  0.
   -5000001    1    1    2    0    0  0.30771978854E+02  0.11726111193E+03 -0.10555152286E+03  0.25581088138E+03  0.19900000000E+03 0.  0.
<mgrwt>
<rscale>  0 0.46624716E+03</rscale>
<asrwt>0</asrwt>
<pdfrwt beam="1">  1        2 0.53213213E-01 0.46624716E+03</pdfrwt>
<pdfrwt beam="2">  1       -2 0.20842838E-01 0.46624716E+03</pdfrwt>
<totfact> 0.18467698E+03</totfact>
</mgrwt>
</event>
<event>
 4    1  0.5056513E-005  0.8728082E+03  0.7818608E-02  0.9460226E-01
         -2   -1    0    0    0  501 -0.00000000000E+00  0.00000000000E+00  0.60945206573E+02  0.60945206626E+02  0.25500000000E-02 0. -1.
          2   -1    0    0  501    0  0.00000000000E+00 -0.00000000000E+00 -0.31249139562E+04  0.31249139562E+04  0.25500000000E-02 0.  1.
    5000001    1    1    2    0    0 -0.35259974668E+03  0.72440107530E+02 -0.20643695801E+04  0.21049458221E+04  0.19900000000E+03 0.  0.
   -5000001    1    1    2    0    0  0.35259974668E+03 -0.72440107530E+02 -0.99959916947E+03  0.10809133407E+04  0.19900000000E+03 0.  0.
<mgrwt>
<rscale>  0 0.87280817E+03</rscale>
<asrwt>0</asrwt>
<pdfrwt beam="1">  1        2 0.44641618E+00 0.87280817E+03</pdfrwt>
<pdfrwt beam="2">  1       -2 0.87064600E-02 0.87280817E+03</pdfrwt>
<totfact> 0.17872873E+02</totfact>
</mgrwt>
</event>
<event>
 4    1  0.5056513E-005  0.5811277E+03  0.7818608E-02  0.9945353E-01
          2   -1    0    0  501    0  0.00000000000E+00  0.00000000000E+00  0.44486136765E+03  0.44486136766E+03  0.25500000000E-02 0.  1.
         -2   -1    0    0    0  501 -0.00000000000E+00 -0.00000000000E+00 -0.18978350787E+03  0.18978350789E+03  0.25500000000E-02 0. -1.
    5000001    1    1    2    0    0 -0.11869803264E+03  0.17520034666E+03  0.13461366758E+03  0.32016593186E+03  0.19900000000E+03 0.  0.
   -5000001    1    1    2    0    0  0.11869803264E+03 -0.17520034666E+03  0.12046419220E+03  0.31447894369E+03  0.19900000000E+03 0.  0.
<mgrwt>
<rscale>  0 0.58112770E+03</rscale>
<asrwt>0</asrwt>
<pdfrwt beam="1">  1        2 0.63551625E-01 0.58112770E+03</pdfrwt>
<pdfrwt beam="2">  1       -2 0.27111929E-01 0.58112770E+03</pdfrwt>
<totfact> 0.95063990E+02</totfact>
</mgrwt>
</event>
<event>
 4    1  0.5056513E-005  0.6834452E+03  0.7818608E-02  0.9745970E-01
         -2   -1    0    0    0  501 -0.00000000000E+00  0.00000000000E+00  0.14764964038E+03  0.14764964040E+03  0.25500000000E-02 0. -1.
          2   -1    0    0  501    0  0.00000000000E+00 -0.00000000000E+00 -0.79088798936E+03  0.79088798937E+03  0.25500000000E-02 0.  1.
    5000001    1    1    2    0    0  0.16792913236E+03 -0.20180373609E+03 -0.44633813745E+03  0.55474649556E+03  0.19900000000E+03 0.  0.
   -5000001    1    1    2    0    0 -0.16792913236E+03  0.20180373609E+03 -0.19690021154E+03  0.38379113421E+03  0.19900000000E+03 0.  0.
<mgrwt>
<rscale>  0 0.68344518E+03</rscale>
<asrwt>0</asrwt>
<pdfrwt beam="1">  1        2 0.11298400E+00 0.68344518E+03</pdfrwt>
<pdfrwt beam="2">  1       -2 0.21092806E-01 0.68344518E+03</pdfrwt>
<totfact> 0.75203299E+02</totfact>
</mgrwt>
</event>
<event>
 4    1  0.5056513E-005  0.8073963E+03  0.7818608E-02  0.9549373E-01
         -2   -1    0    0    0  501 -0.00000000000E+00  0.00000000000E+00  0.12003323380E+03  0.12003323382E+03  0.25500000000E-02 0. -1.
          2   -1    0    0  501    0  0.00000000000E+00 -0.00000000000E+00 -0.13577257268E+04  0.13577257268E+04  0.25500000000E-02 0.  1.
    5000001    1    1    2    0    0 -0.31557131227E+03 -0.12745572793E+03 -0.77778548353E+03  0.87199855166E+03  0.19900000000E+03 0.  0.
   -5000001    1    1    2    0    0  0.31557131227E+03  0.12745572793E+03 -0.45990700950E+03  0.60576040899E+03  0.19900000000E+03 0.  0.
<mgrwt>
<rscale>  0 0.80739633E+03</rscale>
<asrwt>0</asrwt>
<pdfrwt beam="1">  1        2 0.19396081E+00 0.80739633E+03</pdfrwt>
<pdfrwt beam="2">  1       -2 0.17147606E-01 0.80739633E+03</pdfrwt>
<totfact> 0.48889485E+02</totfact>
</mgrwt>
</event>
<event>
 4    1  0.5056513E-005  0.6038710E+03  0.7818608E-02  0.9897407E-01
         -2   -1    0    0    0  501 -0.00000000000E+00  0.00000000000E+00  0.42424836038E+02  0.42424836114E+02  0.25500000000E-02 0. -1.
          2   -1    0    0  501    0  0.00000000000E+00 -0.00000000000E+00 -0.21488602221E+04  0.21488602221E+04  0.25500000000E-02 0.  1.
    5000001    1    1    2    0    0  0.10552638851E+03 -0.19806055876E+03 -0.92750226129E+03  0.97479497758E+03  0.19900000000E+03 0.  0.
   -5000001    1    1    2    0    0 -0.10552638851E+03  0.19806055876E+03 -0.11789331247E+04  0.12164900806E+04  0.19900000000E+03 0.  0.
<mgrwt>
<rscale>  0 0.60387099E+03</rscale>
<asrwt>0</asrwt>
<pdfrwt beam="1">  1        2 0.30697996E+00 0.60387099E+03</pdfrwt>
<pdfrwt beam="2">  1       -2 0.60606922E-02 0.60387099E+03</pdfrwt>
<totfact> 0.10600885E+03</totfact>
</mgrwt>
</event>
<event>
 4    1  0.5056513E-005  0.7357200E+03  0.7818608E-02  0.9658024E-01
         -2   -1    0    0    0  501 -0.00000000000E+00  0.00000000000E+00  0.87465765778E+03  0.87465765779E+03  0.25500000000E-02 0. -1.
          2   -1    0    0  501    0  0.00000000000E+00 -0.00000000000E+00 -0.15471306309E+03  0.15471306311E+03  0.25500000000E-02 0.  1.
    5000001    1    1    2    0    0  0.16391573978E+03  0.21299618112E+03  0.14556114803E+03  0.36472563762E+03  0.19900000000E+03 0.  0.
   -5000001    1    1    2    0    0 -0.16391573978E+03 -0.21299618112E+03  0.57438344666E+03  0.66464508328E+03  0.19900000000E+03 0.  0.
<mgrwt>
<rscale>  0 0.73571996E+03</rscale>
<asrwt>0</asrwt>
<pdfrwt beam="1">  1        2 0.22101867E-01 0.73571996E+03</pdfrwt>
<pdfrwt beam="2">  1       -2 0.12495109E+00 0.73571996E+03</pdfrwt>
<totfact> 0.12253275E+02</totfact>
</mgrwt>
</event>
<event>
 4    1  0.5056513E-005  0.5306803E+03  0.7818608E-02  0.1006067E+00
         -2   -1    0    0    0  501 -0.00000000000E+00  0.00000000000E+00  0.53611488868E+02  0.53611488929E+02  0.25500000000E-02 0.  1.
          2   -1    0    0  501    0  0.00000000000E+00 -0.00000000000E+00 -0.13132518600E+04  0.13132518600E+04  0.25500000000E-02 0. -1.
    5000001    1    1    2    0    0 -0.11432621211E+02  0.16805644826E+03 -0.75680710511E+03  0.80045716249E+03  0.19900000000E+03 0.  0.
   -5000001    1    1    2    0    0  0.11432621211E+02 -0.16805644826E+03 -0.50283326605E+03  0.56640618648E+03  0.19900000000E+03 0.  0.
<mgrwt>
<rscale>  0 0.53068027E+03</rscale>
<asrwt>0</asrwt>
<pdfrwt beam="1">  1        2 0.18760739E+00 0.53068027E+03</pdfrwt>
<pdfrwt beam="2">  1       -2 0.76587850E-02 0.53068027E+03</pdfrwt>
<totfact> 0.19663093E+03</totfact>
</mgrwt>
</event>
<event>
 4    1  0.5056513E-005  0.7038335E+03  0.7818608E-02  0.9710699E-01
         -2   -1    0    0    0  501 -0.00000000000E+00  0.00000000000E+00  0.20723376772E+03  0.20723376773E+03  0.25500000000E-02 0. -1.
          2   -1    0    0  501    0  0.00000000000E+00 -0.00000000000E+00 -0.59761207622E+03  0.59761207622E+03  0.25500000000E-02 0.  1.
    5000001    1    1    2    0    0 -0.18486406850E+03 -0.16952541405E+03 -0.28177620689E+02  0.32141650260E+03  0.19900000000E+03 0.  0.
   -5000001    1    1    2    0    0  0.18486406850E+03  0.16952541405E+03 -0.36220068781E+03  0.48342934136E+03  0.19900000000E+03 0.  0.
<mgrwt>
<rscale>  0 0.70383351E+03</rscale>
<asrwt>0</asrwt>
<pdfrwt beam="1">  1        2 0.85373153E-01 0.70383351E+03</pdfrwt>
<pdfrwt beam="2">  1       -2 0.29604824E-01 0.70383351E+03</pdfrwt>
<totfact> 0.57534047E+02</totfact>
</mgrwt>
</event>
<event>
 4    1  0.5056513E-005  0.9538775E+03  0.7818608E-02  0.9360630E-01
         -2   -1    0    0    0  501 -0.00000000000E+00  0.00000000000E+00  0.13621425829E+03  0.13621425832E+03  0.25500000000E-02 0.  1.
          2   -1    0    0  501    0  0.00000000000E+00 -0.00000000000E+00 -0.16699469394E+04  0.16699469394E+04  0.25500000000E-02 0. -1.
    5000001    1    1    2    0    0  0.41301949631E+03 -0.98311056116E+02 -0.93214802288E+03  0.10434323671E+04  0.19900000000E+03 0.  0.
   -5000001    1    1    2    0    0 -0.41301949631E+03  0.98311056116E+02 -0.60158465823E+03  0.76272883065E+03  0.19900000000E+03 0.  0.
<mgrwt>
<rscale>  0 0.95387753E+03</rscale>
<asrwt>0</asrwt>
<pdfrwt beam="1">  1        2 0.23856384E+00 0.95387753E+03</pdfrwt>
<pdfrwt beam="2">  1       -2 0.19459181E-01 0.95387753E+03</pdfrwt>
<totfact> 0.26656285E+02</totfact>
</mgrwt>
</event>
<event>
 4    1  0.5056513E-005  0.8376834E+03  0.7818608E-02  0.9507019E-01
         -2   -1    0    0    0  501 -0.00000000000E+00  0.00000000000E+00  0.83428599814E+02  0.83428599853E+02  0.25500000000E-02 0. -1.
          2   -1    0    0  501    0  0.00000000000E+00 -0.00000000000E+00 -0.21027367799E+04  0.21027367799E+04  0.25500000000E-02 0.  1.
    5000001    1    1    2    0    0  0.62414319913E+02 -0.34793197718E+03 -0.73749599485E+03  0.84169682814E+03  0.19900000000E+03 0.  0.
   -5000001    1    1    2    0    0 -0.62414319913E+02  0.34793197718E+03 -0.12818121852E+04  0.13444685516E+04  0.19900000000E+03 0.  0.
<mgrwt>
<rscale>  0 0.83768344E+03</rscale>
<asrwt>0</asrwt>
<pdfrwt beam="1">  1        2 0.30039094E+00 0.83768344E+03</pdfrwt>
<pdfrwt beam="2">  1       -2 0.11918373E-01 0.83768344E+03</pdfrwt>
<totfact> 0.37134003E+02</totfact>
</mgrwt>
</event>
<event>
 4    1  0.5056513E-005  0.5976174E+03  0.7818608E-02  0.9910362E-01
         -2   -1    0    0    0  501 -0.00000000000E+00  0.00000000000E+00  0.44345265010E+02  0.44345265084E+02  0.25500000000E-02 0. -1.
          2   -1    0    0  501    0  0.00000000000E+00 -0.00000000000E+00 -0.20134424624E+04  0.20134424624E+04  0.25500000000E-02 0.  1.
    5000001    1    1    2    0    0  0.14614588979E+03  0.11015684513E+03 -0.14227100134E+04  0.14481705472E+04  0.19900000000E+03 0.  0.
   -5000001    1    1    2    0    0 -0.14614588979E+03 -0.11015684513E+03 -0.54638718395E+03  0.60961718022E+03  0.19900000000E+03 0.  0.
<mgrwt>
<rscale>  0 0.59761740E+03</rscale>
<asrwt>0</asrwt>
<pdfrwt beam="1">  1        2 0.28763458E+00 0.59761740E+03</pdfrwt>
<pdfrwt beam="2">  1       -2 0.63350391E-02 0.59761740E+03</pdfrwt>
<totfact> 0.11570877E+03</totfact>
</mgrwt>
</event>
<event>
 4    1  0.5056513E-005  0.8046874E+03  0.7818608E-02  0.9553257E-01
         -2   -1    0    0    0  501 -0.00000000000E+00  0.00000000000E+00  0.10237407939E+03  0.10237407942E+03  0.25500000000E-02 0. -1.
          2   -1    0    0  501    0  0.00000000000E+00 -0.00000000000E+00 -0.15812640815E+04  0.15812640815E+04  0.25500000000E-02 0.  1.
    5000001    1    1    2    0    0 -0.28464126570E+03  0.14945623770E+03 -0.45163828999E+03  0.58901270115E+03  0.19900000000E+03 0.  0.
   -5000001    1    1    2    0    0  0.28464126570E+03 -0.14945623770E+03 -0.10272517121E+04  0.10946254598E+04  0.19900000000E+03 0.  0.
<mgrwt>
<rscale>  0 0.80468740E+03</rscale>
<asrwt>0</asrwt>
<pdfrwt beam="1">  1        2 0.22589485E+00 0.80468740E+03</pdfrwt>
<pdfrwt beam="2">  1       -2 0.14624869E-01 0.80468740E+03</pdfrwt>
<totfact> 0.48810795E+02</totfact>
</mgrwt>
</event>
<event>
 4    1  0.5056513E-005  0.5416646E+03  0.7818608E-02  0.1003442E+00
          2   -1    0    0  501    0  0.00000000000E+00  0.00000000000E+00  0.48976355031E+03  0.48976355031E+03  0.25500000000E-02 0.  1.
         -2   -1    0    0    0  501 -0.00000000000E+00 -0.00000000000E+00 -0.14976642678E+03  0.14976642680E+03  0.25500000000E-02 0. -1.
    5000001    1    1    2    0    0 -0.11627482273E+03 -0.27455801874E+02  0.52299253995E+01  0.23216805891E+03  0.19900000000E+03 0.  0.
   -5000001    1    1    2    0    0  0.11627482273E+03  0.27455801874E+02  0.33476719813E+03  0.40736191820E+03  0.19900000000E+03 0.  0.
<mgrwt>
<rscale>  0 0.54166461E+03</rscale>
<asrwt>0</asrwt>
<pdfrwt beam="1">  1        2 0.69966222E-01 0.54166461E+03</pdfrwt>
<pdfrwt beam="2">  1       -2 0.21395204E-01 0.54166461E+03</pdfrwt>
<totfact> 0.13018920E+03</totfact>
</mgrwt>
</event>
<event>
 4    1  0.5056513E-005  0.6118722E+03  0.7818608E-02  0.9881077E-01
          2   -1    0    0  501    0  0.00000000000E+00  0.00000000000E+00  0.32061722763E+04  0.32061722763E+04  0.25500000000E-02 0.  1.
         -2   -1    0    0    0  501 -0.00000000000E+00 -0.00000000000E+00 -0.29192723579E+02  0.29192723691E+02  0.25500000000E-02 0. -1.
    5000001    1    1    2    0    0 -0.80726550979E+02 -0.16255781566E+03  0.23557288360E+04  0.23710759516E+04  0.19900000000E+03 0.  0.
   -5000001    1    1    2    0    0  0.80726550979E+02  0.16255781566E+03  0.82125071672E+03  0.86428904840E+03  0.19900000000E+03 0.  0.
<mgrwt>
<rscale>  0 0.61187221E+03</rscale>
<asrwt>0</asrwt>
<pdfrwt beam="1">  1        2 0.45802465E+00 0.61187221E+03</pdfrwt>
<pdfrwt beam="2">  1       -2 0.41703887E-02 0.61187221E+03</pdfrwt>
<totfact> 0.52635209E+02</totfact>
</mgrwt>
</event>
<event>
 4    1  0.5056513E-005  0.6623513E+03  0.7818608E-02  0.9783875E-01
          2   -1    0    0  501    0  0.00000000000E+00  0.00000000000E+00  0.18528843496E+03  0.18528843498E+03  0.25500000000E-02 0.  1.
         -2   -1    0    0    0  501 -0.00000000000E+00 -0.00000000000E+00 -0.59192739194E+03  0.59192739195E+03  0.25500000000E-02 0. -1.
    5000001    1    1    2    0    0  0.21479848010E+03 -0.55156391125E+02 -0.33697713994E+02  0.29986188565E+03  0.19900000000E+03 0.  0.
   -5000001    1    1    2    0    0 -0.21479848010E+03  0.55156391125E+02 -0.37294124299E+03  0.47735394128E+03  0.19900000000E+03 0.  0.
<mgrwt>
<rscale>  0 0.66235127E+03</rscale>
<asrwt>0</asrwt>
<pdfrwt beam="1">  1        2 0.26469777E-01 0.66235127E+03</pdfrwt>
<pdfrwt beam="2">  1       -2 0.84561055E-01 0.66235127E+03</pdfrwt>
<totfact> 0.25276662E+02</totfact>
</mgrwt>
</event>
<event>
 4    1  0.5056513E-005  0.4693701E+03  0.7818608E-02  0.1022098E+00
         -2   -1    0    0    0  501 -0.00000000000E+00  0.00000000000E+00  0.52803572353E+02  0.52803572415E+02  0.25500000000E-02 0. -1.
          2   -1    0    0  501    0  0.00000000000E+00 -0.00000000000E+00 -0.10430556615E+04  0.10430556615E+04  0.25500000000E-02 0.  1.
    5000001    1    1    2    0    0 -0.80139523396E+02  0.77798816346E+02 -0.62302799306E+03  0.66350574916E+03  0.19900000000E+03 0.  0.
   -5000001    1    1    2    0    0  0.80139523396E+02 -0.77798816346E+02 -0.36722409610E+03  0.43235348477E+03  0.19900000000E+03 0.  0.
<mgrwt>
<rscale>  0 0.46937007E+03</rscale>
<asrwt>0</asrwt>
<pdfrwt beam="1">  1        2 0.14900794E+00 0.46937007E+03</pdfrwt>
<pdfrwt beam="2">  1       -2 0.75433681E-02 0.46937007E+03</pdfrwt>
<totfact> 0.28589719E+03</totfact>
</mgrwt>
</event>
<event>
 4    1  0.5056513E-005  0.6454983E+03  0.7818608E-02  0.9815263E-01
          2   -1    0    0  501    0  0.00000000000E+00  0.00000000000E+00  0.21950128665E+04  0.21950128665E+04  0.25500000000E-02 0.  1.
         -2   -1    0    0    0  501 -0.00000000000E+00 -0.00000000000E+00 -0.47456226774E+02  0.47456226842E+02  0.25500000000E-02 0. -1.
    5000001    1    1    2    0    0  0.46358528199E+02  0.17953121428E+03  0.47020474084E+03  0.54320720572E+03  0.19900000000E+03 0.  0.
   -5000001    1    1    2    0    0 -0.46358528199E+02 -0.17953121428E+03  0.16773518989E+04  0.16992618877E+04  0.19900000000E+03 0.  0.
<mgrwt>
<rscale>  0 0.64549835E+03</rscale>
<asrwt>0</asrwt>
<pdfrwt beam="1">  1        2 0.31357337E+00 0.64549835E+03</pdfrwt>
<pdfrwt beam="2">  1       -2 0.67794587E-02 0.64549835E+03</pdfrwt>
<totfact> 0.84018582E+02</totfact>
</mgrwt>
</event>
<event>
 4    1  0.5056513E-005  0.5694231E+03  0.7818608E-02  0.9970956E-01
         -2   -1    0    0    0  501 -0.00000000000E+00  0.00000000000E+00  0.16528448445E+03  0.16528448447E+03  0.25500000000E-02 0. -1.
          2   -1    0    0  501    0  0.00000000000E+00 -0.00000000000E+00 -0.49043113590E+03  0.49043113591E+03  0.25500000000E-02 0.  1.
    5000001    1    1    2    0    0 -0.15689785404E+03  0.10037614331E+03 -0.67842828913E+02  0.28088423983E+03  0.19900000000E+03 0.  0.
   -5000001    1    1    2    0    0  0.15689785404E+03 -0.10037614331E+03 -0.25730382254E+03  0.37483138055E+03  0.19900000000E+03 0.  0.
<mgrwt>
<rscale>  0 0.56942307E+03</rscale>
<asrwt>0</asrwt>
<pdfrwt beam="1">  1        2 0.70061590E-01 0.56942307E+03</pdfrwt>
<pdfrwt beam="2">  1       -2 0.23612069E-01 0.56942307E+03</pdfrwt>
<totfact> 0.10920309E+03</totfact>
</mgrwt>
</event>
<event>
 4    1  0.5056513E-005  0.5116910E+03  0.7818608E-02  0.1010772E+00
          2   -1    0    0  501    0  0.00000000000E+00  0.00000000000E+00  0.70838527783E+03  0.70838527784E+03  0.25500000000E-02 0. -1.
         -2   -1    0    0    0  501 -0.00000000000E+00 -0.00000000000E+00 -0.92403010318E+02  0.92403010353E+02  0.25500000000E-02 0.  1.
    5000001    1    1    2    0    0 -0.92507299822E+02 -0.10023448576E+03  0.17472487344E+03  0.29788308789E+03  0.19900000000E+03 0.  0.
   -5000001    1    1    2    0    0  0.92507299822E+02  0.10023448576E+03  0.44125739408E+03  0.50290520029E+03  0.19900000000E+03 0.  0.
<mgrwt>
<rscale>  0 0.51169105E+03</rscale>
<asrwt>0</asrwt>
<pdfrwt beam="1">  1        2 0.10119789E+00 0.51169105E+03</pdfrwt>
<pdfrwt beam="2">  1       -2 0.13200430E-01 0.51169105E+03</pdfrwt>
<totfact> 0.19226906E+03</totfact>
</mgrwt>
</event>
<event>
 4    1  0.5056513E-005  0.9733882E+03  0.7818608E-02  0.9338224E-01
         -2   -1    0    0    0  501 -0.00000000000E+00  0.00000000000E+00  0.13149876801E+03  0.13149876803E+03  0.25500000000E-02 0. -1.
          2   -1    0    0  501    0  0.00000000000E+00 -0.00000000000E+00 -0.18013183314E+04  0.18013183314E+04  0.25500000000E-02 0.  1.
    5000001    1    1    2    0    0 -0.35156925578E+03 -0.25569235403E+03 -0.65410988050E+03  0.81021000814E+03  0.19900000000E+03 0.  0.
   -5000001    1    1    2    0    0  0.35156925578E+03  0.25569235403E+03 -0.10157096829E+04  0.11226070913E+04  0.19900000000E+03 0.  0.
<mgrwt>
<rscale>  0 0.97338819E+03</rscale>
<asrwt>0</asrwt>
<pdfrwt beam="1">  1        2 0.25733118E+00 0.97338819E+03</pdfrwt>
<pdfrwt beam="2">  1       -2 0.18785539E-01 0.97338819E+03</pdfrwt>
<totfact> 0.24227870E+02</totfact>
</mgrwt>
</event>
<event>
 4    1  0.5056513E-005  0.4216536E+03  0.7818608E-02  0.1036529E+00
          2   -1    0    0  501    0  0.00000000000E+00  0.00000000000E+00  0.10346859643E+04  0.10346859643E+04  0.25500000000E-02 0.  1.
         -2   -1    0    0    0  501 -0.00000000000E+00 -0.00000000000E+00 -0.42957897959E+02  0.42957898035E+02  0.25500000000E-02 0. -1.
    5000001    1    1    2    0    0  0.57099451774E+02  0.17497958940E-03  0.39406318837E+03  0.44513721909E+03  0.19900000000E+03 0.  0.
   -5000001    1    1    2    0    0 -0.57099451774E+02 -0.17497958940E-03  0.59766487800E+03  0.63250664327E+03  0.19900000000E+03 0.  0.
<mgrwt>
<rscale>  0 0.42165357E+03</rscale>
<asrwt>0</asrwt>
<pdfrwt beam="1">  1        2 0.14781229E+00 0.42165357E+03</pdfrwt>
<pdfrwt beam="2">  1       -2 0.61368424E-02 0.42165357E+03</pdfrwt>
<totfact> 0.39927886E+03</totfact>
</mgrwt>
</event>
<event>
 4    1  0.5056513E-005  0.6629220E+03  0.7818608E-02  0.9782830E-01
          2   -1    0    0  501    0  0.00000000000E+00  0.00000000000E+00  0.28354904905E+03  0.28354904906E+03  0.25500000000E-02 0.  1.
         -2   -1    0    0    0  501 -0.00000000000E+00 -0.00000000000E+00 -0.38746878375E+03  0.38746878376E+03  0.25500000000E-02 0. -1.
    5000001    1    1    2    0    0 -0.11604733334E+03  0.10542584365E+03  0.16438808148E+03  0.30200336657E+03  0.19900000000E+03 0.  0.
   -5000001    1    1    2    0    0  0.11604733334E+03 -0.10542584365E+03 -0.26830781617E+03  0.36901446625E+03  0.19900000000E+03 0.  0.
<mgrwt>
<rscale>  0 0.66292203E+03</rscale>
<asrwt>0</asrwt>
<pdfrwt beam="1">  1        2 0.40507007E-01 0.66292203E+03</pdfrwt>
<pdfrwt beam="2">  1       -2 0.55352683E-01 0.66292203E+03</pdfrwt>
<totfact> 0.39301309E+02</totfact>
</mgrwt>
</event>
<event>
 4    1  0.5056513E-005  0.9463212E+03  0.7818608E-02  0.9369461E-01
         -2   -1    0    0    0  501 -0.00000000000E+00  0.00000000000E+00  0.20007724717E+03  0.20007724719E+03  0.25500000000E-02 0. -1.
          2   -1    0    0  501    0  0.00000000000E+00 -0.00000000000E+00 -0.11189725404E+04  0.11189725404E+04  0.25500000000E-02 0.  1.
    5000001    1    1    2    0    0 -0.31163788527E+03 -0.52591722469E+02 -0.86438073108E+03  0.94161515975E+03  0.19900000000E+03 0.  0.
   -5000001    1    1    2    0    0  0.31163788527E+03  0.52591722469E+02 -0.54514562141E+02  0.37743462784E+03  0.19900000000E+03 0.  0.
<mgrwt>
<rscale>  0 0.94632118E+03</rscale>
<asrwt>0</asrwt>
<pdfrwt beam="1">  1        2 0.15985322E+00 0.94632118E+03</pdfrwt>
<pdfrwt beam="2">  1       -2 0.28582464E-01 0.94632118E+03</pdfrwt>
<totfact> 0.26654521E+02</totfact>
</mgrwt>
</event>
<event>
 4    1  0.5056513E-005  0.1230908E+04  0.7818608E-02  0.9086225E-01
          2   -1    0    0  501    0  0.00000000000E+00  0.00000000000E+00  0.40140543036E+03  0.40140543037E+03  0.25500000000E-02 0.  1.
         -2   -1    0    0    0  501 -0.00000000000E+00 -0.00000000000E+00 -0.94364402549E+03  0.94364402550E+03  0.25500000000E-02 0. -1.
    5000001    1    1    2    0    0  0.38959545749E+03 -0.79963170407E+02  0.19377771248E+03  0.48510775192E+03  0.19900000000E+03 0.  0.
   -5000001    1    1    2    0    0 -0.38959545749E+03  0.79963170407E+02 -0.73601630761E+03  0.85994170395E+03  0.19900000000E+03 0.  0.
<mgrwt>
<rscale>  0 0.12309083E+04</rscale>
<asrwt>0</asrwt>
<pdfrwt beam="1">  1        2 0.57343633E-01 0.12309083E+04</pdfrwt>
<pdfrwt beam="2">  1       -2 0.13480629E+00 0.12309083E+04</pdfrwt>
<totfact> 0.33604031E+01</totfact>
</mgrwt>
</event>
<event>
 4    1  0.5056513E-005  0.5089903E+03  0.7818608E-02  0.1011459E+00
          2   -1    0    0  501    0  0.00000000000E+00  0.00000000000E+00  0.69342111453E+03  0.69342111453E+03  0.25500000000E-02 0.  1.
         -2   -1    0    0    0  501 -0.00000000000E+00 -0.00000000000E+00 -0.93403228663E+02  0.93403228698E+02  0.25500000000E-02 0. -1.
    5000001    1    1    2    0    0  0.48615405523E+02  0.13834103080E+03  0.20642321975E+03  0.32204540691E+03  0.19900000000E+03 0.  0.
   -5000001    1    1    2    0    0 -0.48615405523E+02 -0.13834103080E+03  0.39359466611E+03  0.46477893632E+03  0.19900000000E+03 0.  0.
<mgrwt>
<rscale>  0 0.50899026E+03</rscale>
<asrwt>0</asrwt>
<pdfrwt beam="1">  1        2 0.99060157E-01 0.50899026E+03</pdfrwt>
<pdfrwt beam="2">  1       -2 0.13343319E-01 0.50899026E+03</pdfrwt>
<totfact> 0.19384207E+03</totfact>
</mgrwt>
</event>
<event>
 4    1  0.5056513E-005  0.5424735E+03  0.7818608E-02  0.1003251E+00
          2   -1    0    0  501    0  0.00000000000E+00  0.00000000000E+00  0.62085039668E+03  0.62085039669E+03  0.25500000000E-02 0.  1.
         -2   -1    0    0    0  501 -0.00000000000E+00 -0.00000000000E+00 -0.11849774514E+03  0.11849774517E+03  0.25500000000E-02 0. -1.
    5000001    1    1    2    0    0 -0.82891130839E+02  0.73085140757E+02  0.45220589301E+03  0.50626430552E+03  0.19900000000E+03 0.  0.
   -5000001    1    1    2    0    0  0.82891130839E+02 -0.73085140757E+02  0.50146758532E+02  0.23308383634E+03  0.19900000000E+03 0.  0.
<mgrwt>
<rscale>  0 0.54247349E+03</rscale>
<asrwt>0</asrwt>
<pdfrwt beam="1">  1        2 0.88692918E-01 0.54247349E+03</pdfrwt>
<pdfrwt beam="2">  1       -2 0.16928248E-01 0.54247349E+03</pdfrwt>
<totfact> 0.14837581E+03</totfact>
</mgrwt>
</event>
<event>
 4    1  0.5056513E-005  0.6131836E+03  0.7818608E-02  0.9878425E-01
         -2   -1    0    0    0  501 -0.00000000000E+00  0.00000000000E+00  0.16522498388E+03  0.16522498389E+03  0.25500000000E-02 0. -1.
          2   -1    0    0  501    0  0.00000000000E+00 -0.00000000000E+00 -0.56891240702E+03  0.56891240702E+03  0.25500000000E-02 0.  1.
    5000001    1    1    2    0    0 -0.72327555040E+01  0.22756666987E+03 -0.26240449566E+03  0.40036985567E+03  0.19900000000E+03 0.  0.
   -5000001    1    1    2    0    0  0.72327555040E+01 -0.22756666987E+03 -0.14128292748E+03  0.33376753525E+03  0.19900000000E+03 0.  0.
<mgrwt>
<rscale>  0 0.61318364E+03</rscale>
<asrwt>0</asrwt>
<pdfrwt beam="1">  1        2 0.81273200E-01 0.61318364E+03</pdfrwt>
<pdfrwt beam="2">  1       -2 0.23603569E-01 0.61318364E+03</pdfrwt>
<totfact> 0.92108322E+02</totfact>
</mgrwt>
</event>
<event>
 4    1  0.5056513E-005  0.4806231E+03  0.7818608E-02  0.1018964E+00
         -2   -1    0    0    0  501 -0.00000000000E+00  0.00000000000E+00  0.26537619456E+02  0.26537619579E+02  0.25500000000E-02 0. -1.
          2   -1    0    0  501    0  0.00000000000E+00 -0.00000000000E+00 -0.21761426777E+04  0.21761426777E+04  0.25500000000E-02 0.  1.
    5000001    1    1    2    0    0 -0.11682314561E+03 -0.55068689698E+02 -0.12504228161E+04  0.12727287327E+04  0.19900000000E+03 0.  0.
   -5000001    1    1    2    0    0  0.11682314561E+03  0.55068689698E+02 -0.89918224206E+03  0.92995156453E+03  0.19900000000E+03 0.  0.
<mgrwt>
<rscale>  0 0.48062312E+03</rscale>
<asrwt>0</asrwt>
<pdfrwt beam="1">  1        2 0.31087741E+00 0.48062312E+03</pdfrwt>
<pdfrwt beam="2">  1       -2 0.37910899E-02 0.48062312E+03</pdfrwt>
<totfact> 0.21349663E+03</totfact>
</mgrwt>
</event>
<event>
 4    1  0.5056513E-005  0.5258985E+03  0.7818608E-02  0.1007232E+00
          2   -1    0    0  501    0  0.00000000000E+00  0.00000000000E+00  0.34564746651E+04  0.34564746651E+04  0.25500000000E-02 0.  1.
         -2   -1    0    0    0  501 -0.00000000000E+00 -0.00000000000E+00 -0.20003705942E+02  0.20003706104E+02  0.25500000000E-02 0. -1.
    5000001    1    1    2    0    0 -0.12154763904E+03 -0.12085051072E+03  0.18025371258E+04  0.18215706861E+04  0.19900000000E+03 0.  0.
   -5000001    1    1    2    0    0  0.12154763904E+03  0.12085051072E+03  0.16339338334E+04  0.16549076852E+04  0.19900000000E+03 0.  0.
<mgrwt>
<rscale>  0 0.52589848E+03</rscale>
<asrwt>0</asrwt>
<pdfrwt beam="1">  1        2 0.49378229E+00 0.52589848E+03</pdfrwt>
<pdfrwt beam="2">  1       -2 0.28576712E-02 0.52589848E+03</pdfrwt>
<totfact> 0.67960338E+02</totfact>
</mgrwt>
</event>
<event>
 4    1  0.5056513E-005  0.1325527E+04  0.7818608E-02  0.9009563E-01
         -2   -1    0    0    0  501 -0.00000000000E+00  0.00000000000E+00  0.16717972365E+03  0.16717972367E+03  0.25500000000E-02 0. -1.
          2   -1    0    0  501    0  0.00000000000E+00 -0.00000000000E+00 -0.26274450587E+04  0.26274450587E+04  0.25500000000E-02 0.  1.
    5000001    1    1    2    0    0  0.27582466644E+03  0.37379043622E+03 -0.32612150489E+03  0.60146053301E+03  0.19900000000E+03 0.  0.
   -5000001    1    1    2    0    0 -0.27582466644E+03 -0.37379043622E+03 -0.21341438302E+04  0.21931642494E+04  0.19900000000E+03 0.  0.
<mgrwt>
<rscale>  0 0.13255271E+04</rscale>
<asrwt>0</asrwt>
<pdfrwt beam="1">  1        2 0.37534927E+00 0.13255271E+04</pdfrwt>
<pdfrwt beam="2">  1       -2 0.23882819E-01 0.13255271E+04</pdfrwt>
<totfact> 0.57774313E+01</totfact>
</mgrwt>
</event>
<event>
 4    1  0.5056513E-005  0.8182058E+03  0.7818608E-02  0.9534033E-01
          2   -1    0    0  501    0  0.00000000000E+00  0.00000000000E+00  0.15520079074E+04  0.15520079074E+04  0.25500000000E-02 0.  1.
         -2   -1    0    0    0  501 -0.00000000000E+00 -0.00000000000E+00 -0.10783784070E+03  0.10783784073E+03  0.25500000000E-02 0. -1.
    5000001    1    1    2    0    0 -0.14883644182E+03  0.31287985555E+03  0.90030654712E+03  0.98498678631E+03  0.19900000000E+03 0.  0.
   -5000001    1    1    2    0    0  0.14883644182E+03 -0.31287985555E+03  0.54386351960E+03  0.67485896184E+03  0.19900000000E+03 0.  0.
<mgrwt>
<rscale>  0 0.81820580E+03</rscale>
<asrwt>0</asrwt>
<pdfrwt beam="1">  1        2 0.22171538E+00 0.81820580E+03</pdfrwt>
<pdfrwt beam="2">  1       -2 0.15405408E-01 0.81820580E+03</pdfrwt>
<totfact> 0.46262505E+02</totfact>
</mgrwt>
</event>
<event>
 4    1  0.5056513E-005  0.6755998E+03  0.7818608E-02  0.9759894E-01
         -2   -1    0    0    0  501 -0.00000000000E+00  0.00000000000E+00  0.18720993532E+03  0.18720993534E+03  0.25500000000E-02 0. -1.
          2   -1    0    0  501    0  0.00000000000E+00 -0.00000000000E+00 -0.60952311475E+03  0.60952311476E+03  0.25500000000E-02 0.  1.
    5000001    1    1    2    0    0  0.13419125905E+03  0.18092039464E+03 -0.29344667620E+02  0.30199601441E+03  0.19900000000E+03 0.  0.
   -5000001    1    1    2    0    0 -0.13419125905E+03 -0.18092039464E+03 -0.39296851181E+03  0.49473703568E+03  0.19900000000E+03 0.  0.
<mgrwt>
<rscale>  0 0.67559983E+03</rscale>
<asrwt>0</asrwt>
<pdfrwt beam="1">  1        2 0.87074730E-01 0.67559983E+03</pdfrwt>
<pdfrwt beam="2">  1       -2 0.26744277E-01 0.67559983E+03</pdfrwt>
<totfact> 0.67761565E+02</totfact>
</mgrwt>
</event>
<event>
 4    1  0.5056513E-005  0.4770156E+03  0.7818608E-02  0.1019959E+00
         -2   -1    0    0    0  501 -0.00000000000E+00  0.00000000000E+00  0.17385266149E+02  0.17385266336E+02  0.25500000000E-02 0. -1.
          2   -1    0    0  501    0  0.00000000000E+00 -0.00000000000E+00 -0.32720795145E+04  0.32720795145E+04  0.25500000000E-02 0.  1.
    5000001    1    1    2    0    0  0.37618736647E+02  0.49007877598E+02 -0.82706204558E+03  0.85290654157E+03  0.19900000000E+03 0.  0.
   -5000001    1    1    2    0    0 -0.37618736647E+02 -0.49007877598E+02 -0.24276322028E+04  0.24365582393E+04  0.19900000000E+03 0.  0.
<mgrwt>
<rscale>  0 0.47701561E+03</rscale>
<asrwt>0</asrwt>
<pdfrwt beam="1">  1        2 0.46743954E+00 0.47701561E+03</pdfrwt>
<pdfrwt beam="2">  1       -2 0.24836115E-02 0.47701561E+03</pdfrwt>
<totfact> 0.10779458E+03</totfact>
</mgrwt>
</event>
<event>
 4    1  0.5056513E-005  0.8716939E+03  0.7818608E-02  0.9461674E-01
         -2   -1    0    0    0  501 -0.00000000000E+00  0.00000000000E+00  0.84650078746E+02  0.84650078784E+02  0.25500000000E-02 0. -1.
          2   -1    0    0  501    0  0.00000000000E+00 -0.00000000000E+00 -0.22440921592E+04  0.22440921592E+04  0.25500000000E-02 0.  1.
    5000001    1    1    2    0    0  0.11072098658E+03 -0.22127099061E+03 -0.18773438867E+04  0.19040065801E+04  0.19900000000E+03 0.  0.
   -5000001    1    1    2    0    0 -0.11072098658E+03  0.22127099061E+03 -0.28209819375E+03  0.42473565788E+03  0.19900000000E+03 0.  0.
<mgrwt>
<rscale>  0 0.87169393E+03</rscale>
<asrwt>0</asrwt>
<pdfrwt beam="1">  1        2 0.32058456E+00 0.87169393E+03</pdfrwt>
<pdfrwt beam="2">  1       -2 0.12092870E-01 0.87169393E+03</pdfrwt>
<totfact> 0.30640306E+02</totfact>
</mgrwt>
</event>
<event>
 4    1  0.5056513E-005  0.6509066E+03  0.7818608E-02  0.9805079E-01
          2   -1    0    0  501    0  0.00000000000E+00  0.00000000000E+00  0.96571482805E+03  0.96571482806E+03  0.25500000000E-02 0.  1.
         -2   -1    0    0    0  501 -0.00000000000E+00 -0.00000000000E+00 -0.10968026746E+03  0.10968026749E+03  0.25500000000E-02 0. -1.
    5000001    1    1    2    0    0 -0.63436505730E+02  0.21120241646E+03  0.64774826109E+03  0.71260750819E+03  0.19900000000E+03 0.  0.
   -5000001    1    1    2    0    0  0.63436505730E+02 -0.21120241646E+03  0.20828629951E+03  0.36278758736E+03  0.19900000000E+03 0.  0.
<mgrwt>
<rscale>  0 0.65090663E+03</rscale>
<asrwt>0</asrwt>
<pdfrwt beam="1">  1        2 0.13795927E+00 0.65090663E+03</pdfrwt>
<pdfrwt beam="2">  1       -2 0.15668608E-01 0.65090663E+03</pdfrwt>
<totfact> 0.96407287E+02</totfact>
</mgrwt>
</event>
<event>
 4    1  0.5056513E-005  0.7030037E+03  0.7818608E-02  0.9712109E-01
         -2   -1    0    0    0  501 -0.00000000000E+00  0.00000000000E+00  0.19507830121E+03  0.19507830123E+03  0.25500000000E-02 0. -1.
          2   -1    0    0  501    0  0.00000000000E+00 -0.00000000000E+00 -0.63335366951E+03  0.63335366951E+03  0.25500000000E-02 0.  1.
    5000001    1    1    2    0    0  0.18286411628E+03 -0.71433075680E+02  0.31980286247E+02  0.28136401339E+03  0.19900000000E+03 0.  0.
   -5000001    1    1    2    0    0 -0.18286411628E+03  0.71433075680E+02 -0.47025565454E+03  0.54706795734E+03  0.19900000000E+03 0.  0.
<mgrwt>
<rscale>  0 0.70300372E+03</rscale>
<asrwt>0</asrwt>
<pdfrwt beam="1">  1        2 0.90479095E-01 0.70300372E+03</pdfrwt>
<pdfrwt beam="2">  1       -2 0.27868329E-01 0.70300372E+03</pdfrwt>
<totfact> 0.60011112E+02</totfact>
</mgrwt>
</event>
<event>
 4    1  0.5056513E-005  0.7505741E+03  0.7818608E-02  0.9634450E-01
          2   -1    0    0  501    0  0.00000000000E+00  0.00000000000E+00  0.26248511290E+04  0.26248511290E+04  0.25500000000E-02 0. -1.
         -2   -1    0    0    0  501 -0.00000000000E+00 -0.00000000000E+00 -0.53656524314E+02  0.53656524375E+02  0.25500000000E-02 0.  1.
    5000001    1    1    2    0    0  0.38171659023E+02  0.29247703843E+03  0.17114374283E+04  0.17480328843E+04  0.19900000000E+03 0.  0.
   -5000001    1    1    2    0    0 -0.38171659023E+02 -0.29247703843E+03  0.85975717634E+03  0.93047476905E+03  0.19900000000E+03 0.  0.
<mgrwt>
<rscale>  0 0.75057415E+03</rscale>
<asrwt>0</asrwt>
<pdfrwt beam="1">  1        2 0.37497876E+00 0.75057415E+03</pdfrwt>
<pdfrwt beam="2">  1       -2 0.76652172E-02 0.75057415E+03</pdfrwt>
<totfact> 0.41298949E+02</totfact>
</mgrwt>
</event>
<event>
 4    1  0.5056513E-005  0.9604584E+03  0.7818608E-02  0.9353009E-01
         -2   -1    0    0    0  501 -0.00000000000E+00  0.00000000000E+00  0.12223592758E+04  0.12223592758E+04  0.25500000000E-02 0. -1.
          2   -1    0    0  501    0  0.00000000000E+00 -0.00000000000E+00 -0.18866799438E+03  0.18866799439E+03  0.25500000000E-02 0.  1.
    5000001    1    1    2    0    0 -0.89418907823E+02  0.41893017420E+03  0.38943958699E+03  0.61217842485E+03  0.19900000000E+03 0.  0.
   -5000001    1    1    2    0    0  0.89418907823E+02 -0.41893017420E+03  0.64425169441E+03  0.79884884533E+03  0.19900000000E+03 0.  0.
<mgrwt>
<rscale>  0 0.96045838E+03</rscale>
<asrwt>0</asrwt>
<pdfrwt beam="1">  1        2 0.26952572E-01 0.96045838E+03</pdfrwt>
<pdfrwt beam="2">  1       -2 0.17462275E+00 0.96045838E+03</pdfrwt>
<totfact> 0.39804185E+01</totfact>
</mgrwt>
</event>
<event>
 4    1  0.5056513E-005  0.6195023E+03  0.7818608E-02  0.9865751E-01
          2   -1    0    0  501    0  0.00000000000E+00  0.00000000000E+00  0.62650531788E+03  0.62650531789E+03  0.25500000000E-02 0.  1.
         -2   -1    0    0    0  501 -0.00000000000E+00 -0.00000000000E+00 -0.15314440908E+03  0.15314440910E+03  0.25500000000E-02 0. -1.
    5000001    1    1    2    0    0 -0.12752071973E+03 -0.17368294578E+03  0.36201113650E+03  0.46591883689E+03  0.19900000000E+03 0.  0.
   -5000001    1    1    2    0    0  0.12752071973E+03  0.17368294578E+03  0.11134977230E+03  0.31373089010E+03  0.19900000000E+03 0.  0.
<mgrwt>
<rscale>  0 0.61950234E+03</rscale>
<asrwt>0</asrwt>
<pdfrwt beam="1">  1        2 0.89500760E-01 0.61950234E+03</pdfrwt>
<pdfrwt beam="2">  1       -2 0.21877773E-01 0.61950234E+03</pdfrwt>
<totfact> 0.94064353E+02</totfact>
</mgrwt>
</event>
<event>
 4    1  0.5056513E-005  0.6121722E+03  0.7818608E-02  0.9880470E-01
         -2   -1    0    0    0  501 -0.00000000000E+00  0.00000000000E+00  0.30870837282E+03  0.30870837283E+03  0.25500000000E-02 0. -1.
          2   -1    0    0  501    0  0.00000000000E+00 -0.00000000000E+00 -0.30348609482E+03  0.30348609483E+03  0.25500000000E-02 0.  1.
    5000001    1    1    2    0    0 -0.60218403873E+02  0.22321615692E+03 -0.22608613589E+02  0.30588209866E+03  0.19900000000E+03 0.  0.
   -5000001    1    1    2    0    0  0.60218403873E+02 -0.22321615692E+03  0.27830891592E+02  0.30631236900E+03  0.19900000000E+03 0.  0.
<mgrwt>
<rscale>  0 0.61217219E+03</rscale>
<asrwt>0</asrwt>
<pdfrwt beam="1">  1        2 0.43355156E-01 0.61217219E+03</pdfrwt>
<pdfrwt beam="2">  1       -2 0.44101196E-01 0.61217219E+03</pdfrwt>
<totfact> 0.57803772E+02</totfact>
</mgrwt>
</event>
<event>
 4    1  0.5056513E-005  0.5504602E+03  0.7818608E-02  0.1001387E+00
          2   -1    0    0  501    0  0.00000000000E+00  0.00000000000E+00  0.83281634085E+03  0.83281634086E+03  0.25500000000E-02 0.  1.
         -2   -1    0    0    0  501 -0.00000000000E+00 -0.00000000000E+00 -0.90958351810E+02  0.90958351846E+02  0.25500000000E-02 0. -1.
    5000001    1    1    2    0    0 -0.13801992323E+03 -0.24307229716E+02  0.58656293811E+03  0.63505702184E+03  0.19900000000E+03 0.  0.
   -5000001    1    1    2    0    0  0.13801992323E+03  0.24307229716E+02  0.15529505093E+03  0.28871767086E+03  0.19900000000E+03 0.  0.
<mgrwt>
<rscale>  0 0.55046018E+03</rscale>
<asrwt>0</asrwt>
<pdfrwt beam="1">  1        2 0.11897376E+00 0.55046018E+03</pdfrwt>
<pdfrwt beam="2">  1       -2 0.12994050E-01 0.55046018E+03</pdfrwt>
<totfact> 0.16105632E+03</totfact>
</mgrwt>
</event>
<event>
 4    1  0.5056513E-005  0.6044963E+03  0.7818608E-02  0.9896121E-01
         -2   -1    0    0    0  501 -0.00000000000E+00  0.00000000000E+00  0.43770315362E+02  0.43770315436E+02  0.25500000000E-02 0. -1.
          2   -1    0    0  501    0  0.00000000000E+00 -0.00000000000E+00 -0.20871209922E+04  0.20871209922E+04  0.25500000000E-02 0.  1.
    5000001    1    1    2    0    0  0.44392610188E+02 -0.15221164743E+03 -0.44660424033E+03  0.51399945227E+03  0.19900000000E+03 0.  0.
   -5000001    1    1    2    0    0 -0.44392610188E+02  0.15221164743E+03 -0.15967464365E+04  0.16168918554E+04  0.19900000000E+03 0.  0.
<mgrwt>
<rscale>  0 0.60449630E+03</rscale>
<asrwt>0</asrwt>
<pdfrwt beam="1">  1        2 0.29816008E+00 0.60449630E+03</pdfrwt>
<pdfrwt beam="2">  1       -2 0.62529035E-02 0.60449630E+03</pdfrwt>
<totfact> 0.10841713E+03</totfact>
</mgrwt>
</event>
<event>
 4    1  0.5056513E-005  0.7179976E+03  0.7818608E-02  0.9686939E-01
         -2   -1    0    0    0  501 -0.00000000000E+00  0.00000000000E+00  0.57335700369E+02  0.57335700425E+02  0.25500000000E-02 0. -1.
          2   -1    0    0  501    0  0.00000000000E+00 -0.00000000000E+00 -0.22478164832E+04  0.22478164832E+04  0.25500000000E-02 0.  1.
    5000001    1    1    2    0    0  0.17993348677E+03  0.20010708685E+03 -0.67836301886E+03  0.75643657449E+03  0.19900000000E+03 0.  0.
   -5000001    1    1    2    0    0 -0.17993348677E+03 -0.20010708685E+03 -0.15121177640E+04  0.15487156092E+04  0.19900000000E+03 0.  0.
<mgrwt>
<rscale>  0 0.71799758E+03</rscale>
<asrwt>0</asrwt>
<pdfrwt beam="1">  1        2 0.32111659E+00 0.71799758E+03</pdfrwt>
<pdfrwt beam="2">  1       -2 0.81908157E-02 0.71799758E+03</pdfrwt>
<totfact> 0.58190732E+02</totfact>
</mgrwt>
</event>
<event>
 4    1  0.5056513E-005  0.9071442E+03  0.7818608E-02  0.9416695E-01
          2   -1    0    0  501    0  0.00000000000E+00  0.00000000000E+00  0.86109745577E+03  0.86109745577E+03  0.25500000000E-02 0.  1.
         -2   -1    0    0    0  501 -0.00000000000E+00 -0.00000000000E+00 -0.23891332272E+03  0.23891332273E+03  0.25500000000E-02 0. -1.
    5000001    1    1    2    0    0  0.20843327553E+03  0.26340679238E+03  0.59104207660E+03  0.70834970525E+03  0.19900000000E+03 0.  0.
   -5000001    1    1    2    0    0 -0.20843327553E+03 -0.26340679238E+03  0.31142056449E+02  0.39166107325E+03  0.19900000000E+03 0.  0.
<mgrwt>
<rscale>  0 0.90714421E+03</rscale>
<asrwt>0</asrwt>
<pdfrwt beam="1">  1        2 0.12301393E+00 0.90714421E+03</pdfrwt>
<pdfrwt beam="2">  1       -2 0.34130474E-01 0.90714421E+03</pdfrwt>
<totfact> 0.27738811E+02</totfact>
</mgrwt>
</event>
<event>
 4    1  0.5056513E-005  0.6909063E+03  0.7818608E-02  0.9732911E-01
          2   -1    0    0  501    0  0.00000000000E+00  0.00000000000E+00  0.79593033520E+03  0.79593033520E+03  0.25500000000E-02 0.  1.
         -2   -1    0    0    0  501 -0.00000000000E+00 -0.00000000000E+00 -0.14993507749E+03  0.14993507751E+03  0.25500000000E-02 0. -1.
    5000001    1    1    2    0    0  0.19392824298E+02  0.27624788696E+03  0.24741699320E+03  0.42131359485E+03  0.19900000000E+03 0.  0.
   -5000001    1    1    2    0    0 -0.19392824298E+02 -0.27624788696E+03  0.39857826451E+03  0.52455181786E+03  0.19900000000E+03 0.  0.
<mgrwt>
<rscale>  0 0.69090629E+03</rscale>
<asrwt>0</asrwt>
<pdfrwt beam="1">  1        2 0.11370434E+00 0.69090629E+03</pdfrwt>
<pdfrwt beam="2">  1       -2 0.21419296E-01 0.69090629E+03</pdfrwt>
<totfact> 0.72590124E+02</totfact>
</mgrwt>
</event>
<event>
 4    1  0.5056513E-005  0.7713426E+03  0.7818608E-02  0.9602450E-01
         -2   -1    0    0    0  501 -0.00000000000E+00  0.00000000000E+00  0.56713435570E+03  0.56713435571E+03  0.25500000000E-02 0. -1.
          2   -1    0    0  501    0  0.00000000000E+00 -0.00000000000E+00 -0.26227005657E+03  0.26227005658E+03  0.25500000000E-02 0.  1.
    5000001    1    1    2    0    0  0.30872693064E+02 -0.22676288620E+03 -0.10376030413E+03  0.32053350909E+03  0.19900000000E+03 0.  0.
   -5000001    1    1    2    0    0 -0.30872693064E+02  0.22676288620E+03  0.40862460327E+03  0.50887090320E+03  0.19900000000E+03 0.  0.
<mgrwt>
<rscale>  0 0.77134262E+03</rscale>
<asrwt>0</asrwt>
<pdfrwt beam="1">  1        2 0.37467151E-01 0.77134262E+03</pdfrwt>
<pdfrwt beam="2">  1       -2 0.81019194E-01 0.77134262E+03</pdfrwt>
<totfact> 0.18766288E+02</totfact>
</mgrwt>
</event>
<event>
 4    1  0.5056513E-005  0.8573662E+03  0.7818608E-02  0.9480503E-01
         -2   -1    0    0    0  501 -0.00000000000E+00  0.00000000000E+00  0.49982395601E+02  0.49982395666E+02  0.25500000000E-02 0. -1.
          2   -1    0    0  501    0  0.00000000000E+00 -0.00000000000E+00 -0.36766786429E+04  0.36766786429E+04  0.25500000000E-02 0.  1.
    5000001    1    1    2    0    0 -0.22264373249E+03  0.30167174255E+03 -0.20738613834E+04  0.21168557129E+04  0.19900000000E+03 0.  0.
   -5000001    1    1    2    0    0  0.22264373249E+03 -0.30167174255E+03 -0.15528348640E+04  0.16098053257E+04  0.19900000000E+03 0.  0.
<mgrwt>
<rscale>  0 0.85736621E+03</rscale>
<asrwt>0</asrwt>
<pdfrwt beam="1">  1        2 0.52523963E+00 0.85736621E+03</pdfrwt>
<pdfrwt beam="2">  1       -2 0.71403446E-02 0.85736621E+03</pdfrwt>
<totfact> 0.11637163E+02</totfact>
</mgrwt>
</event>
<event>
 4    1  0.5056513E-005  0.4602921E+03  0.7818608E-02  0.1024697E+00
         -2   -1    0    0    0  501 -0.00000000000E+00  0.00000000000E+00  0.36393796582E+03  0.36393796583E+03  0.25500000000E-02 0. -1.
          2   -1    0    0  501    0  0.00000000000E+00 -0.00000000000E+00 -0.14553908113E+03  0.14553908115E+03  0.25500000000E-02 0.  1.
    5000001    1    1    2    0    0  0.10455855834E+03  0.49210701178E+02  0.10536327840E+03  0.25309406486E+03  0.19900000000E+03 0.  0.
   -5000001    1    1    2    0    0 -0.10455855834E+03 -0.49210701178E+02  0.11303560629E+03  0.25638298212E+03  0.19900000000E+03 0.  0.
<mgrwt>
<rscale>  0 0.46029207E+03</rscale>
<asrwt>0</asrwt>
<pdfrwt beam="1">  1        2 0.20791297E-01 0.46029207E+03</pdfrwt>
<pdfrwt beam="2">  1       -2 0.51991138E-01 0.46029207E+03</pdfrwt>
<totfact> 0.95023498E+02</totfact>
</mgrwt>
</event>
<event>
 4    1  0.5056513E-005  0.6178263E+03  0.7818608E-02  0.9869097E-01
         -2   -1    0    0    0  501 -0.00000000000E+00  0.00000000000E+00  0.10340034926E+03  0.10340034929E+03  0.25500000000E-02 0. -1.
          2   -1    0    0  501    0  0.00000000000E+00 -0.00000000000E+00 -0.92289191461E+03  0.92289191461E+03  0.25500000000E-02 0.  1.
    5000001    1    1    2    0    0  0.11605565800E+03  0.23305168135E+02 -0.70068071888E+02  0.24191440906E+03  0.19900000000E+03 0.  0.
   -5000001    1    1    2    0    0 -0.11605565800E+03 -0.23305168135E+02 -0.74942349346E+03  0.78437785484E+03  0.19900000000E+03 0.  0.
<mgrwt>
<rscale>  0 0.61782634E+03</rscale>
<asrwt>0</asrwt>
<pdfrwt beam="1">  1        2 0.13184170E+00 0.61782634E+03</pdfrwt>
<pdfrwt beam="2">  1       -2 0.14771479E-01 0.61782634E+03</pdfrwt>
<totfact> 0.11340684E+03</totfact>
</mgrwt>
</event>
<event>
 4    1  0.5056513E-005  0.6522725E+03  0.7818608E-02  0.9802524E-01
         -2   -1    0    0    0  501 -0.00000000000E+00  0.00000000000E+00  0.73859583866E+02  0.73859583910E+02  0.25500000000E-02 0. -1.
          2   -1    0    0  501    0  0.00000000000E+00 -0.00000000000E+00 -0.14400955874E+04  0.14400955874E+04  0.25500000000E-02 0.  1.
    5000001    1    1    2    0    0 -0.25492708915E+03 -0.67907256483E+01 -0.58658013265E+03  0.66985907978E+03  0.19900000000E+03 0.  0.
   -5000001    1    1    2    0    0  0.25492708915E+03  0.67907256483E+01 -0.77965587084E+03  0.84409609149E+03  0.19900000000E+03 0.  0.
<mgrwt>
<rscale>  0 0.65227252E+03</rscale>
<asrwt>0</asrwt>
<pdfrwt beam="1">  1        2 0.20572792E+00 0.65227252E+03</pdfrwt>
<pdfrwt beam="2">  1       -2 0.10551370E-01 0.65227252E+03</pdfrwt>
<totfact> 0.10017056E+03</totfact>
</mgrwt>
</event>
<event>
 4    1  0.5056513E-005  0.9818446E+03  0.7818608E-02  0.9328685E-01
         -2   -1    0    0    0  501 -0.00000000000E+00  0.00000000000E+00  0.26851557473E+03  0.26851557474E+03  0.25500000000E-02 0. -1.
          2   -1    0    0  501    0  0.00000000000E+00 -0.00000000000E+00 -0.89754458895E+03  0.89754458896E+03  0.25500000000E-02 0.  1.
    5000001    1    1    2    0    0  0.41430125686E+03  0.12913868791E+03 -0.45034735439E+03  0.65630486190E+03  0.19900000000E+03 0.  0.
   -5000001    1    1    2    0    0 -0.41430125686E+03 -0.12913868791E+03 -0.17868165984E+03  0.50975530180E+03  0.19900000000E+03 0.  0.
<mgrwt>
<rscale>  0 0.98184459E+03</rscale>
<asrwt>0</asrwt>
<pdfrwt beam="1">  1        2 0.12822065E+00 0.98184459E+03</pdfrwt>
<pdfrwt beam="2">  1       -2 0.38359368E-01 0.98184459E+03</pdfrwt>
<totfact> 0.20895709E+02</totfact>
</mgrwt>
</event>
<event>
 4    1  0.5056513E-005  0.7792375E+03  0.7818608E-02  0.9590566E-01
          2   -1    0    0  501    0  0.00000000000E+00  0.00000000000E+00  0.15541134879E+04  0.15541134879E+04  0.25500000000E-02 0.  1.
         -2   -1    0    0    0  501 -0.00000000000E+00 -0.00000000000E+00 -0.97678044430E+02  0.97678044463E+02  0.25500000000E-02 0. -1.
    5000001    1    1    2    0    0  0.26428419750E+03  0.19622840883E+03  0.59668976711E+03  0.70992351958E+03  0.19900000000E+03 0.  0.
   -5000001    1    1    2    0    0 -0.26428419750E+03 -0.19622840883E+03  0.85974567633E+03  0.94186801275E+03  0.19900000000E+03 0.  0.
<mgrwt>
<rscale>  0 0.77923749E+03</rscale>
<asrwt>0</asrwt>
<pdfrwt beam="1">  1        2 0.22201622E+00 0.77923749E+03</pdfrwt>
<pdfrwt beam="2">  1       -2 0.13954006E-01 0.77923749E+03</pdfrwt>
<totfact> 0.54648160E+02</totfact>
</mgrwt>
</event>
<event>
 4    1  0.5056513E-005  0.9064461E+03  0.7818608E-02  0.9417559E-01
         -2   -1    0    0    0  501 -0.00000000000E+00  0.00000000000E+00  0.17856859066E+03  0.17856859067E+03  0.25500000000E-02 0. -1.
          2   -1    0    0  501    0  0.00000000000E+00 -0.00000000000E+00 -0.11503205595E+04  0.11503205595E+04  0.25500000000E-02 0.  1.
    5000001    1    1    2    0    0  0.27201579685E+03 -0.29147901354E+03 -0.36447280146E+03  0.57566833514E+03  0.19900000000E+03 0.  0.
   -5000001    1    1    2    0    0 -0.27201579685E+03  0.29147901354E+03 -0.60727916737E+03  0.75322081503E+03  0.19900000000E+03 0.  0.
<mgrwt>
<rscale>  0 0.90644607E+03</rscale>
<asrwt>0</asrwt>
<pdfrwt beam="1">  1        2 0.16433150E+00 0.90644607E+03</pdfrwt>
<pdfrwt beam="2">  1       -2 0.25509799E-01 0.90644607E+03</pdfrwt>
<totfact> 0.31530465E+02</totfact>
</mgrwt>
</event>
<event>
 4    1  0.5056513E-005  0.8751208E+03  0.7818608E-02  0.9457227E-01
          2   -1    0    0  501    0  0.00000000000E+00  0.00000000000E+00  0.14288445971E+04  0.14288445971E+04  0.25500000000E-02 0.  1.
         -2   -1    0    0    0  501 -0.00000000000E+00 -0.00000000000E+00 -0.13399573814E+03  0.13399573816E+03  0.25500000000E-02 0. -1.
    5000001    1    1    2    0    0 -0.37959770645E+03 -0.84912251106E+02  0.68944246903E+03  0.81623307164E+03  0.19900000000E+03 0.  0.
   -5000001    1    1    2    0    0  0.37959770645E+03  0.84912251106E+02  0.60540638996E+03  0.74660726365E+03  0.19900000000E+03 0.  0.
<mgrwt>
<rscale>  0 0.87512076E+03</rscale>
<asrwt>0</asrwt>
<pdfrwt beam="1">  1        2 0.20412065E+00 0.87512076E+03</pdfrwt>
<pdfrwt beam="2">  1       -2 0.19142249E-01 0.87512076E+03</pdfrwt>
<totfact> 0.36879947E+02</totfact>
</mgrwt>
</event>
<event>
 4    1  0.5056513E-005  0.6375531E+03  0.7818608E-02  0.9830419E-01
          2   -1    0    0  501    0  0.00000000000E+00  0.00000000000E+00  0.69544980415E+03  0.69544980415E+03  0.25500000000E-02 0.  1.
         -2   -1    0    0    0  501 -0.00000000000E+00 -0.00000000000E+00 -0.14611910744E+03  0.14611910747E+03  0.25500000000E-02 0. -1.
    5000001    1    1    2    0    0 -0.21161976604E+03  0.88889305795E+02  0.40218884635E+03  0.50402490235E+03  0.19900000000E+03 0.  0.
   -5000001    1    1    2    0    0  0.21161976604E+03 -0.88889305795E+02  0.14714185035E+03  0.33754400926E+03  0.19900000000E+03 0.  0.
<mgrwt>
<rscale>  0 0.63755315E+03</rscale>
<asrwt>0</asrwt>
<pdfrwt beam="1">  1        2 0.99349974E-01 0.63755315E+03</pdfrwt>
<pdfrwt beam="2">  1       -2 0.20874158E-01 0.63755315E+03</pdfrwt>
<totfact> 0.90043473E+02</totfact>
</mgrwt>
</event>
<event>
 4    1  0.5056513E-005  0.5673586E+03  0.7818608E-02  0.9975541E-01
          2   -1    0    0  501    0  0.00000000000E+00  0.00000000000E+00  0.32604361125E+03  0.32604361126E+03  0.25500000000E-02 0.  1.
         -2   -1    0    0    0  501 -0.00000000000E+00 -0.00000000000E+00 -0.24681956958E+03  0.24681956959E+03  0.25500000000E-02 0. -1.
    5000001    1    1    2    0    0 -0.23567506167E+02 -0.15029875368E+03  0.17404960726E+03  0.30502361957E+03  0.19900000000E+03 0.  0.
   -5000001    1    1    2    0    0  0.23567506167E+02  0.15029875368E+03 -0.94825565589E+02  0.26783956129E+03  0.19900000000E+03 0.  0.
<mgrwt>
<rscale>  0 0.56735859E+03</rscale>
<asrwt>0</asrwt>
<pdfrwt beam="1">  1        2 0.46577659E-01 0.56735859E+03</pdfrwt>
<pdfrwt beam="2">  1       -2 0.35259939E-01 0.56735859E+03</pdfrwt>
<totfact> 0.82405072E+02</totfact>
</mgrwt>
</event>
<event>
 4    1  0.5056513E-005  0.4199718E+03  0.7818608E-02  0.1037075E+00
         -2   -1    0    0    0  501 -0.00000000000E+00  0.00000000000E+00  0.20192704983E+02  0.20192705144E+02  0.25500000000E-02 0. -1.
          2   -1    0    0  501    0  0.00000000000E+00 -0.00000000000E+00 -0.21836634147E+04  0.21836634147E+04  0.25500000000E-02 0.  1.
    5000001    1    1    2    0    0  0.61964358175E+02 -0.16607341451E+02 -0.11837185191E+04  0.12020423944E+04  0.19900000000E+03 0.  0.
   -5000001    1    1    2    0    0 -0.61964358175E+02  0.16607341451E+02 -0.97975219064E+03  0.10018137255E+04  0.19900000000E+03 0.  0.
<mgrwt>
<rscale>  0 0.41997177E+03</rscale>
<asrwt>0</asrwt>
<pdfrwt beam="1">  1        2 0.31195177E+00 0.41997177E+03</pdfrwt>
<pdfrwt beam="2">  1       -2 0.28846735E-02 0.41997177E+03</pdfrwt>
<totfact> 0.32097471E+03</totfact>
</mgrwt>
</event>
<event>
 4    1  0.5056513E-005  0.5644849E+03  0.7818608E-02  0.9981957E-01
         -2   -1    0    0    0  501 -0.00000000000E+00  0.00000000000E+00  0.26298847387E+03  0.26298847389E+03  0.25500000000E-02 0. -1.
          2   -1    0    0  501    0  0.00000000000E+00 -0.00000000000E+00 -0.30290609728E+03  0.30290609729E+03  0.25500000000E-02 0.  1.
    5000001    1    1    2    0    0  0.28487518628E+02 -0.16761459711E+03  0.85915620958E+02  0.27547901156E+03  0.19900000000E+03 0.  0.
   -5000001    1    1    2    0    0 -0.28487518628E+02  0.16761459711E+03 -0.12583324437E+03  0.29041555962E+03  0.19900000000E+03 0.  0.
<mgrwt>
<rscale>  0 0.56448494E+03</rscale>
<asrwt>0</asrwt>
<pdfrwt beam="1">  1        2 0.43272300E-01 0.56448494E+03</pdfrwt>
<pdfrwt beam="2">  1       -2 0.37569782E-01 0.56448494E+03</pdfrwt>
<totfact> 0.79186885E+02</totfact>
</mgrwt>
</event>
<event>
 4    1  0.5056513E-005  0.1005343E+04  0.7818608E-02  0.9302704E-01
          2   -1    0    0  501    0  0.00000000000E+00  0.00000000000E+00  0.11844521160E+04  0.11844521160E+04  0.25500000000E-02 0.  1.
         -2   -1    0    0    0  501 -0.00000000000E+00 -0.00000000000E+00 -0.21332943676E+03  0.21332943677E+03  0.25500000000E-02 0. -1.
    5000001    1    1    2    0    0  0.45373647888E+03 -0.84798005766E+02  0.48995994449E+03  0.70194675101E+03  0.19900000000E+03 0.  0.
   -5000001    1    1    2    0    0 -0.45373647888E+03  0.84798005766E+02  0.48116273480E+03  0.69583480181E+03  0.19900000000E+03 0.  0.
<mgrwt>
<rscale>  0 0.10053427E+04</rscale>
<asrwt>0</asrwt>
<pdfrwt beam="1">  1        2 0.16920745E+00 0.10053427E+04</pdfrwt>
<pdfrwt beam="2">  1       -2 0.30475632E-01 0.10053427E+04</pdfrwt>
<totfact> 0.21619980E+02</totfact>
</mgrwt>
</event>
<event>
 4    1  0.5056513E-005  0.5606365E+03  0.7818608E-02  0.9990615E-01
         -2   -1    0    0    0  501 -0.00000000000E+00  0.00000000000E+00  0.80564876870E+02  0.80564876910E+02  0.25500000000E-02 0. -1.
          2   -1    0    0  501    0  0.00000000000E+00 -0.00000000000E+00 -0.97534224441E+03  0.97534224441E+03  0.25500000000E-02 0.  1.
    5000001    1    1    2    0    0  0.37157840873E+02 -0.17959321905E+03 -0.58505661589E+03  0.64461358445E+03  0.19900000000E+03 0.  0.
   -5000001    1    1    2    0    0 -0.37157840873E+02  0.17959321905E+03 -0.30972075165E+03  0.41129353687E+03  0.19900000000E+03 0.  0.
<mgrwt>
<rscale>  0 0.56063652E+03</rscale>
<asrwt>0</asrwt>
<pdfrwt beam="1">  1        2 0.13933460E+00 0.56063652E+03</pdfrwt>
<pdfrwt beam="2">  1       -2 0.11509269E-01 0.56063652E+03</pdfrwt>
<totfact> 0.15923300E+03</totfact>
</mgrwt>
</event>
<event>
 4    1  0.5056513E-005  0.7687865E+03  0.7818608E-02  0.9606330E-01
         -2   -1    0    0    0  501 -0.00000000000E+00  0.00000000000E+00  0.42187794048E+02  0.42187794126E+02  0.25500000000E-02 0. -1.
          2   -1    0    0  501    0  0.00000000000E+00 -0.00000000000E+00 -0.35023915680E+04  0.35023915680E+04  0.25500000000E-02 0.  1.
    5000001    1    1    2    0    0  0.21617871072E+03 -0.24754030703E+03 -0.17861423478E+04  0.18269961481E+04  0.19900000000E+03 0.  0.
   -5000001    1    1    2    0    0 -0.21617871072E+03  0.24754030703E+03 -0.16740614261E+04  0.17175832140E+04  0.19900000000E+03 0.  0.
<mgrwt>
<rscale>  0 0.76878651E+03</rscale>
<asrwt>0</asrwt>
<pdfrwt beam="1">  1        2 0.50034147E+00 0.76878651E+03</pdfrwt>
<pdfrwt beam="2">  1       -2 0.60268299E-02 0.76878651E+03</pdfrwt>
<totfact> 0.19643667E+02</totfact>
</mgrwt>
</event>
<event>
 4    1  0.5056513E-005  0.4982240E+03  0.7818608E-02  0.1014244E+00
          2   -1    0    0  501    0  0.00000000000E+00  0.00000000000E+00  0.30876179707E+03  0.30876179708E+03  0.25500000000E-02 0.  1.
         -2   -1    0    0    0  501 -0.00000000000E+00 -0.00000000000E+00 -0.20098593250E+03  0.20098593251E+03  0.25500000000E-02 0. -1.
    5000001    1    1    2    0    0  0.86514755415E+02 -0.11817563524E+03  0.21444974237E+02  0.24801445641E+03  0.19900000000E+03 0.  0.
   -5000001    1    1    2    0    0 -0.86514755415E+02  0.11817563524E+03  0.86330890339E+02  0.26173327319E+03  0.19900000000E+03 0.  0.
<mgrwt>
<rscale>  0 0.49822396E+03</rscale>
<asrwt>0</asrwt>
<pdfrwt beam="1">  1        2 0.44108828E-01 0.49822396E+03</pdfrwt>
<pdfrwt beam="2">  1       -2 0.28712276E-01 0.49822396E+03</pdfrwt>
<totfact> 0.12824769E+03</totfact>
</mgrwt>
</event>
<event>
 4    1  0.5056513E-005  0.5881155E+03  0.7818608E-02  0.9930374E-01
          2   -1    0    0  501    0  0.00000000000E+00  0.00000000000E+00  0.11448291201E+04  0.11448291201E+04  0.25500000000E-02 0.  1.
         -2   -1    0    0    0  501 -0.00000000000E+00 -0.00000000000E+00 -0.75530879180E+02  0.75530879223E+02  0.25500000000E-02 0. -1.
    5000001    1    1    2    0    0  0.19451289078E+03  0.92722820314E+02  0.57798525973E+03  0.64815179283E+03  0.19900000000E+03 0.  0.
   -5000001    1    1    2    0    0 -0.19451289078E+03 -0.92722820314E+02  0.49131298115E+03  0.57220820646E+03  0.19900000000E+03 0.  0.
<mgrwt>
<rscale>  0 0.58811546E+03</rscale>
<asrwt>0</asrwt>
<pdfrwt beam="1">  1        2 0.16354700E+00 0.58811546E+03</pdfrwt>
<pdfrwt beam="2">  1       -2 0.10790126E-01 0.58811546E+03</pdfrwt>
<totfact> 0.14037588E+03</totfact>
</mgrwt>
</event>
<event>
 4    1  0.5056513E-005  0.1418875E+04  0.7818608E-02  0.8940268E-01
          2   -1    0    0  501    0  0.00000000000E+00  0.00000000000E+00  0.12656620054E+04  0.12656620054E+04  0.25500000000E-02 0.  1.
         -2   -1    0    0    0  501 -0.00000000000E+00 -0.00000000000E+00 -0.39765887193E+03  0.39765887194E+03  0.25500000000E-02 0. -1.
    5000001    1    1    2    0    0  0.61317547889E+03  0.21388502273E+03  0.19384191360E+03  0.70633324878E+03  0.19900000000E+03 0.  0.
   -5000001    1    1    2    0    0 -0.61317547889E+03 -0.21388502273E+03  0.67416121987E+03  0.95698762857E+03  0.19900000000E+03 0.  0.
<mgrwt>
<rscale>  0 0.14188752E+04</rscale>
<asrwt>0</asrwt>
<pdfrwt beam="1">  1        2 0.18080886E+00 0.14188752E+04</pdfrwt>
<pdfrwt beam="2">  1       -2 0.56808411E-01 0.14188752E+04</pdfrwt>
<totfact> 0.55477799E+01</totfact>
</mgrwt>
</event>
<event>
 4    1  0.5056513E-005  0.4705423E+03  0.7818608E-02  0.1021767E+00
          2   -1    0    0  501    0  0.00000000000E+00  0.00000000000E+00  0.51905114199E+03  0.51905114200E+03  0.25500000000E-02 0.  1.
         -2   -1    0    0    0  501 -0.00000000000E+00 -0.00000000000E+00 -0.10664172871E+03  0.10664172874E+03  0.25500000000E-02 0. -1.
    5000001    1    1    2    0    0  0.12060520106E+03  0.26909731329E+02  0.23539101937E+03  0.33208384508E+03  0.19900000000E+03 0.  0.
   -5000001    1    1    2    0    0 -0.12060520106E+03 -0.26909731329E+02  0.17701839392E+03  0.29360902566E+03  0.19900000000E+03 0.  0.
<mgrwt>
<rscale>  0 0.47054229E+03</rscale>
<asrwt>0</asrwt>
<pdfrwt beam="1">  1        2 0.74150163E-01 0.47054229E+03</pdfrwt>
<pdfrwt beam="2">  1       -2 0.15234533E-01 0.47054229E+03</pdfrwt>
<totfact> 0.21803443E+03</totfact>
</mgrwt>
</event>
<event>
 4    1  0.5056513E-005  0.5911740E+03  0.7818608E-02  0.9923888E-01
         -2   -1    0    0    0  501 -0.00000000000E+00  0.00000000000E+00  0.48156558532E+02  0.48156558600E+02  0.25500000000E-02 0. -1.
          2   -1    0    0  501    0  0.00000000000E+00 -0.00000000000E+00 -0.18143252882E+04  0.18143252882E+04  0.25500000000E-02 0.  1.
    5000001    1    1    2    0    0 -0.14780907609E+02  0.21797229423E+03 -0.90307582438E+03  0.95019857970E+03  0.19900000000E+03 0.  0.
   -5000001    1    1    2    0    0  0.14780907609E+02 -0.21797229423E+03 -0.86309290533E+03  0.91228326714E+03  0.19900000000E+03 0.  0.
<mgrwt>
<rscale>  0 0.59117396E+03</rscale>
<asrwt>0</asrwt>
<pdfrwt beam="1">  1        2 0.25918928E+00 0.59117396E+03</pdfrwt>
<pdfrwt beam="2">  1       -2 0.68795095E-02 0.59117396E+03</pdfrwt>
<totfact> 0.12801182E+03</totfact>
</mgrwt>
</event>
<event>
 4    1  0.5056513E-005  0.8454424E+03  0.7818608E-02  0.9496475E-01
         -2   -1    0    0    0  501 -0.00000000000E+00  0.00000000000E+00  0.13251159965E+03  0.13251159967E+03  0.25500000000E-02 0. -1.
          2   -1    0    0  501    0  0.00000000000E+00 -0.00000000000E+00 -0.13485099207E+04  0.13485099207E+04  0.25500000000E-02 0.  1.
    5000001    1    1    2    0    0 -0.16697456100E+03  0.25561981209E+03 -0.98318180246E+03  0.10485558874E+04  0.19900000000E+03 0.  0.
   -5000001    1    1    2    0    0  0.16697456100E+03 -0.25561981209E+03 -0.23281651858E+03  0.43246563294E+03  0.19900000000E+03 0.  0.
<mgrwt>
<rscale>  0 0.84544239E+03</rscale>
<asrwt>0</asrwt>
<pdfrwt beam="1">  1        2 0.19264427E+00 0.84544239E+03</pdfrwt>
<pdfrwt beam="2">  1       -2 0.18930229E-01 0.84544239E+03</pdfrwt>
<totfact> 0.41606999E+02</totfact>
</mgrwt>
</event>
<event>
 4    1  0.5056513E-005  0.6162848E+03  0.7818608E-02  0.9872185E-01
         -2   -1    0    0    0  501 -0.00000000000E+00  0.00000000000E+00  0.46453916421E+02  0.46453916491E+02  0.25500000000E-02 0. -1.
          2   -1    0    0  501    0  0.00000000000E+00 -0.00000000000E+00 -0.20439986063E+04  0.20439986063E+04  0.25500000000E-02 0.  1.
    5000001    1    1    2    0    0  0.13240167577E+03  0.17521675505E+03 -0.71256061879E+03  0.77173489648E+03  0.19900000000E+03 0.  0.
   -5000001    1    1    2    0    0 -0.13240167577E+03 -0.17521675505E+03 -0.12849840711E+04  0.13187176263E+04  0.19900000000E+03 0.  0.
<mgrwt>
<rscale>  0 0.61628481E+03</rscale>
<asrwt>0</asrwt>
<pdfrwt beam="1">  1        2 0.29199974E+00 0.61628481E+03</pdfrwt>
<pdfrwt beam="2">  1       -2 0.66362751E-02 0.61628481E+03</pdfrwt>
<totfact> 0.10371055E+03</totfact>
</mgrwt>
</event>
<event>
 4    1  0.5056513E-005  0.7163396E+03  0.7818608E-02  0.9689690E-01
          2   -1    0    0  501    0  0.00000000000E+00  0.00000000000E+00  0.13870639819E+03  0.13870639822E+03  0.25500000000E-02 0.  1.
         -2   -1    0    0    0  501 -0.00000000000E+00 -0.00000000000E+00 -0.92487162161E+03  0.92487162161E+03  0.25500000000E-02 0. -1.
    5000001    1    1    2    0    0 -0.22712628091E+02 -0.28718094305E+03 -0.50513724135E+03  0.61461645774E+03  0.19900000000E+03 0.  0.
   -5000001    1    1    2    0    0  0.22712628091E+02  0.28718094305E+03 -0.28102798207E+03  0.44896156209E+03  0.19900000000E+03 0.  0.
<mgrwt>
<rscale>  0 0.71633962E+03</rscale>
<asrwt>0</asrwt>
<pdfrwt beam="1">  1        2 0.19815200E-01 0.71633962E+03</pdfrwt>
<pdfrwt beam="2">  1       -2 0.13212451E+00 0.71633962E+03</pdfrwt>
<totfact> 0.12106772E+02</totfact>
</mgrwt>
</event>
<event>
 4    1  0.5056513E-005  0.4587600E+03  0.7818608E-02  0.1025141E+00
         -2   -1    0    0    0  501 -0.00000000000E+00  0.00000000000E+00  0.27835233637E+02  0.27835233754E+02  0.25500000000E-02 0. -1.
          2   -1    0    0  501    0  0.00000000000E+00 -0.00000000000E+00 -0.18902371845E+04  0.18902371845E+04  0.25500000000E-02 0.  1.
    5000001    1    1    2    0    0  0.63915154010E+02 -0.84439812522E+02 -0.75386748385E+03  0.78684967564E+03  0.19900000000E+03 0.  0.
   -5000001    1    1    2    0    0 -0.63915154010E+02  0.84439812522E+02 -0.11085344670E+04  0.11312227426E+04  0.19900000000E+03 0.  0.
<mgrwt>
<rscale>  0 0.45876004E+03</rscale>
<asrwt>0</asrwt>
<pdfrwt beam="1">  1        2 0.27003380E+00 0.45876004E+03</pdfrwt>
<pdfrwt beam="2">  1       -2 0.39764632E-02 0.45876004E+03</pdfrwt>
<totfact> 0.27576684E+03</totfact>
</mgrwt>
</event>
<event>
 4    1  0.5056513E-005  0.4585635E+03  0.7818608E-02  0.1025199E+00
          2   -1    0    0  501    0  0.00000000000E+00  0.00000000000E+00  0.72955310197E+03  0.72955310198E+03  0.25500000000E-02 0.  1.
         -2   -1    0    0    0  501 -0.00000000000E+00 -0.00000000000E+00 -0.72057982277E+02  0.72057982322E+02  0.25500000000E-02 0. -1.
    5000001    1    1    2    0    0  0.52835495816E+02 -0.73122266279E+02  0.20724991526E+03  0.30115109633E+03  0.19900000000E+03 0.  0.
   -5000001    1    1    2    0    0 -0.52835495816E+02  0.73122266279E+02  0.45024520443E+03  0.50045998797E+03  0.19900000000E+03 0.  0.
<mgrwt>
<rscale>  0 0.45856352E+03</rscale>
<asrwt>0</asrwt>
<pdfrwt beam="1">  1        2 0.10422187E+00 0.45856352E+03</pdfrwt>
<pdfrwt beam="2">  1       -2 0.10293997E-01 0.45856352E+03</pdfrwt>
<totfact> 0.27831627E+03</totfact>
</mgrwt>
</event>
<event>
 4    1  0.5056513E-005  0.6839006E+03  0.7818608E-02  0.9745167E-01
         -2   -1    0    0    0  501 -0.00000000000E+00  0.00000000000E+00  0.33734678868E+03  0.33734678869E+03  0.25500000000E-02 0. -1.
          2   -1    0    0  501    0  0.00000000000E+00 -0.00000000000E+00 -0.34661662729E+03  0.34661662730E+03  0.25500000000E-02 0.  1.
    5000001    1    1    2    0    0 -0.11112472996E+03 -0.13669422459E+03  0.21054754939E+03  0.33906531406E+03  0.19900000000E+03 0.  0.
   -5000001    1    1    2    0    0  0.11112472996E+03  0.13669422459E+03 -0.21981738801E+03  0.34489810193E+03  0.19900000000E+03 0.  0.
<mgrwt>
<rscale>  0 0.68390060E+03</rscale>
<asrwt>0</asrwt>
<pdfrwt beam="1">  1        2 0.49516661E-01 0.68390060E+03</pdfrwt>
<pdfrwt beam="2">  1       -2 0.48192399E-01 0.68390060E+03</pdfrwt>
<totfact> 0.41739185E+02</totfact>
</mgrwt>
</event>
<event>
 4    1  0.5056513E-005  0.8194854E+03  0.7818608E-02  0.9532233E-01
          2   -1    0    0  501    0  0.00000000000E+00  0.00000000000E+00  0.11068444199E+04  0.11068444199E+04  0.25500000000E-02 0.  1.
         -2   -1    0    0    0  501 -0.00000000000E+00 -0.00000000000E+00 -0.15168263677E+03  0.15168263679E+03  0.25500000000E-02 0. -1.
    5000001    1    1    2    0    0 -0.52973654603E+02 -0.33567972718E+03  0.30382355019E+03  0.49739002500E+03  0.19900000000E+03 0.  0.
   -5000001    1    1    2    0    0  0.52973654603E+02  0.33567972718E+03  0.65133823297E+03  0.76113703172E+03  0.19900000000E+03 0.  0.
<mgrwt>
<rscale>  0 0.81948540E+03</rscale>
<asrwt>0</asrwt>
<pdfrwt beam="1">  1        2 0.15812063E+00 0.81948540E+03</pdfrwt>
<pdfrwt beam="2">  1       -2 0.21668948E-01 0.81948540E+03</pdfrwt>
<totfact> 0.44945926E+02</totfact>
</mgrwt>
</event>
<event>
 4    1  0.5056513E-005  0.7018099E+03  0.7818608E-02  0.9714142E-01
          2   -1    0    0  501    0  0.00000000000E+00  0.00000000000E+00  0.54522257878E+03  0.54522257879E+03  0.25500000000E-02 0.  1.
         -2   -1    0    0    0  501 -0.00000000000E+00 -0.00000000000E+00 -0.22584225184E+03  0.22584225186E+03  0.25500000000E-02 0. -1.
    5000001    1    1    2    0    0  0.24406389007E+03 -0.91633097441E+02  0.22599287853E+02  0.32874843694E+03  0.19900000000E+03 0.  0.
   -5000001    1    1    2    0    0 -0.24406389007E+03  0.91633097441E+02  0.29678103909E+03  0.44231639371E+03  0.19900000000E+03 0.  0.
<mgrwt>
<rscale>  0 0.70180993E+03</rscale>
<asrwt>0</asrwt>
<pdfrwt beam="1">  1        2 0.77888939E-01 0.70180993E+03</pdfrwt>
<pdfrwt beam="2">  1       -2 0.32263179E-01 0.70180993E+03</pdfrwt>
<totfact> 0.54583834E+02</totfact>
</mgrwt>
</event>
<event>
 4    1  0.5056513E-005  0.5205586E+03  0.7818608E-02  0.1008548E+00
          2   -1    0    0  501    0  0.00000000000E+00  0.00000000000E+00  0.13147538939E+04  0.13147538939E+04  0.25500000000E-02 0.  1.
         -2   -1    0    0    0  501 -0.00000000000E+00 -0.00000000000E+00 -0.51527002241E+02  0.51527002304E+02  0.25500000000E-02 0. -1.
    5000001    1    1    2    0    0  0.14089519389E+03  0.46116674560E+02  0.42551418219E+03  0.49258656354E+03  0.19900000000E+03 0.  0.
   -5000001    1    1    2    0    0 -0.14089519389E+03 -0.46116674560E+02  0.83771270950E+03  0.87369433270E+03  0.19900000000E+03 0.  0.
<mgrwt>
<rscale>  0 0.52055865E+03</rscale>
<asrwt>0</asrwt>
<pdfrwt beam="1">  1        2 0.18782199E+00 0.52055865E+03</pdfrwt>
<pdfrwt beam="2">  1       -2 0.73610003E-02 0.52055865E+03</pdfrwt>
<totfact> 0.20901518E+03</totfact>
</mgrwt>
</event>
<event>
 4    1  0.5056513E-005  0.5646321E+03  0.7818608E-02  0.9981628E-01
         -2   -1    0    0    0  501 -0.00000000000E+00  0.00000000000E+00  0.46787477202E+03  0.46787477203E+03  0.25500000000E-02 0. -1.
          2   -1    0    0  501    0  0.00000000000E+00 -0.00000000000E+00 -0.17034977906E+03  0.17034977908E+03  0.25500000000E-02 0.  1.
    5000001    1    1    2    0    0  0.18605740308E+02 -0.18521956695E+03  0.23220021638E+03  0.35800894129E+03  0.19900000000E+03 0.  0.
   -5000001    1    1    2    0    0 -0.18605740308E+02  0.18521956695E+03  0.65324776579E+02  0.28021560982E+03  0.19900000000E+03 0.  0.
<mgrwt>
<rscale>  0 0.56463214E+03</rscale>
<asrwt>0</asrwt>
<pdfrwt beam="1">  1        2 0.24335683E-01 0.56463214E+03</pdfrwt>
<pdfrwt beam="2">  1       -2 0.66839254E-01 0.56463214E+03</pdfrwt>
<totfact> 0.46876209E+02</totfact>
</mgrwt>
</event>
<event>
 4    1  0.5056513E-005  0.5257455E+03  0.7818608E-02  0.1007269E+00
          2   -1    0    0  501    0  0.00000000000E+00  0.00000000000E+00  0.41968252600E+03  0.41968252601E+03  0.25500000000E-02 0.  1.
         -2   -1    0    0    0  501 -0.00000000000E+00 -0.00000000000E+00 -0.16465325131E+03  0.16465325133E+03  0.25500000000E-02 0. -1.
    5000001    1    1    2    0    0 -0.11442087374E+03 -0.75427548789E+02  0.12440692080E+02  0.24194466781E+03  0.19900000000E+03 0.  0.
   -5000001    1    1    2    0    0  0.11442087374E+03  0.75427548789E+02  0.24258858261E+03  0.34239110952E+03  0.19900000000E+03 0.  0.
<mgrwt>
<rscale>  0 0.52574554E+03</rscale>
<asrwt>0</asrwt>
<pdfrwt beam="1">  1        2 0.59954646E-01 0.52574554E+03</pdfrwt>
<pdfrwt beam="2">  1       -2 0.23521893E-01 0.52574554E+03</pdfrwt>
<totfact> 0.13094258E+03</totfact>
</mgrwt>
</event>
<event>
 4    1  0.5056513E-005  0.6736442E+03  0.7818608E-02  0.9763397E-01
          2   -1    0    0  501    0  0.00000000000E+00  0.00000000000E+00  0.21965674532E+04  0.21965674532E+04  0.25500000000E-02 0. -1.
         -2   -1    0    0    0  501 -0.00000000000E+00 -0.00000000000E+00 -0.51648367519E+02  0.51648367582E+02  0.25500000000E-02 0.  1.
    5000001    1    1    2    0    0 -0.13457252572E+03  0.20570019196E+03  0.14591623719E+04  0.14930432550E+04  0.19900000000E+03 0.  0.
   -5000001    1    1    2    0    0  0.13457252572E+03 -0.20570019196E+03  0.68575671376E+03  0.75517256579E+03  0.19900000000E+03 0.  0.
<mgrwt>
<rscale>  0 0.67364419E+03</rscale>
<asrwt>0</asrwt>
<pdfrwt beam="1">  1        2 0.31379525E+00 0.67364419E+03</pdfrwt>
<pdfrwt beam="2">  1       -2 0.73783406E-02 0.67364419E+03</pdfrwt>
<totfact> 0.73204640E+02</totfact>
</mgrwt>
</event>
<event>
 4    1  0.5056513E-005  0.4882404E+03  0.7818608E-02  0.1016895E+00
         -2   -1    0    0    0  501 -0.00000000000E+00  0.00000000000E+00  0.95193251227E+02  0.95193251261E+02  0.25500000000E-02 0. -1.
          2   -1    0    0  501    0  0.00000000000E+00 -0.00000000000E+00 -0.62603889798E+03  0.62603889799E+03  0.25500000000E-02 0.  1.
    5000001    1    1    2    0    0  0.12054597420E+03 -0.71059263170E+02 -0.23540507195E+03  0.33852222774E+03  0.19900000000E+03 0.  0.
   -5000001    1    1    2    0    0 -0.12054597420E+03  0.71059263170E+02 -0.29544057481E+03  0.38270992151E+03  0.19900000000E+03 0.  0.
<mgrwt>
<rscale>  0 0.48824042E+03</rscale>
<asrwt>0</asrwt>
<pdfrwt beam="1">  1        2 0.89434126E-01 0.48824042E+03</pdfrwt>
<pdfrwt beam="2">  1       -2 0.13599036E-01 0.48824042E+03</pdfrwt>
<totfact> 0.21223356E+03</totfact>
</mgrwt>
</event>
<event>
 4    1  0.5056513E-005  0.1072928E+04  0.7818608E-02  0.9231988E-01
          2   -1    0    0  501    0  0.00000000000E+00  0.00000000000E+00  0.15814116432E+04  0.15814116432E+04  0.25500000000E-02 0. -1.
         -2   -1    0    0    0  501 -0.00000000000E+00 -0.00000000000E+00 -0.18198511665E+03  0.18198511667E+03  0.25500000000E-02 0.  1.
    5000001    1    1    2    0    0 -0.49442522567E+03 -0.19574098530E+02  0.79488151604E+03  0.95722362782E+03  0.19900000000E+03 0.  0.
   -5000001    1    1    2    0    0  0.49442522567E+03  0.19574098530E+02  0.60454501049E+03  0.80617313204E+03  0.19900000000E+03 0.  0.
<mgrwt>
<rscale>  0 0.10729276E+04</rscale>
<asrwt>0</asrwt>
<pdfrwt beam="1">  1        2 0.22591595E+00 0.10729276E+04</pdfrwt>
<pdfrwt beam="2">  1       -2 0.25997874E-01 0.10729276E+04</pdfrwt>
<totfact> 0.17552162E+02</totfact>
</mgrwt>
</event>
<event>
 4    1  0.5056513E-005  0.7130732E+03  0.7818608E-02  0.9695133E-01
          2   -1    0    0  501    0  0.00000000000E+00  0.00000000000E+00  0.87297665958E+03  0.87297665959E+03  0.25500000000E-02 0.  1.
         -2   -1    0    0    0  501 -0.00000000000E+00 -0.00000000000E+00 -0.14561484510E+03  0.14561484512E+03  0.25500000000E-02 0. -1.
    5000001    1    1    2    0    0  0.89658651985E+01 -0.29531309180E+03  0.38520993079E+03  0.52466932415E+03  0.19900000000E+03 0.  0.
   -5000001    1    1    2    0    0 -0.89658651985E+01  0.29531309180E+03  0.34215188369E+03  0.49392218055E+03  0.19900000000E+03 0.  0.
<mgrwt>
<rscale>  0 0.71307324E+03</rscale>
<asrwt>0</asrwt>
<pdfrwt beam="1">  1        2 0.12471095E+00 0.71307324E+03</pdfrwt>
<pdfrwt beam="2">  1       -2 0.20802121E-01 0.71307324E+03</pdfrwt>
<totfact> 0.67701291E+02</totfact>
</mgrwt>
</event>
<event>
 4    1  0.5056513E-005  0.5497376E+03  0.7818608E-02  0.1001555E+00
         -2   -1    0    0    0  501 -0.00000000000E+00  0.00000000000E+00  0.36815392652E+03  0.36815392653E+03  0.25500000000E-02 0. -1.
          2   -1    0    0  501    0  0.00000000000E+00 -0.00000000000E+00 -0.20522086472E+03  0.20522086474E+03  0.25500000000E-02 0.  1.
    5000001    1    1    2    0    0 -0.37949886012E+02  0.15702223276E+03  0.18501094614E+03  0.31611109696E+03  0.19900000000E+03 0.  0.
   -5000001    1    1    2    0    0  0.37949886012E+02 -0.15702223276E+03 -0.22077884344E+02  0.25726369430E+03  0.19900000000E+03 0.  0.
<mgrwt>
<rscale>  0 0.54973764E+03</rscale>
<asrwt>0</asrwt>
<pdfrwt beam="1">  1        2 0.29317266E-01 0.54973764E+03</pdfrwt>
<pdfrwt beam="2">  1       -2 0.52593418E-01 0.54973764E+03</pdfrwt>
<totfact> 0.62725347E+02</totfact>
</mgrwt>
</event>
<event>
 4    1  0.5056513E-005  0.8788881E+03  0.7818608E-02  0.9452364E-01
         -2   -1    0    0    0  501 -0.00000000000E+00  0.00000000000E+00  0.22458246089E+03  0.22458246090E+03  0.25500000000E-02 0. -1.
          2   -1    0    0  501    0  0.00000000000E+00 -0.00000000000E+00 -0.85986711349E+03  0.85986711350E+03  0.25500000000E-02 0.  1.
    5000001    1    1    2    0    0 -0.57833294300E+02 -0.37993976878E+03 -0.22358188922E+03  0.48712296089E+03  0.19900000000E+03 0.  0.
   -5000001    1    1    2    0    0  0.57833294300E+02  0.37993976878E+03 -0.41170276338E+03  0.59732661351E+03  0.19900000000E+03 0.  0.
<mgrwt>
<rscale>  0 0.87888810E+03</rscale>
<asrwt>0</asrwt>
<pdfrwt beam="1">  1        2 0.12283816E+00 0.87888810E+03</pdfrwt>
<pdfrwt beam="2">  1       -2 0.32083209E-01 0.87888810E+03</pdfrwt>
<totfact> 0.31274584E+02</totfact>
</mgrwt>
</event>
<event>
 4    1  0.5056513E-005  0.8141389E+03  0.7818608E-02  0.9539774E-01
         -2   -1    0    0    0  501 -0.00000000000E+00  0.00000000000E+00  0.12714223871E+03  0.12714223874E+03  0.25500000000E-02 0. -1.
          2   -1    0    0  501    0  0.00000000000E+00 -0.00000000000E+00 -0.13033082569E+04  0.13033082569E+04  0.25500000000E-02 0.  1.
    5000001    1    1    2    0    0 -0.19193112589E+03  0.20937239096E+03 -0.21358756541E+03  0.40730210321E+03  0.19900000000E+03 0.  0.
   -5000001    1    1    2    0    0  0.19193112589E+03 -0.20937239096E+03 -0.96257845278E+03  0.10231483924E+04  0.19900000000E+03 0.  0.
<mgrwt>
<rscale>  0 0.81413888E+03</rscale>
<asrwt>0</asrwt>
<pdfrwt beam="1">  1        2 0.18618689E+00 0.81413888E+03</pdfrwt>
<pdfrwt beam="2">  1       -2 0.18163178E-01 0.81413888E+03</pdfrwt>
<totfact> 0.47388670E+02</totfact>
</mgrwt>
</event>
<event>
 4    1  0.5056513E-005  0.6220211E+03  0.7818608E-02  0.9860744E-01
         -2   -1    0    0    0  501 -0.00000000000E+00  0.00000000000E+00  0.14003661955E+03  0.14003661957E+03  0.25500000000E-02 0. -1.
          2   -1    0    0  501    0  0.00000000000E+00 -0.00000000000E+00 -0.69073043469E+03  0.69073043469E+03  0.25500000000E-02 0.  1.
    5000001    1    1    2    0    0 -0.61010886305E+01 -0.20459602764E+03 -0.44017120222E+03  0.52464125369E+03  0.19900000000E+03 0.  0.
   -5000001    1    1    2    0    0  0.61010886305E+01  0.20459602764E+03 -0.11052261292E+03  0.30612580057E+03  0.19900000000E+03 0.  0.
<mgrwt>
<rscale>  0 0.62202108E+03</rscale>
<asrwt>0</asrwt>
<pdfrwt beam="1">  1        2 0.98675775E-01 0.62202108E+03</pdfrwt>
<pdfrwt beam="2">  1       -2 0.20005232E-01 0.62202108E+03</pdfrwt>
<totfact> 0.97830964E+02</totfact>
</mgrwt>
</event>
<event>
 4    1  0.5056513E-005  0.6333732E+03  0.7818608E-02  0.9838488E-01
         -2   -1    0    0    0  501 -0.00000000000E+00  0.00000000000E+00  0.78808598657E+02  0.78808598698E+02  0.25500000000E-02 0. -1.
          2   -1    0    0  501    0  0.00000000000E+00 -0.00000000000E+00 -0.12725820707E+04  0.12725820707E+04  0.25500000000E-02 0.  1.
    5000001    1    1    2    0    0 -0.93711390493E+02  0.14006995708E+03 -0.98027757992E+03  0.10143700268E+04  0.19900000000E+03 0.  0.
   -5000001    1    1    2    0    0  0.93711390493E+02 -0.14006995708E+03 -0.21349589213E+03  0.33702064260E+03  0.19900000000E+03 0.  0.
<mgrwt>
<rscale>  0 0.63337322E+03</rscale>
<asrwt>0</asrwt>
<pdfrwt beam="1">  1        2 0.18179743E+00 0.63337322E+03</pdfrwt>
<pdfrwt beam="2">  1       -2 0.11258372E-01 0.63337322E+03</pdfrwt>
<totfact> 0.11094500E+03</totfact>
</mgrwt>
</event>
<event>
 4    1  0.5056513E-005  0.5350678E+03  0.7818608E-02  0.1005010E+00
          2   -1    0    0  501    0  0.00000000000E+00  0.00000000000E+00  0.22341133830E+04  0.22341133830E+04  0.25500000000E-02 0.  1.
         -2   -1    0    0    0  501 -0.00000000000E+00 -0.00000000000E+00 -0.32037040293E+02  0.32037040394E+02  0.25500000000E-02 0. -1.
    5000001    1    1    2    0    0 -0.13952425827E+03 -0.43039200586E+02  0.66388255276E+03  0.70827991309E+03  0.19900000000E+03 0.  0.
   -5000001    1    1    2    0    0  0.13952425827E+03  0.43039200586E+02  0.15381937900E+04  0.15578705103E+04  0.19900000000E+03 0.  0.
<mgrwt>
<rscale>  0 0.53506777E+03</rscale>
<asrwt>0</asrwt>
<pdfrwt beam="1">  1        2 0.31915910E+00 0.53506777E+03</pdfrwt>
<pdfrwt beam="2">  1       -2 0.45767193E-02 0.53506777E+03</pdfrwt>
<totfact> 0.14919160E+03</totfact>
</mgrwt>
</event>
<event>
 4    1  0.5056513E-005  0.5181298E+03  0.7818608E-02  0.1009152E+00
         -2   -1    0    0    0  501 -0.00000000000E+00  0.00000000000E+00  0.67470149106E+03  0.67470149106E+03  0.25500000000E-02 0. -1.
          2   -1    0    0  501    0  0.00000000000E+00 -0.00000000000E+00 -0.99473057822E+02  0.99473057854E+02  0.25500000000E-02 0.  1.
    5000001    1    1    2    0    0 -0.27448646422E+02  0.14611653389E+03  0.39751606820E+03  0.46874672708E+03  0.19900000000E+03 0.  0.
   -5000001    1    1    2    0    0  0.27448646422E+02 -0.14611653389E+03  0.17771236503E+03  0.30542782184E+03  0.19900000000E+03 0.  0.
<mgrwt>
<rscale>  0 0.51812979E+03</rscale>
<asrwt>0</asrwt>
<pdfrwt beam="1">  1        2 0.14210436E-01 0.51812979E+03</pdfrwt>
<pdfrwt beam="2">  1       -2 0.96385930E-01 0.51812979E+03</pdfrwt>
<totfact> 0.39002471E+02</totfact>
</mgrwt>
</event>
<event>
 4    1  0.5056513E-005  0.4693001E+03  0.7818608E-02  0.1022118E+00
          2   -1    0    0  501    0  0.00000000000E+00  0.00000000000E+00  0.10683082280E+04  0.10683082280E+04  0.25500000000E-02 0.  1.
         -2   -1    0    0    0  501 -0.00000000000E+00 -0.00000000000E+00 -0.51540027376E+02  0.51540027439E+02  0.25500000000E-02 0. -1.
    5000001    1    1    2    0    0 -0.54077101149E+02 -0.16552755963E+02  0.24415722604E+03  0.32001887074E+03  0.19900000000E+03 0.  0.
   -5000001    1    1    2    0    0  0.54077101149E+02  0.16552755963E+02  0.77261097462E+03  0.79982938475E+03  0.19900000000E+03 0.  0.
<mgrwt>
<rscale>  0 0.46930005E+03</rscale>
<asrwt>0</asrwt>
<pdfrwt beam="1">  1        2 0.15261545E+00 0.46930005E+03</pdfrwt>
<pdfrwt beam="2">  1       -2 0.73628616E-02 0.46930005E+03</pdfrwt>
<totfact> 0.28705308E+03</totfact>
</mgrwt>
</event>
<event>
 4    1  0.5056513E-005  0.7054487E+03  0.7818608E-02  0.9707959E-01
         -2   -1    0    0    0  501 -0.00000000000E+00  0.00000000000E+00  0.11027131296E+03  0.11027131299E+03  0.25500000000E-02 0. -1.
          2   -1    0    0  501    0  0.00000000000E+00 -0.00000000000E+00 -0.11282578406E+04  0.11282578406E+04  0.25500000000E-02 0.  1.
    5000001    1    1    2    0    0 -0.17816207472E+03 -0.10760358511E+03 -0.86661947294E+03  0.91320893955E+03  0.19900000000E+03 0.  0.
   -5000001    1    1    2    0    0  0.17816207472E+03  0.10760358511E+03 -0.15136705466E+03  0.32532021400E+03  0.19900000000E+03 0.  0.
<mgrwt>
<rscale>  0 0.70544872E+03</rscale>
<asrwt>0</asrwt>
<pdfrwt beam="1">  1        2 0.16117969E+00 0.70544872E+03</pdfrwt>
<pdfrwt beam="2">  1       -2 0.15753045E-01 0.70544872E+03</pdfrwt>
<totfact> 0.76220484E+02</totfact>
</mgrwt>
</event>
<event>
 4    1  0.5056513E-005  0.1198294E+04  0.7818608E-02  0.9114351E-01
          2   -1    0    0  501    0  0.00000000000E+00  0.00000000000E+00  0.10305034943E+04  0.10305034943E+04  0.25500000000E-02 0.  1.
         -2   -1    0    0    0  501 -0.00000000000E+00 -0.00000000000E+00 -0.34835105617E+03  0.34835105617E+03  0.25500000000E-02 0. -1.
    5000001    1    1    2    0    0 -0.19213774635E+02  0.52290934522E+03  0.58672080601E+03  0.81095354779E+03  0.19900000000E+03 0.  0.
   -5000001    1    1    2    0    0  0.19213774635E+02 -0.52290934522E+03  0.95431632131E+02  0.56790100270E+03  0.19900000000E+03 0.  0.
<mgrwt>
<rscale>  0 0.11982938E+04</rscale>
<asrwt>0</asrwt>
<pdfrwt beam="1">  1        2 0.14721479E+00 0.11982938E+04</pdfrwt>
<pdfrwt beam="2">  1       -2 0.49764436E-01 0.11982938E+04</pdfrwt>
<totfact> 0.10142744E+02</totfact>
</mgrwt>
</event>
<event>
 4    1  0.5056513E-005  0.4638044E+03  0.7818608E-02  0.1023684E+00
         -2   -1    0    0    0  501 -0.00000000000E+00  0.00000000000E+00  0.29920515855E+02  0.29920515964E+02  0.25500000000E-02 0. -1.
          2   -1    0    0  501    0  0.00000000000E+00 -0.00000000000E+00 -0.17973831421E+04  0.17973831421E+04  0.25500000000E-02 0.  1.
    5000001    1    1    2    0    0 -0.76827161532E+02 -0.62669404174E+02 -0.62394944540E+03  0.66237736781E+03  0.19900000000E+03 0.  0.
   -5000001    1    1    2    0    0  0.76827161532E+02  0.62669404174E+02 -0.11435131808E+04  0.11649262902E+04  0.19900000000E+03 0.  0.
<mgrwt>
<rscale>  0 0.46380440E+03</rscale>
<asrwt>0</asrwt>
<pdfrwt beam="1">  1        2 0.25676895E+00 0.46380440E+03</pdfrwt>
<pdfrwt beam="2">  1       -2 0.42743605E-02 0.46380440E+03</pdfrwt>
<totfact> 0.27471585E+03</totfact>
</mgrwt>
</event>
<event>
 4    1  0.5056513E-005  0.6575347E+03  0.7818608E-02  0.9792743E-01
          2   -1    0    0  501    0  0.00000000000E+00  0.00000000000E+00  0.57133829738E+03  0.57133829739E+03  0.25500000000E-02 0.  1.
         -2   -1    0    0    0  501 -0.00000000000E+00 -0.00000000000E+00 -0.18918384448E+03  0.18918384449E+03  0.25500000000E-02 0. -1.
    5000001    1    1    2    0    0 -0.42513634858E+02  0.13632031601E+03 -0.62581133711E+02  0.25280038766E+03  0.19900000000E+03 0.  0.
   -5000001    1    1    2    0    0  0.42513634858E+02 -0.13632031601E+03  0.44473558661E+03  0.50772175422E+03  0.19900000000E+03 0.  0.
<mgrwt>
<rscale>  0 0.65753472E+03</rscale>
<asrwt>0</asrwt>
<pdfrwt beam="1">  1        2 0.81619758E-01 0.65753472E+03</pdfrwt>
<pdfrwt beam="2">  1       -2 0.27026263E-01 0.65753472E+03</pdfrwt>
<totfact> 0.71766838E+02</totfact>
</mgrwt>
</event>
<event>
 4    1  0.5056513E-005  0.8891334E+03  0.7818608E-02  0.9439268E-01
          2   -1    0    0  501    0  0.00000000000E+00  0.00000000000E+00  0.36813942255E+03  0.36813942255E+03  0.25500000000E-02 0.  1.
         -2   -1    0    0    0  501 -0.00000000000E+00 -0.00000000000E+00 -0.53686059143E+03  0.53686059143E+03  0.25500000000E-02 0. -1.
    5000001    1    1    2    0    0 -0.49034720303E+02  0.38066177581E+03 -0.18979850678E+03  0.47215703376E+03  0.19900000000E+03 0.  0.
   -5000001    1    1    2    0    0  0.49034720303E+02 -0.38066177581E+03  0.21077337902E+02  0.43284298022E+03  0.19900000000E+03 0.  0.
<mgrwt>
<rscale>  0 0.88913339E+03</rscale>
<asrwt>0</asrwt>
<pdfrwt beam="1">  1        2 0.52591346E-01 0.88913339E+03</pdfrwt>
<pdfrwt beam="2">  1       -2 0.76694370E-01 0.88913339E+03</pdfrwt>
<totfact> 0.14483433E+02</totfact>
</mgrwt>
</event>
<event>
 4    1  0.5056513E-005  0.6929770E+03  0.7818608E-02  0.9729318E-01
          2   -1    0    0  501    0  0.00000000000E+00  0.00000000000E+00  0.55573668415E+03  0.55573668416E+03  0.25500000000E-02 0.  1.
         -2   -1    0    0    0  501 -0.00000000000E+00 -0.00000000000E+00 -0.21602726740E+03  0.21602726742E+03  0.25500000000E-02 0. -1.
    5000001    1    1    2    0    0  0.21857711042E+03 -0.15251596322E+03  0.27792432931E+03  0.43345127184E+03  0.19900000000E+03 0.  0.
   -5000001    1    1    2    0    0 -0.21857711042E+03  0.15251596322E+03  0.61785087431E+02  0.33831267973E+03  0.19900000000E+03 0.  0.
<mgrwt>
<rscale>  0 0.69297699E+03</rscale>
<asrwt>0</asrwt>
<pdfrwt beam="1">  1        2 0.79390953E-01 0.69297699E+03</pdfrwt>
<pdfrwt beam="2">  1       -2 0.30861039E-01 0.69297699E+03</pdfrwt>
<totfact> 0.58017332E+02</totfact>
</mgrwt>
</event>
<event>
 4    1  0.5056513E-005  0.5899181E+03  0.7818608E-02  0.9926546E-01
          2   -1    0    0  501    0  0.00000000000E+00  0.00000000000E+00  0.24505763053E+03  0.24505763054E+03  0.25500000000E-02 0.  1.
         -2   -1    0    0    0  501 -0.00000000000E+00 -0.00000000000E+00 -0.35502202277E+03  0.35502202278E+03  0.25500000000E-02 0. -1.
    5000001    1    1    2    0    0 -0.15101309377E+03  0.99743799193E+02  0.68123396018E+02  0.27748076880E+03  0.19900000000E+03 0.  0.
   -5000001    1    1    2    0    0  0.15101309377E+03 -0.99743799193E+02 -0.17808778826E+03  0.32259888452E+03  0.19900000000E+03 0.  0.
<mgrwt>
<rscale>  0 0.58991815E+03</rscale>
<asrwt>0</asrwt>
<pdfrwt beam="1">  1        2 0.35008233E-01 0.58991815E+03</pdfrwt>
<pdfrwt beam="2">  1       -2 0.50717432E-01 0.58991815E+03</pdfrwt>
<totfact> 0.55372009E+02</totfact>
</mgrwt>
</event>
<event>
 4    1  0.5056513E-005  0.1175155E+04  0.7818608E-02  0.9134885E-01
         -2   -1    0    0    0  501 -0.00000000000E+00  0.00000000000E+00  0.52088274705E+03  0.52088274706E+03  0.25500000000E-02 0. -1.
          2   -1    0    0  501    0  0.00000000000E+00 -0.00000000000E+00 -0.66281242111E+03  0.66281242111E+03  0.25500000000E-02 0.  1.
    5000001    1    1    2    0    0 -0.38449322898E+02  0.54753261091E+03 -0.43309189808E+01  0.58385791705E+03  0.19900000000E+03 0.  0.
   -5000001    1    1    2    0    0  0.38449322898E+02 -0.54753261091E+03 -0.13759875508E+03  0.59983725113E+03  0.19900000000E+03 0.  0.
<mgrwt>
<rscale>  0 0.11751554E+04</rscale>
<asrwt>0</asrwt>
<pdfrwt beam="1">  1        2 0.94687488E-01 0.11751554E+04</pdfrwt>
<pdfrwt beam="2">  1       -2 0.74411822E-01 0.11751554E+04</pdfrwt>
<totfact> 0.77392654E+01</totfact>
</mgrwt>
</event>
<event>
 4    1  0.5056513E-005  0.6948123E+03  0.7818608E-02  0.9726145E-01
         -2   -1    0    0    0  501 -0.00000000000E+00  0.00000000000E+00  0.62122386536E+02  0.62122386588E+02  0.25500000000E-02 0. -1.
          2   -1    0    0  501    0  0.00000000000E+00 -0.00000000000E+00 -0.19427942652E+04  0.19427942652E+04  0.25500000000E-02 0.  1.
    5000001    1    1    2    0    0 -0.15807003062E+03 -0.77977794518E+02 -0.15857155206E+04  0.16078437061E+04  0.19900000000E+03 0.  0.
   -5000001    1    1    2    0    0  0.15807003062E+03  0.77977794518E+02 -0.29495635803E+03  0.39707294564E+03  0.19900000000E+03 0.  0.
<mgrwt>
<rscale>  0 0.69481225E+03</rscale>
<asrwt>0</asrwt>
<pdfrwt beam="1">  1        2 0.27754200E+00 0.69481225E+03</pdfrwt>
<pdfrwt beam="2">  1       -2 0.88746278E-02 0.69481225E+03</pdfrwt>
<totfact> 0.73077164E+02</totfact>
</mgrwt>
</event>
<event>
 4    1  0.5056513E-005  0.6194300E+03  0.7818608E-02  0.9865895E-01
          2   -1    0    0  501    0  0.00000000000E+00  0.00000000000E+00  0.16948159107E+04  0.16948159107E+04  0.25500000000E-02 0.  1.
         -2   -1    0    0    0  501 -0.00000000000E+00 -0.00000000000E+00 -0.56598108160E+02  0.56598108218E+02  0.25500000000E-02 0. -1.
    5000001    1    1    2    0    0  0.16017743190E+03 -0.15087066501E+03  0.56774131694E+03  0.64058564628E+03  0.19900000000E+03 0.  0.
   -5000001    1    1    2    0    0 -0.16017743190E+03  0.15087066501E+03  0.10704764856E+04  0.11108283726E+04  0.19900000000E+03 0.  0.
<mgrwt>
<rscale>  0 0.61942998E+03</rscale>
<asrwt>0</asrwt>
<pdfrwt beam="1">  1        2 0.24211659E+00 0.61942998E+03</pdfrwt>
<pdfrwt beam="2">  1       -2 0.80854431E-02 0.61942998E+03</pdfrwt>
<totfact> 0.11374516E+03</totfact>
</mgrwt>
</event>
<event>
 4    1  0.5056513E-005  0.7383194E+03  0.7818608E-02  0.9653856E-01
          2   -1    0    0  501    0  0.00000000000E+00  0.00000000000E+00  0.54199910408E+03  0.54199910409E+03  0.25500000000E-02 0.  1.
         -2   -1    0    0    0  501 -0.00000000000E+00 -0.00000000000E+00 -0.25143747993E+03  0.25143747995E+03  0.25500000000E-02 0. -1.
    5000001    1    1    2    0    0 -0.27251654619E+03  0.14172674439E+03  0.19711148771E+03  0.41569902166E+03  0.19900000000E+03 0.  0.
   -5000001    1    1    2    0    0  0.27251654619E+03 -0.14172674439E+03  0.93450136434E+02  0.37773756237E+03  0.19900000000E+03 0.  0.
<mgrwt>
<rscale>  0 0.73831941E+03</rscale>
<asrwt>0</asrwt>
<pdfrwt beam="1">  1        2 0.77428444E-01 0.73831941E+03</pdfrwt>
<pdfrwt beam="2">  1       -2 0.35919640E-01 0.73831941E+03</pdfrwt>
<totfact> 0.44811085E+02</totfact>
</mgrwt>
</event>
<event>
 4    1  0.5056513E-005  0.7520089E+03  0.7818608E-02  0.9632204E-01
          2   -1    0    0  501    0  0.00000000000E+00  0.00000000000E+00  0.21188962887E+04  0.21188962887E+04  0.25500000000E-02 0.  1.
         -2   -1    0    0    0  501 -0.00000000000E+00 -0.00000000000E+00 -0.66723105854E+02  0.66723105903E+02  0.25500000000E-02 0. -1.
    5000001    1    1    2    0    0  0.56178422802E+02  0.26423492126E+03  0.15193338042E+04  0.15559409749E+04  0.19900000000E+03 0.  0.
   -5000001    1    1    2    0    0 -0.56178422802E+02 -0.26423492126E+03  0.53283937865E+03  0.62967841970E+03  0.19900000000E+03 0.  0.
<mgrwt>
<rscale>  0 0.75200889E+03</rscale>
<asrwt>0</asrwt>
<pdfrwt beam="1">  1        2 0.30269943E+00 0.75200889E+03</pdfrwt>
<pdfrwt beam="2">  1       -2 0.95318736E-02 0.75200889E+03</pdfrwt>
<totfact> 0.52852388E+02</totfact>
</mgrwt>
</event>
<event>
 4    1  0.5056513E-005  0.6899515E+03  0.7818608E-02  0.9734572E-01
          2   -1    0    0  501    0  0.00000000000E+00  0.00000000000E+00  0.11053199927E+03  0.11053199930E+03  0.25500000000E-02 0.  1.
         -2   -1    0    0    0  501 -0.00000000000E+00 -0.00000000000E+00 -0.10766860864E+04  0.10766860864E+04  0.25500000000E-02 0. -1.
    5000001    1    1    2    0    0  0.16601662388E+03 -0.21680420931E+03 -0.60280898867E+03  0.69104649728E+03  0.19900000000E+03 0.  0.
   -5000001    1    1    2    0    0 -0.16601662388E+03  0.21680420931E+03 -0.36334509844E+03  0.49617158840E+03  0.19900000000E+03 0.  0.
<mgrwt>
<rscale>  0 0.68995149E+03</rscale>
<asrwt>0</asrwt>
<pdfrwt beam="1">  1        2 0.15790286E-01 0.68995149E+03</pdfrwt>
<pdfrwt beam="2">  1       -2 0.15381229E+00 0.68995149E+03</pdfrwt>
<totfact> 0.10707095E+02</totfact>
</mgrwt>
</event>
<event>
 4    1  0.5056513E-005  0.5015904E+03  0.7818608E-02  0.1013365E+00
          2   -1    0    0  501    0  0.00000000000E+00  0.00000000000E+00  0.44838218553E+03  0.44838218554E+03  0.25500000000E-02 0.  1.
         -2   -1    0    0    0  501 -0.00000000000E+00 -0.00000000000E+00 -0.14027817967E+03  0.14027817969E+03  0.25500000000E-02 0. -1.
    5000001    1    1    2    0    0  0.15037888217E+03 -0.19090922723E+02  0.17501180872E+03  0.30530051543E+03  0.19900000000E+03 0.  0.
   -5000001    1    1    2    0    0 -0.15037888217E+03  0.19090922723E+02  0.13309219714E+03  0.28335984979E+03  0.19900000000E+03 0.  0.
<mgrwt>
<rscale>  0 0.50159042E+03</rscale>
<asrwt>0</asrwt>
<pdfrwt beam="1">  1        2 0.64054598E-01 0.50159042E+03</pdfrwt>
<pdfrwt beam="2">  1       -2 0.20039740E-01 0.50159042E+03</pdfrwt>
<totfact> 0.16113220E+03</totfact>
</mgrwt>
</event>
<event>
 4    1  0.5056513E-005  0.6764981E+03  0.7818608E-02  0.9758290E-01
         -2   -1    0    0    0  501 -0.00000000000E+00  0.00000000000E+00  0.12752907152E+03  0.12752907154E+03  0.25500000000E-02 0. -1.
          2   -1    0    0  501    0  0.00000000000E+00 -0.00000000000E+00 -0.89714772851E+03  0.89714772851E+03  0.25500000000E-02 0.  1.
    5000001    1    1    2    0    0 -0.27031276986E+03 -0.12379063793E+01 -0.44800773148E+03  0.55980572829E+03  0.19900000000E+03 0.  0.
   -5000001    1    1    2    0    0  0.27031276986E+03  0.12379063793E+01 -0.32161092551E+03  0.46487107177E+03  0.19900000000E+03 0.  0.
<mgrwt>
<rscale>  0 0.67649809E+03</rscale>
<asrwt>0</asrwt>
<pdfrwt beam="1">  1        2 0.12816396E+00 0.67649809E+03</pdfrwt>
<pdfrwt beam="2">  1       -2 0.18218439E-01 0.67649809E+03</pdfrwt>
<totfact> 0.82313457E+02</totfact>
</mgrwt>
</event>
<event>
 4    1  0.5056513E-005  0.5433924E+03  0.7818608E-02  0.1003035E+00
         -2   -1    0    0    0  501 -0.00000000000E+00  0.00000000000E+00  0.58652168888E+02  0.58652168943E+02  0.25500000000E-02 0. -1.
          2   -1    0    0  501    0  0.00000000000E+00 -0.00000000000E+00 -0.12585866559E+04  0.12585866560E+04  0.25500000000E-02 0.  1.
    5000001    1    1    2    0    0  0.12877707418E+03 -0.96984635140E+02 -0.81985727107E+03  0.85892752850E+03  0.19900000000E+03 0.  0.
   -5000001    1    1    2    0    0 -0.12877707418E+03  0.96984635140E+02 -0.38007721599E+03  0.45831129640E+03  0.19900000000E+03 0.  0.
<mgrwt>
<rscale>  0 0.54339244E+03</rscale>
<asrwt>0</asrwt>
<pdfrwt beam="1">  1        2 0.17979808E+00 0.54339244E+03</pdfrwt>
<pdfrwt beam="2">  1       -2 0.83788821E-02 0.54339244E+03</pdfrwt>
<totfact> 0.18247941E+03</totfact>
</mgrwt>
</event>
<event>
 4    1  0.5056513E-005  0.5465805E+03  0.7818608E-02  0.1002289E+00
          2   -1    0    0  501    0  0.00000000000E+00  0.00000000000E+00  0.12885568882E+03  0.12885568885E+03  0.25500000000E-02 0.  1.
         -2   -1    0    0    0  501 -0.00000000000E+00 -0.00000000000E+00 -0.57962172827E+03  0.57962172828E+03  0.25500000000E-02 0. -1.
    5000001    1    1    2    0    0  0.14643885580E+03  0.79981851853E+02 -0.33571330437E+03  0.42443592902E+03  0.19900000000E+03 0.  0.
   -5000001    1    1    2    0    0 -0.14643885580E+03 -0.79981851853E+02 -0.11505273508E+03  0.28404148810E+03  0.19900000000E+03 0.  0.
<mgrwt>
<rscale>  0 0.54658049E+03</rscale>
<asrwt>0</asrwt>
<pdfrwt beam="1">  1        2 0.18407956E-01 0.54658049E+03</pdfrwt>
<pdfrwt beam="2">  1       -2 0.82803103E-01 0.54658049E+03</pdfrwt>
<totfact> 0.40482610E+02</totfact>
</mgrwt>
</event>
<event>
 4    1  0.5056513E-005  0.5671268E+03  0.7818608E-02  0.9976057E-01
         -2   -1    0    0    0  501 -0.00000000000E+00  0.00000000000E+00  0.20718275388E+02  0.20718275545E+02  0.25500000000E-02 0. -1.
          2   -1    0    0  501    0  0.00000000000E+00 -0.00000000000E+00 -0.38810271508E+04  0.38810271508E+04  0.25500000000E-02 0.  1.
    5000001    1    1    2    0    0 -0.17483733842E+03  0.71460083285E+02 -0.24230392515E+04  0.24385230884E+04  0.19900000000E+03 0.  0.
   -5000001    1    1    2    0    0  0.17483733842E+03 -0.71460083285E+02 -0.14372696239E+04  0.14632223379E+04  0.19900000000E+03 0.  0.
<mgrwt>
<rscale>  0 0.56712676E+03</rscale>
<asrwt>0</asrwt>
<pdfrwt beam="1">  1        2 0.55443199E+00 0.56712676E+03</pdfrwt>
<pdfrwt beam="2">  1       -2 0.29597561E-02 0.56712676E+03</pdfrwt>
<totfact> 0.35147540E+02</totfact>
</mgrwt>
</event>
<event>
 4    1  0.5056513E-005  0.4733806E+03  0.7818608E-02  0.1020970E+00
         -2   -1    0    0    0  501 -0.00000000000E+00  0.00000000000E+00  0.23124158186E+03  0.23124158187E+03  0.25500000000E-02 0. -1.
          2   -1    0    0  501    0  0.00000000000E+00 -0.00000000000E+00 -0.24226742402E+03  0.24226742403E+03  0.25500000000E-02 0.  1.
    5000001    1    1    2    0    0 -0.88650533866E+02  0.91108339113E+02 -0.21693085061E+02  0.23713126439E+03  0.19900000000E+03 0.  0.
   -5000001    1    1    2    0    0  0.88650533866E+02 -0.91108339113E+02  0.10667242901E+02  0.23637774151E+03  0.19900000000E+03 0.  0.
<mgrwt>
<rscale>  0 0.47338062E+03</rscale>
<asrwt>0</asrwt>
<pdfrwt beam="1">  1        2 0.34609632E-01 0.47338062E+03</pdfrwt>
<pdfrwt beam="2">  1       -2 0.33034512E-01 0.47338062E+03</pdfrwt>
<totfact> 0.12923205E+03</totfact>
</mgrwt>
</event>
<event>
 4    1  0.5056513E-005  0.7527966E+03  0.7818608E-02  0.9630973E-01
          2   -1    0    0  501    0  0.00000000000E+00  0.00000000000E+00  0.69331589907E+03  0.69331589907E+03  0.25500000000E-02 0.  1.
         -2   -1    0    0    0  501 -0.00000000000E+00 -0.00000000000E+00 -0.20434507730E+03  0.20434507732E+03  0.25500000000E-02 0. -1.
    5000001    1    1    2    0    0 -0.14682581457E+03 -0.36951383651E+02 -0.90992680047E+02  0.26609000808E+03  0.19900000000E+03 0.  0.
   -5000001    1    1    2    0    0  0.14682581457E+03  0.36951383651E+02  0.57996350181E+03  0.63157096831E+03  0.19900000000E+03 0.  0.
<mgrwt>
<rscale>  0 0.75279663E+03</rscale>
<asrwt>0</asrwt>
<pdfrwt beam="1">  1        2 0.99045128E-01 0.75279663E+03</pdfrwt>
<pdfrwt beam="2">  1       -2 0.29192154E-01 0.75279663E+03</pdfrwt>
<totfact> 0.49305075E+02</totfact>
</mgrwt>
</event>
<event>
 4    1  0.5056513E-005  0.5176448E+03  0.7818608E-02  0.1009273E+00
         -2   -1    0    0    0  501 -0.00000000000E+00  0.00000000000E+00  0.34138786328E+03  0.34138786329E+03  0.25500000000E-02 0. -1.
          2   -1    0    0  501    0  0.00000000000E+00 -0.00000000000E+00 -0.19622561392E+03  0.19622561394E+03  0.25500000000E-02 0.  1.
    5000001    1    1    2    0    0  0.13132390771E+03 -0.99456673333E+02  0.56145206255E+02  0.26436883854E+03  0.19900000000E+03 0.  0.
   -5000001    1    1    2    0    0 -0.13132390771E+03  0.99456673333E+02  0.89017043106E+02  0.27324463868E+03  0.19900000000E+03 0.  0.
<mgrwt>
<rscale>  0 0.51764483E+03</rscale>
<asrwt>0</asrwt>
<pdfrwt beam="1">  1        2 0.28032231E-01 0.51764483E+03</pdfrwt>
<pdfrwt beam="2">  1       -2 0.48769694E-01 0.51764483E+03</pdfrwt>
<totfact> 0.76892958E+02</totfact>
</mgrwt>
</event>
<event>
 4    1  0.5056513E-005  0.9436017E+03  0.7818608E-02  0.9372661E-01
          2   -1    0    0  501    0  0.00000000000E+00  0.00000000000E+00  0.84239058144E+03  0.84239058144E+03  0.25500000000E-02 0.  1.
         -2   -1    0    0    0  501 -0.00000000000E+00 -0.00000000000E+00 -0.26424326543E+03  0.26424326544E+03  0.25500000000E-02 0. -1.
    5000001    1    1    2    0    0  0.39054216863E+03  0.15731464609E+03  0.20034511884E+03  0.50696178356E+03  0.19900000000E+03 0.  0.
   -5000001    1    1    2    0    0 -0.39054216863E+03 -0.15731464609E+03  0.37780219717E+03  0.59967206333E+03  0.19900000000E+03 0.  0.
<mgrwt>
<rscale>  0 0.94360169E+03</rscale>
<asrwt>0</asrwt>
<pdfrwt beam="1">  1        2 0.12034151E+00 0.94360169E+03</pdfrwt>
<pdfrwt beam="2">  1       -2 0.37749038E-01 0.94360169E+03</pdfrwt>
<totfact> 0.23505231E+02</totfact>
</mgrwt>
</event>
<event>
 4    1  0.5056513E-005  0.5261544E+03  0.7818608E-02  0.1007169E+00
         -2   -1    0    0    0  501 -0.00000000000E+00  0.00000000000E+00  0.83932258021E+02  0.83932258060E+02  0.25500000000E-02 0. -1.
          2   -1    0    0  501    0  0.00000000000E+00 -0.00000000000E+00 -0.82458885982E+03  0.82458885983E+03  0.25500000000E-02 0.  1.
    5000001    1    1    2    0    0 -0.15731488096E+03 -0.68842523582E+01 -0.49012383170E+03  0.55192185597E+03  0.19900000000E+03 0.  0.
   -5000001    1    1    2    0    0  0.15731488096E+03  0.68842523582E+01 -0.25053277011E+03  0.35659926192E+03  0.19900000000E+03 0.  0.
<mgrwt>
<rscale>  0 0.52615437E+03</rscale>
<asrwt>0</asrwt>
<pdfrwt beam="1">  1        2 0.11779840E+00 0.52615437E+03</pdfrwt>
<pdfrwt beam="2">  1       -2 0.11990323E-01 0.52615437E+03</pdfrwt>
<totfact> 0.18627168E+03</totfact>
</mgrwt>
</event>
<event>
 4    1  0.5056513E-005  0.4991677E+03  0.7818608E-02  0.1013996E+00
          2   -1    0    0  501    0  0.00000000000E+00  0.00000000000E+00  0.34834663456E+04  0.34834663456E+04  0.25500000000E-02 0.  1.
         -2   -1    0    0    0  501 -0.00000000000E+00 -0.00000000000E+00 -0.17882215093E+02  0.17882215274E+02  0.25500000000E-02 0. -1.
    5000001    1    1    2    0    0 -0.13111834621E+03 -0.73946322797E+02  0.17718561505E+04  0.17893393467E+04  0.19900000000E+03 0.  0.
   -5000001    1    1    2    0    0  0.13111834621E+03  0.73946322797E+02  0.16937279800E+04  0.17120092142E+04  0.19900000000E+03 0.  0.
<mgrwt>
<rscale>  0 0.49916769E+03</rscale>
<asrwt>0</asrwt>
<pdfrwt beam="1">  1        2 0.49763811E+00 0.49916769E+03</pdfrwt>
<pdfrwt beam="2">  1       -2 0.25546018E-02 0.49916769E+03</pdfrwt>
<totfact> 0.77847061E+02</totfact>
</mgrwt>
</event>
<event>
 4    1  0.5056513E-005  0.5230774E+03  0.7818608E-02  0.1007925E+00
         -2   -1    0    0    0  501 -0.00000000000E+00  0.00000000000E+00  0.88773534881E+03  0.88773534882E+03  0.25500000000E-02 0. -1.
          2   -1    0    0  501    0  0.00000000000E+00 -0.00000000000E+00 -0.77052794239E+02  0.77052794282E+02  0.25500000000E-02 0.  1.
    5000001    1    1    2    0    0 -0.15502130878E+03  0.55013024134E+02  0.48235547247E+03  0.54710679106E+03  0.19900000000E+03 0.  0.
   -5000001    1    1    2    0    0  0.15502130878E+03 -0.55013024134E+02  0.32832708211E+03  0.41768135204E+03  0.19900000000E+03 0.  0.
<mgrwt>
<rscale>  0 0.52307739E+03</rscale>
<asrwt>0</asrwt>
<pdfrwt beam="1">  1        2 0.11007542E-01 0.52307739E+03</pdfrwt>
<pdfrwt beam="2">  1       -2 0.12681934E+00 0.52307739E+03</pdfrwt>
<totfact> 0.27584708E+02</totfact>
</mgrwt>
</event>
<event>
 4    1  0.5056513E-005  0.5606183E+03  0.7818608E-02  0.9990657E-01
         -2   -1    0    0    0  501 -0.00000000000E+00  0.00000000000E+00  0.58683209859E+02  0.58683209914E+02  0.25500000000E-02 0. -1.
          2   -1    0    0  501    0  0.00000000000E+00 -0.00000000000E+00 -0.13389387624E+04  0.13389387624E+04  0.25500000000E-02 0.  1.
    5000001    1    1    2    0    0 -0.10518877556E+03 -0.54363438849E+02 -0.10339285188E+04  0.10595419973E+04  0.19900000000E+03 0.  0.
   -5000001    1    1    2    0    0  0.10518877556E+03  0.54363438849E+02 -0.24632703380E+03  0.33807997511E+03  0.19900000000E+03 0.  0.
<mgrwt>
<rscale>  0 0.56061832E+03</rscale>
<asrwt>0</asrwt>
<pdfrwt beam="1">  1        2 0.19127695E+00 0.56061832E+03</pdfrwt>
<pdfrwt beam="2">  1       -2 0.83833166E-02 0.56061832E+03</pdfrwt>
<totfact> 0.16485101E+03</totfact>
</mgrwt>
</event>
<event>
 4    1  0.5056513E-005  0.4128564E+03  0.7818608E-02  0.1039417E+00
          2   -1    0    0  501    0  0.00000000000E+00  0.00000000000E+00  0.19910246075E+03  0.19910246076E+03  0.25500000000E-02 0.  1.
         -2   -1    0    0    0  501 -0.00000000000E+00 -0.00000000000E+00 -0.21402345536E+03  0.21402345538E+03  0.25500000000E-02 0. -1.
    5000001    1    1    2    0    0  0.52117458896E+02  0.15658561929E+02 -0.37233233626E+00  0.20630695266E+03  0.19900000000E+03 0.  0.
   -5000001    1    1    2    0    0 -0.52117458896E+02 -0.15658561929E+02 -0.14548662279E+02  0.20681896349E+03  0.19900000000E+03 0.  0.
<mgrwt>
<rscale>  0 0.41285638E+03</rscale>
<asrwt>0</asrwt>
<pdfrwt beam="1">  1        2 0.28443209E-01 0.41285638E+03</pdfrwt>
<pdfrwt beam="2">  1       -2 0.30574779E-01 0.41285638E+03</pdfrwt>
<totfact> 0.18527133E+03</totfact>
</mgrwt>
</event>
<event>
 4    1  0.5056513E-005  0.5255784E+03  0.7818608E-02  0.1007310E+00
         -2   -1    0    0    0  501 -0.00000000000E+00  0.00000000000E+00  0.73570615898E+02  0.73570615942E+02  0.25500000000E-02 0. -1.
          2   -1    0    0  501    0  0.00000000000E+00 -0.00000000000E+00 -0.93866517252E+03  0.93866517252E+03  0.25500000000E-02 0.  1.
    5000001    1    1    2    0    0 -0.53150664560E+02  0.15717051885E+03 -0.34794561790E+03  0.43381415163E+03  0.19900000000E+03 0.  0.
   -5000001    1    1    2    0    0  0.53150664560E+02 -0.15717051885E+03 -0.51714893872E+03  0.57842163683E+03  0.19900000000E+03 0.  0.
<mgrwt>
<rscale>  0 0.52557844E+03</rscale>
<asrwt>0</asrwt>
<pdfrwt beam="1">  1        2 0.13409502E+00 0.52557844E+03</pdfrwt>
<pdfrwt beam="2">  1       -2 0.10510089E-01 0.52557844E+03</pdfrwt>
<totfact> 0.19465771E+03</totfact>
</mgrwt>
</event>
<event>
 4    1  0.5056513E-005  0.6153396E+03  0.7818608E-02  0.9874083E-01
         -2   -1    0    0    0  501 -0.00000000000E+00  0.00000000000E+00  0.93201765130E+02  0.93201765165E+02  0.25500000000E-02 0. -1.
          2   -1    0    0  501    0  0.00000000000E+00 -0.00000000000E+00 -0.10156535736E+04  0.10156535736E+04  0.25500000000E-02 0.  1.
    5000001    1    1    2    0    0  0.14643568025E+03 -0.15257173199E+03 -0.64444964060E+03  0.70685067809E+03  0.19900000000E+03 0.  0.
   -5000001    1    1    2    0    0 -0.14643568025E+03  0.15257173199E+03 -0.27800216784E+03  0.40200466064E+03  0.19900000000E+03 0.  0.
<mgrwt>
<rscale>  0 0.61533960E+03</rscale>
<asrwt>0</asrwt>
<pdfrwt beam="1">  1        2 0.14509336E+00 0.61533960E+03</pdfrwt>
<pdfrwt beam="2">  1       -2 0.13314538E-01 0.61533960E+03</pdfrwt>
<totfact> 0.11818191E+03</totfact>
</mgrwt>
</event>
<event>
 4    1  0.5056513E-005  0.6501171E+03  0.7818608E-02  0.9806560E-01
         -2   -1    0    0    0  501 -0.00000000000E+00  0.00000000000E+00  0.40901666538E+02  0.40901666617E+02  0.25500000000E-02 0. -1.
          2   -1    0    0  501    0  0.00000000000E+00 -0.00000000000E+00 -0.25833435189E+04  0.25833435189E+04  0.25500000000E-02 0.  1.
    5000001    1    1    2    0    0 -0.11701622228E+03 -0.18294865618E+03 -0.71629783406E+03  0.77449763986E+03  0.19900000000E+03 0.  0.
   -5000001    1    1    2    0    0  0.11701622228E+03  0.18294865618E+03 -0.18261440183E+04  0.18497475457E+04  0.19900000000E+03 0.  0.
<mgrwt>
<rscale>  0 0.65011708E+03</rscale>
<asrwt>0</asrwt>
<pdfrwt beam="1">  1        2 0.36904897E+00 0.65011708E+03</pdfrwt>
<pdfrwt beam="2">  1       -2 0.58430968E-02 0.65011708E+03</pdfrwt>
<totfact> 0.67217779E+02</totfact>
</mgrwt>
</event>
<event>
 4    1  0.5056513E-005  0.5965585E+03  0.7818608E-02  0.9912572E-01
         -2   -1    0    0    0  501 -0.00000000000E+00  0.00000000000E+00  0.10285781258E+03  0.10285781261E+03  0.25500000000E-02 0. -1.
          2   -1    0    0  501    0  0.00000000000E+00 -0.00000000000E+00 -0.86498554211E+03  0.86498554211E+03  0.25500000000E-02 0.  1.
    5000001    1    1    2    0    0 -0.17155105334E+03  0.13083718663E+03 -0.29488845076E+03  0.41606289392E+03  0.19900000000E+03 0.  0.
   -5000001    1    1    2    0    0  0.17155105334E+03 -0.13083718663E+03 -0.46723927877E+03  0.55178046081E+03  0.19900000000E+03 0.  0.
<mgrwt>
<rscale>  0 0.59655853E+03</rscale>
<asrwt>0</asrwt>
<pdfrwt beam="1">  1        2 0.12356936E+00 0.59655853E+03</pdfrwt>
<pdfrwt beam="2">  1       -2 0.14693974E-01 0.59655853E+03</pdfrwt>
<totfact> 0.12480079E+03</totfact>
</mgrwt>
</event>
<event>
 4    1  0.5056513E-005  0.7351057E+03  0.7818608E-02  0.9659011E-01
          2   -1    0    0  501    0  0.00000000000E+00  0.00000000000E+00  0.91625269133E+03  0.91625269134E+03  0.25500000000E-02 0.  1.
         -2   -1    0    0    0  501 -0.00000000000E+00 -0.00000000000E+00 -0.14744306656E+03  0.14744306659E+03  0.25500000000E-02 0. -1.
    5000001    1    1    2    0    0  0.20459230760E+03 -0.21079640015E+03  0.24560640746E+03  0.43152826330E+03  0.19900000000E+03 0.  0.
   -5000001    1    1    2    0    0 -0.20459230760E+03  0.21079640015E+03  0.52320321731E+03  0.63216749462E+03  0.19900000000E+03 0.  0.
<mgrwt>
<rscale>  0 0.73510572E+03</rscale>
<asrwt>0</asrwt>
<pdfrwt beam="1">  1        2 0.13089324E+00 0.73510572E+03</pdfrwt>
<pdfrwt beam="2">  1       -2 0.21063295E-01 0.73510572E+03</pdfrwt>
<totfact> 0.62021550E+02</totfact>
</mgrwt>
</event>
<event>
 4    1  0.5056513E-005  0.5286943E+03  0.7818608E-02  0.1006549E+00
          2   -1    0    0  501    0  0.00000000000E+00  0.00000000000E+00  0.80068797363E+03  0.80068797363E+03  0.25500000000E-02 0.  1.
         -2   -1    0    0    0  501 -0.00000000000E+00 -0.00000000000E+00 -0.87274204715E+02  0.87274204753E+02  0.25500000000E-02 0. -1.
    5000001    1    1    2    0    0  0.83822950430E+02 -0.15211893646E+03  0.37447734201E+03  0.45825837421E+03  0.19900000000E+03 0.  0.
   -5000001    1    1    2    0    0 -0.83822950430E+02  0.15211893646E+03  0.33893642690E+03  0.42970380418E+03  0.19900000000E+03 0.  0.
<mgrwt>
<rscale>  0 0.52869426E+03</rscale>
<asrwt>0</asrwt>
<pdfrwt beam="1">  1        2 0.11438400E+00 0.52869426E+03</pdfrwt>
<pdfrwt beam="2">  1       -2 0.12467743E-01 0.52869426E+03</pdfrwt>
<totfact> 0.18138284E+03</totfact>
</mgrwt>
</event>
<event>
 4    1  0.5056513E-005  0.8239888E+03  0.7818608E-02  0.9525929E-01
          2   -1    0    0  501    0  0.00000000000E+00  0.00000000000E+00  0.82785992854E+03  0.82785992854E+03  0.25500000000E-02 0.  1.
         -2   -1    0    0    0  501 -0.00000000000E+00 -0.00000000000E+00 -0.20503393978E+03  0.20503393980E+03  0.25500000000E-02 0. -1.
    5000001    1    1    2    0    0  0.39756571624E+02 -0.29441395487E+03  0.56793729147E+03  0.67112884668E+03  0.19900000000E+03 0.  0.
   -5000001    1    1    2    0    0 -0.39756571624E+02  0.29441395487E+03  0.54888697289E+02  0.36176502166E+03  0.19900000000E+03 0.  0.
<mgrwt>
<rscale>  0 0.82398879E+03</rscale>
<asrwt>0</asrwt>
<pdfrwt beam="1">  1        2 0.11826571E+00 0.82398879E+03</pdfrwt>
<pdfrwt beam="2">  1       -2 0.29290562E-01 0.82398879E+03</pdfrwt>
<totfact> 0.39048004E+02</totfact>
</mgrwt>
</event>
<event>
 4    1  0.5056513E-005  0.7683538E+03  0.7818608E-02  0.9606988E-01
         -2   -1    0    0    0  501 -0.00000000000E+00  0.00000000000E+00  0.97042686557E+02  0.97042686590E+02  0.25500000000E-02 0. -1.
          2   -1    0    0  501    0  0.00000000000E+00 -0.00000000000E+00 -0.15208966270E+04  0.15208966270E+04  0.25500000000E-02 0.  1.
    5000001    1    1    2    0    0 -0.21700397845E+03 -0.94035499659E+02 -0.23148316038E+03  0.38615910633E+03  0.19900000000E+03 0.  0.
   -5000001    1    1    2    0    0  0.21700397845E+03  0.94035499659E+02 -0.11923707800E+04  0.12317802072E+04  0.19900000000E+03 0.  0.
<mgrwt>
<rscale>  0 0.76835381E+03</rscale>
<asrwt>0</asrwt>
<pdfrwt beam="1">  1        2 0.21727093E+00 0.76835381E+03</pdfrwt>
<pdfrwt beam="2">  1       -2 0.13863242E-01 0.76835381E+03</pdfrwt>
<totfact> 0.57535823E+02</totfact>
</mgrwt>
</event>
<event>
 4    1  0.5056513E-005  0.7688809E+03  0.7818608E-02  0.9606186E-01
          2   -1    0    0  501    0  0.00000000000E+00  0.00000000000E+00  0.15412998591E+04  0.15412998591E+04  0.25500000000E-02 0.  1.
         -2   -1    0    0    0  501 -0.00000000000E+00 -0.00000000000E+00 -0.95889490358E+02  0.95889490392E+02  0.25500000000E-02 0. -1.
    5000001    1    1    2    0    0  0.13695016400E+03  0.21278459776E+03  0.11701695261E+04  0.12136434205E+04  0.19900000000E+03 0.  0.
   -5000001    1    1    2    0    0 -0.13695016400E+03 -0.21278459776E+03  0.27524084267E+03  0.42354592896E+03  0.19900000000E+03 0.  0.
<mgrwt>
<rscale>  0 0.76888090E+03</rscale>
<asrwt>0</asrwt>
<pdfrwt beam="1">  1        2 0.22018569E+00 0.76888090E+03</pdfrwt>
<pdfrwt beam="2">  1       -2 0.13698499E-01 0.76888090E+03</pdfrwt>
<totfact> 0.57273994E+02</totfact>
</mgrwt>
</event>
<event>
 4    1  0.5056513E-005  0.4623169E+03  0.7818608E-02  0.1024111E+00
          2   -1    0    0  501    0  0.00000000000E+00  0.00000000000E+00  0.56033699246E+03  0.56033699246E+03  0.25500000000E-02 0. -1.
         -2   -1    0    0    0  501 -0.00000000000E+00 -0.00000000000E+00 -0.95360875016E+02  0.95360875050E+02  0.25500000000E-02 0.  1.
    5000001    1    1    2    0    0 -0.69677103878E+02  0.93345582795E+02  0.20940310553E+03  0.31147866257E+03  0.19900000000E+03 0.  0.
   -5000001    1    1    2    0    0  0.69677103878E+02 -0.93345582795E+02  0.25557301191E+03  0.34421920494E+03  0.19900000000E+03 0.  0.
<mgrwt>
<rscale>  0 0.46231689E+03</rscale>
<asrwt>0</asrwt>
<pdfrwt beam="1">  1        2 0.80048141E-01 0.46231689E+03</pdfrwt>
<pdfrwt beam="2">  1       -2 0.13622982E-01 0.46231689E+03</pdfrwt>
<totfact> 0.24067228E+03</totfact>
</mgrwt>
</event>
<event>
 4    1  0.5056513E-005  0.7668142E+03  0.7818608E-02  0.9609335E-01
          2   -1    0    0  501    0  0.00000000000E+00  0.00000000000E+00  0.32104525445E+04  0.32104525445E+04  0.25500000000E-02 0.  1.
         -2   -1    0    0    0  501 -0.00000000000E+00 -0.00000000000E+00 -0.45788255315E+02  0.45788255386E+02  0.25500000000E-02 0. -1.
    5000001    1    1    2    0    0  0.91356440114E+02 -0.26886843273E+03  0.22770366733E+04  0.23032874864E+04  0.19900000000E+03 0.  0.
   -5000001    1    1    2    0    0 -0.91356440114E+02  0.26886843273E+03  0.88762761581E+03  0.95295331345E+03  0.19900000000E+03 0.  0.
<mgrwt>
<rscale>  0 0.76681424E+03</rscale>
<asrwt>0</asrwt>
<pdfrwt beam="1">  1        2 0.45863613E+00 0.76681424E+03</pdfrwt>
<pdfrwt beam="2">  1       -2 0.65411786E-02 0.76681424E+03</pdfrwt>
<totfact> 0.25528354E+02</totfact>
</mgrwt>
</event>
<event>
 4    1  0.5056513E-005  0.5053457E+03  0.7818608E-02  0.1012393E+00
         -2   -1    0    0    0  501 -0.00000000000E+00  0.00000000000E+00  0.14462620010E+03  0.14462620012E+03  0.25500000000E-02 0. -1.
          2   -1    0    0  501    0  0.00000000000E+00 -0.00000000000E+00 -0.44143844416E+03  0.44143844417E+03  0.25500000000E-02 0.  1.
    5000001    1    1    2    0    0  0.54322922750E+02  0.14591587544E+03 -0.14796891057E+03  0.29281089654E+03  0.19900000000E+03 0.  0.
   -5000001    1    1    2    0    0 -0.54322922750E+02 -0.14591587544E+03 -0.14884333350E+03  0.29325374775E+03  0.19900000000E+03 0.  0.
<mgrwt>
<rscale>  0 0.50534568E+03</rscale>
<asrwt>0</asrwt>
<pdfrwt beam="1">  1        2 0.63062634E-01 0.50534568E+03</pdfrwt>
<pdfrwt beam="2">  1       -2 0.20660886E-01 0.50534568E+03</pdfrwt>
<totfact> 0.15548708E+03</totfact>
</mgrwt>
</event>
<event>
 4    1  0.5056513E-005  0.7994102E+03  0.7818608E-02  0.9560871E-01
          2   -1    0    0  501    0  0.00000000000E+00  0.00000000000E+00  0.15127272790E+04  0.15127272790E+04  0.25500000000E-02 0.  1.
         -2   -1    0    0    0  501 -0.00000000000E+00 -0.00000000000E+00 -0.10561333096E+03  0.10561333099E+03  0.25500000000E-02 0. -1.
    5000001    1    1    2    0    0  0.21225897763E+03  0.27359969973E+03  0.73572532553E+03  0.83714002646E+03  0.19900000000E+03 0.  0.
   -5000001    1    1    2    0    0 -0.21225897763E+03 -0.27359969973E+03  0.67138862246E+03  0.78120058349E+03  0.19900000000E+03 0.  0.
<mgrwt>
<rscale>  0 0.79941020E+03</rscale>
<asrwt>0</asrwt>
<pdfrwt beam="1">  1        2 0.21610388E+00 0.79941020E+03</pdfrwt>
<pdfrwt beam="2">  1       -2 0.15087620E-01 0.79941020E+03</pdfrwt>
<totfact> 0.50302213E+02</totfact>
</mgrwt>
</event>
<event>
 4    1  0.5056513E-005  0.7164013E+03  0.7818608E-02  0.9689588E-01
          2   -1    0    0  501    0  0.00000000000E+00  0.00000000000E+00  0.11608823059E+04  0.11608823059E+04  0.25500000000E-02 0.  1.
         -2   -1    0    0    0  501 -0.00000000000E+00 -0.00000000000E+00 -0.11052603899E+03  0.11052603902E+03  0.25500000000E-02 0. -1.
    5000001    1    1    2    0    0  0.32563978375E+02 -0.22796448138E+03  0.18995653657E+03  0.35876552683E+03  0.19900000000E+03 0.  0.
   -5000001    1    1    2    0    0 -0.32563978375E+02  0.22796448138E+03  0.86039973032E+03  0.91264281808E+03  0.19900000000E+03 0.  0.
<mgrwt>
<rscale>  0 0.71640135E+03</rscale>
<asrwt>0</asrwt>
<pdfrwt beam="1">  1        2 0.16584033E+00 0.71640135E+03</pdfrwt>
<pdfrwt beam="2">  1       -2 0.15789434E-01 0.71640135E+03</pdfrwt>
<totfact> 0.72683812E+02</totfact>
</mgrwt>
</event>
<event>
 4    1  0.5056513E-005  0.5721111E+03  0.7818608E-02  0.9965018E-01
         -2   -1    0    0    0  501 -0.00000000000E+00  0.00000000000E+00  0.50950410225E+03  0.50950410226E+03  0.25500000000E-02 0. -1.
          2   -1    0    0  501    0  0.00000000000E+00 -0.00000000000E+00 -0.16060278781E+03  0.16060278783E+03  0.25500000000E-02 0.  1.
    5000001    1    1    2    0    0 -0.14587950265E+03 -0.79873723073E+02  0.31581371149E+03  0.40865626301E+03  0.19900000000E+03 0.  0.
   -5000001    1    1    2    0    0  0.14587950265E+03  0.79873723073E+02  0.33087602948E+02  0.26145062708E+03  0.19900000000E+03 0.  0.
<mgrwt>
<rscale>  0 0.57211111E+03</rscale>
<asrwt>0</asrwt>
<pdfrwt beam="1">  1        2 0.22943255E-01 0.57211111E+03</pdfrwt>
<pdfrwt beam="2">  1       -2 0.72786300E-01 0.57211111E+03</pdfrwt>
<totfact> 0.41684599E+02</totfact>
</mgrwt>
</event>
<event>
 4    1  0.5056513E-005  0.4440552E+03  0.7818608E-02  0.1029510E+00
          2   -1    0    0  501    0  0.00000000000E+00  0.00000000000E+00  0.32124166317E+04  0.32124166317E+04  0.25500000000E-02 0.  1.
         -2   -1    0    0    0  501 -0.00000000000E+00 -0.00000000000E+00 -0.15345535309E+02  0.15345535521E+02  0.25500000000E-02 0. -1.
    5000001    1    1    2    0    0 -0.85685872683E+02  0.45589859480E+02  0.17190204803E+04  0.17332203887E+04  0.19900000000E+03 0.  0.
   -5000001    1    1    2    0    0  0.85685872683E+02 -0.45589859480E+02  0.14780506160E+04  0.14945417785E+04  0.19900000000E+03 0.  0.
<mgrwt>
<rscale>  0 0.44405519E+03</rscale>
<asrwt>0</asrwt>
<pdfrwt beam="1">  1        2 0.45891664E+00 0.44405519E+03</pdfrwt>
<pdfrwt beam="2">  1       -2 0.21922194E-02 0.44405519E+03</pdfrwt>
<totfact> 0.14087375E+03</totfact>
</mgrwt>
</event>
<event>
 4    1  0.5056513E-005  0.4249150E+03  0.7818608E-02  0.1035478E+00
          2   -1    0    0  501    0  0.00000000000E+00  0.00000000000E+00  0.15435491710E+04  0.15435491710E+04  0.25500000000E-02 0. -1.
         -2   -1    0    0    0  501 -0.00000000000E+00 -0.00000000000E+00 -0.29243123726E+02  0.29243123837E+02  0.25500000000E-02 0.  1.
    5000001    1    1    2    0    0 -0.37491540719E+02  0.59711580354E+02  0.66908463181E+03  0.70160268883E+03  0.19900000000E+03 0.  0.
   -5000001    1    1    2    0    0  0.37491540719E+02 -0.59711580354E+02  0.84522141547E+03  0.87118960602E+03  0.19900000000E+03 0.  0.
<mgrwt>
<rscale>  0 0.42491505E+03</rscale>
<asrwt>0</asrwt>
<pdfrwt beam="1">  1        2 0.22050708E+00 0.42491505E+03</pdfrwt>
<pdfrwt beam="2">  1       -2 0.41775881E-02 0.42491505E+03</pdfrwt>
<totfact> 0.38233087E+03</totfact>
</mgrwt>
</event>
<event>
 4    1  0.5056513E-005  0.6547174E+03  0.7818608E-02  0.9797967E-01
          2   -1    0    0  501    0  0.00000000000E+00  0.00000000000E+00  0.14553018058E+04  0.14553018058E+04  0.25500000000E-02 0.  1.
         -2   -1    0    0    0  501 -0.00000000000E+00 -0.00000000000E+00 -0.73636757654E+02  0.73636757699E+02  0.25500000000E-02 0. -1.
    5000001    1    1    2    0    0 -0.24489665842E+03 -0.16266213777E+02  0.49098317589E+03  0.58387022703E+03  0.19900000000E+03 0.  0.
   -5000001    1    1    2    0    0  0.24489665842E+03  0.16266213777E+02  0.89068187223E+03  0.94506833644E+03  0.19900000000E+03 0.  0.
<mgrwt>
<rscale>  0 0.65471736E+03</rscale>
<asrwt>0</asrwt>
<pdfrwt beam="1">  1        2 0.20790025E+00 0.65471736E+03</pdfrwt>
<pdfrwt beam="2">  1       -2 0.10519537E-01 0.65471736E+03</pdfrwt>
<totfact> 0.98812858E+02</totfact>
</mgrwt>
</event>
<event>
 4    1  0.5056513E-005  0.4390833E+03  0.7818608E-02  0.1031028E+00
          2   -1    0    0  501    0  0.00000000000E+00  0.00000000000E+00  0.15633361315E+04  0.15633361315E+04  0.25500000000E-02 0. -1.
         -2   -1    0    0    0  501 -0.00000000000E+00 -0.00000000000E+00 -0.30830567132E+02  0.30830567237E+02  0.25500000000E-02 0.  1.
    5000001    1    1    2    0    0  0.34677585099E+02 -0.83069336699E+02  0.68551709122E+03  0.71947045246E+03  0.19900000000E+03 0.  0.
   -5000001    1    1    2    0    0 -0.34677585099E+02  0.83069336699E+02  0.84698847313E+03  0.87469624626E+03  0.19900000000E+03 0.  0.
<mgrwt>
<rscale>  0 0.43908332E+03</rscale>
<asrwt>0</asrwt>
<pdfrwt beam="1">  1        2 0.22333370E+00 0.43908332E+03</pdfrwt>
<pdfrwt beam="2">  1       -2 0.44043674E-02 0.43908332E+03</pdfrwt>
<totfact> 0.34452286E+03</totfact>
</mgrwt>
</event>
<event>
 4    1  0.5056513E-005  0.1228507E+04  0.7818608E-02  0.9088264E-01
          2   -1    0    0  501    0  0.00000000000E+00  0.00000000000E+00  0.60613827321E+03  0.60613827322E+03  0.25500000000E-02 0.  1.
         -2   -1    0    0    0  501 -0.00000000000E+00 -0.00000000000E+00 -0.62247704975E+03  0.62247704976E+03  0.25500000000E-02 0. -1.
    5000001    1    1    2    0    0  0.26072252995E+03  0.19666156054E+03 -0.48889282892E+03  0.62070057612E+03  0.19900000000E+03 0.  0.
   -5000001    1    1    2    0    0 -0.26072252995E+03 -0.19666156054E+03  0.47255405238E+03  0.60791474685E+03  0.19900000000E+03 0.  0.
<mgrwt>
<rscale>  0 0.12285067E+04</rscale>
<asrwt>0</asrwt>
<pdfrwt beam="1">  1        2 0.86591182E-01 0.12285067E+04</pdfrwt>
<pdfrwt beam="2">  1       -2 0.88925293E-01 0.12285067E+04</pdfrwt>
<totfact> 0.57448878E+01</totfact>
</mgrwt>
</event>
<event>
 4    1  0.5056513E-005  0.7423761E+03  0.7818608E-02  0.9647388E-01
         -2   -1    0    0    0  501 -0.00000000000E+00  0.00000000000E+00  0.43296548939E+03  0.43296548940E+03  0.25500000000E-02 0. -1.
          2   -1    0    0  501    0  0.00000000000E+00 -0.00000000000E+00 -0.31822529553E+03  0.31822529554E+03  0.25500000000E-02 0.  1.
    5000001    1    1    2    0    0  0.30956163416E+03  0.48486731005E+02  0.56914874937E+02  0.37552585985E+03  0.19900000000E+03 0.  0.
   -5000001    1    1    2    0    0 -0.30956163416E+03 -0.48486731005E+02  0.57825318926E+02  0.37566492508E+03  0.19900000000E+03 0.  0.
<mgrwt>
<rscale>  0 0.74237611E+03</rscale>
<asrwt>0</asrwt>
<pdfrwt beam="1">  1        2 0.45460757E-01 0.74237611E+03</pdfrwt>
<pdfrwt beam="2">  1       -2 0.61852213E-01 0.74237611E+03</pdfrwt>
<totfact> 0.27341831E+02</totfact>
</mgrwt>
</event>
<event>
 4    1  0.5056513E-005  0.5305319E+03  0.7818608E-02  0.1006103E+00
          2   -1    0    0  501    0  0.00000000000E+00  0.00000000000E+00  0.78172688292E+03  0.78172688292E+03  0.25500000000E-02 0.  1.
         -2   -1    0    0    0  501 -0.00000000000E+00 -0.00000000000E+00 -0.90013576623E+02  0.90013576659E+02  0.25500000000E-02 0. -1.
    5000001    1    1    2    0    0 -0.17081404096E+03 -0.32816652403E+02  0.38298820098E+03  0.46533356998E+03  0.19900000000E+03 0.  0.
   -5000001    1    1    2    0    0  0.17081404096E+03  0.32816652403E+02  0.30872510532E+03  0.40640688961E+03  0.19900000000E+03 0.  0.
<mgrwt>
<rscale>  0 0.53053193E+03</rscale>
<asrwt>0</asrwt>
<pdfrwt beam="1">  1        2 0.11167527E+00 0.53053193E+03</pdfrwt>
<pdfrwt beam="2">  1       -2 0.12859082E-01 0.53053193E+03</pdfrwt>
<totfact> 0.17767863E+03</totfact>
</mgrwt>
</event>
<event>
 4    1  0.5056513E-005  0.4743984E+03  0.7818608E-02  0.1020686E+00
          2   -1    0    0  501    0  0.00000000000E+00  0.00000000000E+00  0.39117590847E+03  0.39117590848E+03  0.25500000000E-02 0.  1.
         -2   -1    0    0    0  501 -0.00000000000E+00 -0.00000000000E+00 -0.14383157918E+03  0.14383157921E+03  0.25500000000E-02 0. -1.
    5000001    1    1    2    0    0 -0.78203485141E+02 -0.46960386277E+02  0.20672504513E+02  0.21988500497E+03  0.19900000000E+03 0.  0.
   -5000001    1    1    2    0    0  0.78203485141E+02  0.46960386277E+02  0.22667182477E+03  0.31512248272E+03  0.19900000000E+03 0.  0.
<mgrwt>
<rscale>  0 0.47439835E+03</rscale>
<asrwt>0</asrwt>
<pdfrwt beam="1">  1        2 0.55882272E-01 0.47439835E+03</pdfrwt>
<pdfrwt beam="2">  1       -2 0.20547369E-01 0.47439835E+03</pdfrwt>
<totfact> 0.17941524E+03</totfact>
</mgrwt>
</event>
<event>
 4    1  0.5056513E-005  0.4905335E+03  0.7818608E-02  0.1016280E+00
          2   -1    0    0  501    0  0.00000000000E+00  0.00000000000E+00  0.41217355921E+03  0.41217355922E+03  0.25500000000E-02 0.  1.
         -2   -1    0    0    0  501 -0.00000000000E+00 -0.00000000000E+00 -0.14594770929E+03  0.14594770932E+03  0.25500000000E-02 0. -1.
    5000001    1    1    2    0    0  0.57687336455E+02  0.87195975895E+02  0.21495085279E+02  0.22581852380E+03  0.19900000000E+03 0.  0.
   -5000001    1    1    2    0    0 -0.57687336455E+02 -0.87195975895E+02  0.24473076464E+03  0.33230274474E+03  0.19900000000E+03 0.  0.
<mgrwt>
<rscale>  0 0.49053353E+03</rscale>
<asrwt>0</asrwt>
<pdfrwt beam="1">  1        2 0.58881937E-01 0.49053353E+03</pdfrwt>
<pdfrwt beam="2">  1       -2 0.20849673E-01 0.49053353E+03</pdfrwt>
<totfact> 0.16513194E+03</totfact>
</mgrwt>
</event>
<event>
 4    1  0.5056513E-005  0.7879439E+03  0.7818608E-02  0.9577634E-01
         -2   -1    0    0    0  501 -0.00000000000E+00  0.00000000000E+00  0.66779485596E+03  0.66779485597E+03  0.25500000000E-02 0. -1.
          2   -1    0    0  501    0  0.00000000000E+00 -0.00000000000E+00 -0.23242748666E+03  0.23242748668E+03  0.25500000000E-02 0.  1.
    5000001    1    1    2    0    0 -0.27766166337E+03 -0.18902093390E+03  0.15735854354E+03  0.42093660328E+03  0.19900000000E+03 0.  0.
   -5000001    1    1    2    0    0  0.27766166337E+03  0.18902093390E+03  0.27800882576E+03  0.47928573936E+03  0.19900000000E+03 0.  0.
<mgrwt>
<rscale>  0 0.78794386E+03</rscale>
<asrwt>0</asrwt>
<pdfrwt beam="1">  1        2 0.33203927E-01 0.78794386E+03</pdfrwt>
<pdfrwt beam="2">  1       -2 0.95399265E-01 0.78794386E+03</pdfrwt>
<totfact> 0.14757945E+02</totfact>
</mgrwt>
</event>
<event>
 4    1  0.5056513E-005  0.6195426E+03  0.7818608E-02  0.9865671E-01
         -2   -1    0    0    0  501 -0.00000000000E+00  0.00000000000E+00  0.89175684742E+02  0.89175684778E+02  0.25500000000E-02 0. -1.
          2   -1    0    0  501    0  0.00000000000E+00 -0.00000000000E+00 -0.10760584352E+04  0.10760584352E+04  0.25500000000E-02 0.  1.
    5000001    1    1    2    0    0  0.21781513978E+03  0.90399870198E+02 -0.44222023985E+03  0.53923585951E+03  0.19900000000E+03 0.  0.
   -5000001    1    1    2    0    0 -0.21781513978E+03 -0.90399870198E+02 -0.54466251063E+03  0.62599826049E+03  0.19900000000E+03 0.  0.
<mgrwt>
<rscale>  0 0.61954257E+03</rscale>
<asrwt>0</asrwt>
<pdfrwt beam="1">  1        2 0.15372263E+00 0.61954257E+03</pdfrwt>
<pdfrwt beam="2">  1       -2 0.12739384E-01 0.61954257E+03</pdfrwt>
<totfact> 0.11703388E+03</totfact>
</mgrwt>
</event>
<event>
 4    1  0.5056513E-005  0.8730255E+03  0.7818608E-02  0.9459944E-01
          2   -1    0    0  501    0  0.00000000000E+00  0.00000000000E+00  0.17978448290E+04  0.17978448290E+04  0.25500000000E-02 0.  1.
         -2   -1    0    0    0  501 -0.00000000000E+00 -0.00000000000E+00 -0.10598433009E+03  0.10598433012E+03  0.25500000000E-02 0. -1.
    5000001    1    1    2    0    0 -0.24151398525E+03  0.28405691665E+03  0.60779097799E+03  0.74028927447E+03  0.19900000000E+03 0.  0.
   -5000001    1    1    2    0    0  0.24151398525E+03 -0.28405691665E+03  0.10840695209E+04  0.11635398846E+04  0.19900000000E+03 0.  0.
<mgrwt>
<rscale>  0 0.87302550E+03</rscale>
<asrwt>0</asrwt>
<pdfrwt beam="1">  1        2 0.25683494E+00 0.87302550E+03</pdfrwt>
<pdfrwt beam="2">  1       -2 0.15140621E-01 0.87302550E+03</pdfrwt>
<totfact> 0.35461648E+02</totfact>
</mgrwt>
</event>
<event>
 4    1  0.5056513E-005  0.1147985E+04  0.7818608E-02  0.9159644E-01
          2   -1    0    0  501    0  0.00000000000E+00  0.00000000000E+00  0.11424577179E+04  0.11424577179E+04  0.25500000000E-02 0.  1.
         -2   -1    0    0    0  501 -0.00000000000E+00 -0.00000000000E+00 -0.28838487240E+03  0.28838487241E+03  0.25500000000E-02 0. -1.
    5000001    1    1    2    0    0 -0.30064142040E+03 -0.43157054864E+03  0.28368413160E+03  0.62985402168E+03  0.19900000000E+03 0.  0.
   -5000001    1    1    2    0    0  0.30064142040E+03  0.43157054864E+03  0.57038871391E+03  0.80098856862E+03  0.19900000000E+03 0.  0.
<mgrwt>
<rscale>  0 0.11479852E+04</rscale>
<asrwt>0</asrwt>
<pdfrwt beam="1">  1        2 0.16320825E+00 0.11479852E+04</pdfrwt>
<pdfrwt beam="2">  1       -2 0.41197838E-01 0.11479852E+04</pdfrwt>
<totfact> 0.12734207E+02</totfact>
</mgrwt>
</event>
<event>
 4    1  0.5056513E-005  0.5947496E+03  0.7818608E-02  0.9916359E-01
          2   -1    0    0  501    0  0.00000000000E+00  0.00000000000E+00  0.62656771943E+03  0.62656771944E+03  0.25500000000E-02 0.  1.
         -2   -1    0    0    0  501 -0.00000000000E+00 -0.00000000000E+00 -0.14113682054E+03  0.14113682056E+03  0.25500000000E-02 0. -1.
    5000001    1    1    2    0    0 -0.79934692114E+02  0.13458367212E+03  0.44404949198E+03  0.51115875336E+03  0.19900000000E+03 0.  0.
   -5000001    1    1    2    0    0  0.79934692114E+02 -0.13458367212E+03  0.41381406921E+02  0.25654578664E+03  0.19900000000E+03 0.  0.
<mgrwt>
<rscale>  0 0.59474961E+03</rscale>
<asrwt>0</asrwt>
<pdfrwt beam="1">  1        2 0.89509675E-01 0.59474961E+03</pdfrwt>
<pdfrwt beam="2">  1       -2 0.20162403E-01 0.59474961E+03</pdfrwt>
<totfact> 0.10856959E+03</totfact>
</mgrwt>
</event>
<event>
 4    1  0.5056513E-005  0.5104717E+03  0.7818608E-02  0.1011081E+00
         -2   -1    0    0    0  501 -0.00000000000E+00  0.00000000000E+00  0.92983425487E+02  0.92983425522E+02  0.25500000000E-02 0. -1.
          2   -1    0    0  501    0  0.00000000000E+00 -0.00000000000E+00 -0.70061235228E+03  0.70061235228E+03  0.25500000000E-02 0.  1.
    5000001    1    1    2    0    0  0.14109217865E+03  0.11803835805E+02 -0.41908814810E+03  0.48505897507E+03  0.19900000000E+03 0.  0.
   -5000001    1    1    2    0    0 -0.14109217865E+03 -0.11803835805E+02 -0.18854077869E+03  0.30853680274E+03  0.19900000000E+03 0.  0.
<mgrwt>
<rscale>  0 0.51047169E+03</rscale>
<asrwt>0</asrwt>
<pdfrwt beam="1">  1        2 0.10008748E+00 0.51047169E+03</pdfrwt>
<pdfrwt beam="2">  1       -2 0.13283347E-01 0.51047169E+03</pdfrwt>
<totfact> 0.19286182E+03</totfact>
</mgrwt>
</event>
<event>
 4    1  0.5056513E-005  0.6059119E+03  0.7818608E-02  0.9893216E-01
          2   -1    0    0  501    0  0.00000000000E+00  0.00000000000E+00  0.19394893126E+04  0.19394893126E+04  0.25500000000E-02 0.  1.
         -2   -1    0    0    0  501 -0.00000000000E+00 -0.00000000000E+00 -0.47322924413E+02  0.47322924482E+02  0.25500000000E-02 0. -1.
    5000001    1    1    2    0    0  0.19586988917E+03 -0.97326112304E+02  0.11621998737E+04  0.11992276398E+04  0.19900000000E+03 0.  0.
   -5000001    1    1    2    0    0 -0.19586988917E+03  0.97326112304E+02  0.72996651453E+03  0.78758459733E+03  0.19900000000E+03 0.  0.
<mgrwt>
<rscale>  0 0.60591190E+03</rscale>
<asrwt>0</asrwt>
<pdfrwt beam="1">  1        2 0.27706991E+00 0.60591190E+03</pdfrwt>
<pdfrwt beam="2">  1       -2 0.67604176E-02 0.60591190E+03</pdfrwt>
<totfact> 0.11373538E+03</totfact>
</mgrwt>
</event>
<event>
 4    1  0.5056513E-005  0.7095873E+03  0.7818608E-02  0.9700976E-01
         -2   -1    0    0    0  501 -0.00000000000E+00  0.00000000000E+00  0.35979724136E+03  0.35979724137E+03  0.25500000000E-02 0.  1.
          2   -1    0    0  501    0  0.00000000000E+00 -0.00000000000E+00 -0.34985964977E+03  0.34985964978E+03  0.25500000000E-02 0. -1.
    5000001    1    1    2    0    0  0.16656914453E+03  0.95931333125E+02 -0.21715529430E+03  0.35171795864E+03  0.19900000000E+03 0.  0.
   -5000001    1    1    2    0    0 -0.16656914453E+03 -0.95931333125E+02  0.22709288589E+03  0.35793893251E+03  0.19900000000E+03 0.  0.
<mgrwt>
<rscale>  0 0.70958731E+03</rscale>
<asrwt>0</asrwt>
<pdfrwt beam="1">  1        2 0.49979950E-01 0.70958731E+03</pdfrwt>
<pdfrwt beam="2">  1       -2 0.51399606E-01 0.70958731E+03</pdfrwt>
<totfact> 0.36223477E+02</totfact>
</mgrwt>
</event>
<event>
 4    1  0.5056513E-005  0.5999975E+03  0.7818608E-02  0.9905411E-01
         -2   -1    0    0    0  501 -0.00000000000E+00  0.00000000000E+00  0.81238880878E+02  0.81238880918E+02  0.25500000000E-02 0. -1.
          2   -1    0    0  501    0  0.00000000000E+00 -0.00000000000E+00 -0.11078346951E+04  0.11078346951E+04  0.25500000000E-02 0.  1.
    5000001    1    1    2    0    0 -0.58943862407E+02 -0.21598437077E+03 -0.54613979743E+03  0.62289108652E+03  0.19900000000E+03 0.  0.
   -5000001    1    1    2    0    0  0.58943862407E+02  0.21598437077E+03 -0.48045601675E+03  0.56618248946E+03  0.19900000000E+03 0.  0.
<mgrwt>
<rscale>  0 0.59999750E+03</rscale>
<asrwt>0</asrwt>
<pdfrwt beam="1">  1        2 0.15826209E+00 0.59999750E+03</pdfrwt>
<pdfrwt beam="2">  1       -2 0.11605555E-01 0.59999750E+03</pdfrwt>
<totfact> 0.13083025E+03</totfact>
</mgrwt>
</event>
<event>
 4    1  0.5056513E-005  0.8370273E+03  0.7818608E-02  0.9507916E-01
          2   -1    0    0  501    0  0.00000000000E+00  0.00000000000E+00  0.21417357324E+04  0.21417357324E+04  0.25500000000E-02 0.  1.
         -2   -1    0    0    0  501 -0.00000000000E+00 -0.00000000000E+00 -0.81781189464E+02  0.81781189504E+02  0.25500000000E-02 0. -1.
    5000001    1    1    2    0    0 -0.22683562483E+03  0.28709612141E+03  0.11386681411E+04  0.12124540070E+04  0.19900000000E+03 0.  0.
   -5000001    1    1    2    0    0  0.22683562483E+03 -0.28709612141E+03  0.92128640184E+03  0.10110629149E+04  0.19900000000E+03 0.  0.
<mgrwt>
<rscale>  0 0.83702735E+03</rscale>
<asrwt>0</asrwt>
<pdfrwt beam="1">  1        2 0.30596224E+00 0.83702735E+03</pdfrwt>
<pdfrwt beam="2">  1       -2 0.11683027E-01 0.83702735E+03</pdfrwt>
<totfact> 0.36669184E+02</totfact>
</mgrwt>
</event>
<event>
 4    1  0.5056513E-005  0.5264663E+03  0.7818608E-02  0.1007093E+00
         -2   -1    0    0    0  501 -0.00000000000E+00  0.00000000000E+00  0.52971148017E+02  0.52971148079E+02  0.25500000000E-02 0. -1.
          2   -1    0    0  501    0  0.00000000000E+00 -0.00000000000E+00 -0.13081022892E+04  0.13081022892E+04  0.25500000000E-02 0.  1.
    5000001    1    1    2    0    0  0.25209242984E+02  0.16563383805E+03 -0.73164135912E+03  0.77651152768E+03  0.19900000000E+03 0.  0.
   -5000001    1    1    2    0    0 -0.25209242984E+02 -0.16563383805E+03 -0.52348978207E+03  0.58456190961E+03  0.19900000000E+03 0.  0.
<mgrwt>
<rscale>  0 0.52646626E+03</rscale>
<asrwt>0</asrwt>
<pdfrwt beam="1">  1        2 0.18687174E+00 0.52646626E+03</pdfrwt>
<pdfrwt beam="2">  1       -2 0.75673077E-02 0.52646626E+03</pdfrwt>
<totfact> 0.20171236E+03</totfact>
</mgrwt>
</event>
<event>
 4    1  0.5056513E-005  0.4888859E+03  0.7818608E-02  0.1016721E+00
         -2   -1    0    0    0  501 -0.00000000000E+00  0.00000000000E+00  0.17565098705E+03  0.17565098707E+03  0.25500000000E-02 0. -1.
          2   -1    0    0  501    0  0.00000000000E+00 -0.00000000000E+00 -0.34017661158E+03  0.34017661159E+03  0.25500000000E-02 0.  1.
    5000001    1    1    2    0    0 -0.11511242011E+03 -0.80671091885E+02 -0.61355067159E+02  0.25124517626E+03  0.19900000000E+03 0.  0.
   -5000001    1    1    2    0    0  0.11511242011E+03  0.80671091885E+02 -0.10317055737E+03  0.26458242239E+03  0.19900000000E+03 0.  0.
<mgrwt>
<rscale>  0 0.48888591E+03</rscale>
<asrwt>0</asrwt>
<pdfrwt beam="1">  1        2 0.48596659E-01 0.48888591E+03</pdfrwt>
<pdfrwt beam="2">  1       -2 0.25092998E-01 0.48888591E+03</pdfrwt>
<totfact> 0.14710245E+03</totfact>
</mgrwt>
</event>
<event>
 4    1  0.5056513E-005  0.6472930E+03  0.7818608E-02  0.9811872E-01
         -2   -1    0    0    0  501 -0.00000000000E+00  0.00000000000E+00  0.81099382653E+03  0.81099382653E+03  0.25500000000E-02 0. -1.
          2   -1    0    0  501    0  0.00000000000E+00 -0.00000000000E+00 -0.12915888457E+03  0.12915888460E+03  0.25500000000E-02 0.  1.
    5000001    1    1    2    0    0  0.23116994782E+03 -0.10771025806E+03  0.35580148980E+03  0.48087081905E+03  0.19900000000E+03 0.  0.
   -5000001    1    1    2    0    0 -0.23116994782E+03  0.10771025806E+03  0.32603345216E+03  0.45928189208E+03  0.19900000000E+03 0.  0.
<mgrwt>
<rscale>  0 0.64729300E+03</rscale>
<asrwt>0</asrwt>
<pdfrwt beam="1">  1        2 0.18451270E-01 0.64729300E+03</pdfrwt>
<pdfrwt beam="2">  1       -2 0.11585626E+00 0.64729300E+03</pdfrwt>
<totfact> 0.18317325E+02</totfact>
</mgrwt>
</event>
<event>
 4    1  0.5056513E-005  0.5254534E+03  0.7818608E-02  0.1007341E+00
         -2   -1    0    0    0  501 -0.00000000000E+00  0.00000000000E+00  0.65272324448E+02  0.65272324498E+02  0.25500000000E-02 0. -1.
          2   -1    0    0  501    0  0.00000000000E+00 -0.00000000000E+00 -0.10574976174E+04  0.10574976174E+04  0.25500000000E-02 0.  1.
    5000001    1    1    2    0    0  0.10503254888E+03  0.11233610819E+03 -0.33375949966E+03  0.41790865167E+03  0.19900000000E+03 0.  0.
   -5000001    1    1    2    0    0 -0.10503254888E+03 -0.11233610819E+03 -0.65846579328E+03  0.70486129021E+03  0.19900000000E+03 0.  0.
<mgrwt>
<rscale>  0 0.52545343E+03</rscale>
<asrwt>0</asrwt>
<pdfrwt beam="1">  1        2 0.15107108E+00 0.52545343E+03</pdfrwt>
<pdfrwt beam="2">  1       -2 0.93246184E-02 0.52545343E+03</pdfrwt>
<totfact> 0.19999123E+03</totfact>
</mgrwt>
</event>
<event>
 4    1  0.5056513E-005  0.1276452E+04  0.7818608E-02  0.9048450E-01
          2   -1    0    0  501    0  0.00000000000E+00  0.00000000000E+00  0.19901194416E+04  0.19901194416E+04  0.25500000000E-02 0.  1.
         -2   -1    0    0    0  501 -0.00000000000E+00 -0.00000000000E+00 -0.20467744909E+03  0.20467744911E+03  0.25500000000E-02 0. -1.
    5000001    1    1    2    0    0  0.19160552968E+03  0.48560494746E+03  0.36217433168E+03  0.66580484418E+03  0.19900000000E+03 0.  0.
   -5000001    1    1    2    0    0 -0.19160552968E+03 -0.48560494746E+03  0.14232676608E+04  0.15289920465E+04  0.19900000000E+03 0.  0.
<mgrwt>
<rscale>  0 0.12764522E+04</rscale>
<asrwt>0</asrwt>
<pdfrwt beam="1">  1        2 0.28430278E+00 0.12764522E+04</pdfrwt>
<pdfrwt beam="2">  1       -2 0.29239635E-01 0.12764522E+04</pdfrwt>
<totfact> 0.85778383E+01</totfact>
</mgrwt>
</event>
<event>
 4    1  0.5056513E-005  0.7357715E+03  0.7818608E-02  0.9657941E-01
         -2   -1    0    0    0  501 -0.00000000000E+00  0.00000000000E+00  0.21876092065E+03  0.21876092066E+03  0.25500000000E-02 0. -1.
          2   -1    0    0  501    0  0.00000000000E+00 -0.00000000000E+00 -0.61866594831E+03  0.61866594831E+03  0.25500000000E-02 0.  1.
    5000001    1    1    2    0    0  0.25091495525E+03  0.17933351916E+03 -0.22829494398E+03  0.43224808537E+03  0.19900000000E+03 0.  0.
   -5000001    1    1    2    0    0 -0.25091495525E+03 -0.17933351916E+03 -0.17161008368E+03  0.40517878360E+03  0.19900000000E+03 0.  0.
<mgrwt>
<rscale>  0 0.73577152E+03</rscale>
<asrwt>0</asrwt>
<pdfrwt beam="1">  1        2 0.88380849E-01 0.73577152E+03</pdfrwt>
<pdfrwt beam="2">  1       -2 0.31251560E-01 0.73577152E+03</pdfrwt>
<totfact> 0.49891837E+02</totfact>
</mgrwt>
</event>
<event>
 4    1  0.5056513E-005  0.5744513E+03  0.7818608E-02  0.9959877E-01
         -2   -1    0    0    0  501 -0.00000000000E+00  0.00000000000E+00  0.48387815515E+02  0.48387815583E+02  0.25500000000E-02 0. -1.
          2   -1    0    0  501    0  0.00000000000E+00 -0.00000000000E+00 -0.17049452399E+04  0.17049452399E+04  0.25500000000E-02 0.  1.
    5000001    1    1    2    0    0  0.19910158856E+03  0.50611101220E+02 -0.74783462774E+03  0.80066257349E+03  0.19900000000E+03 0.  0.
   -5000001    1    1    2    0    0 -0.19910158856E+03 -0.50611101220E+02 -0.90872279666E+03  0.95267048201E+03  0.19900000000E+03 0.  0.
<mgrwt>
<rscale>  0 0.57445131E+03</rscale>
<asrwt>0</asrwt>
<pdfrwt beam="1">  1        2 0.24356357E+00 0.57445131E+03</pdfrwt>
<pdfrwt beam="2">  1       -2 0.69125461E-02 0.57445131E+03</pdfrwt>
<totfact> 0.14441607E+03</totfact>
</mgrwt>
</event>
<event>
 4    1  0.5056513E-005  0.5762108E+03  0.7818608E-02  0.9956028E-01
         -2   -1    0    0    0  501 -0.00000000000E+00  0.00000000000E+00  0.37165127684E+03  0.37165127685E+03  0.25500000000E-02 0. -1.
          2   -1    0    0  501    0  0.00000000000E+00 -0.00000000000E+00 -0.22334034049E+03  0.22334034050E+03  0.25500000000E-02 0.  1.
    5000001    1    1    2    0    0 -0.14733217649E+03  0.11113870349E+02  0.22582176884E+03  0.33530099854E+03  0.19900000000E+03 0.  0.
   -5000001    1    1    2    0    0  0.14733217649E+03 -0.11113870349E+02 -0.77510832487E+02  0.25969061881E+03  0.19900000000E+03 0.  0.
<mgrwt>
<rscale>  0 0.57621080E+03</rscale>
<asrwt>0</asrwt>
<pdfrwt beam="1">  1        2 0.31905763E-01 0.57621080E+03</pdfrwt>
<pdfrwt beam="2">  1       -2 0.53093039E-01 0.57621080E+03</pdfrwt>
<totfact> 0.55941837E+02</totfact>
</mgrwt>
</event>
<event>
 4    1  0.5056513E-005  0.4756806E+03  0.7818608E-02  0.1020329E+00
         -2   -1    0    0    0  501 -0.00000000000E+00  0.00000000000E+00  0.16544947469E+02  0.16544947665E+02  0.25500000000E-02 0.  1.
          2   -1    0    0  501    0  0.00000000000E+00 -0.00000000000E+00 -0.34190503164E+04  0.34190503164E+04  0.25500000000E-02 0. -1.
    5000001    1    1    2    0    0 -0.10428018206E+03 -0.36889535172E+02 -0.12044311745E+04  0.12257612526E+04  0.19900000000E+03 0.  0.
   -5000001    1    1    2    0    0  0.10428018206E+03  0.36889535172E+02 -0.21980741944E+04  0.22098340115E+04  0.19900000000E+03 0.  0.
<mgrwt>
<rscale>  0 0.47568060E+03</rscale>
<asrwt>0</asrwt>
<pdfrwt beam="1">  1        2 0.48843531E+00 0.47568060E+03</pdfrwt>
<pdfrwt beam="2">  1       -2 0.23635661E-02 0.47568060E+03</pdfrwt>
<totfact> 0.95689482E+02</totfact>
</mgrwt>
</event>
<event>
 4    1  0.5056513E-005  0.5351332E+03  0.7818608E-02  0.1004995E+00
         -2   -1    0    0    0  501 -0.00000000000E+00  0.00000000000E+00  0.44667865040E+03  0.44667865040E+03  0.25500000000E-02 0. -1.
          2   -1    0    0  501    0  0.00000000000E+00 -0.00000000000E+00 -0.16027602840E+03  0.16027602842E+03  0.25500000000E-02 0.  1.
    5000001    1    1    2    0    0 -0.65111502451E+02  0.12530772972E+03  0.26770324772E+03  0.36222584629E+03  0.19900000000E+03 0.  0.
   -5000001    1    1    2    0    0  0.65111502451E+02 -0.12530772972E+03  0.18699374276E+02  0.24472883254E+03  0.19900000000E+03 0.  0.
<mgrwt>
<rscale>  0 0.53513318E+03</rscale>
<asrwt>0</asrwt>
<pdfrwt beam="1">  1        2 0.22896575E-01 0.53513318E+03</pdfrwt>
<pdfrwt beam="2">  1       -2 0.63811236E-01 0.53513318E+03</pdfrwt>
<totfact> 0.55530147E+02</totfact>
</mgrwt>
</event>
<event>
 4    1  0.5056513E-005  0.1664419E+04  0.7818608E-02  0.8781922E-01
         -2   -1    0    0    0  501 -0.00000000000E+00  0.00000000000E+00  0.11848396903E+04  0.11848396903E+04  0.25500000000E-02 0. -1.
          2   -1    0    0  501    0  0.00000000000E+00 -0.00000000000E+00 -0.58452857145E+03  0.58452857146E+03  0.25500000000E-02 0.  1.
    5000001    1    1    2    0    0  0.41280758942E+03  0.40865520389E+03  0.89732591626E+03  0.10872920406E+04  0.19900000000E+03 0.  0.
   -5000001    1    1    2    0    0 -0.41280758942E+03 -0.40865520389E+03 -0.29701479744E+03  0.68207622114E+03  0.19900000000E+03 0.  0.
<mgrwt>
<rscale>  0 0.16644190E+04</rscale>
<asrwt>0</asrwt>
<pdfrwt beam="1">  1        2 0.83504082E-01 0.16644190E+04</pdfrwt>
<pdfrwt beam="2">  1       -2 0.16926281E+00 0.16644190E+04</pdfrwt>
<totfact> 0.11540806E+01</totfact>
</mgrwt>
</event>
<event>
 4    1  0.5056513E-005  0.5277500E+03  0.7818608E-02  0.1006779E+00
         -2   -1    0    0    0  501 -0.00000000000E+00  0.00000000000E+00  0.41042294818E+02  0.41042294897E+02  0.25500000000E-02 0. -1.
          2   -1    0    0  501    0  0.00000000000E+00 -0.00000000000E+00 -0.16965431769E+04  0.16965431769E+04  0.25500000000E-02 0.  1.
    5000001    1    1    2    0    0 -0.16597599623E+03 -0.46829897602E+02 -0.77188027382E+03  0.81556190920E+03  0.19900000000E+03 0.  0.
   -5000001    1    1    2    0    0  0.16597599623E+03  0.46829897602E+02 -0.88362060829E+03  0.92202356262E+03  0.19900000000E+03 0.  0.
<mgrwt>
<rscale>  0 0.52775004E+03</rscale>
<asrwt>0</asrwt>
<pdfrwt beam="1">  1        2 0.24236327E+00 0.52775004E+03</pdfrwt>
<pdfrwt beam="2">  1       -2 0.58631860E-02 0.52775004E+03</pdfrwt>
<totfact> 0.18913555E+03</totfact>
</mgrwt>
</event>
<event>
 4    1  0.5056513E-005  0.6654312E+03  0.7818608E-02  0.9778247E-01
         -2   -1    0    0    0  501 -0.00000000000E+00  0.00000000000E+00  0.86593816511E+02  0.86593816549E+02  0.25500000000E-02 0. -1.
          2   -1    0    0  501    0  0.00000000000E+00 -0.00000000000E+00 -0.12783786444E+04  0.12783786444E+04  0.25500000000E-02 0.  1.
    5000001    1    1    2    0    0 -0.25672257481E+03  0.92278505838E+00 -0.74368784728E+03  0.81152938711E+03  0.19900000000E+03 0.  0.
   -5000001    1    1    2    0    0  0.25672257481E+03 -0.92278505838E+00 -0.44809698060E+03  0.55344307383E+03  0.19900000000E+03 0.  0.
<mgrwt>
<rscale>  0 0.66543125E+03</rscale>
<asrwt>0</asrwt>
<pdfrwt beam="1">  1        2 0.18262551E+00 0.66543125E+03</pdfrwt>
<pdfrwt beam="2">  1       -2 0.12370546E-01 0.66543125E+03</pdfrwt>
<totfact> 0.94207631E+02</totfact>
</mgrwt>
</event>
<event>
 4    1  0.5056513E-005  0.6468551E+03  0.7818608E-02  0.9812698E-01
         -2   -1    0    0    0  501 -0.00000000000E+00  0.00000000000E+00  0.21563970718E+03  0.21563970719E+03  0.25500000000E-02 0. -1.
          2   -1    0    0  501    0  0.00000000000E+00 -0.00000000000E+00 -0.48509336959E+03  0.48509336959E+03  0.25500000000E-02 0.  1.
    5000001    1    1    2    0    0 -0.23248726493E+03 -0.99720125441E+02 -0.16915371874E+03  0.36360474740E+03  0.19900000000E+03 0.  0.
   -5000001    1    1    2    0    0  0.23248726493E+03  0.99720125441E+02 -0.10029994367E+03  0.33712832938E+03  0.19900000000E+03 0.  0.
<mgrwt>
<rscale>  0 0.64685514E+03</rscale>
<asrwt>0</asrwt>
<pdfrwt beam="1">  1        2 0.69299052E-01 0.64685514E+03</pdfrwt>
<pdfrwt beam="2">  1       -2 0.30805673E-01 0.64685514E+03</pdfrwt>
<totfact> 0.68121504E+02</totfact>
</mgrwt>
</event>
<event>
 4    1  0.5056513E-005  0.5928351E+03  0.7818608E-02  0.9920384E-01
         -2   -1    0    0    0  501 -0.00000000000E+00  0.00000000000E+00  0.55166846837E+02  0.55166846896E+02  0.25500000000E-02 0. -1.
          2   -1    0    0  501    0  0.00000000000E+00 -0.00000000000E+00 -0.15926839113E+04  0.15926839113E+04  0.25500000000E-02 0.  1.
    5000001    1    1    2    0    0  0.19676638860E+03  0.96878771528E+02 -0.73361635822E+03  0.79113618872E+03  0.19900000000E+03 0.  0.
   -5000001    1    1    2    0    0 -0.19676638860E+03 -0.96878771528E+02 -0.80390070624E+03  0.85671456947E+03  0.19900000000E+03 0.  0.
<mgrwt>
<rscale>  0 0.59283505E+03</rscale>
<asrwt>0</asrwt>
<pdfrwt beam="1">  1        2 0.22752624E+00 0.59283505E+03</pdfrwt>
<pdfrwt beam="2">  1       -2 0.78809791E-02 0.59283505E+03</pdfrwt>
<totfact> 0.13378300E+03</totfact>
</mgrwt>
</event>
<event>
 4    1  0.5056513E-005  0.8746793E+03  0.7818608E-02  0.9457799E-01
         -2   -1    0    0    0  501 -0.00000000000E+00  0.00000000000E+00  0.71352468957E+02  0.71352469002E+02  0.25500000000E-02 0. -1.
          2   -1    0    0  501    0  0.00000000000E+00 -0.00000000000E+00 -0.26805797612E+04  0.26805797612E+04  0.25500000000E-02 0.  1.
    5000001    1    1    2    0    0 -0.15838222653E+03 -0.35411435035E+03 -0.14128308211E+04  0.14785715512E+04  0.19900000000E+03 0.  0.
   -5000001    1    1    2    0    0  0.15838222653E+03  0.35411435035E+03 -0.11963964711E+04  0.12733606790E+04  0.19900000000E+03 0.  0.
<mgrwt>
<rscale>  0 0.87467933E+03</rscale>
<asrwt>0</asrwt>
<pdfrwt beam="1">  1        2 0.38293990E+00 0.87467933E+03</pdfrwt>
<pdfrwt beam="2">  1       -2 0.10193212E-01 0.87467933E+03</pdfrwt>
<totfact> 0.24111095E+02</totfact>
</mgrwt>
</event>
<event>
 4    1  0.5056513E-005  0.5116636E+03  0.7818608E-02  0.1010779E+00
          2   -1    0    0  501    0  0.00000000000E+00  0.00000000000E+00  0.22898483246E+04  0.22898483246E+04  0.25500000000E-02 0.  1.
         -2   -1    0    0    0  501 -0.00000000000E+00 -0.00000000000E+00 -0.28582634321E+02  0.28582634435E+02  0.25500000000E-02 0. -1.
    5000001    1    1    2    0    0  0.70342603872E+02 -0.85858426325E+02  0.60359126340E+03  0.64516909764E+03  0.19900000000E+03 0.  0.
   -5000001    1    1    2    0    0 -0.70342603872E+02  0.85858426325E+02  0.16576744268E+04  0.16732618614E+04  0.19900000000E+03 0.  0.
<mgrwt>
<rscale>  0 0.51166355E+03</rscale>
<asrwt>0</asrwt>
<pdfrwt beam="1">  1        2 0.32712117E+00 0.51166355E+03</pdfrwt>
<pdfrwt beam="2">  1       -2 0.40832337E-02 0.51166355E+03</pdfrwt>
<totfact> 0.16689010E+03</totfact>
</mgrwt>
</event>
<event>
 4    1  0.5056513E-005  0.5826384E+03  0.7818608E-02  0.9942095E-01
         -2   -1    0    0    0  501 -0.00000000000E+00  0.00000000000E+00  0.15970474829E+03  0.15970474831E+03  0.25500000000E-02 0.  1.
          2   -1    0    0  501    0  0.00000000000E+00 -0.00000000000E+00 -0.53139858933E+03  0.53139858934E+03  0.25500000000E-02 0. -1.
    5000001    1    1    2    0    0 -0.40565729939E+01  0.14125361517E+03  0.28118521581E+01  0.24408593998E+03  0.19900000000E+03 0.  0.
   -5000001    1    1    2    0    0  0.40565729939E+01 -0.14125361517E+03 -0.37450569319E+03  0.44701739767E+03  0.19900000000E+03 0.  0.
<mgrwt>
<rscale>  0 0.58263841E+03</rscale>
<asrwt>0</asrwt>
<pdfrwt beam="1">  1        2 0.75914083E-01 0.58263841E+03</pdfrwt>
<pdfrwt beam="2">  1       -2 0.22814964E-01 0.58263841E+03</pdfrwt>
<totfact> 0.10590908E+03</totfact>
</mgrwt>
</event>
<event>
 4    1  0.5056513E-005  0.1149749E+04  0.7818608E-02  0.9158015E-01
         -2   -1    0    0    0  501 -0.00000000000E+00  0.00000000000E+00  0.12883660138E+03  0.12883660141E+03  0.25500000000E-02 0. -1.
          2   -1    0    0  501    0  0.00000000000E+00 -0.00000000000E+00 -0.25651163731E+04  0.25651163731E+04  0.25500000000E-02 0.  1.
    5000001    1    1    2    0    0 -0.11033024218E+03 -0.50115013207E+03 -0.82919125667E+03  0.99523030367E+03  0.19900000000E+03 0.  0.
   -5000001    1    1    2    0    0  0.11033024218E+03  0.50115013207E+03 -0.16070885150E+04  0.16987226708E+04  0.19900000000E+03 0.  0.
<mgrwt>
<rscale>  0 0.11497493E+04</rscale>
<asrwt>0</asrwt>
<pdfrwt beam="1">  1        2 0.36644517E+00 0.11497493E+04</pdfrwt>
<pdfrwt beam="2">  1       -2 0.18405230E-01 0.11497493E+04</pdfrwt>
<totfact> 0.10026572E+02</totfact>
</mgrwt>
</event>
<event>
 4    1  0.5056513E-005  0.1003254E+04  0.7818608E-02  0.9304983E-01
          2   -1    0    0  501    0  0.00000000000E+00  0.00000000000E+00  0.63364310206E+03  0.63364310207E+03  0.25500000000E-02 0.  1.
         -2   -1    0    0    0  501 -0.00000000000E+00 -0.00000000000E+00 -0.39711612092E+03  0.39711612093E+03  0.25500000000E-02 0. -1.
    5000001    1    1    2    0    0  0.16409106323E+03 -0.43022189962E+03  0.11468507450E+03  0.51455847701E+03  0.19900000000E+03 0.  0.
   -5000001    1    1    2    0    0 -0.16409106323E+03  0.43022189962E+03  0.12184190664E+03  0.51620074599E+03  0.19900000000E+03 0.  0.
<mgrwt>
<rscale>  0 0.10032545E+04</rscale>
<asrwt>0</asrwt>
<pdfrwt beam="1">  1        2 0.90520444E-01 0.10032545E+04</pdfrwt>
<pdfrwt beam="2">  1       -2 0.56730874E-01 0.10032545E+04</pdfrwt>
<totfact> 0.14791594E+02</totfact>
</mgrwt>
</event>
<event>
 4    1  0.5056513E-005  0.6733528E+03  0.7818608E-02  0.9763920E-01
         -2   -1    0    0    0  501 -0.00000000000E+00  0.00000000000E+00  0.58839532099E+02  0.58839532154E+02  0.25500000000E-02 0. -1.
          2   -1    0    0  501    0  0.00000000000E+00 -0.00000000000E+00 -0.19264431256E+04  0.19264431256E+04  0.25500000000E-02 0.  1.
    5000001    1    1    2    0    0 -0.26439991325E+03  0.58221931655E+02 -0.87105622509E+03  0.93361504633E+03  0.19900000000E+03 0.  0.
   -5000001    1    1    2    0    0  0.26439991325E+03 -0.58221931655E+02 -0.99654736844E+03  0.10516676115E+04  0.19900000000E+03 0.  0.
<mgrwt>
<rscale>  0 0.67335284E+03</rscale>
<asrwt>0</asrwt>
<pdfrwt beam="1">  1        2 0.27520612E+00 0.67335284E+03</pdfrwt>
<pdfrwt beam="2">  1       -2 0.84056486E-02 0.67335284E+03</pdfrwt>
<totfact> 0.81369482E+02</totfact>
</mgrwt>
</event>
<event>
 4    1  0.5056513E-005  0.5394992E+03  0.7818608E-02  0.1003954E+00
         -2   -1    0    0    0  501 -0.00000000000E+00  0.00000000000E+00  0.93205556725E+02  0.93205556760E+02  0.25500000000E-02 0. -1.
          2   -1    0    0  501    0  0.00000000000E+00 -0.00000000000E+00 -0.78069226186E+03  0.78069226187E+03  0.25500000000E-02 0.  1.
    5000001    1    1    2    0    0 -0.16918718365E+03  0.65218562677E+02 -0.37114163561E+03  0.45850286555E+03  0.19900000000E+03 0.  0.
   -5000001    1    1    2    0    0  0.16918718365E+03 -0.65218562677E+02 -0.31634506952E+03  0.41539495308E+03  0.19900000000E+03 0.  0.
<mgrwt>
<rscale>  0 0.53949924E+03</rscale>
<asrwt>0</asrwt>
<pdfrwt beam="1">  1        2 0.11152746E+00 0.53949924E+03</pdfrwt>
<pdfrwt beam="2">  1       -2 0.13315080E-01 0.53949924E+03</pdfrwt>
<totfact> 0.16798936E+03</totfact>
</mgrwt>
</event>
<event>
 4    1  0.5056513E-005  0.7065745E+03  0.7818608E-02  0.9706055E-01
          2   -1    0    0  501    0  0.00000000000E+00  0.00000000000E+00  0.32349391543E+04  0.32349391543E+04  0.25500000000E-02 0.  1.
         -2   -1    0    0    0  501 -0.00000000000E+00 -0.00000000000E+00 -0.38582449429E+02  0.38582449513E+02  0.25500000000E-02 0. -1.
    5000001    1    1    2    0    0 -0.14949087039E+03  0.24520745877E+03  0.18405420372E+04  0.18734113827E+04  0.19900000000E+03 0.  0.
   -5000001    1    1    2    0    0  0.14949087039E+03 -0.24520745877E+03  0.13558146677E+04  0.14001102211E+04  0.19900000000E+03 0.  0.
<mgrwt>
<rscale>  0 0.70657449E+03</rscale>
<asrwt>0</asrwt>
<pdfrwt beam="1">  1        2 0.46213415E+00 0.70657449E+03</pdfrwt>
<pdfrwt beam="2">  1       -2 0.55117787E-02 0.70657449E+03</pdfrwt>
<totfact> 0.32567313E+02</totfact>
</mgrwt>
</event>
<event>
 4    1  0.5056513E-005  0.8837936E+03  0.7818608E-02  0.9446070E-01
         -2   -1    0    0    0  501 -0.00000000000E+00  0.00000000000E+00  0.12270681927E+03  0.12270681929E+03  0.25500000000E-02 0. -1.
          2   -1    0    0  501    0  0.00000000000E+00 -0.00000000000E+00 -0.15913766135E+04  0.15913766135E+04  0.25500000000E-02 0.  1.
    5000001    1    1    2    0    0  0.13669970543E+03 -0.21544398463E+03 -0.15066064526E+03  0.35693493806E+03  0.19900000000E+03 0.  0.
   -5000001    1    1    2    0    0 -0.13669970543E+03  0.21544398463E+03 -0.13180091489E+04  0.13571484947E+04  0.19900000000E+03 0.  0.
<mgrwt>
<rscale>  0 0.88379356E+03</rscale>
<asrwt>0</asrwt>
<pdfrwt beam="1">  1        2 0.22733950E+00 0.88379356E+03</pdfrwt>
<pdfrwt beam="2">  1       -2 0.17529547E-01 0.88379356E+03</pdfrwt>
<totfact> 0.35248072E+02</totfact>
</mgrwt>
</event>
<event>
 4    1  0.5056513E-005  0.6428477E+03  0.7818608E-02  0.9820293E-01
         -2   -1    0    0    0  501 -0.00000000000E+00  0.00000000000E+00  0.25197238823E+03  0.25197238824E+03  0.25500000000E-02 0. -1.
          2   -1    0    0  501    0  0.00000000000E+00 -0.00000000000E+00 -0.41001836664E+03  0.41001836665E+03  0.25500000000E-02 0.  1.
    5000001    1    1    2    0    0 -0.22607989225E+03 -0.82601813394E+02 -0.15729380491E+03  0.34968202459E+03  0.19900000000E+03 0.  0.
   -5000001    1    1    2    0    0  0.22607989225E+03  0.82601813394E+02 -0.75217350340E+00  0.31230873030E+03  0.19900000000E+03 0.  0.
<mgrwt>
<rscale>  0 0.64284775E+03</rscale>
<asrwt>0</asrwt>
<pdfrwt beam="1">  1        2 0.58574052E-01 0.64284775E+03</pdfrwt>
<pdfrwt beam="2">  1       -2 0.35996056E-01 0.64284775E+03</pdfrwt>
<totfact> 0.61399655E+02</totfact>
</mgrwt>
</event>
<event>
 4    1  0.5056513E-005  0.5241782E+03  0.7818608E-02  0.1007654E+00
          2   -1    0    0  501    0  0.00000000000E+00  0.00000000000E+00  0.11497364629E+03  0.11497364632E+03  0.25500000000E-02 0.  1.
         -2   -1    0    0    0  501 -0.00000000000E+00 -0.00000000000E+00 -0.59744727860E+03  0.59744727861E+03  0.25500000000E-02 0. -1.
    5000001    1    1    2    0    0 -0.13194814718E+03  0.10658138974E+03 -0.21693227682E+03  0.33975067168E+03  0.19900000000E+03 0.  0.
   -5000001    1    1    2    0    0  0.13194814718E+03 -0.10658138974E+03 -0.26554135549E+03  0.37267025325E+03  0.19900000000E+03 0.  0.
<mgrwt>
<rscale>  0 0.52417818E+03</rscale>
<asrwt>0</asrwt>
<pdfrwt beam="1">  1        2 0.16424807E-01 0.52417818E+03</pdfrwt>
<pdfrwt beam="2">  1       -2 0.85349610E-01 0.52417818E+03</pdfrwt>
<totfact> 0.43302113E+02</totfact>
</mgrwt>
</event>
<event>
 4    1  0.5056513E-005  0.6112380E+03  0.7818608E-02  0.9882361E-01
          2   -1    0    0  501    0  0.00000000000E+00  0.00000000000E+00  0.33060831437E+04  0.33060831437E+04  0.25500000000E-02 0.  1.
         -2   -1    0    0    0  501 -0.00000000000E+00 -0.00000000000E+00 -0.28251849268E+02  0.28251849383E+02  0.25500000000E-02 0. -1.
    5000001    1    1    2    0    0 -0.10882890862E+03  0.20420424645E+03  0.17266822016E+04  0.17534467573E+04  0.19900000000E+03 0.  0.
   -5000001    1    1    2    0    0  0.10882890862E+03 -0.20420424645E+03  0.15511490928E+04  0.15808882357E+04  0.19900000000E+03 0.  0.
<mgrwt>
<rscale>  0 0.61123797E+03</rscale>
<asrwt>0</asrwt>
<pdfrwt beam="1">  1        2 0.47229780E+00 0.61123797E+03</pdfrwt>
<pdfrwt beam="2">  1       -2 0.40359767E-02 0.61123797E+03</pdfrwt>
<totfact> 0.48585303E+02</totfact>
</mgrwt>
</event>
<event>
 4    1  0.5056513E-005  0.6262314E+03  0.7818608E-02  0.9852431E-01
         -2   -1    0    0    0  501 -0.00000000000E+00  0.00000000000E+00  0.11623877669E+03  0.11623877671E+03  0.25500000000E-02 0. -1.
          2   -1    0    0  501    0  0.00000000000E+00 -0.00000000000E+00 -0.84344870331E+03  0.84344870332E+03  0.25500000000E-02 0.  1.
    5000001    1    1    2    0    0  0.73788501103E+02  0.20505153352E+03 -0.52396403607E+03  0.60135695339E+03  0.19900000000E+03 0.  0.
   -5000001    1    1    2    0    0 -0.73788501103E+02 -0.20505153352E+03 -0.20324589055E+03  0.35833052664E+03  0.19900000000E+03 0.  0.
<mgrwt>
<rscale>  0 0.62623141E+03</rscale>
<asrwt>0</asrwt>
<pdfrwt beam="1">  1        2 0.12049267E+00 0.62623141E+03</pdfrwt>
<pdfrwt beam="2">  1       -2 0.16605540E-01 0.62623141E+03</pdfrwt>
<totfact> 0.10482757E+03</totfact>
</mgrwt>
</event>
<event>
 4    1  0.5056513E-005  0.4705430E+03  0.7818608E-02  0.1021767E+00
         -2   -1    0    0    0  501 -0.00000000000E+00  0.00000000000E+00  0.25296366190E+02  0.25296366319E+02  0.25500000000E-02 0. -1.
          2   -1    0    0  501    0  0.00000000000E+00 -0.00000000000E+00 -0.21881670032E+04  0.21881670033E+04  0.25500000000E-02 0.  1.
    5000001    1    1    2    0    0 -0.81792271241E+02 -0.63471591724E+01 -0.63463826897E+03  0.67014699470E+03  0.19900000000E+03 0.  0.
   -5000001    1    1    2    0    0  0.81792271241E+02  0.63471591724E+01 -0.15282323681E+04  0.15433163749E+04  0.19900000000E+03 0.  0.
<mgrwt>
<rscale>  0 0.47054298E+03</rscale>
<asrwt>0</asrwt>
<pdfrwt beam="1">  1        2 0.31259517E+00 0.47054298E+03</pdfrwt>
<pdfrwt beam="2">  1       -2 0.36137680E-02 0.47054298E+03</pdfrwt>
<totfact> 0.22660878E+03</totfact>
</mgrwt>
</event>
<event>
 4    1  0.5056513E-005  0.5695276E+03  0.7818608E-02  0.9970725E-01
         -2   -1    0    0    0  501 -0.00000000000E+00  0.00000000000E+00  0.66492865625E+02  0.66492865674E+02  0.25500000000E-02 0. -1.
          2   -1    0    0  501    0  0.00000000000E+00 -0.00000000000E+00 -0.12195355569E+04  0.12195355569E+04  0.25500000000E-02 0.  1.
    5000001    1    1    2    0    0  0.65141511295E+01  0.16851209385E+03 -0.83448109757E+03  0.87429884029E+03  0.19900000000E+03 0.  0.
   -5000001    1    1    2    0    0 -0.65141511295E+01 -0.16851209385E+03 -0.31856159368E+03  0.41172958226E+03  0.19900000000E+03 0.  0.
<mgrwt>
<rscale>  0 0.56952757E+03</rscale>
<asrwt>0</asrwt>
<pdfrwt beam="1">  1        2 0.17421935E+00 0.56952757E+03</pdfrwt>
<pdfrwt beam="2">  1       -2 0.94989816E-02 0.56952757E+03</pdfrwt>
<totfact> 0.15672336E+03</totfact>
</mgrwt>
</event>
<event>
 4    1  0.5056513E-005  0.4507122E+03  0.7818608E-02  0.1027510E+00
          2   -1    0    0  501    0  0.00000000000E+00  0.00000000000E+00  0.20672859116E+04  0.20672859116E+04  0.25500000000E-02 0.  1.
         -2   -1    0    0    0  501 -0.00000000000E+00 -0.00000000000E+00 -0.24566203795E+02  0.24566203928E+02  0.25500000000E-02 0. -1.
    5000001    1    1    2    0    0 -0.25441272095E+01 -0.10572478923E+03  0.10194831272E+04  0.10440934107E+04  0.19900000000E+03 0.  0.
   -5000001    1    1    2    0    0  0.25441272095E+01  0.10572478923E+03  0.10232365806E+04  0.10477587048E+04  0.19900000000E+03 0.  0.
<mgrwt>
<rscale>  0 0.45071218E+03</rscale>
<asrwt>0</asrwt>
<pdfrwt beam="1">  1        2 0.29532659E+00 0.45071218E+03</pdfrwt>
<pdfrwt beam="2">  1       -2 0.35094573E-02 0.45071218E+03</pdfrwt>
<totfact> 0.27237590E+03</totfact>
</mgrwt>
</event>
<event>
 4    1  0.5056513E-005  0.8686467E+03  0.7818608E-02  0.9465646E-01
          2   -1    0    0  501    0  0.00000000000E+00  0.00000000000E+00  0.16722095184E+04  0.16722095184E+04  0.25500000000E-02 0.  1.
         -2   -1    0    0    0  501 -0.00000000000E+00 -0.00000000000E+00 -0.11280689199E+03  0.11280689202E+03  0.25500000000E-02 0. -1.
    5000001    1    1    2    0    0  0.29865158129E+03 -0.21657230678E+03  0.54594864037E+03  0.68830026079E+03  0.19900000000E+03 0.  0.
   -5000001    1    1    2    0    0 -0.29865158129E+03  0.21657230678E+03  0.10134539861E+04  0.10967161497E+04  0.19900000000E+03 0.  0.
<mgrwt>
<rscale>  0 0.86864667E+03</rscale>
<asrwt>0</asrwt>
<pdfrwt beam="1">  1        2 0.23888707E+00 0.86864667E+03</pdfrwt>
<pdfrwt beam="2">  1       -2 0.16115271E-01 0.86864667E+03</pdfrwt>
<totfact> 0.37006982E+02</totfact>
</mgrwt>
</event>
<event>
 4    1  0.5056513E-005  0.1036739E+04  0.7818608E-02  0.9269143E-01
         -2   -1    0    0    0  501 -0.00000000000E+00  0.00000000000E+00  0.13037657141E+03  0.13037657144E+03  0.25500000000E-02 0.  1.
          2   -1    0    0  501    0  0.00000000000E+00 -0.00000000000E+00 -0.20610055043E+04  0.20610055043E+04  0.25500000000E-02 0. -1.
    5000001    1    1    2    0    0  0.26258625112E+03  0.10520967784E+02 -0.18109201887E+04  0.18406779077E+04  0.19900000000E+03 0.  0.
   -5000001    1    1    2    0    0 -0.26258625112E+03 -0.10520967784E+02 -0.11970874417E+03  0.35070416802E+03  0.19900000000E+03 0.  0.
<mgrwt>
<rscale>  0 0.10367388E+04</rscale>
<asrwt>0</asrwt>
<pdfrwt beam="1">  1        2 0.29442934E+00 0.10367388E+04</pdfrwt>
<pdfrwt beam="2">  1       -2 0.18625226E-01 0.10367388E+04</pdfrwt>
<totfact> 0.18039127E+02</totfact>
</mgrwt>
</event>
<event>
 4    1  0.5056513E-005  0.4239552E+03  0.7818608E-02  0.1035787E+00
         -2   -1    0    0    0  501 -0.00000000000E+00  0.00000000000E+00  0.70956241534E+02  0.70956241579E+02  0.25500000000E-02 0. -1.
          2   -1    0    0  501    0  0.00000000000E+00 -0.00000000000E+00 -0.63327066973E+03  0.63327066973E+03  0.25500000000E-02 0.  1.
    5000001    1    1    2    0    0 -0.31064831047E+02 -0.64089960125E+02 -0.25432357836E+03  0.33068720753E+03  0.19900000000E+03 0.  0.
   -5000001    1    1    2    0    0  0.31064831047E+02  0.64089960125E+02 -0.30799084983E+03  0.37353970378E+03  0.19900000000E+03 0.  0.
<mgrwt>
<rscale>  0 0.42395522E+03</rscale>
<asrwt>0</asrwt>
<pdfrwt beam="1">  1        2 0.90467235E-01 0.42395522E+03</pdfrwt>
<pdfrwt beam="2">  1       -2 0.10136606E-01 0.42395522E+03</pdfrwt>
<totfact> 0.33787930E+03</totfact>
</mgrwt>
</event>
<event>
 4    1  0.5056513E-005  0.7984206E+03  0.7818608E-02  0.9562306E-01
          2   -1    0    0  501    0  0.00000000000E+00  0.00000000000E+00  0.47994412163E+03  0.47994412164E+03  0.25500000000E-02 0.  1.
         -2   -1    0    0    0  501 -0.00000000000E+00 -0.00000000000E+00 -0.33205712487E+03  0.33205712488E+03  0.25500000000E-02 0. -1.
    5000001    1    1    2    0    0 -0.16026531758E+02  0.31959802447E+03 -0.60086293405E+02  0.38159023784E+03  0.19900000000E+03 0.  0.
   -5000001    1    1    2    0    0  0.16026531758E+02 -0.31959802447E+03  0.20797329017E+03  0.43041100867E+03  0.19900000000E+03 0.  0.
<mgrwt>
<rscale>  0 0.79842060E+03</rscale>
<asrwt>0</asrwt>
<pdfrwt beam="1">  1        2 0.68563446E-01 0.79842060E+03</pdfrwt>
<pdfrwt beam="2">  1       -2 0.47436732E-01 0.79842060E+03</pdfrwt>
<totfact> 0.29814327E+02</totfact>
</mgrwt>
</event>
<event>
 4    1  0.5056513E-005  0.7426475E+03  0.7818608E-02  0.9646956E-01
          2   -1    0    0  501    0  0.00000000000E+00  0.00000000000E+00  0.30348750001E+03  0.30348750002E+03  0.25500000000E-02 0.  1.
         -2   -1    0    0    0  501 -0.00000000000E+00 -0.00000000000E+00 -0.45432290648E+03  0.45432290649E+03  0.25500000000E-02 0. -1.
    5000001    1    1    2    0    0 -0.16254356929E+02  0.30543730190E+03 -0.14555366735E+03  0.39286514173E+03  0.19900000000E+03 0.  0.
   -5000001    1    1    2    0    0  0.16254356929E+02 -0.30543730190E+03 -0.52817391184E+01  0.36494526477E+03  0.19900000000E+03 0.  0.
<mgrwt>
<rscale>  0 0.74264749E+03</rscale>
<asrwt>0</asrwt>
<pdfrwt beam="1">  1        2 0.43355357E-01 0.74264749E+03</pdfrwt>
<pdfrwt beam="2">  1       -2 0.64903273E-01 0.74264749E+03</pdfrwt>
<totfact> 0.26004654E+02</totfact>
</mgrwt>
</event>
<event>
 4    1  0.5056513E-005  0.6290834E+03  0.7818608E-02  0.9846839E-01
          2   -1    0    0  501    0  0.00000000000E+00  0.00000000000E+00  0.85099294020E+03  0.85099294020E+03  0.25500000000E-02 0.  1.
         -2   -1    0    0    0  501 -0.00000000000E+00 -0.00000000000E+00 -0.11626004050E+03  0.11626004053E+03  0.25500000000E-02 0. -1.
    5000001    1    1    2    0    0  0.25951831155E+02  0.19639656253E+03  0.14943204538E+03  0.31808181888E+03  0.19900000000E+03 0.  0.
   -5000001    1    1    2    0    0 -0.25951831155E+02 -0.19639656253E+03  0.58530085432E+03  0.64917116185E+03  0.19900000000E+03 0.  0.
<mgrwt>
<rscale>  0 0.62908338E+03</rscale>
<asrwt>0</asrwt>
<pdfrwt beam="1">  1        2 0.12157042E+00 0.62908338E+03</pdfrwt>
<pdfrwt beam="2">  1       -2 0.16608577E-01 0.62908338E+03</pdfrwt>
<totfact> 0.10357552E+03</totfact>
</mgrwt>
</event>
<event>
 4    1  0.5056513E-005  0.7402131E+03  0.7818608E-02  0.9650831E-01
          2   -1    0    0  501    0  0.00000000000E+00  0.00000000000E+00  0.86691406042E+03  0.86691406043E+03  0.25500000000E-02 0.  1.
         -2   -1    0    0    0  501 -0.00000000000E+00 -0.00000000000E+00 -0.15800743118E+03  0.15800743120E+03  0.25500000000E-02 0. -1.
    5000001    1    1    2    0    0 -0.28443570554E+03 -0.10229417329E+03  0.46179650603E+03  0.58670672526E+03  0.19900000000E+03 0.  0.
   -5000001    1    1    2    0    0  0.28443570554E+03  0.10229417329E+03  0.24711012321E+03  0.43821476637E+03  0.19900000000E+03 0.  0.
<mgrwt>
<rscale>  0 0.74021311E+03</rscale>
<asrwt>0</asrwt>
<pdfrwt beam="1">  1        2 0.12384486E+00 0.74021311E+03</pdfrwt>
<pdfrwt beam="2">  1       -2 0.22572491E-01 0.74021311E+03</pdfrwt>
<totfact> 0.59098797E+02</totfact>
</mgrwt>
</event>
<event>
 4    1  0.5056513E-005  0.6595048E+03  0.7818608E-02  0.9789106E-01
          2   -1    0    0  501    0  0.00000000000E+00  0.00000000000E+00  0.27147886428E+04  0.27147886428E+04  0.25500000000E-02 0.  1.
         -2   -1    0    0    0  501 -0.00000000000E+00 -0.00000000000E+00 -0.40053453434E+02  0.40053453515E+02  0.25500000000E-02 0. -1.
    5000001    1    1    2    0    0 -0.23094692092E+03  0.11132377704E+03  0.10935788789E+04  0.11407213630E+04  0.19900000000E+03 0.  0.
   -5000001    1    1    2    0    0  0.23094692092E+03 -0.11132377704E+03  0.15811563105E+04  0.16141207334E+04  0.19900000000E+03 0.  0.
<mgrwt>
<rscale>  0 0.65950485E+03</rscale>
<asrwt>0</asrwt>
<pdfrwt beam="1">  1        2 0.38782702E+00 0.65950485E+03</pdfrwt>
<pdfrwt beam="2">  1       -2 0.57219209E-02 0.65950485E+03</pdfrwt>
<totfact> 0.59264424E+02</totfact>
</mgrwt>
</event>
<event>
 4    1  0.5056513E-005  0.8242176E+03  0.7818608E-02  0.9525610E-01
         -2   -1    0    0    0  501 -0.00000000000E+00  0.00000000000E+00  0.34170074476E+03  0.34170074477E+03  0.25500000000E-02 0. -1.
          2   -1    0    0  501    0  0.00000000000E+00 -0.00000000000E+00 -0.49702458002E+03  0.49702458003E+03  0.25500000000E-02 0.  1.
    5000001    1    1    2    0    0  0.12442364783E+03  0.31353183325E+03  0.52850083095E+02  0.39519309949E+03  0.19900000000E+03 0.  0.
   -5000001    1    1    2    0    0 -0.12442364783E+03 -0.31353183325E+03 -0.20817391836E+03  0.44353222531E+03  0.19900000000E+03 0.  0.
<mgrwt>
<rscale>  0 0.82421761E+03</rscale>
<asrwt>0</asrwt>
<pdfrwt beam="1">  1        2 0.71003511E-01 0.82421761E+03</pdfrwt>
<pdfrwt beam="2">  1       -2 0.48814392E-01 0.82421761E+03</pdfrwt>
<totfact> 0.27011618E+02</totfact>
</mgrwt>
</event>
<event>
 4    1  0.5056513E-005  0.8399835E+03  0.7818608E-02  0.9503880E-01
         -2   -1    0    0    0  501 -0.00000000000E+00  0.00000000000E+00  0.55020993276E+02  0.55020993335E+02  0.25500000000E-02 0. -1.
          2   -1    0    0  501    0  0.00000000000E+00 -0.00000000000E+00 -0.32059227689E+04  0.32059227689E+04  0.25500000000E-02 0.  1.
    5000001    1    1    2    0    0 -0.17006797657E+03 -0.31987354528E+03 -0.18646609076E+04  0.19099223811E+04  0.19900000000E+03 0.  0.
   -5000001    1    1    2    0    0  0.17006797657E+03  0.31987354528E+03 -0.12862408681E+04  0.13510213811E+04  0.19900000000E+03 0.  0.
<mgrwt>
<rscale>  0 0.83998346E+03</rscale>
<asrwt>0</asrwt>
<pdfrwt beam="1">  1        2 0.45798885E+00 0.83998346E+03</pdfrwt>
<pdfrwt beam="2">  1       -2 0.78601439E-02 0.83998346E+03</pdfrwt>
<totfact> 0.19026792E+02</totfact>
</mgrwt>
</event>
<event>
 4    1  0.5056513E-005  0.4871341E+03  0.7818608E-02  0.1017193E+00
         -2   -1    0    0    0  501 -0.00000000000E+00  0.00000000000E+00  0.30262969483E+02  0.30262969590E+02  0.25500000000E-02 0. -1.
          2   -1    0    0  501    0  0.00000000000E+00 -0.00000000000E+00 -0.19603138174E+04  0.19603138174E+04  0.25500000000E-02 0.  1.
    5000001    1    1    2    0    0  0.13961407068E+02  0.12850293143E+03 -0.11894371459E+04  0.12128766006E+04  0.19900000000E+03 0.  0.
   -5000001    1    1    2    0    0 -0.13961407068E+02 -0.12850293143E+03 -0.74061370201E+03  0.77770018637E+03  0.19900000000E+03 0.  0.
<mgrwt>
<rscale>  0 0.48713414E+03</rscale>
<asrwt>0</asrwt>
<pdfrwt beam="1">  1        2 0.28004475E+00 0.48713414E+03</pdfrwt>
<pdfrwt beam="2">  1       -2 0.43232826E-02 0.48713414E+03</pdfrwt>
<totfact> 0.22369356E+03</totfact>
</mgrwt>
</event>
<event>
 4    1  0.5056513E-005  0.1344257E+04  0.7818608E-02  0.8995187E-01
          2   -1    0    0  501    0  0.00000000000E+00  0.00000000000E+00  0.51672112945E+03  0.51672112946E+03  0.25500000000E-02 0.  1.
         -2   -1    0    0    0  501 -0.00000000000E+00 -0.00000000000E+00 -0.87427547042E+03  0.87427547042E+03  0.25500000000E-02 0. -1.
    5000001    1    1    2    0    0 -0.48189642249E+03  0.35041167203E+03  0.68580703360E+02  0.63191519588E+03  0.19900000000E+03 0.  0.
   -5000001    1    1    2    0    0  0.48189642249E+03 -0.35041167203E+03 -0.42613504432E+03  0.75908140401E+03  0.19900000000E+03 0.  0.
<mgrwt>
<rscale>  0 0.13442568E+04</rscale>
<asrwt>0</asrwt>
<pdfrwt beam="1">  1        2 0.73817305E-01 0.13442568E+04</pdfrwt>
<pdfrwt beam="2">  1       -2 0.12489650E+00 0.13442568E+04</pdfrwt>
<totfact> 0.30386848E+01</totfact>
</mgrwt>
</event>
<event>
 4    1  0.5056513E-005  0.1540898E+04  0.7818608E-02  0.8857703E-01
          2   -1    0    0  501    0  0.00000000000E+00  0.00000000000E+00  0.81587319478E+03  0.81587319478E+03  0.25500000000E-02 0.  1.
         -2   -1    0    0    0  501 -0.00000000000E+00 -0.00000000000E+00 -0.72755338222E+03  0.72755338222E+03  0.25500000000E-02 0. -1.
    5000001    1    1    2    0    0 -0.70713226996E+03 -0.13667095694E+03 -0.14396556494E+03  0.76094814645E+03  0.19900000000E+03 0.  0.
   -5000001    1    1    2    0    0  0.70713226996E+03  0.13667095694E+03  0.23228537750E+03  0.78247843056E+03  0.19900000000E+03 0.  0.
<mgrwt>
<rscale>  0 0.15408975E+04</rscale>
<asrwt>0</asrwt>
<pdfrwt beam="1">  1        2 0.11655331E+00 0.15408975E+04</pdfrwt>
<pdfrwt beam="2">  1       -2 0.10393620E+00 0.15408975E+04</pdfrwt>
<totfact> 0.26946487E+01</totfact>
</mgrwt>
</event>
<event>
 4    1  0.5056513E-005  0.5608558E+03  0.7818608E-02  0.9990120E-01
          2   -1    0    0  501    0  0.00000000000E+00  0.00000000000E+00  0.18254790437E+03  0.18254790439E+03  0.25500000000E-02 0.  1.
         -2   -1    0    0    0  501 -0.00000000000E+00 -0.00000000000E+00 -0.43078994325E+03  0.43078994326E+03  0.25500000000E-02 0. -1.
    5000001    1    1    2    0    0  0.13852166499E+03 -0.13247450119E+03 -0.17657907414E+03  0.32790076938E+03  0.19900000000E+03 0.  0.
   -5000001    1    1    2    0    0 -0.13852166499E+03  0.13247450119E+03 -0.71662964740E+02  0.28543707827E+03  0.19900000000E+03 0.  0.
<mgrwt>
<rscale>  0 0.56085578E+03</rscale>
<asrwt>0</asrwt>
<pdfrwt beam="1">  1        2 0.26078272E-01 0.56085578E+03</pdfrwt>
<pdfrwt beam="2">  1       -2 0.61541420E-01 0.56085578E+03</pdfrwt>
<totfact> 0.51653706E+02</totfact>
</mgrwt>
</event>
<event>
 4    1  0.5056513E-005  0.6312557E+03  0.7818608E-02  0.9842601E-01
         -2   -1    0    0    0  501 -0.00000000000E+00  0.00000000000E+00  0.48350709797E+02  0.48350709864E+02  0.25500000000E-02 0. -1.
          2   -1    0    0  501    0  0.00000000000E+00 -0.00000000000E+00 -0.20603823913E+04  0.20603823913E+04  0.25500000000E-02 0.  1.
    5000001    1    1    2    0    0 -0.22452770300E+03 -0.65429030344E+02 -0.12498133371E+04  0.12869840811E+04  0.19900000000E+03 0.  0.
   -5000001    1    1    2    0    0  0.22452770300E+03  0.65429030344E+02 -0.76221834439E+03  0.82174902004E+03  0.19900000000E+03 0.  0.
<mgrwt>
<rscale>  0 0.63125574E+03</rscale>
<asrwt>0</asrwt>
<pdfrwt beam="1">  1        2 0.29434029E+00 0.63125574E+03</pdfrwt>
<pdfrwt beam="2">  1       -2 0.69072456E-02 0.63125574E+03</pdfrwt>
<totfact> 0.95449851E+02</totfact>
</mgrwt>
</event>
<event>
 4    1  0.5056513E-005  0.4993380E+03  0.7818608E-02  0.1013952E+00
         -2   -1    0    0    0  501 -0.00000000000E+00  0.00000000000E+00  0.10226147117E+03  0.10226147120E+03  0.25500000000E-02 0. -1.
          2   -1    0    0  501    0  0.00000000000E+00 -0.00000000000E+00 -0.60956098264E+03  0.60956098265E+03  0.25500000000E-02 0.  1.
    5000001    1    1    2    0    0 -0.16427411377E+02  0.14974207841E+03 -0.26278351171E+03  0.36242064500E+03  0.19900000000E+03 0.  0.
   -5000001    1    1    2    0    0  0.16427411377E+02 -0.14974207841E+03 -0.24451599976E+03  0.34940180885E+03  0.19900000000E+03 0.  0.
<mgrwt>
<rscale>  0 0.49933797E+03</rscale>
<asrwt>0</asrwt>
<pdfrwt beam="1">  1        2 0.87080138E-01 0.49933797E+03</pdfrwt>
<pdfrwt beam="2">  1       -2 0.14608782E-01 0.49933797E+03</pdfrwt>
<totfact> 0.19439261E+03</totfact>
</mgrwt>
</event>
<event>
 4    1  0.5056513E-005  0.6104667E+03  0.7818608E-02  0.9883926E-01
         -2   -1    0    0    0  501 -0.00000000000E+00  0.00000000000E+00  0.18521139761E+03  0.18521139763E+03  0.25500000000E-02 0. -1.
          2   -1    0    0  501    0  0.00000000000E+00 -0.00000000000E+00 -0.50303279436E+03  0.50303279437E+03  0.25500000000E-02 0.  1.
    5000001    1    1    2    0    0 -0.11211647067E+02 -0.22019393768E+03 -0.79547877687E+02  0.30747347213E+03  0.19900000000E+03 0.  0.
   -5000001    1    1    2    0    0  0.11211647067E+02  0.22019393768E+03 -0.23827351906E+03  0.38077071987E+03  0.19900000000E+03 0.  0.
<mgrwt>
<rscale>  0 0.61046673E+03</rscale>
<asrwt>0</asrwt>
<pdfrwt beam="1">  1        2 0.71861827E-01 0.61046673E+03</pdfrwt>
<pdfrwt beam="2">  1       -2 0.26458771E-01 0.61046673E+03</pdfrwt>
<totfact> 0.86455879E+02</totfact>
</mgrwt>
</event>
<event>
 4    1  0.5056513E-005  0.9404965E+03  0.7818608E-02  0.9376328E-01
         -2   -1    0    0    0  501 -0.00000000000E+00  0.00000000000E+00  0.15742872738E+03  0.15742872740E+03  0.25500000000E-02 0. -1.
          2   -1    0    0  501    0  0.00000000000E+00 -0.00000000000E+00 -0.14046572859E+04  0.14046572859E+04  0.25500000000E-02 0.  1.
    5000001    1    1    2    0    0 -0.20721641289E+03  0.32744788433E+03 -0.32943203974E+03  0.54615677926E+03  0.19900000000E+03 0.  0.
   -5000001    1    1    2    0    0  0.20721641289E+03 -0.32744788433E+03 -0.91779651879E+03  0.10159292341E+04  0.19900000000E+03 0.  0.
<mgrwt>
<rscale>  0 0.94049648E+03</rscale>
<asrwt>0</asrwt>
<pdfrwt beam="1">  1        2 0.20066532E+00 0.94049648E+03</pdfrwt>
<pdfrwt beam="2">  1       -2 0.22489819E-01 0.94049648E+03</pdfrwt>
<totfact> 0.28503166E+02</totfact>
</mgrwt>
</event>
<event>
 4    1  0.5056513E-005  0.6626149E+03  0.7818608E-02  0.9783392E-01
         -2   -1    0    0    0  501 -0.00000000000E+00  0.00000000000E+00  0.70316252462E+02  0.70316252509E+02  0.25500000000E-02 0. -1.
          2   -1    0    0  501    0  0.00000000000E+00 -0.00000000000E+00 -0.15610135498E+04  0.15610135498E+04  0.25500000000E-02 0.  1.
    5000001    1    1    2    0    0  0.76417689122E+02 -0.24225568180E+03 -0.56051900229E+03  0.64676891585E+03  0.19900000000E+03 0.  0.
   -5000001    1    1    2    0    0 -0.76417689122E+02  0.24225568180E+03 -0.93017829503E+03  0.98456088644E+03  0.19900000000E+03 0.  0.
<mgrwt>
<rscale>  0 0.66261489E+03</rscale>
<asrwt>0</asrwt>
<pdfrwt beam="1">  1        2 0.22300191E+00 0.66261489E+03</pdfrwt>
<pdfrwt beam="2">  1       -2 0.10045180E-01 0.66261489E+03</pdfrwt>
<totfact> 0.93768925E+02</totfact>
</mgrwt>
</event>
<event>
 4    1  0.5056513E-005  0.9273677E+03  0.7818608E-02  0.9392003E-01
         -2   -1    0    0    0  501 -0.00000000000E+00  0.00000000000E+00  0.46328208284E+03  0.46328208285E+03  0.25500000000E-02 0. -1.
          2   -1    0    0  501    0  0.00000000000E+00 -0.00000000000E+00 -0.46408593309E+03  0.46408593310E+03  0.25500000000E-02 0.  1.
    5000001    1    1    2    0    0  0.49500061842E+02 -0.41587394044E+03 -0.95622284135E+00  0.46368448844E+03  0.19900000000E+03 0.  0.
   -5000001    1    1    2    0    0 -0.49500061842E+02  0.41587394044E+03  0.15237258708E+00  0.46368352750E+03  0.19900000000E+03 0.  0.
<mgrwt>
<rscale>  0 0.92736767E+03</rscale>
<asrwt>0</asrwt>
<pdfrwt beam="1">  1        2 0.66297990E-01 0.92736767E+03</pdfrwt>
<pdfrwt beam="2">  1       -2 0.66183155E-01 0.92736767E+03</pdfrwt>
<totfact> 0.15394205E+02</totfact>
</mgrwt>
</event>
<event>
 4    1  0.5056513E-005  0.4683291E+03  0.7818608E-02  0.1022393E+00
          2   -1    0    0  501    0  0.00000000000E+00  0.00000000000E+00  0.40742333071E+03  0.40742333072E+03  0.25500000000E-02 0.  1.
         -2   -1    0    0    0  501 -0.00000000000E+00 -0.00000000000E+00 -0.13458493277E+03  0.13458493279E+03  0.25500000000E-02 0. -1.
    5000001    1    1    2    0    0 -0.12054974302E+03  0.17715381262E+02  0.11368239378E+03  0.25955878319E+03  0.19900000000E+03 0.  0.
   -5000001    1    1    2    0    0  0.12054974302E+03 -0.17715381262E+02  0.15915600416E+03  0.28244948032E+03  0.19900000000E+03 0.  0.
<mgrwt>
<rscale>  0 0.46832912E+03</rscale>
<asrwt>0</asrwt>
<pdfrwt beam="1">  1        2 0.58203333E-01 0.46832912E+03</pdfrwt>
<pdfrwt beam="2">  1       -2 0.19226419E-01 0.46832912E+03</pdfrwt>
<totfact> 0.19243110E+03</totfact>
</mgrwt>
</event>
<event>
 4    1  0.5056513E-005  0.4354903E+03  0.7818608E-02  0.1032140E+00
          2   -1    0    0  501    0  0.00000000000E+00  0.00000000000E+00  0.26402949010E+04  0.26402949010E+04  0.25500000000E-02 0.  1.
         -2   -1    0    0    0  501 -0.00000000000E+00 -0.00000000000E+00 -0.17957442340E+02  0.17957442521E+02  0.25500000000E-02 0. -1.
    5000001    1    1    2    0    0  0.77945963798E+01 -0.39250179541E+02  0.17922128671E+04  0.18036710602E+04  0.19900000000E+03 0.  0.
   -5000001    1    1    2    0    0 -0.77945963798E+01  0.39250179541E+02  0.83012459150E+03  0.85458128329E+03  0.19900000000E+03 0.  0.
<mgrwt>
<rscale>  0 0.43549027E+03</rscale>
<asrwt>0</asrwt>
<pdfrwt beam="1">  1        2 0.37718461E+00 0.43549027E+03</pdfrwt>
<pdfrwt beam="2">  1       -2 0.25653515E-02 0.43549027E+03</pdfrwt>
<totfact> 0.22510340E+03</totfact>
</mgrwt>
</event>
<event>
 4    1  0.5056513E-005  0.5747050E+03  0.7818608E-02  0.9959321E-01
         -2   -1    0    0    0  501 -0.00000000000E+00  0.00000000000E+00  0.26689784491E+02  0.26689784613E+02  0.25500000000E-02 0. -1.
          2   -1    0    0  501    0  0.00000000000E+00 -0.00000000000E+00 -0.30937480275E+04  0.30937480275E+04  0.25500000000E-02 0.  1.
    5000001    1    1    2    0    0 -0.65892628428E+02  0.39652473666E+02 -0.48832376982E+03  0.53289329263E+03  0.19900000000E+03 0.  0.
   -5000001    1    1    2    0    0  0.65892628428E+02 -0.39652473666E+02 -0.25787344731E+04  0.25875445194E+04  0.19900000000E+03 0.  0.
<mgrwt>
<rscale>  0 0.57470503E+03</rscale>
<asrwt>0</asrwt>
<pdfrwt beam="1">  1        2 0.44196378E+00 0.57470503E+03</pdfrwt>
<pdfrwt beam="2">  1       -2 0.38128283E-02 0.57470503E+03</pdfrwt>
<totfact> 0.70032145E+02</totfact>
</mgrwt>
</event>
<event>
 4    1  0.5056513E-005  0.1466191E+04  0.7818608E-02  0.8907252E-01
         -2   -1    0    0    0  501 -0.00000000000E+00  0.00000000000E+00  0.68123942426E+03  0.68123942427E+03  0.25500000000E-02 0. -1.
          2   -1    0    0  501    0  0.00000000000E+00 -0.00000000000E+00 -0.78889841697E+03  0.78889841697E+03  0.25500000000E-02 0.  1.
    5000001    1    1    2    0    0  0.68628228786E+03  0.13399652856E+03 -0.14836616982E+03  0.74199189257E+03  0.19900000000E+03 0.  0.
   -5000001    1    1    2    0    0 -0.68628228786E+03 -0.13399652856E+03  0.40707177113E+02  0.72814594867E+03  0.19900000000E+03 0.  0.
<mgrwt>
<rscale>  0 0.14661906E+04</rscale>
<asrwt>0</asrwt>
<pdfrwt beam="1">  1        2 0.11269977E+00 0.14661906E+04</pdfrwt>
<pdfrwt beam="2">  1       -2 0.97319918E-01 0.14661906E+04</pdfrwt>
<totfact> 0.33085784E+01</totfact>
</mgrwt>
</event>
<event>
 4    1  0.5056513E-005  0.4727918E+03  0.7818608E-02  0.1021135E+00
          2   -1    0    0  501    0  0.00000000000E+00  0.00000000000E+00  0.63967513803E+03  0.63967513804E+03  0.25500000000E-02 0.  1.
         -2   -1    0    0    0  501 -0.00000000000E+00 -0.00000000000E+00 -0.87361553447E+02  0.87361553485E+02  0.25500000000E-02 0. -1.
    5000001    1    1    2    0    0 -0.11774530070E+03 -0.45068961683E+02  0.24591163599E+03  0.34054177403E+03  0.19900000000E+03 0.  0.
   -5000001    1    1    2    0    0  0.11774530070E+03  0.45068961683E+02  0.30640194860E+03  0.38649491749E+03  0.19900000000E+03 0.  0.
<mgrwt>
<rscale>  0 0.47279177E+03</rscale>
<asrwt>0</asrwt>
<pdfrwt beam="1">  1        2 0.91382165E-01 0.47279177E+03</pdfrwt>
<pdfrwt beam="2">  1       -2 0.12480222E-01 0.47279177E+03</pdfrwt>
<totfact> 0.23835457E+03</totfact>
</mgrwt>
</event>
<event>
 4    1  0.5056513E-005  0.6631368E+03  0.7818608E-02  0.9782436E-01
          2   -1    0    0  501    0  0.00000000000E+00  0.00000000000E+00  0.12838655613E+04  0.12838655613E+04  0.25500000000E-02 0.  1.
         -2   -1    0    0    0  501 -0.00000000000E+00 -0.00000000000E+00 -0.85630152649E+02  0.85630152687E+02  0.25500000000E-02 0. -1.
    5000001    1    1    2    0    0 -0.18107014613E+03  0.99201292441E+02  0.94288962598E+03  0.98552987830E+03  0.19900000000E+03 0.  0.
   -5000001    1    1    2    0    0  0.18107014613E+03 -0.99201292441E+02  0.25534578264E+03  0.38396583566E+03  0.19900000000E+03 0.  0.
<mgrwt>
<rscale>  0 0.66313680E+03</rscale>
<asrwt>0</asrwt>
<pdfrwt beam="1">  1        2 0.18340936E+00 0.66313680E+03</pdfrwt>
<pdfrwt beam="2">  1       -2 0.12232879E-01 0.66313680E+03</pdfrwt>
<totfact> 0.95311835E+02</totfact>
</mgrwt>
</event>
<event>
 4    1  0.5056513E-005  0.8072927E+03  0.7818608E-02  0.9549521E-01
         -2   -1    0    0    0  501 -0.00000000000E+00  0.00000000000E+00  0.78529166954E+02  0.78529166995E+02  0.25500000000E-02 0. -1.
          2   -1    0    0  501    0  0.00000000000E+00 -0.00000000000E+00 -0.20747751963E+04  0.20747751963E+04  0.25500000000E-02 0.  1.
    5000001    1    1    2    0    0 -0.29328390153E+03 -0.15343747589E+03 -0.68511535340E+03  0.78647476334E+03  0.19900000000E+03 0.  0.
   -5000001    1    1    2    0    0  0.29328390153E+03  0.15343747589E+03 -0.13111306759E+04  0.13668295999E+04  0.19900000000E+03 0.  0.
<mgrwt>
<rscale>  0 0.80729268E+03</rscale>
<asrwt>0</asrwt>
<pdfrwt beam="1">  1        2 0.29639642E+00 0.80729268E+03</pdfrwt>
<pdfrwt beam="2">  1       -2 0.11218454E-01 0.80729268E+03</pdfrwt>
<totfact> 0.42485388E+02</totfact>
</mgrwt>
</event>
<event>
 4    1  0.5056513E-005  0.8901529E+03  0.7818608E-02  0.9437975E-01
          2   -1    0    0  501    0  0.00000000000E+00  0.00000000000E+00  0.12164744196E+04  0.12164744196E+04  0.25500000000E-02 0.  1.
         -2   -1    0    0    0  501 -0.00000000000E+00 -0.00000000000E+00 -0.16284191744E+03  0.16284191746E+03  0.25500000000E-02 0. -1.
    5000001    1    1    2    0    0  0.27908440785E+03  0.27259633493E+03  0.40387358560E+03  0.59574469504E+03  0.19900000000E+03 0.  0.
   -5000001    1    1    2    0    0 -0.27908440785E+03 -0.27259633493E+03  0.64975891653E+03  0.78357164199E+03  0.19900000000E+03 0.  0.
<mgrwt>
<rscale>  0 0.89015286E+03</rscale>
<asrwt>0</asrwt>
<pdfrwt beam="1">  1        2 0.17378206E+00 0.89015286E+03</pdfrwt>
<pdfrwt beam="2">  1       -2 0.23263131E-01 0.89015286E+03</pdfrwt>
<totfact> 0.34149971E+02</totfact>
</mgrwt>
</event>
<event>
 4    1  0.5056513E-005  0.4596098E+03  0.7818608E-02  0.1024894E+00
         -2   -1    0    0    0  501 -0.00000000000E+00  0.00000000000E+00  0.38989841069E+02  0.38989841152E+02  0.25500000000E-02 0. -1.
          2   -1    0    0  501    0  0.00000000000E+00 -0.00000000000E+00 -0.13544630625E+04  0.13544630625E+04  0.25500000000E-02 0.  1.
    5000001    1    1    2    0    0  0.27042166591E+01 -0.10789298777E+03 -0.77752561504E+03  0.80981188658E+03  0.19900000000E+03 0.  0.
   -5000001    1    1    2    0    0 -0.27042166591E+01  0.10789298777E+03 -0.53794760643E+03  0.58364101711E+03  0.19900000000E+03 0.  0.
<mgrwt>
<rscale>  0 0.45960983E+03</rscale>
<asrwt>0</asrwt>
<pdfrwt beam="1">  1        2 0.19349469E+00 0.45960983E+03</pdfrwt>
<pdfrwt beam="2">  1       -2 0.55699781E-02 0.45960983E+03</pdfrwt>
<totfact> 0.30808551E+03</totfact>
</mgrwt>
</event>
<event>
 4    1  0.5056513E-005  0.6480680E+03  0.7818608E-02  0.9810411E-01
         -2   -1    0    0    0  501 -0.00000000000E+00  0.00000000000E+00  0.29079239281E+03  0.29079239282E+03  0.25500000000E-02 0. -1.
          2   -1    0    0  501    0  0.00000000000E+00 -0.00000000000E+00 -0.36107553632E+03  0.36107553633E+03  0.25500000000E-02 0.  1.
    5000001    1    1    2    0    0  0.23231217975E+03 -0.94422089050E+02 -0.85560720574E+02  0.33137006000E+03  0.19900000000E+03 0.  0.
   -5000001    1    1    2    0    0 -0.23231217975E+03  0.94422089050E+02  0.15277577067E+02  0.32049786914E+03  0.19900000000E+03 0.  0.
<mgrwt>
<rscale>  0 0.64806796E+03</rscale>
<asrwt>0</asrwt>
<pdfrwt beam="1">  1        2 0.51582220E-01 0.64806796E+03</pdfrwt>
<pdfrwt beam="2">  1       -2 0.41541770E-01 0.64806796E+03</pdfrwt>
<totfact> 0.53617433E+02</totfact>
</mgrwt>
</event>
<event>
 4    1  0.5056513E-005  0.5849939E+03  0.7818608E-02  0.9937037E-01
         -2   -1    0    0    0  501 -0.00000000000E+00  0.00000000000E+00  0.17415669036E+03  0.17415669038E+03  0.25500000000E-02 0. -1.
          2   -1    0    0  501    0  0.00000000000E+00 -0.00000000000E+00 -0.49125000828E+03  0.49125000829E+03  0.25500000000E-02 0.  1.
    5000001    1    1    2    0    0  0.70339699597E+02  0.15253867973E+03 -0.31003705920E+03  0.40489467795E+03  0.19900000000E+03 0.  0.
   -5000001    1    1    2    0    0 -0.70339699597E+02 -0.15253867973E+03 -0.70562587220E+01  0.26051202072E+03  0.19900000000E+03 0.  0.
<mgrwt>
<rscale>  0 0.58499393E+03</rscale>
<asrwt>0</asrwt>
<pdfrwt beam="1">  1        2 0.70178572E-01 0.58499393E+03</pdfrwt>
<pdfrwt beam="2">  1       -2 0.24879527E-01 0.58499393E+03</pdfrwt>
<totfact> 0.99266137E+02</totfact>
</mgrwt>
</event>
<event>
 4    1  0.5056513E-005  0.6961580E+03  0.7818608E-02  0.9723825E-01
         -2   -1    0    0    0  501 -0.00000000000E+00  0.00000000000E+00  0.28956246813E+02  0.28956246925E+02  0.25500000000E-02 0. -1.
          2   -1    0    0  501    0  0.00000000000E+00 -0.00000000000E+00 -0.41842094373E+04  0.41842094373E+04  0.25500000000E-02 0.  1.
    5000001    1    1    2    0    0 -0.89022656208E+02 -0.16442721201E+03 -0.77122081221E+03  0.81813439150E+03  0.19900000000E+03 0.  0.
   -5000001    1    1    2    0    0  0.89022656208E+02  0.16442721201E+03 -0.33840323783E+04  0.33950312927E+04  0.19900000000E+03 0.  0.
<mgrwt>
<rscale>  0 0.69615803E+03</rscale>
<asrwt>0</asrwt>
<pdfrwt beam="1">  1        2 0.59774382E+00 0.69615803E+03</pdfrwt>
<pdfrwt beam="2">  1       -2 0.41366094E-02 0.69615803E+03</pdfrwt>
<totfact> 0.12911217E+02</totfact>
</mgrwt>
</event>
<event>
 4    1  0.5056513E-005  0.4688942E+03  0.7818608E-02  0.1022233E+00
         -2   -1    0    0    0  501 -0.00000000000E+00  0.00000000000E+00  0.51145176015E+02  0.51145176079E+02  0.25500000000E-02 0. -1.
          2   -1    0    0  501    0  0.00000000000E+00 -0.00000000000E+00 -0.10746943549E+04  0.10746943549E+04  0.25500000000E-02 0.  1.
    5000001    1    1    2    0    0 -0.65002549434E+02 -0.98159460100E+02 -0.41866385771E+03  0.47826879137E+03  0.19900000000E+03 0.  0.
   -5000001    1    1    2    0    0  0.65002549434E+02  0.98159460100E+02 -0.60488532121E+03  0.64757073965E+03  0.19900000000E+03 0.  0.
<mgrwt>
<rscale>  0 0.46889415E+03</rscale>
<asrwt>0</asrwt>
<pdfrwt beam="1">  1        2 0.15352775E+00 0.46889415E+03</pdfrwt>
<pdfrwt beam="2">  1       -2 0.73064544E-02 0.46889415E+03</pdfrwt>
<totfact> 0.28807026E+03</totfact>
</mgrwt>
</event>
<event>
 4    1  0.5056513E-005  0.6686599E+03  0.7818608E-02  0.9772382E-01
         -2   -1    0    0    0  501 -0.00000000000E+00  0.00000000000E+00  0.27061586094E+03  0.27061586095E+03  0.25500000000E-02 0. -1.
          2   -1    0    0  501    0  0.00000000000E+00 -0.00000000000E+00 -0.41304496969E+03  0.41304496969E+03  0.25500000000E-02 0.  1.
    5000001    1    1    2    0    0  0.10246048571E+03 -0.23595853818E+03 -0.15041815985E+03  0.35833113971E+03  0.19900000000E+03 0.  0.
   -5000001    1    1    2    0    0 -0.10246048571E+03  0.23595853818E+03  0.79890511089E+01  0.32532969094E+03  0.19900000000E+03 0.  0.
<mgrwt>
<rscale>  0 0.66865991E+03</rscale>
<asrwt>0</asrwt>
<pdfrwt beam="1">  1        2 0.59006424E-01 0.66865991E+03</pdfrwt>
<pdfrwt beam="2">  1       -2 0.38659409E-01 0.66865991E+03</pdfrwt>
<totfact> 0.53071430E+02</totfact>
</mgrwt>
</event>
<event>
 4    1  0.5056513E-005  0.4556319E+03  0.7818608E-02  0.1026056E+00
         -2   -1    0    0    0  501 -0.00000000000E+00  0.00000000000E+00  0.16650135147E+04  0.16650135147E+04  0.25500000000E-02 0. -1.
          2   -1    0    0  501    0  0.00000000000E+00 -0.00000000000E+00 -0.31170982672E+02  0.31170982776E+02  0.25500000000E-02 0.  1.
    5000001    1    1    2    0    0 -0.25246183311E+01 -0.83522684955E+02  0.10883650088E+04  0.11095592841E+04  0.19900000000E+03 0.  0.
   -5000001    1    1    2    0    0  0.25246183311E+01  0.83522684955E+02  0.54547752325E+03  0.58662521338E+03  0.19900000000E+03 0.  0.
<mgrwt>
<rscale>  0 0.45563190E+03</rscale>
<asrwt>0</asrwt>
<pdfrwt beam="1">  1        2 0.44529966E-02 0.45563190E+03</pdfrwt>
<pdfrwt beam="2">  1       -2 0.23785912E+00 0.45563190E+03</pdfrwt>
<totfact> 0.15399822E+02</totfact>
</mgrwt>
</event>
<event>
 4    1  0.5056513E-005  0.8296067E+03  0.7818608E-02  0.9518124E-01
          2   -1    0    0  501    0  0.00000000000E+00  0.00000000000E+00  0.10471443148E+04  0.10471443148E+04  0.25500000000E-02 0.  1.
         -2   -1    0    0    0  501 -0.00000000000E+00 -0.00000000000E+00 -0.16431528933E+03  0.16431528935E+03  0.25500000000E-02 0. -1.
    5000001    1    1    2    0    0 -0.10521066941E+03 -0.33264686759E+03  0.59273239210E+03  0.71599993863E+03  0.19900000000E+03 0.  0.
   -5000001    1    1    2    0    0  0.10521066941E+03  0.33264686759E+03  0.29009663339E+03  0.49545966554E+03  0.19900000000E+03 0.  0.
<mgrwt>
<rscale>  0 0.82960670E+03</rscale>
<asrwt>0</asrwt>
<pdfrwt beam="1">  1        2 0.14959204E+00 0.82960670E+03</pdfrwt>
<pdfrwt beam="2">  1       -2 0.23473614E-01 0.82960670E+03</pdfrwt>
<totfact> 0.42279640E+02</totfact>
</mgrwt>
</event>
<event>
 4    1  0.5056513E-005  0.5678826E+03  0.7818608E-02  0.9974375E-01
         -2   -1    0    0    0  501 -0.00000000000E+00  0.00000000000E+00  0.44041361758E+04  0.44041361758E+04  0.25500000000E-02 0. -1.
          2   -1    0    0  501    0  0.00000000000E+00 -0.00000000000E+00 -0.18306126804E+02  0.18306126982E+02  0.25500000000E-02 0.  1.
    5000001    1    1    2    0    0  0.12593088969E+03  0.15584825153E+03  0.24231975258E+04  0.24395972035E+04  0.19900000000E+03 0.  0.
   -5000001    1    1    2    0    0 -0.12593088969E+03 -0.15584825153E+03  0.19626325233E+04  0.19828450993E+04  0.19900000000E+03 0.  0.
<mgrwt>
<rscale>  0 0.56788265E+03</rscale>
<asrwt>0</asrwt>
<pdfrwt beam="1">  1        2 0.26151595E-02 0.56788265E+03</pdfrwt>
<pdfrwt beam="2">  1       -2 0.62916267E+00 0.56788265E+03</pdfrwt>
<totfact> 0.16809390E+00</totfact>
</mgrwt>
</event>
<event>
 4    1  0.5056513E-005  0.4855891E+03  0.7818608E-02  0.1017610E+00
         -2   -1    0    0    0  501 -0.00000000000E+00  0.00000000000E+00  0.45259710766E+02  0.45259710837E+02  0.25500000000E-02 0. -1.
          2   -1    0    0  501    0  0.00000000000E+00 -0.00000000000E+00 -0.13024651862E+04  0.13024651862E+04  0.25500000000E-02 0.  1.
    5000001    1    1    2    0    0  0.29279098452E+02 -0.13137406990E+03 -0.72601192160E+03  0.76472918223E+03  0.19900000000E+03 0.  0.
   -5000001    1    1    2    0    0 -0.29279098452E+02  0.13137406990E+03 -0.53119355380E+03  0.58299571477E+03  0.19900000000E+03 0.  0.
<mgrwt>
<rscale>  0 0.48558912E+03</rscale>
<asrwt>0</asrwt>
<pdfrwt beam="1">  1        2 0.18606643E+00 0.48558912E+03</pdfrwt>
<pdfrwt beam="2">  1       -2 0.64656737E-02 0.48558912E+03</pdfrwt>
<totfact> 0.26036024E+03</totfact>
</mgrwt>
</event>
<event>
 4    1  0.5056513E-005  0.9511016E+03  0.7818608E-02  0.9363864E-01
         -2   -1    0    0    0  501 -0.00000000000E+00  0.00000000000E+00  0.39881081626E+03  0.39881081627E+03  0.25500000000E-02 0. -1.
          2   -1    0    0  501    0  0.00000000000E+00 -0.00000000000E+00 -0.56705719201E+03  0.56705719201E+03  0.25500000000E-02 0.  1.
    5000001    1    1    2    0    0  0.34315637083E+03  0.21476832283E+03  0.68765922323E+02  0.45630196078E+03  0.19900000000E+03 0.  0.
   -5000001    1    1    2    0    0 -0.34315637083E+03 -0.21476832283E+03 -0.23701229807E+03  0.50956604751E+03  0.19900000000E+03 0.  0.
<mgrwt>
<rscale>  0 0.95110155E+03</rscale>
<asrwt>0</asrwt>
<pdfrwt beam="1">  1        2 0.81008170E-01 0.95110155E+03</pdfrwt>
<pdfrwt beam="2">  1       -2 0.56972974E-01 0.95110155E+03</pdfrwt>
<totfact> 0.16773367E+02</totfact>
</mgrwt>
</event>
<event>
 4    1  0.5056513E-005  0.5534169E+03  0.7818608E-02  0.1000706E+00
          2   -1    0    0  501    0  0.00000000000E+00  0.00000000000E+00  0.70140336553E+03  0.70140336553E+03  0.25500000000E-02 0.  1.
         -2   -1    0    0    0  501 -0.00000000000E+00 -0.00000000000E+00 -0.10916337208E+03  0.10916337211E+03  0.25500000000E-02 0. -1.
    5000001    1    1    2    0    0  0.95852066441E+01 -0.19060479845E+03  0.33029683025E+03  0.43025464721E+03  0.19900000000E+03 0.  0.
   -5000001    1    1    2    0    0 -0.95852066441E+01  0.19060479845E+03  0.26194316320E+03  0.38031209043E+03  0.19900000000E+03 0.  0.
<mgrwt>
<rscale>  0 0.55341686E+03</rscale>
<asrwt>0</asrwt>
<pdfrwt beam="1">  1        2 0.10020048E+00 0.55341686E+03</pdfrwt>
<pdfrwt beam="2">  1       -2 0.15594767E-01 0.55341686E+03</pdfrwt>
<totfact> 0.14727374E+03</totfact>
</mgrwt>
</event>
<event>
 4    1  0.5056513E-005  0.6711176E+03  0.7818608E-02  0.9767941E-01
         -2   -1    0    0    0  501 -0.00000000000E+00  0.00000000000E+00  0.61537463396E+02  0.61537463449E+02  0.25500000000E-02 0. -1.
          2   -1    0    0  501    0  0.00000000000E+00 -0.00000000000E+00 -0.18297750401E+04  0.18297750401E+04  0.25500000000E-02 0.  1.
    5000001    1    1    2    0    0  0.48400410679E+01  0.20281634591E+03 -0.13869899890E+04  0.14158037031E+04  0.19900000000E+03 0.  0.
   -5000001    1    1    2    0    0 -0.48400410679E+01 -0.20281634591E+03 -0.38124758772E+03  0.47550880045E+03  0.19900000000E+03 0.  0.
<mgrwt>
<rscale>  0 0.67111762E+03</rscale>
<asrwt>0</asrwt>
<pdfrwt beam="1">  1        2 0.26139640E+00 0.67111762E+03</pdfrwt>
<pdfrwt beam="2">  1       -2 0.87910673E-02 0.67111762E+03</pdfrwt>
<totfact> 0.84742517E+02</totfact>
</mgrwt>
</event>
<event>
 4    1  0.5056513E-005  0.5463692E+03  0.7818608E-02  0.1002338E+00
         -2   -1    0    0    0  501 -0.00000000000E+00  0.00000000000E+00  0.20119955693E+03  0.20119955695E+03  0.25500000000E-02 0. -1.
          2   -1    0    0  501    0  0.00000000000E+00 -0.00000000000E+00 -0.37092443505E+03  0.37092443506E+03  0.25500000000E-02 0.  1.
    5000001    1    1    2    0    0  0.10040363621E+03  0.15654719111E+03 -0.62874565354E+02  0.27953912817E+03  0.19900000000E+03 0.  0.
   -5000001    1    1    2    0    0 -0.10040363621E+03 -0.15654719111E+03 -0.10685031276E+03  0.29258486384E+03  0.19900000000E+03 0.  0.
<mgrwt>
<rscale>  0 0.54636922E+03</rscale>
<asrwt>0</asrwt>
<pdfrwt beam="1">  1        2 0.52989205E-01 0.54636922E+03</pdfrwt>
<pdfrwt beam="2">  1       -2 0.28742794E-01 0.54636922E+03</pdfrwt>
<totfact> 0.10460721E+03</totfact>
</mgrwt>
</event>
<event>
 4    1  0.5056513E-005  0.5637366E+03  0.7818608E-02  0.9983635E-01
          2   -1    0    0  501    0  0.00000000000E+00  0.00000000000E+00  0.16927767265E+03  0.16927767267E+03  0.25500000000E-02 0.  1.
         -2   -1    0    0    0  501 -0.00000000000E+00 -0.00000000000E+00 -0.46934558646E+03  0.46934558646E+03  0.25500000000E-02 0. -1.
    5000001    1    1    2    0    0  0.15922535930E+03  0.76368499092E+02 -0.25547856742E+03  0.36885655898E+03  0.19900000000E+03 0.  0.
   -5000001    1    1    2    0    0 -0.15922535930E+03 -0.76368499092E+02 -0.44589346394E+02  0.26976670015E+03  0.19900000000E+03 0.  0.
<mgrwt>
<rscale>  0 0.56373656E+03</rscale>
<asrwt>0</asrwt>
<pdfrwt beam="1">  1        2 0.24182525E-01 0.56373656E+03</pdfrwt>
<pdfrwt beam="2">  1       -2 0.67049369E-01 0.56373656E+03</pdfrwt>
<totfact> 0.46899422E+02</totfact>
</mgrwt>
</event>
<event>
 4    1  0.5056513E-005  0.6170188E+03  0.7818608E-02  0.9870713E-01
          2   -1    0    0  501    0  0.00000000000E+00  0.00000000000E+00  0.42334557360E+03  0.42334557361E+03  0.25500000000E-02 0.  1.
         -2   -1    0    0    0  501 -0.00000000000E+00 -0.00000000000E+00 -0.22482356907E+03  0.22482356908E+03  0.25500000000E-02 0. -1.
    5000001    1    1    2    0    0  0.15691537494E+03 -0.17452910558E+03  0.12261438216E+03  0.33123727190E+03  0.19900000000E+03 0.  0.
   -5000001    1    1    2    0    0 -0.15691537494E+03  0.17452910558E+03  0.75907622381E+02  0.31693187079E+03  0.19900000000E+03 0.  0.
<mgrwt>
<rscale>  0 0.61701884E+03</rscale>
<asrwt>0</asrwt>
<pdfrwt beam="1">  1        2 0.60477939E-01 0.61701884E+03</pdfrwt>
<pdfrwt beam="2">  1       -2 0.32117653E-01 0.61701884E+03</pdfrwt>
<totfact> 0.73505896E+02</totfact>
</mgrwt>
</event>
<event>
 4    1  0.5056513E-005  0.1581321E+04  0.7818608E-02  0.8832106E-01
          2   -1    0    0  501    0  0.00000000000E+00  0.00000000000E+00  0.85026110306E+03  0.85026110306E+03  0.25500000000E-02 0.  1.
         -2   -1    0    0    0  501 -0.00000000000E+00 -0.00000000000E+00 -0.73523742646E+03  0.73523742647E+03  0.25500000000E-02 0. -1.
    5000001    1    1    2    0    0 -0.49765857275E+03 -0.19547795880E+03 -0.49135301286E+03  0.75293058820E+03  0.19900000000E+03 0.  0.
   -5000001    1    1    2    0    0  0.49765857275E+03  0.19547795880E+03  0.60637668946E+03  0.83256794133E+03  0.19900000000E+03 0.  0.
<mgrwt>
<rscale>  0 0.15813207E+04</rscale>
<asrwt>0</asrwt>
<pdfrwt beam="1">  1        2 0.12146587E+00 0.15813207E+04</pdfrwt>
<pdfrwt beam="2">  1       -2 0.10503392E+00 0.15813207E+04</pdfrwt>
<totfact> 0.24814574E+01</totfact>
</mgrwt>
</event>
<event>
 4    1  0.5056513E-005  0.5234831E+03  0.7818608E-02  0.1007825E+00
         -2   -1    0    0    0  501 -0.00000000000E+00  0.00000000000E+00  0.14328433330E+03  0.14328433332E+03  0.25500000000E-02 0. -1.
          2   -1    0    0  501    0  0.00000000000E+00 -0.00000000000E+00 -0.47813073476E+03  0.47813073476E+03  0.25500000000E-02 0.  1.
    5000001    1    1    2    0    0  0.16492247406E+03  0.34705530740E+02 -0.14078005840E+03  0.29635101005E+03  0.19900000000E+03 0.  0.
   -5000001    1    1    2    0    0 -0.16492247406E+03 -0.34705530740E+02 -0.19406634306E+03  0.32506405803E+03  0.19900000000E+03 0.  0.
<mgrwt>
<rscale>  0 0.52348312E+03</rscale>
<asrwt>0</asrwt>
<pdfrwt beam="1">  1        2 0.68304390E-01 0.52348312E+03</pdfrwt>
<pdfrwt beam="2">  1       -2 0.20469191E-01 0.52348312E+03</pdfrwt>
<totfact> 0.14452380E+03</totfact>
</mgrwt>
</event>
<event>
 4    1  0.5056513E-005  0.7865831E+03  0.7818608E-02  0.9579643E-01
          2   -1    0    0  501    0  0.00000000000E+00  0.00000000000E+00  0.63798485021E+02  0.63798485072E+02  0.25500000000E-02 0.  1.
         -2   -1    0    0    0  501 -0.00000000000E+00 -0.00000000000E+00 -0.24244813544E+04  0.24244813544E+04  0.25500000000E-02 0. -1.
    5000001    1    1    2    0    0  0.33940349585E+02 -0.26521056558E+03 -0.18407935071E+04  0.18707245461E+04  0.19900000000E+03 0.  0.
   -5000001    1    1    2    0    0 -0.33940349585E+02  0.26521056558E+03 -0.51988936230E+03  0.61755529344E+03  0.19900000000E+03 0.  0.
<mgrwt>
<rscale>  0 0.78658309E+03</rscale>
<asrwt>0</asrwt>
<pdfrwt beam="1">  1        2 0.91140708E-02 0.78658309E+03</pdfrwt>
<pdfrwt beam="2">  1       -2 0.34635442E+00 0.78658309E+03</pdfrwt>
<totfact> 0.12886689E+01</totfact>
</mgrwt>
</event>
<event>
 4    1  0.5056513E-005  0.6560064E+03  0.7818608E-02  0.9795573E-01
          2   -1    0    0  501    0  0.00000000000E+00  0.00000000000E+00  0.19723950333E+04  0.19723950333E+04  0.25500000000E-02 0.  1.
         -2   -1    0    0    0  501 -0.00000000000E+00 -0.00000000000E+00 -0.54545918597E+02  0.54545918657E+02  0.25500000000E-02 0. -1.
    5000001    1    1    2    0    0 -0.24690531819E+03  0.34789156274E+02  0.11944931554E+04  0.12363605541E+04  0.19900000000E+03 0.  0.
   -5000001    1    1    2    0    0  0.24690531819E+03 -0.34789156274E+02  0.72335595925E+03  0.79058039777E+03  0.19900000000E+03 0.  0.
<mgrwt>
<rscale>  0 0.65600640E+03</rscale>
<asrwt>0</asrwt>
<pdfrwt beam="1">  1        2 0.28177071E+00 0.65600640E+03</pdfrwt>
<pdfrwt beam="2">  1       -2 0.77922743E-02 0.65600640E+03</pdfrwt>
<totfact> 0.87162263E+02</totfact>
</mgrwt>
</event>
<event>
 4    1  0.5056513E-005  0.4951676E+03  0.7818608E-02  0.1015048E+00
          2   -1    0    0  501    0  0.00000000000E+00  0.00000000000E+00  0.28287870230E+04  0.28287870230E+04  0.25500000000E-02 0.  1.
         -2   -1    0    0    0  501 -0.00000000000E+00 -0.00000000000E+00 -0.21669270028E+02  0.21669270178E+02  0.25500000000E-02 0. -1.
    5000001    1    1    2    0    0 -0.97731551879E+02 -0.10634965079E+03  0.15699067384E+04  0.15890468438E+04  0.19900000000E+03 0.  0.
   -5000001    1    1    2    0    0  0.97731551879E+02  0.10634965079E+03  0.12372110145E+04  0.12614094494E+04  0.19900000000E+03 0.  0.
<mgrwt>
<rscale>  0 0.49516765E+03</rscale>
<asrwt>0</asrwt>
<pdfrwt beam="1">  1        2 0.40411255E+00 0.49516765E+03</pdfrwt>
<pdfrwt beam="2">  1       -2 0.30956091E-02 0.49516765E+03</pdfrwt>
<totfact> 0.13464115E+03</totfact>
</mgrwt>
</event>
<event>
 4    1  0.5056513E-005  0.9257194E+03  0.7818608E-02  0.9393990E-01
          2   -1    0    0  501    0  0.00000000000E+00  0.00000000000E+00  0.20147170652E+04  0.20147170652E+04  0.25500000000E-02 0.  1.
         -2   -1    0    0    0  501 -0.00000000000E+00 -0.00000000000E+00 -0.10633706352E+03  0.10633706355E+03  0.25500000000E-02 0. -1.
    5000001    1    1    2    0    0  0.15528041014E+03  0.22873361483E+03  0.16722217830E+04  0.17065631438E+04  0.19900000000E+03 0.  0.
   -5000001    1    1    2    0    0 -0.15528041014E+03 -0.22873361483E+03  0.23615821865E+03  0.41449098490E+03  0.19900000000E+03 0.  0.
<mgrwt>
<rscale>  0 0.92571939E+03</rscale>
<asrwt>0</asrwt>
<pdfrwt beam="1">  1        2 0.28781670E+00 0.92571939E+03</pdfrwt>
<pdfrwt beam="2">  1       -2 0.15191010E-01 0.92571939E+03</pdfrwt>
<totfact> 0.27245269E+02</totfact>
</mgrwt>
</event>
<event>
 4    1  0.5056513E-005  0.5714993E+03  0.7818608E-02  0.9966366E-01
         -2   -1    0    0    0  501 -0.00000000000E+00  0.00000000000E+00  0.37405893289E+02  0.37405893376E+02  0.25500000000E-02 0. -1.
          2   -1    0    0  501    0  0.00000000000E+00 -0.00000000000E+00 -0.21828879469E+04  0.21828879469E+04  0.25500000000E-02 0.  1.
    5000001    1    1    2    0    0  0.15043847852E+03  0.12636676836E+03 -0.13009872243E+04  0.13307024662E+04  0.19900000000E+03 0.  0.
   -5000001    1    1    2    0    0 -0.15043847852E+03 -0.12636676836E+03 -0.84449482936E+03  0.88959137405E+03  0.19900000000E+03 0.  0.
<mgrwt>
<rscale>  0 0.57149934E+03</rscale>
<asrwt>0</asrwt>
<pdfrwt beam="1">  1        2 0.31184106E+00 0.57149934E+03</pdfrwt>
<pdfrwt beam="2">  1       -2 0.53437004E-02 0.57149934E+03</pdfrwt>
<totfact> 0.12428392E+03</totfact>
</mgrwt>
</event>
<event>
 4    1  0.5056513E-005  0.7537911E+03  0.7818608E-02  0.9629421E-01
          2   -1    0    0  501    0  0.00000000000E+00  0.00000000000E+00  0.91462818945E+03  0.91462818946E+03  0.25500000000E-02 0. -1.
         -2   -1    0    0    0  501 -0.00000000000E+00 -0.00000000000E+00 -0.15530931039E+03  0.15530931041E+03  0.25500000000E-02 0.  1.
    5000001    1    1    2    0    0  0.12497329770E+03 -0.28207721034E+03  0.50062931327E+03  0.62081928694E+03  0.19900000000E+03 0.  0.
   -5000001    1    1    2    0    0 -0.12497329770E+03  0.28207721034E+03  0.25868956580E+03  0.44911821293E+03  0.19900000000E+03 0.  0.
<mgrwt>
<rscale>  0 0.75379115E+03</rscale>
<asrwt>0</asrwt>
<pdfrwt beam="1">  1        2 0.13066117E+00 0.75379115E+03</pdfrwt>
<pdfrwt beam="2">  1       -2 0.22187045E-01 0.75379115E+03</pdfrwt>
<totfact> 0.56680239E+02</totfact>
</mgrwt>
</event>
<event>
 4    1  0.5056513E-005  0.5559924E+03  0.7818608E-02  0.1000116E+00
         -2   -1    0    0    0  501 -0.00000000000E+00  0.00000000000E+00  0.78887830842E+02  0.78887830883E+02  0.25500000000E-02 0. -1.
          2   -1    0    0  501    0  0.00000000000E+00 -0.00000000000E+00 -0.97964269120E+03  0.97964269120E+03  0.25500000000E-02 0.  1.
    5000001    1    1    2    0    0 -0.84666979085E+02  0.16493669657E+03 -0.55988279059E+03  0.62244867292E+03  0.19900000000E+03 0.  0.
   -5000001    1    1    2    0    0  0.84666979085E+02 -0.16493669657E+03 -0.34087206976E+03  0.43608184916E+03  0.19900000000E+03 0.  0.
<mgrwt>
<rscale>  0 0.55599240E+03</rscale>
<asrwt>0</asrwt>
<pdfrwt beam="1">  1        2 0.13994895E+00 0.55599240E+03</pdfrwt>
<pdfrwt beam="2">  1       -2 0.11269691E-01 0.55599240E+03</pdfrwt>
<totfact> 0.16381747E+03</totfact>
</mgrwt>
</event>
<event>
 4    1  0.5056513E-005  0.5104068E+03  0.7818608E-02  0.1011098E+00
          2   -1    0    0  501    0  0.00000000000E+00  0.00000000000E+00  0.69728970107E+03  0.69728970107E+03  0.25500000000E-02 0.  1.
         -2   -1    0    0    0  501 -0.00000000000E+00 -0.00000000000E+00 -0.93402754790E+02  0.93402754824E+02  0.25500000000E-02 0. -1.
    5000001    1    1    2    0    0  0.11687916136E+03 -0.90536017029E+02  0.20809220341E+03  0.32366784496E+03  0.19900000000E+03 0.  0.
   -5000001    1    1    2    0    0 -0.11687916136E+03  0.90536017029E+02  0.39579474287E+03  0.46702461094E+03  0.19900000000E+03 0.  0.
<mgrwt>
<rscale>  0 0.51040681E+03</rscale>
<asrwt>0</asrwt>
<pdfrwt beam="1">  1        2 0.99612811E-01 0.51040681E+03</pdfrwt>
<pdfrwt beam="2">  1       -2 0.13343251E-01 0.51040681E+03</pdfrwt>
<totfact> 0.19253909E+03</totfact>
</mgrwt>
</event>
<event>
 4    1  0.5056513E-005  0.4260878E+03  0.7818608E-02  0.1035103E+00
         -2   -1    0    0    0  501 -0.00000000000E+00  0.00000000000E+00  0.42629403516E+02  0.42629403593E+02  0.25500000000E-02 0. -1.
          2   -1    0    0  501    0  0.00000000000E+00 -0.00000000000E+00 -0.10647042537E+04  0.10647042537E+04  0.25500000000E-02 0.  1.
    5000001    1    1    2    0    0 -0.45260761088E+02 -0.35247011222E+02 -0.38120417592E+03  0.43383004971E+03  0.19900000000E+03 0.  0.
   -5000001    1    1    2    0    0  0.45260761088E+02  0.35247011222E+02 -0.64087067423E+03  0.67350360755E+03  0.19900000000E+03 0.  0.
<mgrwt>
<rscale>  0 0.42608782E+03</rscale>
<asrwt>0</asrwt>
<pdfrwt beam="1">  1        2 0.15210059E+00 0.42608782E+03</pdfrwt>
<pdfrwt beam="2">  1       -2 0.60899154E-02 0.42608782E+03</pdfrwt>
<totfact> 0.38804215E+03</totfact>
</mgrwt>
</event>
<event>
 4    1  0.5056513E-005  0.4700652E+03  0.7818608E-02  0.1021902E+00
          2   -1    0    0  501    0  0.00000000000E+00  0.00000000000E+00  0.64982896426E+03  0.64982896426E+03  0.25500000000E-02 0.  1.
         -2   -1    0    0    0  501 -0.00000000000E+00 -0.00000000000E+00 -0.85007479036E+02  0.85007479074E+02  0.25500000000E-02 0. -1.
    5000001    1    1    2    0    0  0.64042634957E+02  0.98005706835E+02  0.21368494284E+03  0.31459312208E+03  0.19900000000E+03 0.  0.
   -5000001    1    1    2    0    0 -0.64042634957E+02 -0.98005706835E+02  0.35113654238E+03  0.42024332125E+03  0.19900000000E+03 0.  0.
<mgrwt>
<rscale>  0 0.47006520E+03</rscale>
<asrwt>0</asrwt>
<pdfrwt beam="1">  1        2 0.92832713E-01 0.47006520E+03</pdfrwt>
<pdfrwt beam="2">  1       -2 0.12143925E-01 0.47006520E+03</pdfrwt>
<totfact> 0.24465649E+03</totfact>
</mgrwt>
</event>
<event>
 4    1  0.5056513E-005  0.6026211E+03  0.7818608E-02  0.9899983E-01
          2   -1    0    0  501    0  0.00000000000E+00  0.00000000000E+00  0.27474483899E+04  0.27474483899E+04  0.25500000000E-02 0.  1.
         -2   -1    0    0    0  501 -0.00000000000E+00 -0.00000000000E+00 -0.33044490637E+02  0.33044490735E+02  0.25500000000E-02 0. -1.
    5000001    1    1    2    0    0 -0.21195302518E+03 -0.32652644171E+02  0.16898182382E+04  0.17149568386E+04  0.19900000000E+03 0.  0.
   -5000001    1    1    2    0    0  0.21195302518E+03  0.32652644171E+02  0.10245856610E+04  0.10655360420E+04  0.19900000000E+03 0.  0.
<mgrwt>
<rscale>  0 0.60262105E+03</rscale>
<asrwt>0</asrwt>
<pdfrwt beam="1">  1        2 0.39249265E+00 0.60262105E+03</pdfrwt>
<pdfrwt beam="2">  1       -2 0.47206412E-02 0.60262105E+03</pdfrwt>
<totfact> 0.77211453E+02</totfact>
</mgrwt>
</event>
<event>
 4    1  0.5056513E-005  0.5326182E+03  0.7818608E-02  0.1005599E+00
          2   -1    0    0  501    0  0.00000000000E+00  0.00000000000E+00  0.96946535688E+03  0.96946535689E+03  0.25500000000E-02 0.  1.
         -2   -1    0    0    0  501 -0.00000000000E+00 -0.00000000000E+00 -0.73154278011E+02  0.73154278056E+02  0.25500000000E-02 0. -1.
    5000001    1    1    2    0    0  0.60613651802E+02 -0.14073440202E+03  0.27483502755E+03  0.37231099778E+03  0.19900000000E+03 0.  0.
   -5000001    1    1    2    0    0 -0.60613651802E+02  0.14073440202E+03  0.62147605132E+03  0.67030863717E+03  0.19900000000E+03 0.  0.
<mgrwt>
<rscale>  0 0.53261821E+03</rscale>
<asrwt>0</asrwt>
<pdfrwt beam="1">  1        2 0.13849505E+00 0.53261821E+03</pdfrwt>
<pdfrwt beam="2">  1       -2 0.10450611E-01 0.53261821E+03</pdfrwt>
<totfact> 0.18797174E+03</totfact>
</mgrwt>
</event>
<event>
 4    1  0.5056513E-005  0.4385154E+03  0.7818608E-02  0.1031203E+00
          2   -1    0    0  501    0  0.00000000000E+00  0.00000000000E+00  0.63881953147E+03  0.63881953147E+03  0.25500000000E-02 0.  1.
         -2   -1    0    0    0  501 -0.00000000000E+00 -0.00000000000E+00 -0.75254318904E+02  0.75254318947E+02  0.25500000000E-02 0. -1.
    5000001    1    1    2    0    0 -0.54144332340E+02  0.52758522584E+02  0.36729800056E+03  0.42452784555E+03  0.19900000000E+03 0.  0.
   -5000001    1    1    2    0    0  0.54144332340E+02 -0.52758522584E+02  0.19626721200E+03  0.28954600487E+03  0.19900000000E+03 0.  0.
<mgrwt>
<rscale>  0 0.43851535E+03</rscale>
<asrwt>0</asrwt>
<pdfrwt beam="1">  1        2 0.91259936E-01 0.43851535E+03</pdfrwt>
<pdfrwt beam="2">  1       -2 0.10750617E-01 0.43851535E+03</pdfrwt>
<totfact> 0.30426687E+03</totfact>
</mgrwt>
</event>
<event>
 4    1  0.5056513E-005  0.5247489E+03  0.7818608E-02  0.1007514E+00
          2   -1    0    0  501    0  0.00000000000E+00  0.00000000000E+00  0.25347197863E+03  0.25347197865E+03  0.25500000000E-02 0.  1.
         -2   -1    0    0    0  501 -0.00000000000E+00 -0.00000000000E+00 -0.27158956842E+03  0.27158956843E+03  0.25500000000E-02 0. -1.
    5000001    1    1    2    0    0  0.71388765128E+01  0.16408331721E+03  0.38562070434E+02  0.26088758465E+03  0.19900000000E+03 0.  0.
   -5000001    1    1    2    0    0 -0.71388765128E+01 -0.16408331721E+03 -0.56679660223E+02  0.26417396244E+03  0.19900000000E+03 0.  0.
<mgrwt>
<rscale>  0 0.52474887E+03</rscale>
<asrwt>0</asrwt>
<pdfrwt beam="1">  1        2 0.36210283E-01 0.52474887E+03</pdfrwt>
<pdfrwt beam="2">  1       -2 0.38798509E-01 0.52474887E+03</pdfrwt>
<totfact> 0.90633814E+02</totfact>
</mgrwt>
</event>
<event>
 4    1  0.5056513E-005  0.1265086E+04  0.7818608E-02  0.9057720E-01
         -2   -1    0    0    0  501 -0.00000000000E+00  0.00000000000E+00  0.80630004851E+03  0.80630004851E+03  0.25500000000E-02 0. -1.
          2   -1    0    0  501    0  0.00000000000E+00 -0.00000000000E+00 -0.49623046692E+03  0.49623046693E+03  0.25500000000E-02 0.  1.
    5000001    1    1    2    0    0 -0.52179039934E+03  0.22949715134E+03  0.34923213122E+03  0.69749426148E+03  0.19900000000E+03 0.  0.
   -5000001    1    1    2    0    0  0.52179039934E+03 -0.22949715134E+03 -0.39162549632E+02  0.60503625396E+03  0.19900000000E+03 0.  0.
<mgrwt>
<rscale>  0 0.12650860E+04</rscale>
<asrwt>0</asrwt>
<pdfrwt beam="1">  1        2 0.70890068E-01 0.12650860E+04</pdfrwt>
<pdfrwt beam="2">  1       -2 0.11518572E+00 0.12650860E+04</pdfrwt>
<totfact> 0.39126910E+01</totfact>
</mgrwt>
</event>
<event>
 4    1  0.5056513E-005  0.5694617E+03  0.7818608E-02  0.9970870E-01
         -2   -1    0    0    0  501 -0.00000000000E+00  0.00000000000E+00  0.49257920592E+02  0.49257920658E+02  0.25500000000E-02 0. -1.
          2   -1    0    0  501    0  0.00000000000E+00 -0.00000000000E+00 -0.16458604050E+04  0.16458604050E+04  0.25500000000E-02 0.  1.
    5000001    1    1    2    0    0 -0.48442622777E+02 -0.19774534913E+03 -0.81186089482E+03  0.86033076392E+03  0.19900000000E+03 0.  0.
   -5000001    1    1    2    0    0  0.48442622777E+02  0.19774534913E+03 -0.78474158954E+03  0.83478756170E+03  0.19900000000E+03 0.  0.
<mgrwt>
<rscale>  0 0.56946171E+03</rscale>
<asrwt>0</asrwt>
<pdfrwt beam="1">  1        2 0.23512288E+00 0.56946171E+03</pdfrwt>
<pdfrwt beam="2">  1       -2 0.70368468E-02 0.56946171E+03</pdfrwt>
<totfact> 0.15050580E+03</totfact>
</mgrwt>
</event>
<event>
 4    1  0.5056513E-005  0.5603544E+03  0.7818608E-02  0.9991253E-01
         -2   -1    0    0    0  501 -0.00000000000E+00  0.00000000000E+00  0.27312983334E+03  0.27312983335E+03  0.25500000000E-02 0. -1.
          2   -1    0    0  501    0  0.00000000000E+00 -0.00000000000E+00 -0.28740643954E+03  0.28740643955E+03  0.25500000000E-02 0.  1.
    5000001    1    1    2    0    0 -0.25493571163E+01  0.19695793404E+03  0.28321744603E+01  0.28001419288E+03  0.19900000000E+03 0.  0.
   -5000001    1    1    2    0    0  0.25493571163E+01 -0.19695793404E+03 -0.17108780663E+02  0.28052208002E+03  0.19900000000E+03 0.  0.
<mgrwt>
<rscale>  0 0.56035443E+03</rscale>
<asrwt>0</asrwt>
<pdfrwt beam="1">  1        2 0.41058063E-01 0.56035443E+03</pdfrwt>
<pdfrwt beam="2">  1       -2 0.39018548E-01 0.56035443E+03</pdfrwt>
<totfact> 0.78019174E+02</totfact>
</mgrwt>
</event>
<event>
 4    1  0.5056513E-005  0.9360141E+03  0.7818608E-02  0.9381649E-01
         -2   -1    0    0    0  501 -0.00000000000E+00  0.00000000000E+00  0.22637572856E+04  0.22637572856E+04  0.25500000000E-02 0. -1.
          2   -1    0    0  501    0  0.00000000000E+00 -0.00000000000E+00 -0.96755340000E+02  0.96755340034E+02  0.25500000000E-02 0.  1.
    5000001    1    1    2    0    0  0.15642387684E+03 -0.36399636542E+03  0.14615119598E+04  0.15272786229E+04  0.19900000000E+03 0.  0.
   -5000001    1    1    2    0    0 -0.15642387684E+03  0.36399636542E+03  0.70548998584E+03  0.83323400279E+03  0.19900000000E+03 0.  0.
<mgrwt>
<rscale>  0 0.93601412E+03</rscale>
<asrwt>0</asrwt>
<pdfrwt beam="1">  1        2 0.13822192E-01 0.93601412E+03</pdfrwt>
<pdfrwt beam="2">  1       -2 0.32339389E+00 0.93601412E+03</pdfrwt>
<totfact> 0.10390139E+01</totfact>
</mgrwt>
</event>
<event>
 4    1  0.5056513E-005  0.9847200E+03  0.7818608E-02  0.9325464E-01
          2   -1    0    0  501    0  0.00000000000E+00  0.00000000000E+00  0.94780929555E+03  0.94780929555E+03  0.25500000000E-02 0.  1.
         -2   -1    0    0    0  501 -0.00000000000E+00 -0.00000000000E+00 -0.25576705270E+03  0.25576705271E+03  0.25500000000E-02 0. -1.
    5000001    1    1    2    0    0 -0.10083252997E+03  0.42084104599E+03  0.19364098409E+03  0.51417138758E+03  0.19900000000E+03 0.  0.
   -5000001    1    1    2    0    0  0.10083252997E+03 -0.42084104599E+03  0.49840125876E+03  0.68940496068E+03  0.19900000000E+03 0.  0.
<mgrwt>
<rscale>  0 0.98472004E+03</rscale>
<asrwt>0</asrwt>
<pdfrwt beam="1">  1        2 0.13540133E+00 0.98472004E+03</pdfrwt>
<pdfrwt beam="2">  1       -2 0.36538151E-01 0.98472004E+03</pdfrwt>
<totfact> 0.21297513E+02</totfact>
</mgrwt>
</event>
<event>
 4    1  0.5056513E-005  0.4631252E+03  0.7818608E-02  0.1023879E+00
         -2   -1    0    0    0  501 -0.00000000000E+00  0.00000000000E+00  0.19427750401E+02  0.19427750568E+02  0.25500000000E-02 0. -1.
          2   -1    0    0  501    0  0.00000000000E+00 -0.00000000000E+00 -0.27600327491E+04  0.27600327491E+04  0.25500000000E-02 0.  1.
    5000001    1    1    2    0    0  0.67963215766E+02  0.80402894121E+02 -0.10450768490E+04  0.10690510953E+04  0.19900000000E+03 0.  0.
   -5000001    1    1    2    0    0 -0.67963215766E+02 -0.80402894121E+02 -0.16955281498E+04  0.17104094044E+04  0.19900000000E+03 0.  0.
<mgrwt>
<rscale>  0 0.46312516E+03</rscale>
<asrwt>0</asrwt>
<pdfrwt beam="1">  1        2 0.39429014E+00 0.46312516E+03</pdfrwt>
<pdfrwt beam="2">  1       -2 0.27753947E-02 0.46312516E+03</pdfrwt>
<totfact> 0.17300949E+03</totfact>
</mgrwt>
</event>
<event>
 4    1  0.5056513E-005  0.7265950E+03  0.7818608E-02  0.9672802E-01
          2   -1    0    0  501    0  0.00000000000E+00  0.00000000000E+00  0.17972454754E+03  0.17972454756E+03  0.25500000000E-02 0. -1.
         -2   -1    0    0    0  501 -0.00000000000E+00 -0.00000000000E+00 -0.73437426976E+03  0.73437426976E+03  0.25500000000E-02 0.  1.
    5000001    1    1    2    0    0  0.11179634533E+03 -0.21631073519E+03 -0.50619232652E+03  0.59591981710E+03  0.19900000000E+03 0.  0.
   -5000001    1    1    2    0    0 -0.11179634533E+03  0.21631073519E+03 -0.48457395697E+02  0.31817900023E+03  0.19900000000E+03 0.  0.
<mgrwt>
<rscale>  0 0.72659503E+03</rscale>
<asrwt>0</asrwt>
<pdfrwt beam="1">  1        2 0.25674936E-01 0.72659503E+03</pdfrwt>
<pdfrwt beam="2">  1       -2 0.10491061E+00 0.72659503E+03</pdfrwt>
<totfact> 0.15805535E+02</totfact>
</mgrwt>
</event>
<event>
 4    1  0.5056513E-005  0.5644122E+03  0.7818608E-02  0.9982120E-01
          2   -1    0    0  501    0  0.00000000000E+00  0.00000000000E+00  0.27147381538E+03  0.27147381540E+03  0.25500000000E-02 0.  1.
         -2   -1    0    0    0  501 -0.00000000000E+00 -0.00000000000E+00 -0.29336270181E+03  0.29336270182E+03  0.25500000000E-02 0. -1.
    5000001    1    1    2    0    0  0.97700683872E+02 -0.10876760016E+03 -0.14766147868E+03  0.28771639988E+03  0.19900000000E+03 0.  0.
   -5000001    1    1    2    0    0 -0.97700683872E+02  0.10876760016E+03  0.12577259225E+03  0.27712011734E+03  0.19900000000E+03 0.  0.
<mgrwt>
<rscale>  0 0.56441223E+03</rscale>
<asrwt>0</asrwt>
<pdfrwt beam="1">  1        2 0.38781974E-01 0.56441223E+03</pdfrwt>
<pdfrwt beam="2">  1       -2 0.41908957E-01 0.56441223E+03</pdfrwt>
<totfact> 0.72315273E+02</totfact>
</mgrwt>
</event>
<event>
 4    1  0.5056513E-005  0.5063577E+03  0.7818608E-02  0.1012133E+00
         -2   -1    0    0    0  501 -0.00000000000E+00  0.00000000000E+00  0.48607356887E+02  0.48607356954E+02  0.25500000000E-02 0. -1.
          2   -1    0    0  501    0  0.00000000000E+00 -0.00000000000E+00 -0.13187206543E+04  0.13187206543E+04  0.25500000000E-02 0.  1.
    5000001    1    1    2    0    0 -0.10080116689E+03 -0.11954504970E+03 -0.61661692485E+03  0.66653531501E+03  0.19900000000E+03 0.  0.
   -5000001    1    1    2    0    0  0.10080116689E+03  0.11954504970E+03 -0.65349637261E+03  0.70079269629E+03  0.19900000000E+03 0.  0.
<mgrwt>
<rscale>  0 0.50635768E+03</rscale>
<asrwt>0</asrwt>
<pdfrwt beam="1">  1        2 0.18838864E+00 0.50635768E+03</pdfrwt>
<pdfrwt beam="2">  1       -2 0.69439089E-02 0.50635768E+03</pdfrwt>
<totfact> 0.22807878E+03</totfact>
</mgrwt>
</event>
<event>
 4    1  0.5056513E-005  0.5164031E+03  0.7818608E-02  0.1009584E+00
         -2   -1    0    0    0  501 -0.00000000000E+00  0.00000000000E+00  0.12928581795E+03  0.12928581797E+03  0.25500000000E-02 0. -1.
          2   -1    0    0  501    0  0.00000000000E+00 -0.00000000000E+00 -0.51566408182E+03  0.51566408183E+03  0.25500000000E-02 0.  1.
    5000001    1    1    2    0    0 -0.96017541195E+02 -0.13290306678E+03 -0.21015153202E+03  0.33263682867E+03  0.19900000000E+03 0.  0.
   -5000001    1    1    2    0    0  0.96017541195E+02  0.13290306678E+03 -0.17622673186E+03  0.31231307113E+03  0.19900000000E+03 0.  0.
<mgrwt>
<rscale>  0 0.51640315E+03</rscale>
<asrwt>0</asrwt>
<pdfrwt beam="1">  1        2 0.73666296E-01 0.51640315E+03</pdfrwt>
<pdfrwt beam="2">  1       -2 0.18469403E-01 0.51640315E+03</pdfrwt>
<totfact> 0.15850282E+03</totfact>
</mgrwt>
</event>
<event>
 4    1  0.5056513E-005  0.6512829E+03  0.7818608E-02  0.9804375E-01
          2   -1    0    0  501    0  0.00000000000E+00  0.00000000000E+00  0.10552029289E+04  0.10552029289E+04  0.25500000000E-02 0.  1.
         -2   -1    0    0    0  501 -0.00000000000E+00 -0.00000000000E+00 -0.10049473913E+03  0.10049473916E+03  0.25500000000E-02 0. -1.
    5000001    1    1    2    0    0  0.50296591914E+02  0.23164341636E+03  0.29767463064E+03  0.42941775141E+03  0.19900000000E+03 0.  0.
   -5000001    1    1    2    0    0 -0.50296591914E+02 -0.23164341636E+03  0.65703355911E+03  0.72627991663E+03  0.19900000000E+03 0.  0.
<mgrwt>
<rscale>  0 0.65128287E+03</rscale>
<asrwt>0</asrwt>
<pdfrwt beam="1">  1        2 0.15074327E+00 0.65128287E+03</pdfrwt>
<pdfrwt beam="2">  1       -2 0.14356392E-01 0.65128287E+03</pdfrwt>
<totfact> 0.98566915E+02</totfact>
</mgrwt>
</event>
<event>
 4    1  0.5056513E-005  0.1403040E+04  0.7818608E-02  0.8951621E-01
         -2   -1    0    0    0  501 -0.00000000000E+00  0.00000000000E+00  0.99339162675E+02  0.99339162708E+02  0.25500000000E-02 0. -1.
          2   -1    0    0  501    0  0.00000000000E+00 -0.00000000000E+00 -0.49540409870E+04  0.49540409870E+04  0.25500000000E-02 0.  1.
    5000001    1    1    2    0    0  0.57473997294E+03  0.34252816654E+03 -0.26788981605E+04  0.27683475099E+04  0.19900000000E+03 0.  0.
   -5000001    1    1    2    0    0 -0.57473997294E+03 -0.34252816654E+03 -0.21758036639E+04  0.22850326398E+04  0.19900000000E+03 0.  0.
<mgrwt>
<rscale>  0 0.14030400E+04</rscale>
<asrwt>0</asrwt>
<pdfrwt beam="1">  1        2 0.70771999E+00 0.14030400E+04</pdfrwt>
<pdfrwt beam="2">  1       -2 0.14191312E-01 0.14030400E+04</pdfrwt>
<totfact> 0.38418839E+00</totfact>
</mgrwt>
</event>
<event>
 4    1  0.5056513E-005  0.5246258E+03  0.7818608E-02  0.1007544E+00
          2   -1    0    0  501    0  0.00000000000E+00  0.00000000000E+00  0.56289102344E+02  0.56289102402E+02  0.25500000000E-02 0.  1.
         -2   -1    0    0    0  501 -0.00000000000E+00 -0.00000000000E+00 -0.12224045712E+04  0.12224045712E+04  0.25500000000E-02 0. -1.
    5000001    1    1    2    0    0  0.58054608794E+02  0.15998788777E+03 -0.62086362457E+03  0.67382423684E+03  0.19900000000E+03 0.  0.
   -5000001    1    1    2    0    0 -0.58054608794E+02 -0.15998788777E+03 -0.54525184426E+03  0.60486943674E+03  0.19900000000E+03 0.  0.
<mgrwt>
<rscale>  0 0.52462579E+03</rscale>
<asrwt>0</asrwt>
<pdfrwt beam="1">  1        2 0.80413011E-02 0.52462579E+03</pdfrwt>
<pdfrwt beam="2">  1       -2 0.17462921E+00 0.52462579E+03</pdfrwt>
<totfact> 0.17774317E+02</totfact>
</mgrwt>
</event>
<event>
 4    1  0.5056513E-005  0.6617831E+03  0.7818608E-02  0.9784917E-01
          2   -1    0    0  501    0  0.00000000000E+00  0.00000000000E+00  0.10102415363E+04  0.10102415363E+04  0.25500000000E-02 0.  1.
         -2   -1    0    0    0  501 -0.00000000000E+00 -0.00000000000E+00 -0.10837924368E+03  0.10837924371E+03  0.25500000000E-02 0. -1.
    5000001    1    1    2    0    0  0.17069655439E+03  0.17037790773E+03  0.26792189194E+03  0.41176338509E+03  0.19900000000E+03 0.  0.
   -5000001    1    1    2    0    0 -0.17069655439E+03 -0.17037790773E+03  0.63394040066E+03  0.70685739489E+03  0.19900000000E+03 0.  0.
<mgrwt>
<rscale>  0 0.66178309E+03</rscale>
<asrwt>0</asrwt>
<pdfrwt beam="1">  1        2 0.14432023E+00 0.66178309E+03</pdfrwt>
<pdfrwt beam="2">  1       -2 0.15482748E-01 0.66178309E+03</pdfrwt>
<totfact> 0.92333459E+02</totfact>
</mgrwt>
</event>
<event>
 4    1  0.5056513E-005  0.5400232E+03  0.7818608E-02  0.1003830E+00
         -2   -1    0    0    0  501 -0.00000000000E+00  0.00000000000E+00  0.15769343499E+03  0.15769343501E+03  0.25500000000E-02 0. -1.
          2   -1    0    0  501    0  0.00000000000E+00 -0.00000000000E+00 -0.46232905683E+03  0.46232905684E+03  0.25500000000E-02 0.  1.
    5000001    1    1    2    0    0 -0.16741674032E+03  0.40552155505E+02 -0.22151568733E+03  0.34401023530E+03  0.19900000000E+03 0.  0.
   -5000001    1    1    2    0    0  0.16741674032E+03 -0.40552155505E+02 -0.83119934507E+02  0.27601225655E+03  0.19900000000E+03 0.  0.
<mgrwt>
<rscale>  0 0.54002317E+03</rscale>
<asrwt>0</asrwt>
<pdfrwt beam="1">  1        2 0.66047007E-01 0.54002317E+03</pdfrwt>
<pdfrwt beam="2">  1       -2 0.22527634E-01 0.54002317E+03</pdfrwt>
<totfact> 0.12687362E+03</totfact>
</mgrwt>
</event>
<event>
 4    1  0.5056513E-005  0.5204265E+03  0.7818608E-02  0.1008581E+00
         -2   -1    0    0    0  501 -0.00000000000E+00  0.00000000000E+00  0.45235948908E+03  0.45235948909E+03  0.25500000000E-02 0. -1.
          2   -1    0    0  501    0  0.00000000000E+00 -0.00000000000E+00 -0.14968392164E+03  0.14968392166E+03  0.25500000000E-02 0.  1.
    5000001    1    1    2    0    0 -0.12789654294E+03 -0.10597672309E+03  0.17775173682E+03  0.31430124320E+03  0.19900000000E+03 0.  0.
   -5000001    1    1    2    0    0  0.12789654294E+03  0.10597672309E+03  0.12492383062E+03  0.28774216755E+03  0.19900000000E+03 0.  0.
<mgrwt>
<rscale>  0 0.52042653E+03</rscale>
<asrwt>0</asrwt>
<pdfrwt beam="1">  1        2 0.21383418E-01 0.52042653E+03</pdfrwt>
<pdfrwt beam="2">  1       -2 0.64622784E-01 0.52042653E+03</pdfrwt>
<totfact> 0.58503581E+02</totfact>
</mgrwt>
</event>
<event>
 4    1  0.5056513E-005  0.5819211E+03  0.7818608E-02  0.9943641E-01
          2   -1    0    0  501    0  0.00000000000E+00  0.00000000000E+00  0.88974196511E+03  0.88974196511E+03  0.25500000000E-02 0.  1.
         -2   -1    0    0    0  501 -0.00000000000E+00 -0.00000000000E+00 -0.95148968884E+02  0.95148968918E+02  0.25500000000E-02 0. -1.
    5000001    1    1    2    0    0 -0.18640738865E+03  0.10065509169E+03  0.37472431126E+03  0.47423461649E+03  0.19900000000E+03 0.  0.
   -5000001    1    1    2    0    0  0.18640738865E+03 -0.10065509169E+03  0.41986868497E+03  0.51065631754E+03  0.19900000000E+03 0.  0.
<mgrwt>
<rscale>  0 0.58192106E+03</rscale>
<asrwt>0</asrwt>
<pdfrwt beam="1">  1        2 0.12710599E+00 0.58192106E+03</pdfrwt>
<pdfrwt beam="2">  1       -2 0.13592710E-01 0.58192106E+03</pdfrwt>
<totfact> 0.13698946E+03</totfact>
</mgrwt>
</event>
<event>
 4    1  0.5056513E-005  0.9168902E+03  0.7818608E-02  0.9404711E-01
         -2   -1    0    0    0  501 -0.00000000000E+00  0.00000000000E+00  0.10736877351E+03  0.10736877355E+03  0.25500000000E-02 0.  1.
          2   -1    0    0  501    0  0.00000000000E+00 -0.00000000000E+00 -0.19574770758E+04  0.19574770758E+04  0.25500000000E-02 0. -1.
    5000001    1    1    2    0    0 -0.16980436603E+03 -0.30060997643E+03 -0.14354762240E+04  0.14897626893E+04  0.19900000000E+03 0.  0.
   -5000001    1    1    2    0    0  0.16980436603E+03  0.30060997643E+03 -0.41463207823E+03  0.57508316003E+03  0.19900000000E+03 0.  0.
<mgrwt>
<rscale>  0 0.91689021E+03</rscale>
<asrwt>0</asrwt>
<pdfrwt beam="1">  1        2 0.27963956E+00 0.91689021E+03</pdfrwt>
<pdfrwt beam="2">  1       -2 0.15338397E-01 0.91689021E+03</pdfrwt>
<totfact> 0.28678978E+02</totfact>
</mgrwt>
</event>
<event>
 4    1  0.5056513E-005  0.5757356E+03  0.7818608E-02  0.9957066E-01
          2   -1    0    0  501    0  0.00000000000E+00  0.00000000000E+00  0.12388518934E+03  0.12388518936E+03  0.25500000000E-02 0.  1.
         -2   -1    0    0    0  501 -0.00000000000E+00 -0.00000000000E+00 -0.66890862563E+03  0.66890862564E+03  0.25500000000E-02 0. -1.
    5000001    1    1    2    0    0 -0.25935580434E+02  0.18515270281E+03 -0.39805921654E+03  0.48270727937E+03  0.19900000000E+03 0.  0.
   -5000001    1    1    2    0    0  0.25935580434E+02 -0.18515270281E+03 -0.14696421976E+03  0.31008653563E+03  0.19900000000E+03 0.  0.
<mgrwt>
<rscale>  0 0.57573561E+03</rscale>
<asrwt>0</asrwt>
<pdfrwt beam="1">  1        2 0.17697885E-01 0.57573561E+03</pdfrwt>
<pdfrwt beam="2">  1       -2 0.95558373E-01 0.57573561E+03</pdfrwt>
<totfact> 0.30539955E+02</totfact>
</mgrwt>
</event>
<event>
 4    1  0.5056513E-005  0.7899522E+03  0.7818608E-02  0.9574676E-01
          2   -1    0    0  501    0  0.00000000000E+00  0.00000000000E+00  0.13998203139E+04  0.13998203139E+04  0.25500000000E-02 0.  1.
         -2   -1    0    0    0  501 -0.00000000000E+00 -0.00000000000E+00 -0.11144725865E+03  0.11144725868E+03  0.25500000000E-02 0. -1.
    5000001    1    1    2    0    0  0.31649621410E+03  0.59624551088E+02  0.85961520237E+03  0.93928921892E+03  0.19900000000E+03 0.  0.
   -5000001    1    1    2    0    0 -0.31649621410E+03 -0.59624551088E+02  0.42875785285E+03  0.57197835362E+03  0.19900000000E+03 0.  0.
<mgrwt>
<rscale>  0 0.78995224E+03</rscale>
<asrwt>0</asrwt>
<pdfrwt beam="1">  1        2 0.19997433E+00 0.78995224E+03</pdfrwt>
<pdfrwt beam="2">  1       -2 0.15921037E-01 0.78995224E+03</pdfrwt>
<totfact> 0.52726246E+02</totfact>
</mgrwt>
</event>
<event>
 4    1  0.5056513E-005  0.6959821E+03  0.7818608E-02  0.9724128E-01
          2   -1    0    0  501    0  0.00000000000E+00  0.00000000000E+00  0.27157835723E+04  0.27157835723E+04  0.25500000000E-02 0.  1.
         -2   -1    0    0    0  501 -0.00000000000E+00 -0.00000000000E+00 -0.44590359656E+02  0.44590359729E+02  0.25500000000E-02 0. -1.
    5000001    1    1    2    0    0  0.22324401286E+03  0.16109758899E+03  0.10359891408E+04  0.10902590620E+04  0.19900000000E+03 0.  0.
   -5000001    1    1    2    0    0 -0.22324401286E+03 -0.16109758899E+03  0.16352040718E+04  0.16701148700E+04  0.19900000000E+03 0.  0.
<mgrwt>
<rscale>  0 0.69598209E+03</rscale>
<asrwt>0</asrwt>
<pdfrwt beam="1">  1        2 0.38796913E+00 0.69598209E+03</pdfrwt>
<pdfrwt beam="2">  1       -2 0.63700506E-02 0.69598209E+03</pdfrwt>
<totfact> 0.49856877E+02</totfact>
</mgrwt>
</event>
<event>
 4    1  0.5056513E-005  0.6054487E+03  0.7818608E-02  0.9894166E-01
         -2   -1    0    0    0  501 -0.00000000000E+00  0.00000000000E+00  0.36872729894E+02  0.36872729982E+02  0.25500000000E-02 0. -1.
          2   -1    0    0  501    0  0.00000000000E+00 -0.00000000000E+00 -0.24853609215E+04  0.24853609215E+04  0.25500000000E-02 0.  1.
    5000001    1    1    2    0    0 -0.11089371210E+03  0.19821843083E+03 -0.11355702472E+04  0.11750356369E+04  0.19900000000E+03 0.  0.
   -5000001    1    1    2    0    0  0.11089371210E+03 -0.19821843083E+03 -0.13129179444E+04  0.13471980145E+04  0.19900000000E+03 0.  0.
<mgrwt>
<rscale>  0 0.60544873E+03</rscale>
<asrwt>0</asrwt>
<pdfrwt beam="1">  1        2 0.35505145E+00 0.60544873E+03</pdfrwt>
<pdfrwt beam="2">  1       -2 0.52675344E-02 0.60544873E+03</pdfrwt>
<totfact> 0.89075560E+02</totfact>
</mgrwt>
</event>
<event>
 4    1  0.5056513E-005  0.4676039E+03  0.7818608E-02  0.1022599E+00
          2   -1    0    0  501    0  0.00000000000E+00  0.00000000000E+00  0.39459444366E+04  0.39459444366E+04  0.25500000000E-02 0.  1.
         -2   -1    0    0    0  501 -0.00000000000E+00 -0.00000000000E+00 -0.13853047141E+02  0.13853047376E+02  0.25500000000E-02 0. -1.
    5000001    1    1    2    0    0 -0.92383580704E+02 -0.64151514542E+02  0.23819587687E+04  0.23929017361E+04  0.19900000000E+03 0.  0.
   -5000001    1    1    2    0    0  0.92383580704E+02  0.64151514542E+02  0.15501326208E+04  0.15668957479E+04  0.19900000000E+03 0.  0.
<mgrwt>
<rscale>  0 0.46760391E+03</rscale>
<asrwt>0</asrwt>
<pdfrwt beam="1">  1        2 0.56370716E+00 0.46760391E+03</pdfrwt>
<pdfrwt beam="2">  1       -2 0.19790039E-02 0.46760391E+03</pdfrwt>
<totfact> 0.59310210E+02</totfact>
</mgrwt>
</event>
<event>
 4    1  0.5056513E-005  0.7632152E+03  0.7818608E-02  0.9614843E-01
         -2   -1    0    0    0  501 -0.00000000000E+00  0.00000000000E+00  0.49403796308E+02  0.49403796374E+02  0.25500000000E-02 0. -1.
          2   -1    0    0  501    0  0.00000000000E+00 -0.00000000000E+00 -0.29476346563E+04  0.29476346563E+04  0.25500000000E-02 0.  1.
    5000001    1    1    2    0    0  0.17595731441E+02  0.31307532580E+03 -0.17936416150E+04  0.18316869308E+04  0.19900000000E+03 0.  0.
   -5000001    1    1    2    0    0 -0.17595731441E+02 -0.31307532580E+03 -0.11045892449E+04  0.11653515218E+04  0.19900000000E+03 0.  0.
<mgrwt>
<rscale>  0 0.76321515E+03</rscale>
<asrwt>0</asrwt>
<pdfrwt beam="1">  1        2 0.42109055E+00 0.76321515E+03</pdfrwt>
<pdfrwt beam="2">  1       -2 0.70576870E-02 0.76321515E+03</pdfrwt>
<totfact> 0.31669740E+02</totfact>
</mgrwt>
</event>
<event>
 4    1  0.5056513E-005  0.5355915E+03  0.7818608E-02  0.1004885E+00
         -2   -1    0    0    0  501 -0.00000000000E+00  0.00000000000E+00  0.21394825430E+03  0.21394825431E+03  0.25500000000E-02 0. -1.
          2   -1    0    0  501    0  0.00000000000E+00 -0.00000000000E+00 -0.33519581801E+03  0.33519581802E+03  0.25500000000E-02 0.  1.
    5000001    1    1    2    0    0 -0.15216282645E+03 -0.77617979515E+02 -0.50727071085E+01  0.26230670761E+03  0.19900000000E+03 0.  0.
   -5000001    1    1    2    0    0  0.15216282645E+03  0.77617979515E+02 -0.11617485660E+03  0.28683736473E+03  0.19900000000E+03 0.  0.
<mgrwt>
<rscale>  0 0.53559149E+03</rscale>
<asrwt>0</asrwt>
<pdfrwt beam="1">  1        2 0.47885117E-01 0.53559149E+03</pdfrwt>
<pdfrwt beam="2">  1       -2 0.30564036E-01 0.53559149E+03</pdfrwt>
<totfact> 0.10446571E+03</totfact>
</mgrwt>
</event>
<event>
 4    1  0.5056513E-005  0.8024759E+03  0.7818608E-02  0.9556440E-01
          2   -1    0    0  501    0  0.00000000000E+00  0.00000000000E+00  0.12690773588E+04  0.12690773588E+04  0.25500000000E-02 0.  1.
         -2   -1    0    0    0  501 -0.00000000000E+00 -0.00000000000E+00 -0.12685742256E+03  0.12685742259E+03  0.25500000000E-02 0. -1.
    5000001    1    1    2    0    0 -0.28332852649E+03  0.17803229928E+03  0.73994640748E+03  0.83611735986E+03  0.19900000000E+03 0.  0.
   -5000001    1    1    2    0    0  0.28332852649E+03 -0.17803229928E+03  0.40227352874E+03  0.55981742152E+03  0.19900000000E+03 0.  0.
<mgrwt>
<rscale>  0 0.80247588E+03</rscale>
<asrwt>0</asrwt>
<pdfrwt beam="1">  1        2 0.18129677E+00 0.80247588E+03</pdfrwt>
<pdfrwt beam="2">  1       -2 0.18122489E-01 0.80247588E+03</pdfrwt>
<totfact> 0.49713177E+02</totfact>
</mgrwt>
</event>
<event>
 4    1  0.5056513E-005  0.4816546E+03  0.7818608E-02  0.1018681E+00
          2   -1    0    0  501    0  0.00000000000E+00  0.00000000000E+00  0.26725100342E+04  0.26725100342E+04  0.25500000000E-02 0.  1.
         -2   -1    0    0    0  501 -0.00000000000E+00 -0.00000000000E+00 -0.21701617000E+02  0.21701617150E+02  0.25500000000E-02 0. -1.
    5000001    1    1    2    0    0  0.11597954034E+02  0.13513022359E+03  0.13172991358E+04  0.13391313240E+04  0.19900000000E+03 0.  0.
   -5000001    1    1    2    0    0 -0.11597954034E+02 -0.13513022359E+03  0.13335092815E+04  0.13550803274E+04  0.19900000000E+03 0.  0.
<mgrwt>
<rscale>  0 0.48165460E+03</rscale>
<asrwt>0</asrwt>
<pdfrwt beam="1">  1        2 0.38178694E+00 0.48165460E+03</pdfrwt>
<pdfrwt beam="2">  1       -2 0.31002327E-02 0.48165460E+03</pdfrwt>
<totfact> 0.16232630E+03</totfact>
</mgrwt>
</event>
<event>
 4    1  0.5056513E-005  0.1409532E+04  0.7818608E-02  0.8946947E-01
          2   -1    0    0  501    0  0.00000000000E+00  0.00000000000E+00  0.10123969433E+04  0.10123969433E+04  0.25500000000E-02 0.  1.
         -2   -1    0    0    0  501 -0.00000000000E+00 -0.00000000000E+00 -0.49061310103E+03  0.49061310103E+03  0.25500000000E-02 0. -1.
    5000001    1    1    2    0    0  0.62411897230E+03  0.25027759260E+03  0.18601511502E+03  0.72551084620E+03  0.19900000000E+03 0.  0.
   -5000001    1    1    2    0    0 -0.62411897230E+03 -0.25027759260E+03  0.33576872729E+03  0.77749919818E+03  0.19900000000E+03 0.  0.
<mgrwt>
<rscale>  0 0.14095321E+04</rscale>
<asrwt>0</asrwt>
<pdfrwt beam="1">  1        2 0.14462813E+00 0.14095321E+04</pdfrwt>
<pdfrwt beam="2">  1       -2 0.70087586E-01 0.14095321E+04</pdfrwt>
<totfact> 0.49835936E+01</totfact>
</mgrwt>
</event>
<event>
 4    1  0.5056513E-005  0.5792380E+03  0.7818608E-02  0.9949442E-01
         -2   -1    0    0    0  501 -0.00000000000E+00  0.00000000000E+00  0.22809488026E+02  0.22809488169E+02  0.25500000000E-02 0. -1.
          2   -1    0    0  501    0  0.00000000000E+00 -0.00000000000E+00 -0.36773810149E+04  0.36773810149E+04  0.25500000000E-02 0.  1.
    5000001    1    1    2    0    0 -0.18741006383E+03 -0.95563524872E+02 -0.18580938133E+04  0.18805234746E+04  0.19900000000E+03 0.  0.
   -5000001    1    1    2    0    0  0.18741006383E+03  0.95563524872E+02 -0.17964777135E+04  0.18196670285E+04  0.19900000000E+03 0.  0.
<mgrwt>
<rscale>  0 0.57923805E+03</rscale>
<asrwt>0</asrwt>
<pdfrwt beam="1">  1        2 0.52533977E+00 0.57923805E+03</pdfrwt>
<pdfrwt beam="2">  1       -2 0.32585006E-02 0.57923805E+03</pdfrwt>
<totfact> 0.40747757E+02</totfact>
</mgrwt>
</event>
<event>
 4    1  0.5056513E-005  0.5524904E+03  0.7818608E-02  0.1000919E+00
          2   -1    0    0  501    0  0.00000000000E+00  0.00000000000E+00  0.78561902326E+03  0.78561902326E+03  0.25500000000E-02 0.  1.
         -2   -1    0    0    0  501 -0.00000000000E+00 -0.00000000000E+00 -0.97135394050E+02  0.97135394083E+02  0.25500000000E-02 0. -1.
    5000001    1    1    2    0    0  0.14431723588E+03  0.11570396406E+03  0.26442441827E+03  0.37912550013E+03  0.19900000000E+03 0.  0.
   -5000001    1    1    2    0    0 -0.14431723588E+03 -0.11570396406E+03  0.42405921094E+03  0.50362891722E+03  0.19900000000E+03 0.  0.
<mgrwt>
<rscale>  0 0.55249041E+03</rscale>
<asrwt>0</asrwt>
<pdfrwt beam="1">  1        2 0.11223129E+00 0.55249041E+03</pdfrwt>
<pdfrwt beam="2">  1       -2 0.13876485E-01 0.55249041E+03</pdfrwt>
<totfact> 0.15558363E+03</totfact>
</mgrwt>
</event>
<event>
 4    1  0.5056513E-005  0.6523888E+03  0.7818608E-02  0.9802307E-01
         -2   -1    0    0    0  501 -0.00000000000E+00  0.00000000000E+00  0.33817352086E+02  0.33817352183E+02  0.25500000000E-02 0. -1.
          2   -1    0    0  501    0  0.00000000000E+00 -0.00000000000E+00 -0.31463960561E+04  0.31463960561E+04  0.25500000000E-02 0.  1.
    5000001    1    1    2    0    0 -0.49804754711E+02 -0.24275266132E+03 -0.19142550703E+04  0.19404594411E+04  0.19900000000E+03 0.  0.
   -5000001    1    1    2    0    0  0.49804754711E+02  0.24275266132E+03 -0.11983236337E+04  0.12397539672E+04  0.19900000000E+03 0.  0.
<mgrwt>
<rscale>  0 0.65238879E+03</rscale>
<asrwt>0</asrwt>
<pdfrwt beam="1">  1        2 0.44948497E+00 0.65238879E+03</pdfrwt>
<pdfrwt beam="2">  1       -2 0.48310523E-02 0.65238879E+03</pdfrwt>
<totfact> 0.45107804E+02</totfact>
</mgrwt>
</event>
<event>
 4    1  0.5056513E-005  0.5583472E+03  0.7818608E-02  0.9995801E-01
         -2   -1    0    0    0  501 -0.00000000000E+00  0.00000000000E+00  0.18021940365E+03  0.18021940366E+03  0.25500000000E-02 0. -1.
          2   -1    0    0  501    0  0.00000000000E+00 -0.00000000000E+00 -0.43246118001E+03  0.43246118002E+03  0.25500000000E-02 0.  1.
    5000001    1    1    2    0    0  0.52098213821E+02 -0.18680804590E+03 -0.15567557513E+03  0.31850801338E+03  0.19900000000E+03 0.  0.
   -5000001    1    1    2    0    0 -0.52098213821E+02  0.18680804590E+03 -0.96566201235E+02  0.29417257030E+03  0.19900000000E+03 0.  0.
<mgrwt>
<rscale>  0 0.55834719E+03</rscale>
<asrwt>0</asrwt>
<pdfrwt beam="1">  1        2 0.61780168E-01 0.55834719E+03</pdfrwt>
<pdfrwt beam="2">  1       -2 0.25745629E-01 0.55834719E+03</pdfrwt>
<totfact> 0.10774998E+03</totfact>
</mgrwt>
</event>
<event>
 4    1  0.5056513E-005  0.5392192E+03  0.7818608E-02  0.1004021E+00
          2   -1    0    0  501    0  0.00000000000E+00  0.00000000000E+00  0.28003235225E+04  0.28003235225E+04  0.25500000000E-02 0.  1.
         -2   -1    0    0    0  501 -0.00000000000E+00 -0.00000000000E+00 -0.25957476762E+02  0.25957476888E+02  0.25500000000E-02 0. -1.
    5000001    1    1    2    0    0 -0.12548652263E+03 -0.13143059894E+03  0.13441319873E+04  0.13708802533E+04  0.19900000000E+03 0.  0.
   -5000001    1    1    2    0    0  0.12548652263E+03  0.13143059894E+03  0.14302340585E+04  0.14554007461E+04  0.19900000000E+03 0.  0.
<mgrwt>
<rscale>  0 0.53921919E+03</rscale>
<asrwt>0</asrwt>
<pdfrwt beam="1">  1        2 0.40004626E+00 0.53921919E+03</pdfrwt>
<pdfrwt beam="2">  1       -2 0.37082106E-02 0.53921919E+03</pdfrwt>
<totfact> 0.10552067E+03</totfact>
</mgrwt>
</event>
<event>
 4    1  0.5056513E-005  0.1244719E+04  0.7818608E-02  0.9074590E-01
         -2   -1    0    0    0  501 -0.00000000000E+00  0.00000000000E+00  0.75327595475E+03  0.75327595476E+03  0.25500000000E-02 0. -1.
          2   -1    0    0  501    0  0.00000000000E+00 -0.00000000000E+00 -0.51419601392E+03  0.51419601393E+03  0.25500000000E-02 0.  1.
    5000001    1    1    2    0    0  0.51418769522E+03 -0.28639093618E+03  0.15656026140E+03  0.64071902554E+03  0.19900000000E+03 0.  0.
   -5000001    1    1    2    0    0 -0.51418769522E+03  0.28639093618E+03  0.82519679434E+02  0.62675294314E+03  0.19900000000E+03 0.  0.
<mgrwt>
<rscale>  0 0.12447192E+04</rscale>
<asrwt>0</asrwt>
<pdfrwt beam="1">  1        2 0.73456574E-01 0.12447192E+04</pdfrwt>
<pdfrwt beam="2">  1       -2 0.10761085E+00 0.12447192E+04</pdfrwt>
<totfact> 0.44371104E+01</totfact>
</mgrwt>
</event>
<event>
 4    1  0.5056513E-005  0.4012223E+03  0.7818608E-02  0.1043357E+00
          2   -1    0    0  501    0  0.00000000000E+00  0.00000000000E+00  0.71301836160E+03  0.71301836161E+03  0.25500000000E-02 0.  1.
         -2   -1    0    0    0  501 -0.00000000000E+00 -0.00000000000E+00 -0.56442914474E+02  0.56442914532E+02  0.25500000000E-02 0. -1.
    5000001    1    1    2    0    0  0.15363627537E+02 -0.16934050202E+02  0.30718927197E+03  0.36672749000E+03  0.19900000000E+03 0.  0.
   -5000001    1    1    2    0    0 -0.15363627537E+02  0.16934050202E+02  0.34938617516E+03  0.40273378614E+03  0.19900000000E+03 0.  0.
<mgrwt>
<rscale>  0 0.40122230E+03</rscale>
<asrwt>0</asrwt>
<pdfrwt beam="1">  1        2 0.10185976E+00 0.40122230E+03</pdfrwt>
<pdfrwt beam="2">  1       -2 0.80632739E-02 0.40122230E+03</pdfrwt>
<totfact> 0.42200837E+03</totfact>
</mgrwt>
</event>
<event>
 4    1  0.5056513E-005  0.4426927E+03  0.7818608E-02  0.1029924E+00
          2   -1    0    0  501    0  0.00000000000E+00  0.00000000000E+00  0.51165199526E+02  0.51165199590E+02  0.25500000000E-02 0.  1.
         -2   -1    0    0    0  501 -0.00000000000E+00 -0.00000000000E+00 -0.95756902441E+03  0.95756902441E+03  0.25500000000E-02 0. -1.
    5000001    1    1    2    0    0  0.61509760990E+02 -0.20679048605E+02 -0.28916982841E+03  0.35697515798E+03  0.19900000000E+03 0.  0.
   -5000001    1    1    2    0    0 -0.61509760990E+02  0.20679048605E+02 -0.61723399647E+03  0.65175906602E+03  0.19900000000E+03 0.  0.
<mgrwt>
<rscale>  0 0.44269272E+03</rscale>
<asrwt>0</asrwt>
<pdfrwt beam="1">  1        2 0.73093148E-02 0.44269272E+03</pdfrwt>
<pdfrwt beam="2">  1       -2 0.13679556E+00 0.44269272E+03</pdfrwt>
<totfact> 0.38512365E+02</totfact>
</mgrwt>
</event>
<event>
 4    1  0.5056513E-005  0.6374775E+03  0.7818608E-02  0.9830565E-01
         -2   -1    0    0    0  501 -0.00000000000E+00  0.00000000000E+00  0.36181023001E+02  0.36181023091E+02  0.25500000000E-02 0. -1.
          2   -1    0    0  501    0  0.00000000000E+00 -0.00000000000E+00 -0.28079466234E+04  0.28079466235E+04  0.25500000000E-02 0.  1.
    5000001    1    1    2    0    0  0.18756753712E+03  0.12595219862E+03 -0.91906377578E+03  0.96712189576E+03  0.19900000000E+03 0.  0.
   -5000001    1    1    2    0    0 -0.18756753712E+03 -0.12595219862E+03 -0.18527018247E+04  0.18770057508E+04  0.19900000000E+03 0.  0.
<mgrwt>
<rscale>  0 0.63747747E+03</rscale>
<asrwt>0</asrwt>
<pdfrwt beam="1">  1        2 0.40113509E+00 0.63747747E+03</pdfrwt>
<pdfrwt beam="2">  1       -2 0.51687193E-02 0.63747747E+03</pdfrwt>
<totfact> 0.62130881E+02</totfact>
</mgrwt>
</event>
<event>
 4    1  0.5056513E-005  0.5684894E+03  0.7818608E-02  0.9973027E-01
          2   -1    0    0  501    0  0.00000000000E+00  0.00000000000E+00  0.59310885467E+03  0.59310885468E+03  0.25500000000E-02 0.  1.
         -2   -1    0    0    0  501 -0.00000000000E+00 -0.00000000000E+00 -0.13622296650E+03  0.13622296653E+03  0.25500000000E-02 0. -1.
    5000001    1    1    2    0    0  0.12371398935E+03  0.15834569914E+03  0.19180556654E+03  0.34171462794E+03  0.19900000000E+03 0.  0.
   -5000001    1    1    2    0    0 -0.12371398935E+03 -0.15834569914E+03  0.26508032163E+03  0.38761719326E+03  0.19900000000E+03 0.  0.
<mgrwt>
<rscale>  0 0.56848939E+03</rscale>
<asrwt>0</asrwt>
<pdfrwt beam="1">  1        2 0.84729836E-01 0.56848939E+03</pdfrwt>
<pdfrwt beam="2">  1       -2 0.19460424E-01 0.56848939E+03</pdfrwt>
<totfact> 0.12322041E+03</totfact>
</mgrwt>
</event>
<event>
 4    1  0.5056513E-005  0.8799721E+03  0.7818608E-02  0.9450969E-01
         -2   -1    0    0    0  501 -0.00000000000E+00  0.00000000000E+00  0.13298010122E+03  0.13298010124E+03  0.25500000000E-02 0. -1.
          2   -1    0    0  501    0  0.00000000000E+00 -0.00000000000E+00 -0.14557644934E+04  0.14557644934E+04  0.25500000000E-02 0.  1.
    5000001    1    1    2    0    0 -0.34460661284E+03  0.67191172652E+02 -0.34495752686E+03  0.53090965958E+03  0.19900000000E+03 0.  0.
   -5000001    1    1    2    0    0  0.34460661284E+03 -0.67191172652E+02 -0.97782686533E+03  0.10578349351E+04  0.19900000000E+03 0.  0.
<mgrwt>
<rscale>  0 0.87997207E+03</rscale>
<asrwt>0</asrwt>
<pdfrwt beam="1">  1        2 0.20796635E+00 0.87997207E+03</pdfrwt>
<pdfrwt beam="2">  1       -2 0.18997158E-01 0.87997207E+03</pdfrwt>
<totfact> 0.36147679E+02</totfact>
</mgrwt>
</event>
<event>
 4    1  0.5056513E-005  0.5961949E+03  0.7818608E-02  0.9913332E-01
         -2   -1    0    0    0  501 -0.00000000000E+00  0.00000000000E+00  0.63125666923E+02  0.63125666975E+02  0.25500000000E-02 0. -1.
          2   -1    0    0  501    0  0.00000000000E+00 -0.00000000000E+00 -0.14077012281E+04  0.14077012281E+04  0.25500000000E-02 0.  1.
    5000001    1    1    2    0    0  0.53293785836E+02  0.21215701090E+03 -0.76493278432E+03  0.82010608424E+03  0.19900000000E+03 0.  0.
   -5000001    1    1    2    0    0 -0.53293785836E+02 -0.21215701090E+03 -0.57964277681E+03  0.65072081079E+03  0.19900000000E+03 0.  0.
<mgrwt>
<rscale>  0 0.59619486E+03</rscale>
<asrwt>0</asrwt>
<pdfrwt beam="1">  1        2 0.20110016E+00 0.59619486E+03</pdfrwt>
<pdfrwt beam="2">  1       -2 0.90179533E-02 0.59619486E+03</pdfrwt>
<totfact> 0.13464612E+03</totfact>
</mgrwt>
</event>
<event>
 4    1  0.5056513E-005  0.6778331E+03  0.7818608E-02  0.9755910E-01
          2   -1    0    0  501    0  0.00000000000E+00  0.00000000000E+00  0.67284152996E+03  0.67284152996E+03  0.25500000000E-02 0.  1.
         -2   -1    0    0    0  501 -0.00000000000E+00 -0.00000000000E+00 -0.17071540616E+03  0.17071540618E+03  0.25500000000E-02 0. -1.
    5000001    1    1    2    0    0 -0.21622773321E+03  0.13419397309E+03  0.37859124009E+03  0.49768944342E+03  0.19900000000E+03 0.  0.
   -5000001    1    1    2    0    0  0.21622773321E+03 -0.13419397309E+03  0.12353488372E+03  0.34586749272E+03  0.19900000000E+03 0.  0.
<mgrwt>
<rscale>  0 0.67783306E+03</rscale>
<asrwt>0</asrwt>
<pdfrwt beam="1">  1        2 0.96120218E-01 0.67783306E+03</pdfrwt>
<pdfrwt beam="2">  1       -2 0.24387915E-01 0.67783306E+03</pdfrwt>
<totfact> 0.71085131E+02</totfact>
</mgrwt>
</event>
<event>
 4    1  0.5056513E-005  0.5677450E+03  0.7818608E-02  0.9974681E-01
         -2   -1    0    0    0  501 -0.00000000000E+00  0.00000000000E+00  0.24138611118E+02  0.24138611252E+02  0.25500000000E-02 0. -1.
          2   -1    0    0  501    0  0.00000000000E+00 -0.00000000000E+00 -0.33383686788E+04  0.33383686788E+04  0.25500000000E-02 0.  1.
    5000001    1    1    2    0    0 -0.41409853674E+02 -0.18301673763E+03 -0.21071007637E+04  0.21247787015E+04  0.19900000000E+03 0.  0.
   -5000001    1    1    2    0    0  0.41409853674E+02  0.18301673763E+03 -0.12071293040E+04  0.12377285885E+04  0.19900000000E+03 0.  0.
<mgrwt>
<rscale>  0 0.56774496E+03</rscale>
<asrwt>0</asrwt>
<pdfrwt beam="1">  1        2 0.47690952E+00 0.56774496E+03</pdfrwt>
<pdfrwt beam="2">  1       -2 0.34483752E-02 0.56774496E+03</pdfrwt>
<totfact> 0.59529591E+02</totfact>
</mgrwt>
</event>
<event>
 4    1  0.5056513E-005  0.6272843E+03  0.7818608E-02  0.9850363E-01
          2   -1    0    0  501    0  0.00000000000E+00  0.00000000000E+00  0.93704516709E+03  0.93704516710E+03  0.25500000000E-02 0.  1.
         -2   -1    0    0    0  501 -0.00000000000E+00 -0.00000000000E+00 -0.10498042560E+03  0.10498042564E+03  0.25500000000E-02 0. -1.
    5000001    1    1    2    0    0 -0.16115160905E+03 -0.17918186550E+03  0.37225752885E+03  0.48605827821E+03  0.19900000000E+03 0.  0.
   -5000001    1    1    2    0    0  0.16115160905E+03  0.17918186550E+03  0.45980721264E+03  0.55596731452E+03  0.19900000000E+03 0.  0.
<mgrwt>
<rscale>  0 0.62728431E+03</rscale>
<asrwt>0</asrwt>
<pdfrwt beam="1">  1        2 0.13386361E+00 0.62728431E+03</pdfrwt>
<pdfrwt beam="2">  1       -2 0.14997202E-01 0.62728431E+03</pdfrwt>
<totfact> 0.10826294E+03</totfact>
</mgrwt>
</event>
<event>
 4    1  0.5056513E-005  0.5116564E+03  0.7818608E-02  0.1010780E+00
         -2   -1    0    0    0  501 -0.00000000000E+00  0.00000000000E+00  0.16223987610E+03  0.16223987612E+03  0.25500000000E-02 0.  1.
          2   -1    0    0  501    0  0.00000000000E+00 -0.00000000000E+00 -0.40340311449E+03  0.40340311450E+03  0.25500000000E-02 0. -1.
    5000001    1    1    2    0    0 -0.39447293192E+02 -0.13995101159E+03 -0.19640965470E+03  0.31515095914E+03  0.19900000000E+03 0.  0.
   -5000001    1    1    2    0    0  0.39447293192E+02  0.13995101159E+03 -0.44753583685E+02  0.25049203149E+03  0.19900000000E+03 0.  0.
<mgrwt>
<rscale>  0 0.51165641E+03</rscale>
<asrwt>0</asrwt>
<pdfrwt beam="1">  1        2 0.57629016E-01 0.51165641E+03</pdfrwt>
<pdfrwt beam="2">  1       -2 0.23177125E-01 0.51165641E+03</pdfrwt>
<totfact> 0.14043578E+03</totfact>
</mgrwt>
</event>
<event>
 4    1  0.5056513E-005  0.6179244E+03  0.7818608E-02  0.9868901E-01
          2   -1    0    0  501    0  0.00000000000E+00  0.00000000000E+00  0.53414317040E+03  0.53414317040E+03  0.25500000000E-02 0.  1.
         -2   -1    0    0    0  501 -0.00000000000E+00 -0.00000000000E+00 -0.17871169147E+03  0.17871169149E+03  0.25500000000E-02 0. -1.
    5000001    1    1    2    0    0  0.16837315047E+03  0.14248322913E+03  0.79788815916E+02  0.30760078596E+03  0.19900000000E+03 0.  0.
   -5000001    1    1    2    0    0 -0.16837315047E+03 -0.14248322913E+03  0.27564266301E+03  0.40525407592E+03  0.19900000000E+03 0.  0.
<mgrwt>
<rscale>  0 0.61792436E+03</rscale>
<asrwt>0</asrwt>
<pdfrwt beam="1">  1        2 0.76306168E-01 0.61792436E+03</pdfrwt>
<pdfrwt beam="2">  1       -2 0.25530241E-01 0.61792436E+03</pdfrwt>
<totfact> 0.86083855E+02</totfact>
</mgrwt>
</event>
<event>
 4    1  0.5056513E-005  0.7245815E+03  0.7818608E-02  0.9676094E-01
         -2   -1    0    0    0  501 -0.00000000000E+00  0.00000000000E+00  0.15662185179E+03  0.15662185181E+03  0.25500000000E-02 0. -1.
          2   -1    0    0  501    0  0.00000000000E+00 -0.00000000000E+00 -0.83803492058E+03  0.83803492059E+03  0.25500000000E-02 0.  1.
    5000001    1    1    2    0    0 -0.25856937994E+03 -0.88471834214E+02 -0.16189159867E+03  0.37482699931E+03  0.19900000000E+03 0.  0.
   -5000001    1    1    2    0    0  0.25856937994E+03  0.88471834214E+02 -0.51952147012E+03  0.61982977309E+03  0.19900000000E+03 0.  0.
<mgrwt>
<rscale>  0 0.72458148E+03</rscale>
<asrwt>0</asrwt>
<pdfrwt beam="1">  1        2 0.11971927E+00 0.72458148E+03</pdfrwt>
<pdfrwt beam="2">  1       -2 0.22374551E-01 0.72458148E+03</pdfrwt>
<totfact> 0.62802052E+02</totfact>
</mgrwt>
</event>
<event>
 4    1  0.5056513E-005  0.1046659E+04  0.7818608E-02  0.9258801E-01
          2   -1    0    0  501    0  0.00000000000E+00  0.00000000000E+00  0.47990611378E+03  0.47990611378E+03  0.25500000000E-02 0.  1.
         -2   -1    0    0    0  501 -0.00000000000E+00 -0.00000000000E+00 -0.57068153718E+03  0.57068153719E+03  0.25500000000E-02 0. -1.
    5000001    1    1    2    0    0  0.17925027870E+03  0.44824659138E+03 -0.80402607443E+02  0.52831926747E+03  0.19900000000E+03 0.  0.
   -5000001    1    1    2    0    0 -0.17925027870E+03 -0.44824659138E+03 -0.10372815961E+02  0.52226838350E+03  0.19900000000E+03 0.  0.
<mgrwt>
<rscale>  0 0.10466586E+04</rscale>
<asrwt>0</asrwt>
<pdfrwt beam="1">  1        2 0.68558016E-01 0.10466586E+04</pdfrwt>
<pdfrwt beam="2">  1       -2 0.81525934E-01 0.10466586E+04</pdfrwt>
<totfact> 0.92937335E+01</totfact>
</mgrwt>
</event>
<event>
 4    1  0.5056513E-005  0.4485891E+03  0.7818608E-02  0.1028144E+00
         -2   -1    0    0    0  501 -0.00000000000E+00  0.00000000000E+00  0.30475309316E+02  0.30475309423E+02  0.25500000000E-02 0. -1.
          2   -1    0    0  501    0  0.00000000000E+00 -0.00000000000E+00 -0.16507800912E+04  0.16507800912E+04  0.25500000000E-02 0.  1.
    5000001    1    1    2    0    0 -0.82516511739E+02  0.33192685104E+01 -0.10438179075E+04  0.10658221316E+04  0.19900000000E+03 0.  0.
   -5000001    1    1    2    0    0  0.82516511739E+02 -0.33192685104E+01 -0.57648687445E+03  0.61543326906E+03  0.19900000000E+03 0.  0.
<mgrwt>
<rscale>  0 0.44858905E+03</rscale>
<asrwt>0</asrwt>
<pdfrwt beam="1">  1        2 0.23582567E+00 0.44858905E+03</pdfrwt>
<pdfrwt beam="2">  1       -2 0.43536167E-02 0.44858905E+03</pdfrwt>
<totfact> 0.31657890E+03</totfact>
</mgrwt>
</event>
<event>
 4    1  0.5056513E-005  0.8316508E+03  0.7818608E-02  0.9515301E-01
          2   -1    0    0  501    0  0.00000000000E+00  0.00000000000E+00  0.43997340656E+03  0.43997340657E+03  0.25500000000E-02 0.  1.
         -2   -1    0    0    0  501 -0.00000000000E+00 -0.00000000000E+00 -0.39300275948E+03  0.39300275949E+03  0.25500000000E-02 0. -1.
    5000001    1    1    2    0    0 -0.34510462853E+03  0.12845201532E+02  0.14219660665E+03  0.42318208702E+03  0.19900000000E+03 0.  0.
   -5000001    1    1    2    0    0  0.34510462853E+03 -0.12845201532E+02 -0.95225959570E+02  0.40979407903E+03  0.19900000000E+03 0.  0.
<mgrwt>
<rscale>  0 0.83165080E+03</rscale>
<asrwt>0</asrwt>
<pdfrwt beam="1">  1        2 0.62853344E-01 0.83165080E+03</pdfrwt>
<pdfrwt beam="2">  1       -2 0.56143252E-01 0.83165080E+03</pdfrwt>
<totfact> 0.23271917E+02</totfact>
</mgrwt>
</event>
<event>
 4    1  0.5056513E-005  0.6296522E+03  0.7818608E-02  0.9845728E-01
         -2   -1    0    0    0  501 -0.00000000000E+00  0.00000000000E+00  0.47507616048E+02  0.47507616116E+02  0.25500000000E-02 0. -1.
          2   -1    0    0  501    0  0.00000000000E+00 -0.00000000000E+00 -0.20863069978E+04  0.20863069978E+04  0.25500000000E-02 0.  1.
    5000001    1    1    2    0    0 -0.15357226502E+03 -0.89889766099E+02 -0.15849450995E+04  0.16072699148E+04  0.19900000000E+03 0.  0.
   -5000001    1    1    2    0    0  0.15357226502E+03  0.89889766099E+02 -0.45385428220E+03  0.52654469906E+03  0.19900000000E+03 0.  0.
<mgrwt>
<rscale>  0 0.62965220E+03</rscale>
<asrwt>0</asrwt>
<pdfrwt beam="1">  1        2 0.29804380E+00 0.62965220E+03</pdfrwt>
<pdfrwt beam="2">  1       -2 0.67868036E-02 0.62965220E+03</pdfrwt>
<totfact> 0.95245094E+02</totfact>
</mgrwt>
</event>
<event>
 4    1  0.5056513E-005  0.7122885E+03  0.7818608E-02  0.9696445E-01
         -2   -1    0    0    0  501 -0.00000000000E+00  0.00000000000E+00  0.10949739842E+03  0.10949739845E+03  0.25500000000E-02 0. -1.
          2   -1    0    0  501    0  0.00000000000E+00 -0.00000000000E+00 -0.11583720482E+04  0.11583720482E+04  0.25500000000E-02 0.  1.
    5000001    1    1    2    0    0 -0.67411580305E+02 -0.18693562857E+03 -0.13548321959E+03  0.31216334374E+03  0.19900000000E+03 0.  0.
   -5000001    1    1    2    0    0  0.67411580305E+02  0.18693562857E+03 -0.91339143016E+03  0.95570610288E+03  0.19900000000E+03 0.  0.
<mgrwt>
<rscale>  0 0.71228850E+03</rscale>
<asrwt>0</asrwt>
<pdfrwt beam="1">  1        2 0.16548171E+00 0.71228850E+03</pdfrwt>
<pdfrwt beam="2">  1       -2 0.15642486E-01 0.71228850E+03</pdfrwt>
<totfact> 0.74102512E+02</totfact>
</mgrwt>
</event>
<event>
 4    1  0.5056513E-005  0.7366155E+03  0.7818608E-02  0.9656586E-01
          2   -1    0    0  501    0  0.00000000000E+00  0.00000000000E+00  0.11430561663E+04  0.11430561663E+04  0.25500000000E-02 0.  1.
         -2   -1    0    0    0  501 -0.00000000000E+00 -0.00000000000E+00 -0.11867359266E+03  0.11867359269E+03  0.25500000000E-02 0. -1.
    5000001    1    1    2    0    0  0.16651860157E+03 -0.25954125703E+03  0.45913438001E+03  0.58778864201E+03  0.19900000000E+03 0.  0.
   -5000001    1    1    2    0    0 -0.16651860157E+03  0.25954125703E+03  0.56524819362E+03  0.67394111699E+03  0.19900000000E+03 0.  0.
<mgrwt>
<rscale>  0 0.73661545E+03</rscale>
<asrwt>0</asrwt>
<pdfrwt beam="1">  1        2 0.16329374E+00 0.73661545E+03</pdfrwt>
<pdfrwt beam="2">  1       -2 0.16953371E-01 0.73661545E+03</pdfrwt>
<totfact> 0.65863444E+02</totfact>
</mgrwt>
</event>
<event>
 4    1  0.5056513E-005  0.5762868E+03  0.7818608E-02  0.9955863E-01
         -2   -1    0    0    0  501 -0.00000000000E+00  0.00000000000E+00  0.12973053234E+04  0.12973053234E+04  0.25500000000E-02 0. -1.
          2   -1    0    0  501    0  0.00000000000E+00 -0.00000000000E+00 -0.63999292378E+02  0.63999292429E+02  0.25500000000E-02 0.  1.
    5000001    1    1    2    0    0 -0.10548621221E+03  0.17897839378E+03  0.65510802752E+03  0.71549153323E+03  0.19900000000E+03 0.  0.
   -5000001    1    1    2    0    0  0.10548621221E+03 -0.17897839378E+03  0.57819800353E+03  0.64581308262E+03  0.19900000000E+03 0.  0.
<mgrwt>
<rscale>  0 0.57628681E+03</rscale>
<asrwt>0</asrwt>
<pdfrwt beam="1">  1        2 0.91427557E-02 0.57628681E+03</pdfrwt>
<pdfrwt beam="2">  1       -2 0.18532934E+00 0.57628681E+03</pdfrwt>
<totfact> 0.12712016E+02</totfact>
</mgrwt>
</event>
<event>
 4    1  0.5056513E-005  0.6626273E+03  0.7818608E-02  0.9783369E-01
          2   -1    0    0  501    0  0.00000000000E+00  0.00000000000E+00  0.40948956013E+04  0.40948956013E+04  0.25500000000E-02 0.  1.
         -2   -1    0    0    0  501 -0.00000000000E+00 -0.00000000000E+00 -0.26806238869E+02  0.26806238991E+02  0.25500000000E-02 0. -1.
    5000001    1    1    2    0    0  0.23820153872E+03  0.75177022820E+02  0.25825624579E+04  0.26022339262E+04  0.19900000000E+03 0.  0.
   -5000001    1    1    2    0    0 -0.23820153872E+03 -0.75177022820E+02  0.14855269045E+04  0.15194679141E+04  0.19900000000E+03 0.  0.
<mgrwt>
<rscale>  0 0.66262735E+03</rscale>
<asrwt>0</asrwt>
<pdfrwt beam="1">  1        2 0.58498517E+00 0.66262735E+03</pdfrwt>
<pdfrwt beam="2">  1       -2 0.38294622E-02 0.66262735E+03</pdfrwt>
<totfact> 0.16857559E+02</totfact>
</mgrwt>
</event>
<event>
 4    1  0.5056513E-005  0.6973413E+03  0.7818608E-02  0.9721790E-01
         -2   -1    0    0    0  501 -0.00000000000E+00  0.00000000000E+00  0.54902480221E+02  0.54902480280E+02  0.25500000000E-02 0. -1.
          2   -1    0    0  501    0  0.00000000000E+00 -0.00000000000E+00 -0.22143123211E+04  0.22143123211E+04  0.25500000000E-02 0.  1.
    5000001    1    1    2    0    0 -0.25936553995E+03 -0.49884132459E+02 -0.72011157293E+03  0.79241440387E+03  0.19900000000E+03 0.  0.
   -5000001    1    1    2    0    0  0.25936553995E+03  0.49884132459E+02 -0.14392982680E+04  0.14768003976E+04  0.19900000000E+03 0.  0.
<mgrwt>
<rscale>  0 0.69734135E+03</rscale>
<asrwt>0</asrwt>
<pdfrwt beam="1">  1        2 0.31633028E+00 0.69734135E+03</pdfrwt>
<pdfrwt beam="2">  1       -2 0.78432128E-02 0.69734135E+03</pdfrwt>
<totfact> 0.64952032E+02</totfact>
</mgrwt>
</event>
<event>
 4    1  0.5056513E-005  0.5241338E+03  0.7818608E-02  0.1007665E+00
         -2   -1    0    0    0  501 -0.00000000000E+00  0.00000000000E+00  0.32445614415E+03  0.32445614416E+03  0.25500000000E-02 0. -1.
          2   -1    0    0  501    0  0.00000000000E+00 -0.00000000000E+00 -0.21167440293E+03  0.21167440295E+03  0.25500000000E-02 0.  1.
    5000001    1    1    2    0    0  0.15408153492E+03 -0.33632619669E+02  0.12272729781E+03  0.28201996762E+03  0.19900000000E+03 0.  0.
   -5000001    1    1    2    0    0 -0.15408153492E+03  0.33632619669E+02 -0.99455565990E+01  0.25411057948E+03  0.19900000000E+03 0.  0.
<mgrwt>
<rscale>  0 0.52413380E+03</rscale>
<asrwt>0</asrwt>
<pdfrwt beam="1">  1        2 0.30239200E-01 0.52413380E+03</pdfrwt>
<pdfrwt beam="2">  1       -2 0.46350878E-01 0.52413380E+03</pdfrwt>
<totfact> 0.78187088E+02</totfact>
</mgrwt>
</event>
<event>
 4    1  0.5056513E-005  0.5571218E+03  0.7818608E-02  0.9998588E-01
          2   -1    0    0  501    0  0.00000000000E+00  0.00000000000E+00  0.86102082815E+03  0.86102082815E+03  0.25500000000E-02 0.  1.
         -2   -1    0    0    0  501 -0.00000000000E+00 -0.00000000000E+00 -0.90121135043E+02  0.90121135079E+02  0.25500000000E-02 0. -1.
    5000001    1    1    2    0    0  0.14367713312E+03 -0.10780021514E+03  0.25620393499E+03  0.37081728826E+03  0.19900000000E+03 0.  0.
   -5000001    1    1    2    0    0 -0.14367713312E+03  0.10780021514E+03  0.51469575811E+03  0.58032467498E+03  0.19900000000E+03 0.  0.
<mgrwt>
<rscale>  0 0.55712180E+03</rscale>
<asrwt>0</asrwt>
<pdfrwt beam="1">  1        2 0.12300297E+00 0.55712180E+03</pdfrwt>
<pdfrwt beam="2">  1       -2 0.12874449E-01 0.55712180E+03</pdfrwt>
<totfact> 0.15659341E+03</totfact>
</mgrwt>
</event>
<event>
 4    1  0.5056513E-005  0.6498234E+03  0.7818608E-02  0.9807111E-01
         -2   -1    0    0    0  501 -0.00000000000E+00  0.00000000000E+00  0.77114768089E+02  0.77114768131E+02  0.25500000000E-02 0. -1.
          2   -1    0    0  501    0  0.00000000000E+00 -0.00000000000E+00 -0.13689675187E+04  0.13689675187E+04  0.25500000000E-02 0.  1.
    5000001    1    1    2    0    0  0.12761519233E+03  0.20774465009E+03 -0.46619418352E+03  0.56247799397E+03  0.19900000000E+03 0.  0.
   -5000001    1    1    2    0    0 -0.12761519233E+03 -0.20774465009E+03 -0.82565856714E+03  0.88360429291E+03  0.19900000000E+03 0.  0.
<mgrwt>
<rscale>  0 0.64982340E+03</rscale>
<asrwt>0</asrwt>
<pdfrwt beam="1">  1        2 0.19556677E+00 0.64982340E+03</pdfrwt>
<pdfrwt beam="2">  1       -2 0.11016396E-01 0.64982340E+03</pdfrwt>
<totfact> 0.10186706E+03</totfact>
</mgrwt>
</event>
<event>
 4    1  0.5056513E-005  0.4752022E+03  0.7818608E-02  0.1020462E+00
         -2   -1    0    0    0  501 -0.00000000000E+00  0.00000000000E+00  0.42984987943E+02  0.42984988019E+02  0.25500000000E-02 0. -1.
          2   -1    0    0  501    0  0.00000000000E+00 -0.00000000000E+00 -0.13133488373E+04  0.13133488373E+04  0.25500000000E-02 0.  1.
    5000001    1    1    2    0    0  0.36260517936E+01  0.61983501980E+02 -0.30977301554E+03  0.37338374888E+03  0.19900000000E+03 0.  0.
   -5000001    1    1    2    0    0 -0.36260517936E+01 -0.61983501980E+02 -0.96059083383E+03  0.98295007646E+03  0.19900000000E+03 0.  0.
<mgrwt>
<rscale>  0 0.47520221E+03</rscale>
<asrwt>0</asrwt>
<pdfrwt beam="1">  1        2 0.18762124E+00 0.47520221E+03</pdfrwt>
<pdfrwt beam="2">  1       -2 0.61407134E-02 0.47520221E+03</pdfrwt>
<totfact> 0.27844515E+03</totfact>
</mgrwt>
</event>
<event>
 4    1  0.5056513E-005  0.5698129E+03  0.7818608E-02  0.9970093E-01
         -2   -1    0    0    0  501 -0.00000000000E+00  0.00000000000E+00  0.40396184009E+02  0.40396184090E+02  0.25500000000E-02 0. -1.
          2   -1    0    0  501    0  0.00000000000E+00 -0.00000000000E+00 -0.20093902010E+04  0.20093902010E+04  0.25500000000E-02 0.  1.
    5000001    1    1    2    0    0  0.11621325347E+03 -0.57171590291E+02 -0.41803310929E+03  0.48075647836E+03  0.19900000000E+03 0.  0.
   -5000001    1    1    2    0    0 -0.11621325347E+03  0.57171590291E+02 -0.15509609077E+04  0.15690299067E+04  0.19900000000E+03 0.  0.
<mgrwt>
<rscale>  0 0.56981294E+03</rscale>
<asrwt>0</asrwt>
<pdfrwt beam="1">  1        2 0.28705568E+00 0.56981294E+03</pdfrwt>
<pdfrwt beam="2">  1       -2 0.57708847E-02 0.56981294E+03</pdfrwt>
<totfact> 0.13473119E+03</totfact>
</mgrwt>
</event>
<event>
 4    1  0.5056513E-005  0.5954807E+03  0.7818608E-02  0.9914827E-01
          2   -1    0    0  501    0  0.00000000000E+00  0.00000000000E+00  0.41316626331E+03  0.41316626332E+03  0.25500000000E-02 0. -1.
         -2   -1    0    0    0  501 -0.00000000000E+00 -0.00000000000E+00 -0.21456085895E+03  0.21456085896E+03  0.25500000000E-02 0.  1.
    5000001    1    1    2    0    0  0.12096264298E+03 -0.16850278692E+03  0.17491013767E+02  0.28797931481E+03  0.19900000000E+03 0.  0.
   -5000001    1    1    2    0    0 -0.12096264298E+03  0.16850278692E+03  0.18111439060E+03  0.33974780747E+03  0.19900000000E+03 0.  0.
<mgrwt>
<rscale>  0 0.59548067E+03</rscale>
<asrwt>0</asrwt>
<pdfrwt beam="1">  1        2 0.59023751E-01 0.59548067E+03</pdfrwt>
<pdfrwt beam="2">  1       -2 0.30651552E-01 0.59548067E+03</pdfrwt>
<totfact> 0.82415772E+02</totfact>
</mgrwt>
</event>
<event>
 4    1  0.5056513E-005  0.7194272E+03  0.7818608E-02  0.9684574E-01
         -2   -1    0    0    0  501 -0.00000000000E+00  0.00000000000E+00  0.37020963671E+03  0.37020963671E+03  0.25500000000E-02 0. -1.
          2   -1    0    0  501    0  0.00000000000E+00 -0.00000000000E+00 -0.34951512443E+03  0.34951512444E+03  0.25500000000E-02 0.  1.
    5000001    1    1    2    0    0  0.19296526032E+03  0.15374308122E+03 -0.15978290107E+03  0.35497056524E+03  0.19900000000E+03 0.  0.
   -5000001    1    1    2    0    0 -0.19296526032E+03 -0.15374308122E+03  0.18047741334E+03  0.36475419592E+03  0.19900000000E+03 0.  0.
<mgrwt>
<rscale>  0 0.71942718E+03</rscale>
<asrwt>0</asrwt>
<pdfrwt beam="1">  1        2 0.49930732E-01 0.71942718E+03</pdfrwt>
<pdfrwt beam="2">  1       -2 0.52887091E-01 0.71942718E+03</pdfrwt>
<totfact> 0.34194926E+02</totfact>
</mgrwt>
</event>
<event>
 4    1  0.5056513E-005  0.5535283E+03  0.7818608E-02  0.1000681E+00
         -2   -1    0    0    0  501 -0.00000000000E+00  0.00000000000E+00  0.51887507343E+02  0.51887507406E+02  0.25500000000E-02 0. -1.
          2   -1    0    0  501    0  0.00000000000E+00 -0.00000000000E+00 -0.14762398826E+04  0.14762398826E+04  0.25500000000E-02 0.  1.
    5000001    1    1    2    0    0  0.14351875012E+03  0.12121743544E+03 -0.82620724321E+03  0.87035091028E+03  0.19900000000E+03 0.  0.
   -5000001    1    1    2    0    0 -0.14351875012E+03 -0.12121743544E+03 -0.59814513202E+03  0.65777647971E+03  0.19900000000E+03 0.  0.
<mgrwt>
<rscale>  0 0.55352835E+03</rscale>
<asrwt>0</asrwt>
<pdfrwt beam="1">  1        2 0.21089139E+00 0.55352835E+03</pdfrwt>
<pdfrwt beam="2">  1       -2 0.74125019E-02 0.55352835E+03</pdfrwt>
<totfact> 0.16963533E+03</totfact>
</mgrwt>
</event>
<event>
 4    1  0.5056513E-005  0.5379146E+03  0.7818608E-02  0.1004331E+00
          2   -1    0    0  501    0  0.00000000000E+00  0.00000000000E+00  0.11556262766E+04  0.11556262766E+04  0.25500000000E-02 0.  1.
         -2   -1    0    0    0  501 -0.00000000000E+00 -0.00000000000E+00 -0.62596387687E+02  0.62596387739E+02  0.25500000000E-02 0. -1.
    5000001    1    1    2    0    0  0.14940801166E+03  0.87380290302E+02  0.66590127270E+03  0.71622871631E+03  0.19900000000E+03 0.  0.
   -5000001    1    1    2    0    0 -0.14940801166E+03 -0.87380290302E+02  0.42712861626E+03  0.50199394808E+03  0.19900000000E+03 0.  0.
<mgrwt>
<rscale>  0 0.53791460E+03</rscale>
<asrwt>0</asrwt>
<pdfrwt beam="1">  1        2 0.16508946E+00 0.53791460E+03</pdfrwt>
<pdfrwt beam="2">  1       -2 0.89423418E-02 0.53791460E+03</pdfrwt>
<totfact> 0.18768248E+03</totfact>
</mgrwt>
</event>
<event>
 4    1  0.5056513E-005  0.5259129E+03  0.7818608E-02  0.1007228E+00
         -2   -1    0    0    0  501 -0.00000000000E+00  0.00000000000E+00  0.16094629377E+03  0.16094629379E+03  0.25500000000E-02 0. -1.
          2   -1    0    0  501    0  0.00000000000E+00 -0.00000000000E+00 -0.42962218585E+03  0.42962218586E+03  0.25500000000E-02 0.  1.
    5000001    1    1    2    0    0  0.16916414680E+03 -0.30220799048E+02 -0.12994650728E+03  0.29328637883E+03  0.19900000000E+03 0.  0.
   -5000001    1    1    2    0    0 -0.16916414680E+03  0.30220799048E+02 -0.13872938480E+03  0.29728210081E+03  0.19900000000E+03 0.  0.
<mgrwt>
<rscale>  0 0.52591292E+03</rscale>
<asrwt>0</asrwt>
<pdfrwt beam="1">  1        2 0.61374598E-01 0.52591292E+03</pdfrwt>
<pdfrwt beam="2">  1       -2 0.22992328E-01 0.52591292E+03</pdfrwt>
<totfact> 0.13283330E+03</totfact>
</mgrwt>
</event>
<event>
 4    1  0.5056513E-005  0.6136365E+03  0.7818608E-02  0.9877512E-01
          2   -1    0    0  501    0  0.00000000000E+00  0.00000000000E+00  0.18488997850E+04  0.18488997850E+04  0.25500000000E-02 0.  1.
         -2   -1    0    0    0  501 -0.00000000000E+00 -0.00000000000E+00 -0.50915373731E+02  0.50915373795E+02  0.25500000000E-02 0. -1.
    5000001    1    1    2    0    0  0.20538477289E+03 -0.97062160897E+02  0.73133743303E+03  0.79123916041E+03  0.19900000000E+03 0.  0.
   -5000001    1    1    2    0    0 -0.20538477289E+03  0.97062160897E+02  0.10666469782E+04  0.11085759984E+04  0.19900000000E+03 0.  0.
<mgrwt>
<rscale>  0 0.61363645E+03</rscale>
<asrwt>0</asrwt>
<pdfrwt beam="1">  1        2 0.26412856E+00 0.61363645E+03</pdfrwt>
<pdfrwt beam="2">  1       -2 0.72736242E-02 0.61363645E+03</pdfrwt>
<totfact> 0.11248218E+03</totfact>
</mgrwt>
</event>
<event>
 4    1  0.5056513E-005  0.5429510E+03  0.7818608E-02  0.1003139E+00
          2   -1    0    0  501    0  0.00000000000E+00  0.00000000000E+00  0.14434355572E+03  0.14434355574E+03  0.25500000000E-02 0.  1.
         -2   -1    0    0    0  501 -0.00000000000E+00 -0.00000000000E+00 -0.51058002943E+03  0.51058002944E+03  0.25500000000E-02 0. -1.
    5000001    1    1    2    0    0 -0.16780524177E+03 -0.73851457182E+02 -0.20969090653E+03  0.34232135951E+03  0.19900000000E+03 0.  0.
   -5000001    1    1    2    0    0  0.16780524177E+03  0.73851457182E+02 -0.15654556718E+03  0.31260222568E+03  0.19900000000E+03 0.  0.
<mgrwt>
<rscale>  0 0.54295096E+03</rscale>
<asrwt>0</asrwt>
<pdfrwt beam="1">  1        2 0.20620508E-01 0.54295096E+03</pdfrwt>
<pdfrwt beam="2">  1       -2 0.72940004E-01 0.54295096E+03</pdfrwt>
<totfact> 0.46972045E+02</totfact>
</mgrwt>
</event>
<event>
 4    1  0.5056513E-005  0.6747882E+03  0.7818608E-02  0.9761346E-01
          2   -1    0    0  501    0  0.00000000000E+00  0.00000000000E+00  0.28600450559E+03  0.28600450560E+03  0.25500000000E-02 0.  1.
         -2   -1    0    0    0  501 -0.00000000000E+00 -0.00000000000E+00 -0.39801745893E+03  0.39801745894E+03  0.25500000000E-02 0. -1.
    5000001    1    1    2    0    0  0.10299511265E+03 -0.79656450763E+02 -0.29861524666E+03  0.38173971357E+03  0.19900000000E+03 0.  0.
   -5000001    1    1    2    0    0 -0.10299511265E+03  0.79656450763E+02  0.18660229332E+03  0.30228225097E+03  0.19900000000E+03 0.  0.
<mgrwt>
<rscale>  0 0.67478822E+03</rscale>
<asrwt>0</asrwt>
<pdfrwt beam="1">  1        2 0.40857787E-01 0.67478822E+03</pdfrwt>
<pdfrwt beam="2">  1       -2 0.56859637E-01 0.67478822E+03</pdfrwt>
<totfact> 0.36803971E+02</totfact>
</mgrwt>
</event>
<event>
 4    1  0.5056513E-005  0.8017450E+03  0.7818608E-02  0.9557495E-01
         -2   -1    0    0    0  501 -0.00000000000E+00  0.00000000000E+00  0.63278105402E+02  0.63278105453E+02  0.25500000000E-02 0. -1.
          2   -1    0    0  501    0  0.00000000000E+00 -0.00000000000E+00 -0.25395636599E+04  0.25395636599E+04  0.25500000000E-02 0.  1.
    5000001    1    1    2    0    0 -0.23164342677E+02  0.27565444273E+03 -0.19235696831E+04  0.19535207407E+04  0.19900000000E+03 0.  0.
   -5000001    1    1    2    0    0  0.23164342677E+02 -0.27565444273E+03 -0.55271587136E+03  0.64932102462E+03  0.19900000000E+03 0.  0.
<mgrwt>
<rscale>  0 0.80174504E+03</rscale>
<asrwt>0</asrwt>
<pdfrwt beam="1">  1        2 0.36279474E+00 0.80174504E+03</pdfrwt>
<pdfrwt beam="2">  1       -2 0.90397309E-02 0.80174504E+03</pdfrwt>
<totfact> 0.34954792E+02</totfact>
</mgrwt>
</event>
<event>
 4    1  0.5056513E-005  0.6293708E+03  0.7818608E-02  0.9846277E-01
         -2   -1    0    0    0  501 -0.00000000000E+00  0.00000000000E+00  0.10152611912E+03  0.10152611915E+03  0.25500000000E-02 0. -1.
          2   -1    0    0  501    0  0.00000000000E+00 -0.00000000000E+00 -0.97538338719E+03  0.97538338719E+03  0.25500000000E-02 0.  1.
    5000001    1    1    2    0    0 -0.17209203921E+03  0.47772062779E+02 -0.15303191755E+03  0.30808701324E+03  0.19900000000E+03 0.  0.
   -5000001    1    1    2    0    0  0.17209203921E+03 -0.47772062779E+02 -0.72082535053E+03  0.76882249310E+03  0.19900000000E+03 0.  0.
<mgrwt>
<rscale>  0 0.62937077E+03</rscale>
<asrwt>0</asrwt>
<pdfrwt beam="1">  1        2 0.13934048E+00 0.62937077E+03</pdfrwt>
<pdfrwt beam="2">  1       -2 0.14503732E-01 0.62937077E+03</pdfrwt>
<totfact> 0.10837627E+03</totfact>
</mgrwt>
</event>
<event>
 4    1  0.5056513E-005  0.7479800E+03  0.7818608E-02  0.9638525E-01
          2   -1    0    0  501    0  0.00000000000E+00  0.00000000000E+00  0.27250455829E+04  0.27250455829E+04  0.25500000000E-02 0.  1.
         -2   -1    0    0    0  501 -0.00000000000E+00 -0.00000000000E+00 -0.51327040084E+02  0.51327040147E+02  0.25500000000E-02 0. -1.
    5000001    1    1    2    0    0  0.19759755753E+03  0.59681323555E+02  0.22281683965E+04  0.22465400192E+04  0.19900000000E+03 0.  0.
   -5000001    1    1    2    0    0 -0.19759755753E+03 -0.59681323555E+02  0.44555014634E+03  0.52983260378E+03  0.19900000000E+03 0.  0.
<mgrwt>
<rscale>  0 0.74798001E+03</rscale>
<asrwt>0</asrwt>
<pdfrwt beam="1">  1        2 0.38929222E+00 0.74798001E+03</pdfrwt>
<pdfrwt beam="2">  1       -2 0.73324345E-02 0.74798001E+03</pdfrwt>
<totfact> 0.39274706E+02</totfact>
</mgrwt>
</event>
<event>
 4    1  0.5056513E-005  0.6979667E+03  0.7818608E-02  0.9720716E-01
          2   -1    0    0  501    0  0.00000000000E+00  0.00000000000E+00  0.15895828933E+04  0.15895828933E+04  0.25500000000E-02 0.  1.
         -2   -1    0    0    0  501 -0.00000000000E+00 -0.00000000000E+00 -0.76617189233E+02  0.76617189276E+02  0.25500000000E-02 0. -1.
    5000001    1    1    2    0    0 -0.18603526404E+02  0.18696108606E+03  0.23956379236E+03  0.36372015273E+03  0.19900000000E+03 0.  0.
   -5000001    1    1    2    0    0  0.18603526404E+02 -0.18696108606E+03  0.12734019117E+04  0.13024799299E+04  0.19900000000E+03 0.  0.
<mgrwt>
<rscale>  0 0.69796669E+03</rscale>
<asrwt>0</asrwt>
<pdfrwt beam="1">  1        2 0.22708326E+00 0.69796669E+03</pdfrwt>
<pdfrwt beam="2">  1       -2 0.10945313E-01 0.69796669E+03</pdfrwt>
<totfact> 0.78660500E+02</totfact>
</mgrwt>
</event>
<event>
 4    1  0.5056513E-005  0.7380850E+03  0.7818608E-02  0.9654231E-01
         -2   -1    0    0    0  501 -0.00000000000E+00  0.00000000000E+00  0.20795679948E+03  0.20795679950E+03  0.25500000000E-02 0. -1.
          2   -1    0    0  501    0  0.00000000000E+00 -0.00000000000E+00 -0.65490698856E+03  0.65490698857E+03  0.25500000000E-02 0.  1.
    5000001    1    1    2    0    0  0.28487107430E+03 -0.46660603623E+02 -0.35810779054E+03  0.50116956267E+03  0.19900000000E+03 0.  0.
   -5000001    1    1    2    0    0 -0.28487107430E+03  0.46660603623E+02 -0.88842398536E+02  0.36169422539E+03  0.19900000000E+03 0.  0.
<mgrwt>
<rscale>  0 0.73808499E+03</rscale>
<asrwt>0</asrwt>
<pdfrwt beam="1">  1        2 0.93558140E-01 0.73808499E+03</pdfrwt>
<pdfrwt beam="2">  1       -2 0.29708114E-01 0.73808499E+03</pdfrwt>
<totfact> 0.51191456E+02</totfact>
</mgrwt>
</event>
<event>
 4    1  0.5056513E-005  0.5066888E+03  0.7818608E-02  0.1012048E+00
          2   -1    0    0  501    0  0.00000000000E+00  0.00000000000E+00  0.16568342682E+04  0.16568342683E+04  0.25500000000E-02 0.  1.
         -2   -1    0    0    0  501 -0.00000000000E+00 -0.00000000000E+00 -0.38738559285E+02  0.38738559369E+02  0.25500000000E-02 0. -1.
    5000001    1    1    2    0    0  0.15147436515E+03 -0.17160916380E+02  0.68639529796E+03  0.73073831527E+03  0.19900000000E+03 0.  0.
   -5000001    1    1    2    0    0 -0.15147436515E+03  0.17160916380E+02  0.93170041101E+03  0.96483451235E+03  0.19900000000E+03 0.  0.
<mgrwt>
<rscale>  0 0.50668875E+03</rscale>
<asrwt>0</asrwt>
<pdfrwt beam="1">  1        2 0.23669059E+00 0.50668875E+03</pdfrwt>
<pdfrwt beam="2">  1       -2 0.55340804E-02 0.50668875E+03</pdfrwt>
<totfact> 0.21688285E+03</totfact>
</mgrwt>
</event>
<event>
 4    1  0.5056513E-005  0.4953051E+03  0.7818608E-02  0.1015012E+00
         -2   -1    0    0    0  501 -0.00000000000E+00  0.00000000000E+00  0.54359537397E+02  0.54359537457E+02  0.25500000000E-02 0. -1.
          2   -1    0    0  501    0  0.00000000000E+00 -0.00000000000E+00 -0.11282617990E+04  0.11282617990E+04  0.25500000000E-02 0.  1.
    5000001    1    1    2    0    0  0.58681639337E+02  0.98681407613E+02 -0.75771932788E+03  0.79178351514E+03  0.19900000000E+03 0.  0.
   -5000001    1    1    2    0    0 -0.58681639337E+02 -0.98681407613E+02 -0.31618293377E+03  0.39083782137E+03  0.19900000000E+03 0.  0.
<mgrwt>
<rscale>  0 0.49530512E+03</rscale>
<asrwt>0</asrwt>
<pdfrwt beam="1">  1        2 0.16118024E+00 0.49530512E+03</pdfrwt>
<pdfrwt beam="2">  1       -2 0.77656489E-02 0.49530512E+03</pdfrwt>
<totfact> 0.24366754E+03</totfact>
</mgrwt>
</event>
<event>
 4    1  0.5056513E-005  0.5201196E+03  0.7818608E-02  0.1008657E+00
          2   -1    0    0  501    0  0.00000000000E+00  0.00000000000E+00  0.28544716971E+04  0.28544716971E+04  0.25500000000E-02 0.  1.
         -2   -1    0    0    0  501 -0.00000000000E+00 -0.00000000000E+00 -0.23693039098E+02  0.23693039235E+02  0.25500000000E-02 0. -1.
    5000001    1    1    2    0    0 -0.12091341227E+03 -0.17333047451E+02  0.78180054761E+03  0.81592498677E+03  0.19900000000E+03 0.  0.
   -5000001    1    1    2    0    0  0.12091341227E+03  0.17333047451E+02  0.20489781104E+04  0.20622397496E+04  0.19900000000E+03 0.  0.
<mgrwt>
<rscale>  0 0.52011964E+03</rscale>
<asrwt>0</asrwt>
<pdfrwt beam="1">  1        2 0.40778178E+00 0.52011964E+03</pdfrwt>
<pdfrwt beam="2">  1       -2 0.33847190E-02 0.52011964E+03</pdfrwt>
<totfact> 0.11371482E+03</totfact>
</mgrwt>
</event>
<event>
 4    1  0.5056513E-005  0.7711408E+03  0.7818608E-02  0.9602755E-01
          2   -1    0    0  501    0  0.00000000000E+00  0.00000000000E+00  0.14366959711E+04  0.14366959711E+04  0.25500000000E-02 0.  1.
         -2   -1    0    0    0  501 -0.00000000000E+00 -0.00000000000E+00 -0.10347667103E+03  0.10347667106E+03  0.25500000000E-02 0. -1.
    5000001    1    1    2    0    0  0.23196480247E+03 -0.19429338057E+03  0.40235153654E+03  0.54133662935E+03  0.19900000000E+03 0.  0.
   -5000001    1    1    2    0    0 -0.23196480247E+03  0.19429338057E+03  0.93086776354E+03  0.99883601283E+03  0.19900000000E+03 0.  0.
<mgrwt>
<rscale>  0 0.77114076E+03</rscale>
<asrwt>0</asrwt>
<pdfrwt beam="1">  1        2 0.20524226E+00 0.77114076E+03</pdfrwt>
<pdfrwt beam="2">  1       -2 0.14782383E-01 0.77114076E+03</pdfrwt>
<totfact> 0.57198372E+02</totfact>
</mgrwt>
</event>
<event>
 4    1  0.5056513E-005  0.5531217E+03  0.7818608E-02  0.1000774E+00
          2   -1    0    0  501    0  0.00000000000E+00  0.00000000000E+00  0.82733412216E+03  0.82733412216E+03  0.25500000000E-02 0.  1.
         -2   -1    0    0    0  501 -0.00000000000E+00 -0.00000000000E+00 -0.92448617203E+02  0.92448617238E+02  0.25500000000E-02 0. -1.
    5000001    1    1    2    0    0  0.10405910609E+03 -0.60542919605E+02  0.11861271247E+03  0.26108182287E+03  0.19900000000E+03 0.  0.
   -5000001    1    1    2    0    0 -0.10405910609E+03  0.60542919605E+02  0.61627279249E+03  0.65870091653E+03  0.19900000000E+03 0.  0.
<mgrwt>
<rscale>  0 0.55312167E+03</rscale>
<asrwt>0</asrwt>
<pdfrwt beam="1">  1        2 0.11819059E+00 0.55312167E+03</pdfrwt>
<pdfrwt beam="2">  1       -2 0.13206945E-01 0.55312167E+03</pdfrwt>
<totfact> 0.15811526E+03</totfact>
</mgrwt>
</event>
<event>
 4    1  0.5056513E-005  0.5308599E+03  0.7818608E-02  0.1006024E+00
          2   -1    0    0  501    0  0.00000000000E+00  0.00000000000E+00  0.67347573294E+03  0.67347573294E+03  0.25500000000E-02 0.  1.
         -2   -1    0    0    0  501 -0.00000000000E+00 -0.00000000000E+00 -0.10461111909E+03  0.10461111912E+03  0.25500000000E-02 0. -1.
    5000001    1    1    2    0    0 -0.18916257177E+02 -0.16260995908E+03  0.19112942907E+03  0.32082905454E+03  0.19900000000E+03 0.  0.
   -5000001    1    1    2    0    0  0.18916257177E+02  0.16260995908E+03  0.37773518478E+03  0.45725779753E+03  0.19900000000E+03 0.  0.
<mgrwt>
<rscale>  0 0.53085987E+03</rscale>
<asrwt>0</asrwt>
<pdfrwt beam="1">  1        2 0.96210824E-01 0.53085987E+03</pdfrwt>
<pdfrwt beam="2">  1       -2 0.14944445E-01 0.53085987E+03</pdfrwt>
<totfact> 0.16622712E+03</totfact>
</mgrwt>
</event>
<event>
 4    1  0.5056513E-005  0.8184651E+03  0.7818608E-02  0.9533668E-01
         -2   -1    0    0    0  501 -0.00000000000E+00  0.00000000000E+00  0.75759467555E+02  0.75759467598E+02  0.25500000000E-02 0. -1.
          2   -1    0    0  501    0  0.00000000000E+00 -0.00000000000E+00 -0.22105657165E+04  0.22105657165E+04  0.25500000000E-02 0.  1.
    5000001    1    1    2    0    0  0.29228283288E+03  0.70294218788E+02 -0.16083467650E+04  0.16482569120E+04  0.19900000000E+03 0.  0.
   -5000001    1    1    2    0    0 -0.29228283288E+03 -0.70294218788E+02 -0.52645948400E+03  0.63806827212E+03  0.19900000000E+03 0.  0.
<mgrwt>
<rscale>  0 0.81846510E+03</rscale>
<asrwt>0</asrwt>
<pdfrwt beam="1">  1        2 0.31579506E+00 0.81846510E+03</pdfrwt>
<pdfrwt beam="2">  1       -2 0.10822782E-01 0.81846510E+03</pdfrwt>
<totfact> 0.38419887E+02</totfact>
</mgrwt>
</event>
<event>
 4    1  0.5056513E-005  0.4831959E+03  0.7818608E-02  0.1018261E+00
         -2   -1    0    0    0  501 -0.00000000000E+00  0.00000000000E+00  0.65951654723E+02  0.65951654773E+02  0.25500000000E-02 0. -1.
          2   -1    0    0  501    0  0.00000000000E+00 -0.00000000000E+00 -0.88503568185E+03  0.88503568185E+03  0.25500000000E-02 0.  1.
    5000001    1    1    2    0    0 -0.33991980382E+02  0.11115982916E+03 -0.26684851457E+03  0.35259196258E+03  0.19900000000E+03 0.  0.
   -5000001    1    1    2    0    0  0.33991980382E+02 -0.11115982916E+03 -0.55223551256E+03  0.59839537405E+03  0.19900000000E+03 0.  0.
<mgrwt>
<rscale>  0 0.48319589E+03</rscale>
<asrwt>0</asrwt>
<pdfrwt beam="1">  1        2 0.12643366E+00 0.48319589E+03</pdfrwt>
<pdfrwt beam="2">  1       -2 0.94216655E-02 0.48319589E+03</pdfrwt>
<totfact> 0.25122028E+03</totfact>
</mgrwt>
</event>
<event>
 4    1  0.5056513E-005  0.1064685E+04  0.7818608E-02  0.9240312E-01
          2   -1    0    0  501    0  0.00000000000E+00  0.00000000000E+00  0.29720445150E+04  0.29720445150E+04  0.25500000000E-02 0.  1.
         -2   -1    0    0    0  501 -0.00000000000E+00 -0.00000000000E+00 -0.95351456030E+02  0.95351456064E+02  0.25500000000E-02 0. -1.
    5000001    1    1    2    0    0  0.39815227682E+02  0.30900417721E+03  0.33479754614E+03  0.49875768745E+03  0.19900000000E+03 0.  0.
   -5000001    1    1    2    0    0 -0.39815227682E+02 -0.30900417721E+03  0.25418955128E+04  0.25686382836E+04  0.19900000000E+03 0.  0.
<mgrwt>
<rscale>  0 0.10646854E+04</rscale>
<asrwt>0</asrwt>
<pdfrwt beam="1">  1        2 0.42457766E+00 0.10646854E+04</pdfrwt>
<pdfrwt beam="2">  1       -2 0.13621641E-01 0.10646854E+04</pdfrwt>
<totfact> 0.10214022E+02</totfact>
</mgrwt>
</event>
<event>
 4    1  0.5056513E-005  0.4672499E+03  0.7818608E-02  0.1022699E+00
         -2   -1    0    0    0  501 -0.00000000000E+00  0.00000000000E+00  0.85127259241E+02  0.85127259280E+02  0.25500000000E-02 0. -1.
          2   -1    0    0  501    0  0.00000000000E+00 -0.00000000000E+00 -0.64116503419E+03  0.64116503420E+03  0.25500000000E-02 0.  1.
    5000001    1    1    2    0    0  0.10677003882E+03 -0.47114234971E+02 -0.33534287691E+03  0.40703247711E+03  0.19900000000E+03 0.  0.
   -5000001    1    1    2    0    0 -0.10677003882E+03  0.47114234971E+02 -0.22069489804E+03  0.31925981637E+03  0.19900000000E+03 0.  0.
<mgrwt>
<rscale>  0 0.46724992E+03</rscale>
<asrwt>0</asrwt>
<pdfrwt beam="1">  1        2 0.91595003E-01 0.46724992E+03</pdfrwt>
<pdfrwt beam="2">  1       -2 0.12161037E-01 0.46724992E+03</pdfrwt>
<totfact> 0.24799988E+03</totfact>
</mgrwt>
</event>
<event>
 4    1  0.5056513E-005  0.5465179E+03  0.7818608E-02  0.1002303E+00
         -2   -1    0    0    0  501 -0.00000000000E+00  0.00000000000E+00  0.16386819792E+03  0.16386819794E+03  0.25500000000E-02 0. -1.
          2   -1    0    0  501    0  0.00000000000E+00 -0.00000000000E+00 -0.45567381142E+03  0.45567381143E+03  0.25500000000E-02 0.  1.
    5000001    1    1    2    0    0  0.18222999657E+03  0.31724507503E+02 -0.11275094445E+03  0.29415640653E+03  0.19900000000E+03 0.  0.
   -5000001    1    1    2    0    0 -0.18222999657E+03 -0.31724507503E+02 -0.17905466906E+03  0.32538560284E+03  0.19900000000E+03 0.  0.
<mgrwt>
<rscale>  0 0.54651787E+03</rscale>
<asrwt>0</asrwt>
<pdfrwt beam="1">  1        2 0.65096258E-01 0.54651787E+03</pdfrwt>
<pdfrwt beam="2">  1       -2 0.23409743E-01 0.54651787E+03</pdfrwt>
<totfact> 0.12047480E+03</totfact>
</mgrwt>
</event>
<event>
 4    1  0.5056513E-005  0.9968078E+03  0.7818608E-02  0.9312053E-01
          2   -1    0    0  501    0  0.00000000000E+00  0.00000000000E+00  0.35947271969E+03  0.35947271969E+03  0.25500000000E-02 0.  1.
         -2   -1    0    0    0  501 -0.00000000000E+00 -0.00000000000E+00 -0.69102998589E+03  0.69102998590E+03  0.25500000000E-02 0. -1.
    5000001    1    1    2    0    0  0.37506756912E+03 -0.22269575119E+03 -0.22296485635E+02  0.47996584490E+03  0.19900000000E+03 0.  0.
   -5000001    1    1    2    0    0 -0.37506756912E+03  0.22269575119E+03 -0.30926078057E+03  0.57053686069E+03  0.19900000000E+03 0.  0.
<mgrwt>
<rscale>  0 0.99680776E+03</rscale>
<asrwt>0</asrwt>
<pdfrwt beam="1">  1        2 0.51353246E-01 0.99680776E+03</pdfrwt>
<pdfrwt beam="2">  1       -2 0.98718570E-01 0.99680776E+03</pdfrwt>
<totfact> 0.82944535E+01</totfact>
</mgrwt>
</event>
<event>
 4    1  0.5056513E-005  0.5423986E+03  0.7818608E-02  0.1003269E+00
         -2   -1    0    0    0  501 -0.00000000000E+00  0.00000000000E+00  0.90193335558E+02  0.90193335594E+02  0.25500000000E-02 0. -1.
          2   -1    0    0  501    0  0.00000000000E+00 -0.00000000000E+00 -0.81545999517E+03  0.81545999518E+03  0.25500000000E-02 0.  1.
    5000001    1    1    2    0    0  0.10802556599E+03  0.11987828289E+03 -0.21415283958E+03  0.33392029635E+03  0.19900000000E+03 0.  0.
   -5000001    1    1    2    0    0 -0.10802556599E+03 -0.11987828289E+03 -0.51111382003E+03  0.57173303442E+03  0.19900000000E+03 0.  0.
<mgrwt>
<rscale>  0 0.54239859E+03</rscale>
<asrwt>0</asrwt>
<pdfrwt beam="1">  1        2 0.11649428E+00 0.54239859E+03</pdfrwt>
<pdfrwt beam="2">  1       -2 0.12884763E-01 0.54239859E+03</pdfrwt>
<totfact> 0.16782134E+03</totfact>
</mgrwt>
</event>
<event>
 4    1  0.5056513E-005  0.1026005E+04  0.7818608E-02  0.9280474E-01
         -2   -1    0    0    0  501 -0.00000000000E+00  0.00000000000E+00  0.15526172732E+03  0.15526172734E+03  0.25500000000E-02 0. -1.
          2   -1    0    0  501    0  0.00000000000E+00 -0.00000000000E+00 -0.16950188294E+04  0.16950188294E+04  0.25500000000E-02 0.  1.
    5000001    1    1    2    0    0 -0.18506551244E+03 -0.41131239426E+03 -0.10258283200E+04  0.11381352608E+04  0.19900000000E+03 0.  0.
   -5000001    1    1    2    0    0  0.18506551244E+03  0.41131239426E+03 -0.51392878200E+03  0.71214529594E+03  0.19900000000E+03 0.  0.
<mgrwt>
<rscale>  0 0.10260050E+04</rscale>
<asrwt>0</asrwt>
<pdfrwt beam="1">  1        2 0.24214554E+00 0.10260050E+04</pdfrwt>
<pdfrwt beam="2">  1       -2 0.22180248E-01 0.10260050E+04</pdfrwt>
<totfact> 0.20445480E+02</totfact>
</mgrwt>
</event>
<event>
 4    1  0.5056513E-005  0.5585827E+03  0.7818608E-02  0.9995267E-01
          2   -1    0    0  501    0  0.00000000000E+00  0.00000000000E+00  0.19329640370E+04  0.19329640370E+04  0.25500000000E-02 0.  1.
         -2   -1    0    0    0  501 -0.00000000000E+00 -0.00000000000E+00 -0.40354434287E+02  0.40354434368E+02  0.25500000000E-02 0. -1.
    5000001    1    1    2    0    0 -0.17943868100E+03  0.78750542993E+02  0.95219718161E+03  0.99231061715E+03  0.19900000000E+03 0.  0.
   -5000001    1    1    2    0    0  0.17943868100E+03 -0.78750542993E+02  0.94041242109E+03  0.98100785420E+03  0.19900000000E+03 0.  0.
<mgrwt>
<rscale>  0 0.55858274E+03</rscale>
<asrwt>0</asrwt>
<pdfrwt beam="1">  1        2 0.27613771E+00 0.55858274E+03</pdfrwt>
<pdfrwt beam="2">  1       -2 0.57649195E-02 0.55858274E+03</pdfrwt>
<totfact> 0.14747422E+03</totfact>
</mgrwt>
</event>
<event>
 4    1  0.5056513E-005  0.6786437E+03  0.7818608E-02  0.9754468E-01
          2   -1    0    0  501    0  0.00000000000E+00  0.00000000000E+00  0.23161006765E+04  0.23161006765E+04  0.25500000000E-02 0.  1.
         -2   -1    0    0    0  501 -0.00000000000E+00 -0.00000000000E+00 -0.49712576845E+02  0.49712576910E+02  0.25500000000E-02 0. -1.
    5000001    1    1    2    0    0  0.17841865520E+03 -0.20482161647E+03  0.12791618445E+04  0.13227400105E+04  0.19900000000E+03 0.  0.
   -5000001    1    1    2    0    0 -0.17841865520E+03  0.20482161647E+03  0.98722625518E+03  0.10430732429E+04  0.19900000000E+03 0.  0.
<mgrwt>
<rscale>  0 0.67864374E+03</rscale>
<asrwt>0</asrwt>
<pdfrwt beam="1">  1        2 0.33087154E+00 0.67864374E+03</pdfrwt>
<pdfrwt beam="2">  1       -2 0.71017963E-02 0.67864374E+03</pdfrwt>
<totfact> 0.67627435E+02</totfact>
</mgrwt>
</event>
<event>
 4    1  0.5056513E-005  0.5673822E+03  0.7818608E-02  0.9975488E-01
          2   -1    0    0  501    0  0.00000000000E+00  0.00000000000E+00  0.94630374686E+03  0.94630374686E+03  0.25500000000E-02 0. -1.
         -2   -1    0    0    0  501 -0.00000000000E+00 -0.00000000000E+00 -0.85047365239E+02  0.85047365277E+02  0.25500000000E-02 0.  1.
    5000001    1    1    2    0    0 -0.17634982369E+03  0.87081938420E+02  0.34542471021E+03  0.44452418915E+03  0.19900000000E+03 0.  0.
   -5000001    1    1    2    0    0  0.17634982369E+03 -0.87081938420E+02  0.51583167141E+03  0.58682692299E+03  0.19900000000E+03 0.  0.
<mgrwt>
<rscale>  0 0.56738220E+03</rscale>
<asrwt>0</asrwt>
<pdfrwt beam="1">  1        2 0.13518624E+00 0.56738220E+03</pdfrwt>
<pdfrwt beam="2">  1       -2 0.12149624E-01 0.56738220E+03</pdfrwt>
<totfact> 0.15185180E+03</totfact>
</mgrwt>
</event>
<event>
 4    1  0.5056513E-005  0.1203367E+04  0.7818608E-02  0.9109915E-01
          2   -1    0    0  501    0  0.00000000000E+00  0.00000000000E+00  0.38122620098E+03  0.38122620099E+03  0.25500000000E-02 0.  1.
         -2   -1    0    0    0  501 -0.00000000000E+00 -0.00000000000E+00 -0.94962722709E+03  0.94962722709E+03  0.25500000000E-02 0. -1.
    5000001    1    1    2    0    0  0.26145543292E+03 -0.10847423518E+03 -0.82858477744E+03  0.89793058558E+03  0.19900000000E+03 0.  0.
   -5000001    1    1    2    0    0 -0.26145543292E+03  0.10847423518E+03  0.26018375134E+03  0.43292284250E+03  0.19900000000E+03 0.  0.
<mgrwt>
<rscale>  0 0.12033666E+04</rscale>
<asrwt>0</asrwt>
<pdfrwt beam="1">  1        2 0.54460886E-01 0.12033666E+04</pdfrwt>
<pdfrwt beam="2">  1       -2 0.13566103E+00 0.12033666E+04</pdfrwt>
<totfact> 0.35093833E+01</totfact>
</mgrwt>
</event>
<event>
 4    1  0.5056513E-005  0.7860785E+03  0.7818608E-02  0.9580389E-01
          2   -1    0    0  501    0  0.00000000000E+00  0.00000000000E+00  0.10402573126E+04  0.10402573126E+04  0.25500000000E-02 0. -1.
         -2   -1    0    0    0  501 -0.00000000000E+00 -0.00000000000E+00 -0.14850157022E+03  0.14850157024E+03  0.25500000000E-02 0.  1.
    5000001    1    1    2    0    0 -0.18115598387E+03 -0.27145926752E+03  0.58424159586E+03  0.69817395164E+03  0.19900000000E+03 0.  0.
   -5000001    1    1    2    0    0  0.18115598387E+03  0.27145926752E+03  0.30751414652E+03  0.49058493121E+03  0.19900000000E+03 0.  0.
<mgrwt>
<rscale>  0 0.78607848E+03</rscale>
<asrwt>0</asrwt>
<pdfrwt beam="1">  1        2 0.14860820E+00 0.78607848E+03</pdfrwt>
<pdfrwt beam="2">  1       -2 0.21214509E-01 0.78607848E+03</pdfrwt>
<totfact> 0.51182987E+02</totfact>
</mgrwt>
</event>
<event>
 4    1  0.5056513E-005  0.6736360E+03  0.7818608E-02  0.9763412E-01
         -2   -1    0    0    0  501 -0.00000000000E+00  0.00000000000E+00  0.15178969509E+03  0.15178969511E+03  0.25500000000E-02 0. -1.
          2   -1    0    0  501    0  0.00000000000E+00 -0.00000000000E+00 -0.74739170158E+03  0.74739170158E+03  0.25500000000E-02 0.  1.
    5000001    1    1    2    0    0  0.11372500131E+03  0.11186725419E+03 -0.41480322592E+01  0.25508011419E+03  0.19900000000E+03 0.  0.
   -5000001    1    1    2    0    0 -0.11372500131E+03 -0.11186725419E+03 -0.59145397423E+03  0.64410128250E+03  0.19900000000E+03 0.  0.
<mgrwt>
<rscale>  0 0.67363598E+03</rscale>
<asrwt>0</asrwt>
<pdfrwt beam="1">  1        2 0.10677024E+00 0.67363598E+03</pdfrwt>
<pdfrwt beam="2">  1       -2 0.21684243E-01 0.67363598E+03</pdfrwt>
<totfact> 0.76962878E+02</totfact>
</mgrwt>
</event>
<event>
 4    1  0.5056513E-005  0.8289546E+03  0.7818608E-02  0.9519027E-01
         -2   -1    0    0    0  501 -0.00000000000E+00  0.00000000000E+00  0.33570820573E+03  0.33570820574E+03  0.25500000000E-02 0. -1.
          2   -1    0    0  501    0  0.00000000000E+00 -0.00000000000E+00 -0.51172845739E+03  0.51172845739E+03  0.25500000000E-02 0.  1.
    5000001    1    1    2    0    0 -0.28587713410E+03 -0.44082924834E+02 -0.31319704643E+03  0.47049168958E+03  0.19900000000E+03 0.  0.
   -5000001    1    1    2    0    0  0.28587713410E+03  0.44082924834E+02  0.13717679477E+03  0.37694497356E+03  0.19900000000E+03 0.  0.
<mgrwt>
<rscale>  0 0.82895462E+03</rscale>
<asrwt>0</asrwt>
<pdfrwt beam="1">  1        2 0.73104065E-01 0.82895462E+03</pdfrwt>
<pdfrwt beam="2">  1       -2 0.47958315E-01 0.82895462E+03</pdfrwt>
<totfact> 0.27068548E+02</totfact>
</mgrwt>
</event>
<event>
 4    1  0.5056513E-005  0.6828527E+03  0.7818608E-02  0.9747014E-01
         -2   -1    0    0    0  501 -0.00000000000E+00  0.00000000000E+00  0.35209434724E+02  0.35209434817E+02  0.25500000000E-02 0. -1.
          2   -1    0    0  501    0  0.00000000000E+00 -0.00000000000E+00 -0.33108157682E+04  0.33108157682E+04  0.25500000000E-02 0.  1.
    5000001    1    1    2    0    0 -0.99961881090E+01 -0.26460524555E+03 -0.12320996012E+04  0.12758472820E+04  0.19900000000E+03 0.  0.
   -5000001    1    1    2    0    0  0.99961881090E+01  0.26460524555E+03 -0.20435067323E+04  0.20701779210E+04  0.19900000000E+03 0.  0.
<mgrwt>
<rscale>  0 0.68285270E+03</rscale>
<asrwt>0</asrwt>
<pdfrwt beam="1">  1        2 0.47297348E+00 0.68285270E+03</pdfrwt>
<pdfrwt beam="2">  1       -2 0.50299214E-02 0.68285270E+03</pdfrwt>
<totfact> 0.34083652E+02</totfact>
</mgrwt>
</event>
<event>
 4    1  0.5056513E-005  0.9181222E+03  0.7818608E-02  0.9403207E-01
          2   -1    0    0  501    0  0.00000000000E+00  0.00000000000E+00  0.24915111474E+04  0.24915111474E+04  0.25500000000E-02 0.  1.
         -2   -1    0    0    0  501 -0.00000000000E+00 -0.00000000000E+00 -0.84582033946E+02  0.84582033984E+02  0.25500000000E-02 0. -1.
    5000001    1    1    2    0    0 -0.96375709825E+01  0.40069249328E+03  0.91610713901E+03  0.10195590454E+04  0.19900000000E+03 0.  0.
   -5000001    1    1    2    0    0  0.96375709825E+01 -0.40069249328E+03  0.14908219745E+04  0.15565341360E+04  0.19900000000E+03 0.  0.
<mgrwt>
<rscale>  0 0.91812217E+03</rscale>
<asrwt>0</asrwt>
<pdfrwt beam="1">  1        2 0.35593016E+00 0.91812217E+03</pdfrwt>
<pdfrwt beam="2">  1       -2 0.12083148E-01 0.91812217E+03</pdfrwt>
<totfact> 0.22804488E+02</totfact>
</mgrwt>
</event>
<event>
 4    1  0.5056513E-005  0.4428788E+03  0.7818608E-02  0.1029867E+00
         -2   -1    0    0    0  501 -0.00000000000E+00  0.00000000000E+00  0.25257533620E+02  0.25257533749E+02  0.25500000000E-02 0. -1.
          2   -1    0    0  501    0  0.00000000000E+00 -0.00000000000E+00 -0.19414169577E+04  0.19414169577E+04  0.25500000000E-02 0.  1.
    5000001    1    1    2    0    0  0.79767131939E+02 -0.15119790153E+02 -0.72130457232E+03  0.75264379984E+03  0.19900000000E+03 0.  0.
   -5000001    1    1    2    0    0 -0.79767131939E+02  0.15119790153E+02 -0.11948548517E+04  0.12140306916E+04  0.19900000000E+03 0.  0.
<mgrwt>
<rscale>  0 0.44287878E+03</rscale>
<asrwt>0</asrwt>
<pdfrwt beam="1">  1        2 0.27734518E+00 0.44287878E+03</pdfrwt>
<pdfrwt beam="2">  1       -2 0.36082203E-02 0.44287878E+03</pdfrwt>
<totfact> 0.30165810E+03</totfact>
</mgrwt>
</event>
<event>
 4    1  0.5056513E-005  0.4628992E+03  0.7818608E-02  0.1023944E+00
          2   -1    0    0  501    0  0.00000000000E+00  0.00000000000E+00  0.51033320425E+03  0.51033320426E+03  0.25500000000E-02 0.  1.
         -2   -1    0    0    0  501 -0.00000000000E+00 -0.00000000000E+00 -0.10496848988E+03  0.10496848991E+03  0.25500000000E-02 0. -1.
    5000001    1    1    2    0    0 -0.46385381104E+02 -0.10813390440E+03  0.18791881547E+03  0.29792453083E+03  0.19900000000E+03 0.  0.
   -5000001    1    1    2    0    0  0.46385381104E+02  0.10813390440E+03  0.21744589890E+03  0.31737716334E+03  0.19900000000E+03 0.  0.
<mgrwt>
<rscale>  0 0.46289915E+03</rscale>
<asrwt>0</asrwt>
<pdfrwt beam="1">  1        2 0.72904744E-01 0.46289915E+03</pdfrwt>
<pdfrwt beam="2">  1       -2 0.14995498E-01 0.46289915E+03</pdfrwt>
<totfact> 0.22819648E+03</totfact>
</mgrwt>
</event>
<event>
 4    1  0.5056513E-005  0.5373427E+03  0.7818608E-02  0.1004467E+00
         -2   -1    0    0    0  501 -0.00000000000E+00  0.00000000000E+00  0.46318567368E+02  0.46318567438E+02  0.25500000000E-02 0. -1.
          2   -1    0    0  501    0  0.00000000000E+00 -0.00000000000E+00 -0.15584309358E+04  0.15584309358E+04  0.25500000000E-02 0.  1.
    5000001    1    1    2    0    0 -0.78627753827E+02 -0.15919470696E+03 -0.65891558224E+03  0.71084177066E+03  0.19900000000E+03 0.  0.
   -5000001    1    1    2    0    0  0.78627753827E+02  0.15919470696E+03 -0.85319678616E+03  0.89390773255E+03  0.19900000000E+03 0.  0.
<mgrwt>
<rscale>  0 0.53734268E+03</rscale>
<asrwt>0</asrwt>
<pdfrwt beam="1">  1        2 0.22263296E+00 0.53734268E+03</pdfrwt>
<pdfrwt beam="2">  1       -2 0.66169392E-02 0.53734268E+03</pdfrwt>
<totfact> 0.18403486E+03</totfact>
</mgrwt>
</event>
<event>
 4    1  0.5056513E-005  0.4778414E+03  0.7818608E-02  0.1019730E+00
         -2   -1    0    0    0  501 -0.00000000000E+00  0.00000000000E+00  0.70332847431E+03  0.70332847431E+03  0.25500000000E-02 0. -1.
          2   -1    0    0  501    0  0.00000000000E+00 -0.00000000000E+00 -0.81161370174E+02  0.81161370214E+02  0.25500000000E-02 0.  1.
    5000001    1    1    2    0    0 -0.98107435049E+02 -0.74483253104E+02  0.38997714515E+03  0.45481424510E+03  0.19900000000E+03 0.  0.
   -5000001    1    1    2    0    0  0.98107435049E+02  0.74483253104E+02  0.23218995898E+03  0.32967559943E+03  0.19900000000E+03 0.  0.
<mgrwt>
<rscale>  0 0.47784141E+03</rscale>
<asrwt>0</asrwt>
<pdfrwt beam="1">  1        2 0.11594482E-01 0.47784141E+03</pdfrwt>
<pdfrwt beam="2">  1       -2 0.10047549E+00 0.47784141E+03</pdfrwt>
<totfact> 0.45459610E+02</totfact>
</mgrwt>
</event>
<event>
 4    1  0.5056513E-005  0.6836091E+03  0.7818608E-02  0.9745681E-01
         -2   -1    0    0    0  501 -0.00000000000E+00  0.00000000000E+00  0.16219596839E+03  0.16219596841E+03  0.25500000000E-02 0. -1.
          2   -1    0    0  501    0  0.00000000000E+00 -0.00000000000E+00 -0.72030373799E+03  0.72030373799E+03  0.25500000000E-02 0.  1.
    5000001    1    1    2    0    0  0.10032899002E+03  0.11806275762E+03 -0.57688021074E+03  0.62960026884E+03  0.19900000000E+03 0.  0.
   -5000001    1    1    2    0    0 -0.10032899002E+03 -0.11806275762E+03  0.18772441147E+02  0.25289943757E+03  0.19900000000E+03 0.  0.
<mgrwt>
<rscale>  0 0.68360913E+03</rscale>
<asrwt>0</asrwt>
<pdfrwt beam="1">  1        2 0.10290053E+00 0.68360913E+03</pdfrwt>
<pdfrwt beam="2">  1       -2 0.23170853E-01 0.68360913E+03</pdfrwt>
<totfact> 0.71633909E+02</totfact>
</mgrwt>
</event>
<event>
 4    1  0.5056513E-005  0.7964726E+03  0.7818608E-02  0.9565137E-01
          2   -1    0    0  501    0  0.00000000000E+00  0.00000000000E+00  0.44901475944E+04  0.44901475944E+04  0.25500000000E-02 0.  1.
         -2   -1    0    0    0  501 -0.00000000000E+00 -0.00000000000E+00 -0.35320030072E+02  0.35320030164E+02  0.25500000000E-02 0. -1.
    5000001    1    1    2    0    0 -0.27325178779E+03 -0.16286661045E+03  0.14693751249E+04  0.15165277215E+04  0.19900000000E+03 0.  0.
   -5000001    1    1    2    0    0  0.27325178779E+03  0.16286661045E+03  0.29854524394E+04  0.30089399030E+04  0.19900000000E+03 0.  0.
<mgrwt>
<rscale>  0 0.79647259E+03</rscale>
<asrwt>0</asrwt>
<pdfrwt beam="1">  1        2 0.64144897E+00 0.79647259E+03</pdfrwt>
<pdfrwt beam="2">  1       -2 0.50457240E-02 0.79647259E+03</pdfrwt>
<totfact> 0.55504827E+01</totfact>
</mgrwt>
</event>
<event>
 4    1  0.5056513E-005  0.4234319E+03  0.7818608E-02  0.1035955E+00
          2   -1    0    0  501    0  0.00000000000E+00  0.00000000000E+00  0.10471431176E+04  0.10471431176E+04  0.25500000000E-02 0.  1.
         -2   -1    0    0    0  501 -0.00000000000E+00 -0.00000000000E+00 -0.42805659014E+02  0.42805659090E+02  0.25500000000E-02 0. -1.
    5000001    1    1    2    0    0  0.52170323380E+02 -0.18519200092E+02  0.62174443452E+03  0.65515787813E+03  0.19900000000E+03 0.  0.
   -5000001    1    1    2    0    0 -0.52170323380E+02  0.18519200092E+02  0.38259302407E+03  0.43479089857E+03  0.19900000000E+03 0.  0.
<mgrwt>
<rscale>  0 0.42343194E+03</rscale>
<asrwt>0</asrwt>
<pdfrwt beam="1">  1        2 0.14959184E+00 0.42343194E+03</pdfrwt>
<pdfrwt beam="2">  1       -2 0.61150957E-02 0.42343194E+03</pdfrwt>
<totfact> 0.39477438E+03</totfact>
</mgrwt>
</event>
<event>
 4    1  0.5056513E-005  0.8944918E+03  0.7818608E-02  0.9432493E-01
          2   -1    0    0  501    0  0.00000000000E+00  0.00000000000E+00  0.14431802920E+04  0.14431802920E+04  0.25500000000E-02 0.  1.
         -2   -1    0    0    0  501 -0.00000000000E+00 -0.00000000000E+00 -0.13860284446E+03  0.13860284449E+03  0.25500000000E-02 0. -1.
    5000001    1    1    2    0    0  0.37920799798E+03 -0.65250312614E+02  0.84897915967E+03  0.95311222980E+03  0.19900000000E+03 0.  0.
   -5000001    1    1    2    0    0 -0.37920799798E+03  0.65250312614E+02  0.45559828789E+03  0.62867090672E+03  0.19900000000E+03 0.  0.
<mgrwt>
<rscale>  0 0.89449180E+03</rscale>
<asrwt>0</asrwt>
<pdfrwt beam="1">  1        2 0.20616862E+00 0.89449180E+03</pdfrwt>
<pdfrwt beam="2">  1       -2 0.19800405E-01 0.89449180E+03</pdfrwt>
<totfact> 0.34121915E+02</totfact>
</mgrwt>
</event>
<event>
 4    1  0.5056513E-005  0.4762700E+03  0.7818608E-02  0.1020165E+00
          2   -1    0    0  501    0  0.00000000000E+00  0.00000000000E+00  0.19168403514E+04  0.19168403514E+04  0.25500000000E-02 0.  1.
         -2   -1    0    0    0  501 -0.00000000000E+00 -0.00000000000E+00 -0.29584245609E+02  0.29584245719E+02  0.25500000000E-02 0. -1.
    5000001    1    1    2    0    0 -0.45884738339E+01  0.12331427420E+03  0.76643710842E+03  0.80140770241E+03  0.19900000000E+03 0.  0.
   -5000001    1    1    2    0    0  0.45884738339E+01 -0.12331427420E+03  0.11208189974E+04  0.11450168948E+04  0.19900000000E+03 0.  0.
<mgrwt>
<rscale>  0 0.47626999E+03</rscale>
<asrwt>0</asrwt>
<pdfrwt beam="1">  1        2 0.27383434E+00 0.47626999E+03</pdfrwt>
<pdfrwt beam="2">  1       -2 0.42263207E-02 0.47626999E+03</pdfrwt>
<totfact> 0.24355418E+03</totfact>
</mgrwt>
</event>
<event>
 4    1  0.5056513E-005  0.5841145E+03  0.7818608E-02  0.9938923E-01
         -2   -1    0    0    0  501 -0.00000000000E+00  0.00000000000E+00  0.72362831253E+02  0.72362831298E+02  0.25500000000E-02 0. -1.
          2   -1    0    0  501    0  0.00000000000E+00 -0.00000000000E+00 -0.11787466445E+04  0.11787466445E+04  0.25500000000E-02 0.  1.
    5000001    1    1    2    0    0 -0.95650388659E+02 -0.16565272909E+03 -0.75758957623E+03  0.80630812318E+03  0.19900000000E+03 0.  0.
   -5000001    1    1    2    0    0  0.95650388659E+02  0.16565272909E+03 -0.34879423699E+03  0.44480135259E+03  0.19900000000E+03 0.  0.
<mgrwt>
<rscale>  0 0.58411452E+03</rscale>
<asrwt>0</asrwt>
<pdfrwt beam="1">  1        2 0.16839237E+00 0.58411452E+03</pdfrwt>
<pdfrwt beam="2">  1       -2 0.10337548E-01 0.58411452E+03</pdfrwt>
<totfact> 0.14400102E+03</totfact>
</mgrwt>
</event>
<event>
 4    1  0.5056513E-005  0.7017055E+03  0.7818608E-02  0.9714320E-01
         -2   -1    0    0    0  501 -0.00000000000E+00  0.00000000000E+00  0.89334790648E+02  0.89334790685E+02  0.25500000000E-02 0. -1.
          2   -1    0    0  501    0  0.00000000000E+00 -0.00000000000E+00 -0.13779365097E+04  0.13779365097E+04  0.25500000000E-02 0.  1.
    5000001    1    1    2    0    0  0.28500247931E+02  0.26463940489E+03 -0.40911701567E+03  0.52709013581E+03  0.19900000000E+03 0.  0.
   -5000001    1    1    2    0    0 -0.28500247931E+02 -0.26463940489E+03 -0.87948470334E+03  0.94018116454E+03  0.19900000000E+03 0.  0.
<mgrwt>
<rscale>  0 0.70170555E+03</rscale>
<asrwt>0</asrwt>
<pdfrwt beam="1">  1        2 0.19684806E+00 0.70170555E+03</pdfrwt>
<pdfrwt beam="2">  1       -2 0.12762114E-01 0.70170555E+03</pdfrwt>
<totfact> 0.78890205E+02</totfact>
</mgrwt>
</event>
<event>
 4    1  0.5056513E-005  0.4222845E+03  0.7818608E-02  0.1036325E+00
         -2   -1    0    0    0  501 -0.00000000000E+00  0.00000000000E+00  0.14935228022E+02  0.14935228240E+02  0.25500000000E-02 0. -1.
          2   -1    0    0  501    0  0.00000000000E+00 -0.00000000000E+00 -0.29849590461E+04  0.29849590461E+04  0.25500000000E-02 0.  1.
    5000001    1    1    2    0    0  0.30887846862E+01  0.56239212307E+02 -0.11829760029E+04  0.12009186538E+04  0.19900000000E+03 0.  0.
   -5000001    1    1    2    0    0 -0.30887846862E+01 -0.56239212307E+02 -0.17870478151E+04  0.17989756205E+04  0.19900000000E+03 0.  0.
<mgrwt>
<rscale>  0 0.42228447E+03</rscale>
<asrwt>0</asrwt>
<pdfrwt beam="1">  1        2 0.42642234E+00 0.42228447E+03</pdfrwt>
<pdfrwt beam="2">  1       -2 0.21336059E-02 0.42228447E+03</pdfrwt>
<totfact> 0.19572899E+03</totfact>
</mgrwt>
</event>
<event>
 4    1  0.5056513E-005  0.7522237E+03  0.7818608E-02  0.9631868E-01
         -2   -1    0    0    0  501 -0.00000000000E+00  0.00000000000E+00  0.23821134935E+03  0.23821134936E+03  0.25500000000E-02 0. -1.
          2   -1    0    0  501    0  0.00000000000E+00 -0.00000000000E+00 -0.59384290795E+03  0.59384290796E+03  0.25500000000E-02 0.  1.
    5000001    1    1    2    0    0 -0.28684341548E+03 -0.77742393679E+02 -0.30650771898E+03  0.47103185303E+03  0.19900000000E+03 0.  0.
   -5000001    1    1    2    0    0  0.28684341548E+03  0.77742393679E+02 -0.49123839621E+02  0.36102240429E+03  0.19900000000E+03 0.  0.
<mgrwt>
<rscale>  0 0.75222369E+03</rscale>
<asrwt>0</asrwt>
<pdfrwt beam="1">  1        2 0.84834701E-01 0.75222369E+03</pdfrwt>
<pdfrwt beam="2">  1       -2 0.34030193E-01 0.75222369E+03</pdfrwt>
<totfact> 0.44605408E+02</totfact>
</mgrwt>
</event>
<event>
 4    1  0.5056513E-005  0.5493142E+03  0.7818608E-02  0.1001653E+00
         -2   -1    0    0    0  501 -0.00000000000E+00  0.00000000000E+00  0.31251159370E+03  0.31251159371E+03  0.25500000000E-02 0. -1.
          2   -1    0    0  501    0  0.00000000000E+00 -0.00000000000E+00 -0.24138794094E+03  0.24138794095E+03  0.25500000000E-02 0.  1.
    5000001    1    1    2    0    0  0.41074013158E+02  0.18164730301E+03  0.69796857389E+02  0.28134572780E+03  0.19900000000E+03 0.  0.
   -5000001    1    1    2    0    0 -0.41074013158E+02 -0.18164730301E+03  0.13267953741E+01  0.27255380686E+03  0.19900000000E+03 0.  0.
<mgrwt>
<rscale>  0 0.54931423E+03</rscale>
<asrwt>0</asrwt>
<pdfrwt beam="1">  1        2 0.34483992E-01 0.54931423E+03</pdfrwt>
<pdfrwt beam="2">  1       -2 0.44644513E-01 0.54931423E+03</pdfrwt>
<totfact> 0.72744503E+02</totfact>
</mgrwt>
</event>
<event>
 4    1  0.5056513E-005  0.5980332E+03  0.7818608E-02  0.9909495E-01
          2   -1    0    0  501    0  0.00000000000E+00  0.00000000000E+00  0.25770808301E+04  0.25770808301E+04  0.25500000000E-02 0.  1.
         -2   -1    0    0    0  501 -0.00000000000E+00 -0.00000000000E+00 -0.34694657300E+02  0.34694657394E+02  0.25500000000E-02 0. -1.
    5000001    1    1    2    0    0  0.53473237683E+02  0.11915896408E+03  0.20615575130E+04  0.20752538700E+04  0.19900000000E+03 0.  0.
   -5000001    1    1    2    0    0 -0.53473237683E+02 -0.11915896408E+03  0.48082865979E+03  0.53652161741E+03  0.19900000000E+03 0.  0.
<mgrwt>
<rscale>  0 0.59803323E+03</rscale>
<asrwt>0</asrwt>
<pdfrwt beam="1">  1        2 0.36815428E+00 0.59803323E+03</pdfrwt>
<pdfrwt beam="2">  1       -2 0.49563813E-02 0.59803323E+03</pdfrwt>
<totfact> 0.87875011E+02</totfact>
</mgrwt>
</event>
<event>
 4    1  0.5056513E-005  0.4871222E+03  0.7818608E-02  0.1017196E+00
         -2   -1    0    0    0  501 -0.00000000000E+00  0.00000000000E+00  0.17923178104E+03  0.17923178106E+03  0.25500000000E-02 0. -1.
          2   -1    0    0  501    0  0.00000000000E+00 -0.00000000000E+00 -0.33097930521E+03  0.33097930522E+03  0.25500000000E-02 0.  1.
    5000001    1    1    2    0    0 -0.60360547648E+02 -0.10085286249E+03 -0.15636901326E+03  0.27904652640E+03  0.19900000000E+03 0.  0.
   -5000001    1    1    2    0    0  0.60360547648E+02  0.10085286249E+03  0.46214890970E+01  0.23116455989E+03  0.19900000000E+03 0.  0.
<mgrwt>
<rscale>  0 0.48712220E+03</rscale>
<asrwt>0</asrwt>
<pdfrwt beam="1">  1        2 0.47282758E-01 0.48712220E+03</pdfrwt>
<pdfrwt beam="2">  1       -2 0.25604540E-01 0.48712220E+03</pdfrwt>
<totfact> 0.14620885E+03</totfact>
</mgrwt>
</event>
<event>
 4    1  0.5056513E-005  0.5374701E+03  0.7818608E-02  0.1004436E+00
         -2   -1    0    0    0  501 -0.00000000000E+00  0.00000000000E+00  0.35955218340E+02  0.35955218431E+02  0.25500000000E-02 0. -1.
          2   -1    0    0  501    0  0.00000000000E+00 -0.00000000000E+00 -0.20085690675E+04  0.20085690675E+04  0.25500000000E-02 0.  1.
    5000001    1    1    2    0    0 -0.10820698702E+02 -0.17091202380E+03 -0.12044819270E+04  0.12327634485E+04  0.19900000000E+03 0.  0.
   -5000001    1    1    2    0    0  0.10820698702E+02  0.17091202380E+03 -0.76813192209E+03  0.81176083740E+03  0.19900000000E+03 0.  0.
<mgrwt>
<rscale>  0 0.53747015E+03</rscale>
<asrwt>0</asrwt>
<pdfrwt beam="1">  1        2 0.28693837E+00 0.53747015E+03</pdfrwt>
<pdfrwt beam="2">  1       -2 0.51364610E-02 0.53747015E+03</pdfrwt>
<totfact> 0.16189528E+03</totfact>
</mgrwt>
</event>
<event>
 4    1  0.5056513E-005  0.7049914E+03  0.7818608E-02  0.9708734E-01
         -2   -1    0    0    0  501 -0.00000000000E+00  0.00000000000E+00  0.12597665770E+03  0.12597665773E+03  0.25500000000E-02 0. -1.
          2   -1    0    0  501    0  0.00000000000E+00 -0.00000000000E+00 -0.98631932850E+03  0.98631932850E+03  0.25500000000E-02 0.  1.
    5000001    1    1    2    0    0  0.30726010767E+02  0.28678567422E+03 -0.49050022941E+03  0.60281140146E+03  0.19900000000E+03 0.  0.
   -5000001    1    1    2    0    0 -0.30726010767E+02 -0.28678567422E+03 -0.36984244138E+03  0.50948458477E+03  0.19900000000E+03 0.  0.
<mgrwt>
<rscale>  0 0.70499138E+03</rscale>
<asrwt>0</asrwt>
<pdfrwt beam="1">  1        2 0.14090276E+00 0.70499138E+03</pdfrwt>
<pdfrwt beam="2">  1       -2 0.17996666E-01 0.70499138E+03</pdfrwt>
<totfact> 0.73766474E+02</totfact>
</mgrwt>
</event>
<event>
 4    1  0.5056513E-005  0.5474354E+03  0.7818608E-02  0.1002089E+00
         -2   -1    0    0    0  501 -0.00000000000E+00  0.00000000000E+00  0.36155599014E+02  0.36155599104E+02  0.25500000000E-02 0. -1.
          2   -1    0    0  501    0  0.00000000000E+00 -0.00000000000E+00 -0.20721926620E+04  0.20721926620E+04  0.25500000000E-02 0.  1.
    5000001    1    1    2    0    0 -0.10135367485E+03 -0.12105767345E+03 -0.14106423251E+04  0.14333318866E+04  0.19900000000E+03 0.  0.
   -5000001    1    1    2    0    0  0.10135367485E+03  0.12105767345E+03 -0.62539473783E+03  0.67501637448E+03  0.19900000000E+03 0.  0.
<mgrwt>
<rscale>  0 0.54743536E+03</rscale>
<asrwt>0</asrwt>
<pdfrwt beam="1">  1        2 0.29602745E+00 0.54743536E+03</pdfrwt>
<pdfrwt beam="2">  1       -2 0.51650869E-02 0.54743536E+03</pdfrwt>
<totfact> 0.14908769E+03</totfact>
</mgrwt>
</event>
<event>
 4    1  0.5056513E-005  0.5891673E+03  0.7818608E-02  0.9928139E-01
          2   -1    0    0  501    0  0.00000000000E+00  0.00000000000E+00  0.22295229051E+03  0.22295229052E+03  0.25500000000E-02 0.  1.
         -2   -1    0    0    0  501 -0.00000000000E+00 -0.00000000000E+00 -0.38922918366E+03  0.38922918367E+03  0.25500000000E-02 0. -1.
    5000001    1    1    2    0    0 -0.18889166772E+03  0.94799256019E+02 -0.31065186761E+02  0.29194692480E+03  0.19900000000E+03 0.  0.
   -5000001    1    1    2    0    0  0.18889166772E+03 -0.94799256019E+02 -0.13521170640E+03  0.32023454939E+03  0.19900000000E+03 0.  0.
<mgrwt>
<rscale>  0 0.58916734E+03</rscale>
<asrwt>0</asrwt>
<pdfrwt beam="1">  1        2 0.31850327E-01 0.58916734E+03</pdfrwt>
<pdfrwt beam="2">  1       -2 0.55604169E-01 0.58916734E+03</pdfrwt>
<totfact> 0.50952833E+02</totfact>
</mgrwt>
</event>
<event>
 4    1  0.5056513E-005  0.5080492E+03  0.7818608E-02  0.1011699E+00
          2   -1    0    0  501    0  0.00000000000E+00  0.00000000000E+00  0.82328731871E+03  0.82328731872E+03  0.25500000000E-02 0.  1.
         -2   -1    0    0    0  501 -0.00000000000E+00 -0.00000000000E+00 -0.78379088153E+02  0.78379088194E+02  0.25500000000E-02 0. -1.
    5000001    1    1    2    0    0  0.12505241273E+03 -0.11758388593E+02  0.54223068930E+03  0.59109346643E+03  0.19900000000E+03 0.  0.
   -5000001    1    1    2    0    0 -0.12505241273E+03  0.11758388593E+02  0.20267754126E+03  0.31057294049E+03  0.19900000000E+03 0.  0.
<mgrwt>
<rscale>  0 0.50804925E+03</rscale>
<asrwt>0</asrwt>
<pdfrwt beam="1">  1        2 0.11761247E+00 0.50804925E+03</pdfrwt>
<pdfrwt beam="2">  1       -2 0.11197013E-01 0.50804925E+03</pdfrwt>
<totfact> 0.20876888E+03</totfact>
</mgrwt>
</event>
<event>
 4    1  0.5056513E-005  0.9304368E+03  0.7818608E-02  0.9388314E-01
         -2   -1    0    0    0  501 -0.00000000000E+00  0.00000000000E+00  0.12339360403E+03  0.12339360405E+03  0.25500000000E-02 0. -1.
          2   -1    0    0  501    0  0.00000000000E+00 -0.00000000000E+00 -0.17539656067E+04  0.17539656067E+04  0.25500000000E-02 0.  1.
    5000001    1    1    2    0    0  0.29137664223E+03  0.17303478700E+02 -0.20452239022E+03  0.40820358415E+03  0.19900000000E+03 0.  0.
   -5000001    1    1    2    0    0 -0.29137664223E+03 -0.17303478700E+02 -0.14260496124E+04  0.14691556266E+04  0.19900000000E+03 0.  0.
<mgrwt>
<rscale>  0 0.93043675E+03</rscale>
<asrwt>0</asrwt>
<pdfrwt beam="1">  1        2 0.25056650E+00 0.93043675E+03</pdfrwt>
<pdfrwt beam="2">  1       -2 0.17627659E-01 0.93043675E+03</pdfrwt>
<totfact> 0.28687409E+02</totfact>
</mgrwt>
</event>
<event>
 4    1  0.5056513E-005  0.5543337E+03  0.7818608E-02  0.1000496E+00
          2   -1    0    0  501    0  0.00000000000E+00  0.00000000000E+00  0.21085200583E+03  0.21085200584E+03  0.25500000000E-02 0. -1.
         -2   -1    0    0    0  501 -0.00000000000E+00 -0.00000000000E+00 -0.36433831283E+03  0.36433831284E+03  0.25500000000E-02 0.  1.
    5000001    1    1    2    0    0 -0.12115673208E+03 -0.12440398275E+03 -0.16396017773E+03  0.31086853256E+03  0.19900000000E+03 0.  0.
   -5000001    1    1    2    0    0  0.12115673208E+03  0.12440398275E+03  0.10473870729E+02  0.26432178613E+03  0.19900000000E+03 0.  0.
<mgrwt>
<rscale>  0 0.55433370E+03</rscale>
<asrwt>0</asrwt>
<pdfrwt beam="1">  1        2 0.30121715E-01 0.55433370E+03</pdfrwt>
<pdfrwt beam="2">  1       -2 0.52048331E-01 0.55433370E+03</pdfrwt>
<totfact> 0.62153719E+02</totfact>
</mgrwt>
</event>
<event>
 4    1  0.5056513E-005  0.4723058E+03  0.7818608E-02  0.1021271E+00
         -2   -1    0    0    0  501 -0.00000000000E+00  0.00000000000E+00  0.68481487688E+02  0.68481487736E+02  0.25500000000E-02 0. -1.
          2   -1    0    0  501    0  0.00000000000E+00 -0.00000000000E+00 -0.81435410936E+03  0.81435410936E+03  0.25500000000E-02 0.  1.
    5000001    1    1    2    0    0  0.60391834033E+02  0.10496121817E+03 -0.44540622744E+03  0.50264474371E+03  0.19900000000E+03 0.  0.
   -5000001    1    1    2    0    0 -0.60391834033E+02 -0.10496121817E+03 -0.30046639423E+03  0.38019085339E+03  0.19900000000E+03 0.  0.
<mgrwt>
<rscale>  0 0.47230575E+03</rscale>
<asrwt>0</asrwt>
<pdfrwt beam="1">  1        2 0.11633630E+00 0.47230575E+03</pdfrwt>
<pdfrwt beam="2">  1       -2 0.97830702E-02 0.47230575E+03</pdfrwt>
<totfact> 0.26337374E+03</totfact>
</mgrwt>
</event>
<event>
 4    1  0.5056513E-005  0.1315403E+04  0.7818608E-02  0.9017439E-01
          2   -1    0    0  501    0  0.00000000000E+00  0.00000000000E+00  0.54504499375E+03  0.54504499376E+03  0.25500000000E-02 0.  1.
         -2   -1    0    0    0  501 -0.00000000000E+00 -0.00000000000E+00 -0.79364298864E+03  0.79364298864E+03  0.25500000000E-02 0. -1.
    5000001    1    1    2    0    0 -0.62571506432E+03  0.14948396663E+02 -0.15995259122E+03  0.67596496042E+03  0.19900000000E+03 0.  0.
   -5000001    1    1    2    0    0  0.62571506432E+03 -0.14948396663E+02 -0.88645403672E+02  0.66272302199E+03  0.19900000000E+03 0.  0.
<mgrwt>
<rscale>  0 0.13154028E+04</rscale>
<asrwt>0</asrwt>
<pdfrwt beam="1">  1        2 0.77863571E-01 0.13154028E+04</pdfrwt>
<pdfrwt beam="2">  1       -2 0.11337757E+00 0.13154028E+04</pdfrwt>
<totfact> 0.36366861E+01</totfact>
</mgrwt>
</event>
<event>
 4    1  0.5056513E-005  0.4244396E+03  0.7818608E-02  0.1035631E+00
          2   -1    0    0  501    0  0.00000000000E+00  0.00000000000E+00  0.12524417316E+04  0.12524417316E+04  0.25500000000E-02 0.  1.
         -2   -1    0    0    0  501 -0.00000000000E+00 -0.00000000000E+00 -0.35959558187E+02  0.35959558278E+02  0.25500000000E-02 0. -1.
    5000001    1    1    2    0    0 -0.56262186994E+02 -0.46320996187E+02  0.64220423275E+03  0.67626795350E+03  0.19900000000E+03 0.  0.
   -5000001    1    1    2    0    0  0.56262186994E+02  0.46320996187E+02  0.57427794066E+03  0.61213333638E+03  0.19900000000E+03 0.  0.
<mgrwt>
<rscale>  0 0.42443964E+03</rscale>
<asrwt>0</asrwt>
<pdfrwt beam="1">  1        2 0.17892025E+00 0.42443964E+03</pdfrwt>
<pdfrwt beam="2">  1       -2 0.51370798E-02 0.42443964E+03</pdfrwt>
<totfact> 0.39601123E+03</totfact>
</mgrwt>
</event>
<event>
 4    1  0.5056513E-005  0.6282589E+03  0.7818608E-02  0.9848452E-01
          2   -1    0    0  501    0  0.00000000000E+00  0.00000000000E+00  0.79500468204E+03  0.79500468204E+03  0.25500000000E-02 0.  1.
         -2   -1    0    0    0  501 -0.00000000000E+00 -0.00000000000E+00 -0.12412165831E+03  0.12412165834E+03  0.25500000000E-02 0. -1.
    5000001    1    1    2    0    0  0.16620896256E+03  0.17082133343E+03  0.40515881794E+03  0.51045079581E+03  0.19900000000E+03 0.  0.
   -5000001    1    1    2    0    0 -0.16620896256E+03 -0.17082133343E+03  0.26572420579E+03  0.40867554457E+03  0.19900000000E+03 0.  0.
<mgrwt>
<rscale>  0 0.62825886E+03</rscale>
<asrwt>0</asrwt>
<pdfrwt beam="1">  1        2 0.11357210E+00 0.62825886E+03</pdfrwt>
<pdfrwt beam="2">  1       -2 0.17731665E-01 0.62825886E+03</pdfrwt>
<totfact> 0.10112952E+03</totfact>
</mgrwt>
</event>
<event>
 4    1  0.5056513E-005  0.5375649E+03  0.7818608E-02  0.1004414E+00
         -2   -1    0    0    0  501 -0.00000000000E+00  0.00000000000E+00  0.11946905072E+03  0.11946905075E+03  0.25500000000E-02 0. -1.
          2   -1    0    0  501    0  0.00000000000E+00 -0.00000000000E+00 -0.60470897986E+03  0.60470897987E+03  0.25500000000E-02 0.  1.
    5000001    1    1    2    0    0  0.70868724315E+02 -0.16604211288E+03 -0.23303263700E+03  0.35566496769E+03  0.19900000000E+03 0.  0.
   -5000001    1    1    2    0    0 -0.70868724315E+02  0.16604211288E+03 -0.25220729214E+03  0.36851306292E+03  0.19900000000E+03 0.  0.
<mgrwt>
<rscale>  0 0.53756491E+03</rscale>
<asrwt>0</asrwt>
<pdfrwt beam="1">  1        2 0.86386995E-01 0.53756491E+03</pdfrwt>
<pdfrwt beam="2">  1       -2 0.17067008E-01 0.53756491E+03</pdfrwt>
<totfact> 0.15094073E+03</totfact>
</mgrwt>
</event>
<event>
 4    1  0.5056513E-005  0.5585642E+03  0.7818608E-02  0.9995309E-01
          2   -1    0    0  501    0  0.00000000000E+00  0.00000000000E+00  0.35912086072E+04  0.35912086072E+04  0.25500000000E-02 0.  1.
         -2   -1    0    0    0  501 -0.00000000000E+00 -0.00000000000E+00 -0.21719286578E+02  0.21719286728E+02  0.25500000000E-02 0. -1.
    5000001    1    1    2    0    0 -0.23491481506E+02  0.13921186760E+03  0.90578481160E+03  0.93807191553E+03  0.19900000000E+03 0.  0.
   -5000001    1    1    2    0    0  0.23491481506E+02 -0.13921186760E+03  0.26637045090E+04  0.26748559784E+04  0.19900000000E+03 0.  0.
<mgrwt>
<rscale>  0 0.55856419E+03</rscale>
<asrwt>0</asrwt>
<pdfrwt beam="1">  1        2 0.51303008E+00 0.55856419E+03</pdfrwt>
<pdfrwt beam="2">  1       -2 0.31027536E-02 0.55856419E+03</pdfrwt>
<totfact> 0.49679772E+02</totfact>
</mgrwt>
</event>
<event>
 4    1  0.5056513E-005  0.5647917E+03  0.7818608E-02  0.9981270E-01
         -2   -1    0    0    0  501 -0.00000000000E+00  0.00000000000E+00  0.59499058464E+02  0.59499058518E+02  0.25500000000E-02 0. -1.
          2   -1    0    0  501    0  0.00000000000E+00 -0.00000000000E+00 -0.13403141067E+04  0.13403141067E+04  0.25500000000E-02 0.  1.
    5000001    1    1    2    0    0 -0.16509083659E+03 -0.47360752819E+02 -0.89616242245E+03  0.93391975707E+03  0.19900000000E+03 0.  0.
   -5000001    1    1    2    0    0  0.16509083659E+03  0.47360752819E+02 -0.38465262578E+03  0.46589340814E+03  0.19900000000E+03 0.  0.
<mgrwt>
<rscale>  0 0.56479174E+03</rscale>
<asrwt>0</asrwt>
<pdfrwt beam="1">  1        2 0.19147343E+00 0.56479174E+03</pdfrwt>
<pdfrwt beam="2">  1       -2 0.84998663E-02 0.56479174E+03</pdfrwt>
<totfact> 0.16096365E+03</totfact>
</mgrwt>
</event>
<event>
 4    1  0.5056513E-005  0.1199779E+04  0.7818608E-02  0.9113050E-01
          2   -1    0    0  501    0  0.00000000000E+00  0.00000000000E+00  0.11900044395E+04  0.11900044395E+04  0.25500000000E-02 0.  1.
         -2   -1    0    0    0  501 -0.00000000000E+00 -0.00000000000E+00 -0.30240871283E+03  0.30240871284E+03  0.25500000000E-02 0. -1.
    5000001    1    1    2    0    0 -0.52084403069E+03  0.20087523056E+03  0.32819253613E+03  0.67745162435E+03  0.19900000000E+03 0.  0.
   -5000001    1    1    2    0    0  0.52084403069E+03 -0.20087523056E+03  0.55940319057E+03  0.81496152803E+03  0.19900000000E+03 0.  0.
<mgrwt>
<rscale>  0 0.11997795E+04</rscale>
<asrwt>0</asrwt>
<pdfrwt beam="1">  1        2 0.17000063E+00 0.11997795E+04</pdfrwt>
<pdfrwt beam="2">  1       -2 0.43201245E-01 0.11997795E+04</pdfrwt>
<totfact> 0.10850040E+02</totfact>
</mgrwt>
</event>
<event>
 4    1  0.5056513E-005  0.5143881E+03  0.7818608E-02  0.1010090E+00
          2   -1    0    0  501    0  0.00000000000E+00  0.00000000000E+00  0.19340190309E+04  0.19340190309E+04  0.25500000000E-02 0.  1.
         -2   -1    0    0    0  501 -0.00000000000E+00 -0.00000000000E+00 -0.34202750451E+02  0.34202750546E+02  0.25500000000E-02 0. -1.
    5000001    1    1    2    0    0 -0.28231008319E+02  0.13047689321E+03  0.13073494244E+04  0.13291293116E+04  0.19900000000E+03 0.  0.
   -5000001    1    1    2    0    0  0.28231008319E+02 -0.13047689321E+03  0.59246685604E+03  0.63909246983E+03  0.19900000000E+03 0.  0.
<mgrwt>
<rscale>  0 0.51438807E+03</rscale>
<asrwt>0</asrwt>
<pdfrwt beam="1">  1        2 0.27628850E+00 0.51438807E+03</pdfrwt>
<pdfrwt beam="2">  1       -2 0.48861059E-02 0.51438807E+03</pdfrwt>
<totfact> 0.19077343E+03</totfact>
</mgrwt>
</event>
<event>
 4    1  0.5056513E-005  0.4470684E+03  0.7818608E-02  0.1028600E+00
         -2   -1    0    0    0  501 -0.00000000000E+00  0.00000000000E+00  0.42496679606E+02  0.42496679682E+02  0.25500000000E-02 0. -1.
          2   -1    0    0  501    0  0.00000000000E+00 -0.00000000000E+00 -0.11757988409E+04  0.11757988409E+04  0.25500000000E-02 0.  1.
    5000001    1    1    2    0    0  0.84394907510E+02 -0.39007126681E+02 -0.45355253145E+03  0.50393943597E+03  0.19900000000E+03 0.  0.
   -5000001    1    1    2    0    0 -0.84394907510E+02  0.39007126681E+02 -0.67974962984E+03  0.71435608460E+03  0.19900000000E+03 0.  0.
<mgrwt>
<rscale>  0 0.44706844E+03</rscale>
<asrwt>0</asrwt>
<pdfrwt beam="1">  1        2 0.16797124E+00 0.44706844E+03</pdfrwt>
<pdfrwt beam="2">  1       -2 0.60709550E-02 0.44706844E+03</pdfrwt>
<totfact> 0.33709081E+03</totfact>
</mgrwt>
</event>
<event>
 4    1  0.5056513E-005  0.6028038E+03  0.7818608E-02  0.9899606E-01
          2   -1    0    0  501    0  0.00000000000E+00  0.00000000000E+00  0.28721533550E+04  0.28721533550E+04  0.25500000000E-02 0.  1.
         -2   -1    0    0    0  501 -0.00000000000E+00 -0.00000000000E+00 -0.31628917854E+02  0.31628917956E+02  0.25500000000E-02 0. -1.
    5000001    1    1    2    0    0  0.75214547435E+02  0.51600433144E+02  0.24182596299E+04  0.24281475388E+04  0.19900000000E+03 0.  0.
   -5000001    1    1    2    0    0 -0.75214547435E+02 -0.51600433144E+02  0.42226480726E+03  0.47563473411E+03  0.19900000000E+03 0.  0.
<mgrwt>
<rscale>  0 0.60280379E+03</rscale>
<asrwt>0</asrwt>
<pdfrwt beam="1">  1        2 0.41030746E+00 0.60280379E+03</pdfrwt>
<pdfrwt beam="2">  1       -2 0.45184187E-02 0.60280379E+03</pdfrwt>
<totfact> 0.70948628E+02</totfact>
</mgrwt>
</event>
<event>
 4    1  0.5056513E-005  0.7946456E+03  0.7818608E-02  0.9567800E-01
          2   -1    0    0  501    0  0.00000000000E+00  0.00000000000E+00  0.40498267052E+03  0.40498267053E+03  0.25500000000E-02 0.  1.
         -2   -1    0    0    0  501 -0.00000000000E+00 -0.00000000000E+00 -0.38980781704E+03  0.38980781705E+03  0.25500000000E-02 0. -1.
    5000001    1    1    2    0    0  0.31734877052E+03 -0.12766278997E+03  0.43039349310E+02  0.39807212372E+03  0.19900000000E+03 0.  0.
   -5000001    1    1    2    0    0 -0.31734877052E+03  0.12766278997E+03 -0.27864495831E+02  0.39671836386E+03  0.19900000000E+03 0.  0.
<mgrwt>
<rscale>  0 0.79464561E+03</rscale>
<asrwt>0</asrwt>
<pdfrwt beam="1">  1        2 0.57854667E-01 0.79464561E+03</pdfrwt>
<pdfrwt beam="2">  1       -2 0.55686831E-01 0.79464561E+03</pdfrwt>
<totfact> 0.26016769E+02</totfact>
</mgrwt>
</event>
<event>
 4    1  0.5056513E-005  0.7415274E+03  0.7818608E-02  0.9648737E-01
          2   -1    0    0  501    0  0.00000000000E+00  0.00000000000E+00  0.22324394026E+03  0.22324394028E+03  0.25500000000E-02 0.  1.
         -2   -1    0    0    0  501 -0.00000000000E+00 -0.00000000000E+00 -0.61576460595E+03  0.61576460596E+03  0.25500000000E-02 0. -1.
    5000001    1    1    2    0    0 -0.31219249756E+03  0.84058964974E+01 -0.17570938524E+03  0.40988974455E+03  0.19900000000E+03 0.  0.
   -5000001    1    1    2    0    0  0.31219249756E+03 -0.84058964974E+01 -0.21681128045E+03  0.42911880168E+03  0.19900000000E+03 0.  0.
<mgrwt>
<rscale>  0 0.74152739E+03</rscale>
<asrwt>0</asrwt>
<pdfrwt beam="1">  1        2 0.31891992E-01 0.74152739E+03</pdfrwt>
<pdfrwt beam="2">  1       -2 0.87966371E-01 0.74152739E+03</pdfrwt>
<totfact> 0.18663449E+02</totfact>
</mgrwt>
</event>
<event>
 4    1  0.5056513E-005  0.4613115E+03  0.7818608E-02  0.1024402E+00
         -2   -1    0    0    0  501 -0.00000000000E+00  0.00000000000E+00  0.40950429240E+03  0.40950429241E+03  0.25500000000E-02 0. -1.
          2   -1    0    0  501    0  0.00000000000E+00 -0.00000000000E+00 -0.12991823104E+03  0.12991823107E+03  0.25500000000E-02 0.  1.
    5000001    1    1    2    0    0  0.93949940796E+02 -0.68113266266E+02  0.15338260955E+03  0.27675482530E+03  0.19900000000E+03 0.  0.
   -5000001    1    1    2    0    0 -0.93949940796E+02  0.68113266266E+02  0.12620345181E+03  0.26266769818E+03  0.19900000000E+03 0.  0.
<mgrwt>
<rscale>  0 0.46131149E+03</rscale>
<asrwt>0</asrwt>
<pdfrwt beam="1">  1        2 0.18559747E-01 0.46131149E+03</pdfrwt>
<pdfrwt beam="2">  1       -2 0.58500614E-01 0.46131149E+03</pdfrwt>
<totfact> 0.85098861E+02</totfact>
</mgrwt>
</event>
<event>
 4    1  0.5056513E-005  0.6666554E+03  0.7818608E-02  0.9776019E-01
         -2   -1    0    0    0  501 -0.00000000000E+00  0.00000000000E+00  0.73216226139E+02  0.73216226184E+02  0.25500000000E-02 0. -1.
          2   -1    0    0  501    0  0.00000000000E+00 -0.00000000000E+00 -0.15175237958E+04  0.15175237958E+04  0.25500000000E-02 0.  1.
    5000001    1    1    2    0    0 -0.11153861769E+03 -0.22619683203E+03 -0.51006146174E+03  0.60280143066E+03  0.19900000000E+03 0.  0.
   -5000001    1    1    2    0    0  0.11153861769E+03  0.22619683203E+03 -0.93424610788E+03  0.98793859128E+03  0.19900000000E+03 0.  0.
<mgrwt>
<rscale>  0 0.66665543E+03</rscale>
<asrwt>0</asrwt>
<pdfrwt beam="1">  1        2 0.21678909E+00 0.66665543E+03</pdfrwt>
<pdfrwt beam="2">  1       -2 0.10459462E-01 0.66665543E+03</pdfrwt>
<totfact> 0.92476503E+02</totfact>
</mgrwt>
</event>
<event>
 4    1  0.5056513E-005  0.6091904E+03  0.7818608E-02  0.9886520E-01
         -2   -1    0    0    0  501 -0.00000000000E+00  0.00000000000E+00  0.17747457387E+04  0.17747457387E+04  0.25500000000E-02 0. -1.
          2   -1    0    0  501    0  0.00000000000E+00 -0.00000000000E+00 -0.52276920783E+02  0.52276920845E+02  0.25500000000E-02 0.  1.
    5000001    1    1    2    0    0 -0.11733821318E+03  0.19450532239E+03  0.74214841587E+03  0.80124019363E+03  0.19900000000E+03 0.  0.
   -5000001    1    1    2    0    0  0.11733821318E+03 -0.19450532239E+03  0.98032040208E+03  0.10257824659E+04  0.19900000000E+03 0.  0.
<mgrwt>
<rscale>  0 0.60919042E+03</rscale>
<asrwt>0</asrwt>
<pdfrwt beam="1">  1        2 0.74681314E-02 0.60919042E+03</pdfrwt>
<pdfrwt beam="2">  1       -2 0.25353511E+00 0.60919042E+03</pdfrwt>
<totfact> 0.61618914E+01</totfact>
</mgrwt>
</event>
<event>
 4    1  0.5056513E-005  0.5751737E+03  0.7818608E-02  0.9958295E-01
          2   -1    0    0  501    0  0.00000000000E+00  0.00000000000E+00  0.82144658887E+02  0.82144658927E+02  0.25500000000E-02 0.  1.
         -2   -1    0    0    0  501 -0.00000000000E+00 -0.00000000000E+00 -0.10068359872E+04  0.10068359872E+04  0.25500000000E-02 0. -1.
    5000001    1    1    2    0    0  0.65820868197E+02  0.19674733774E+03 -0.47740872389E+03  0.55728089080E+03  0.19900000000E+03 0.  0.
   -5000001    1    1    2    0    0 -0.65820868197E+02 -0.19674733774E+03 -0.44728260439E+03  0.53169975531E+03  0.19900000000E+03 0.  0.
<mgrwt>
<rscale>  0 0.57517371E+03</rscale>
<asrwt>0</asrwt>
<pdfrwt beam="1">  1        2 0.11734952E-01 0.57517371E+03</pdfrwt>
<pdfrwt beam="2">  1       -2 0.14383371E+00 0.57517371E+03</pdfrwt>
<totfact> 0.18463709E+02</totfact>
</mgrwt>
</event>
<event>
 4    1  0.5056513E-005  0.5742295E+03  0.7818608E-02  0.9960363E-01
          2   -1    0    0  501    0  0.00000000000E+00  0.00000000000E+00  0.46070866382E+03  0.46070866383E+03  0.25500000000E-02 0.  1.
         -2   -1    0    0    0  501 -0.00000000000E+00 -0.00000000000E+00 -0.17893060098E+03  0.17893060100E+03  0.25500000000E-02 0. -1.
    5000001    1    1    2    0    0  0.14015457798E+03  0.81010650288E+02 -0.27483994033E+01  0.25654353410E+03  0.19900000000E+03 0.  0.
   -5000001    1    1    2    0    0 -0.14015457798E+03 -0.81010650288E+02  0.28452646224E+03  0.38309573073E+03  0.19900000000E+03 0.  0.
<mgrwt>
<rscale>  0 0.57422949E+03</rscale>
<asrwt>0</asrwt>
<pdfrwt beam="1">  1        2 0.65815524E-01 0.57422949E+03</pdfrwt>
<pdfrwt beam="2">  1       -2 0.25561514E-01 0.57422949E+03</pdfrwt>
<totfact> 0.10167522E+03</totfact>
</mgrwt>
</event>
<event>
 4    1  0.5056513E-005  0.6930707E+03  0.7818608E-02  0.9729156E-01
          2   -1    0    0  501    0  0.00000000000E+00  0.00000000000E+00  0.12281298807E+04  0.12281298807E+04  0.25500000000E-02 0.  1.
         -2   -1    0    0    0  501 -0.00000000000E+00 -0.00000000000E+00 -0.97780173617E+02  0.97780173650E+02  0.25500000000E-02 0. -1.
    5000001    1    1    2    0    0  0.10704784723E+03  0.22765929111E+03  0.31429115648E+03  0.44907452106E+03  0.19900000000E+03 0.  0.
   -5000001    1    1    2    0    0 -0.10704784723E+03 -0.22765929111E+03  0.81605855059E+03  0.87683553328E+03  0.19900000000E+03 0.  0.
<mgrwt>
<rscale>  0 0.69307071E+03</rscale>
<asrwt>0</asrwt>
<pdfrwt beam="1">  1        2 0.17544712E+00 0.69307071E+03</pdfrwt>
<pdfrwt beam="2">  1       -2 0.13968596E-01 0.69307071E+03</pdfrwt>
<totfact> 0.81961592E+02</totfact>
</mgrwt>
</event>
<event>
 4    1  0.5056513E-005  0.5599402E+03  0.7818608E-02  0.9992190E-01
         -2   -1    0    0    0  501 -0.00000000000E+00  0.00000000000E+00  0.90025007929E+02  0.90025007965E+02  0.25500000000E-02 0. -1.
          2   -1    0    0  501    0  0.00000000000E+00 -0.00000000000E+00 -0.87068329673E+03  0.87068329674E+03  0.25500000000E-02 0.  1.
    5000001    1    1    2    0    0 -0.88460798746E+02  0.16857071549E+03 -0.30384405782E+03  0.41007756645E+03  0.19900000000E+03 0.  0.
   -5000001    1    1    2    0    0  0.88460798746E+02 -0.16857071549E+03 -0.47681423098E+03  0.55063073825E+03  0.19900000000E+03 0.  0.
<mgrwt>
<rscale>  0 0.55994025E+03</rscale>
<asrwt>0</asrwt>
<pdfrwt beam="1">  1        2 0.12438332E+00 0.55994025E+03</pdfrwt>
<pdfrwt beam="2">  1       -2 0.12860716E-01 0.55994025E+03</pdfrwt>
<totfact> 0.15458327E+03</totfact>
</mgrwt>
</event>
<event>
 4    1  0.5056513E-005  0.6676300E+03  0.7818608E-02  0.9774249E-01
         -2   -1    0    0    0  501 -0.00000000000E+00  0.00000000000E+00  0.32431793615E+03  0.32431793616E+03  0.25500000000E-02 0. -1.
          2   -1    0    0  501    0  0.00000000000E+00 -0.00000000000E+00 -0.34359020807E+03  0.34359020808E+03  0.25500000000E-02 0.  1.
    5000001    1    1    2    0    0 -0.16820702993E+03  0.19753970663E+03  0.57592500897E+02  0.33201421170E+03  0.19900000000E+03 0.  0.
   -5000001    1    1    2    0    0  0.16820702993E+03 -0.19753970663E+03 -0.76864772811E+02  0.33589393253E+03  0.19900000000E+03 0.  0.
<mgrwt>
<rscale>  0 0.66763004E+03</rscale>
<asrwt>0</asrwt>
<pdfrwt beam="1">  1        2 0.49084316E-01 0.66763004E+03</pdfrwt>
<pdfrwt beam="2">  1       -2 0.46331134E-01 0.66763004E+03</pdfrwt>
<totfact> 0.45632347E+02</totfact>
</mgrwt>
</event>
<event>
 4    1  0.5056513E-005  0.5682737E+03  0.7818608E-02  0.9973506E-01
         -2   -1    0    0    0  501 -0.00000000000E+00  0.00000000000E+00  0.28237617490E+02  0.28237617605E+02  0.25500000000E-02 0. -1.
          2   -1    0    0  501    0  0.00000000000E+00 -0.00000000000E+00 -0.28590850654E+04  0.28590850654E+04  0.25500000000E-02 0.  1.
    5000001    1    1    2    0    0  0.19169970867E+03  0.16019908669E+02 -0.17418406078E+04  0.17636936012E+04  0.19900000000E+03 0.  0.
   -5000001    1    1    2    0    0 -0.19169970867E+03 -0.16019908669E+02 -0.10890068401E+04  0.11236290819E+04  0.19900000000E+03 0.  0.
<mgrwt>
<rscale>  0 0.56827370E+03</rscale>
<asrwt>0</asrwt>
<pdfrwt beam="1">  1        2 0.40844054E+00 0.56827370E+03</pdfrwt>
<pdfrwt beam="2">  1       -2 0.40339472E-02 0.56827370E+03</pdfrwt>
<totfact> 0.86119587E+02</totfact>
</mgrwt>
</event>
<event>
 4    1  0.5056513E-005  0.4788865E+03  0.7818608E-02  0.1019442E+00
         -2   -1    0    0    0  501 -0.00000000000E+00  0.00000000000E+00  0.62052141843E+02  0.62052141896E+02  0.25500000000E-02 0. -1.
          2   -1    0    0  501    0  0.00000000000E+00 -0.00000000000E+00 -0.92394985345E+03  0.92394985346E+03  0.25500000000E-02 0.  1.
    5000001    1    1    2    0    0  0.86823378366E+02  0.95370155842E+02 -0.36271403680E+03  0.43335463324E+03  0.19900000000E+03 0.  0.
   -5000001    1    1    2    0    0 -0.86823378366E+02 -0.95370155842E+02 -0.49918367481E+03  0.55264736212E+03  0.19900000000E+03 0.  0.
<mgrwt>
<rscale>  0 0.47888649E+03</rscale>
<asrwt>0</asrwt>
<pdfrwt beam="1">  1        2 0.13199283E+00 0.47888649E+03</pdfrwt>
<pdfrwt beam="2">  1       -2 0.88645922E-02 0.47888649E+03</pdfrwt>
<totfact> 0.26156701E+03</totfact>
</mgrwt>
</event>
<event>
 4    1  0.5056513E-005  0.1458775E+04  0.7818608E-02  0.8912339E-01
          2   -1    0    0  501    0  0.00000000000E+00  0.00000000000E+00  0.27178633544E+04  0.27178633544E+04  0.25500000000E-02 0.  1.
         -2   -1    0    0    0  501 -0.00000000000E+00 -0.00000000000E+00 -0.19574437800E+03  0.19574437802E+03  0.25500000000E-02 0. -1.
    5000001    1    1    2    0    0 -0.70006268849E+03  0.23171734399E+02  0.13453438729E+04  0.15297633260E+04  0.19900000000E+03 0.  0.
   -5000001    1    1    2    0    0  0.70006268849E+03 -0.23171734399E+02  0.11767751035E+04  0.13838444064E+04  0.19900000000E+03 0.  0.
<mgrwt>
<rscale>  0 0.14587755E+04</rscale>
<asrwt>0</asrwt>
<pdfrwt beam="1">  1        2 0.38826615E+00 0.14587755E+04</pdfrwt>
<pdfrwt beam="2">  1       -2 0.27963485E-01 0.14587755E+04</pdfrwt>
<totfact> 0.38359019E+01</totfact>
</mgrwt>
</event>
<event>
 4    1  0.5056513E-005  0.4798257E+03  0.7818608E-02  0.1019183E+00
          2   -1    0    0  501    0  0.00000000000E+00  0.00000000000E+00  0.60136986389E+02  0.60136986443E+02  0.25500000000E-02 0.  1.
         -2   -1    0    0    0  501 -0.00000000000E+00 -0.00000000000E+00 -0.95711777914E+03  0.95711777915E+03  0.25500000000E-02 0. -1.
    5000001    1    1    2    0    0  0.30510808186E+02  0.12467721808E+03 -0.36687916805E+03  0.43666536624E+03  0.19900000000E+03 0.  0.
   -5000001    1    1    2    0    0 -0.30510808186E+02 -0.12467721808E+03 -0.53010162471E+03  0.58058939936E+03  0.19900000000E+03 0.  0.
<mgrwt>
<rscale>  0 0.47982571E+03</rscale>
<asrwt>0</asrwt>
<pdfrwt beam="1">  1        2 0.85909986E-02 0.47982571E+03</pdfrwt>
<pdfrwt beam="2">  1       -2 0.13673110E+00 0.47982571E+03</pdfrwt>
<totfact> 0.31282279E+02</totfact>
</mgrwt>
</event>
<event>
 4    1  0.5056513E-005  0.4431340E+03  0.7818608E-02  0.1029790E+00
         -2   -1    0    0    0  501 -0.00000000000E+00  0.00000000000E+00  0.25228639717E+02  0.25228639846E+02  0.25500000000E-02 0. -1.
          2   -1    0    0  501    0  0.00000000000E+00 -0.00000000000E+00 -0.19458813628E+04  0.19458813628E+04  0.25500000000E-02 0.  1.
    5000001    1    1    2    0    0  0.31401012545E+02  0.67084044436E+02 -0.12418130801E+04  0.12598361078E+04  0.19900000000E+03 0.  0.
   -5000001    1    1    2    0    0 -0.31401012545E+02 -0.67084044436E+02 -0.67883964299E+03  0.71127389485E+03  0.19900000000E+03 0.  0.
<mgrwt>
<rscale>  0 0.44313402E+03</rscale>
<asrwt>0</asrwt>
<pdfrwt beam="1">  1        2 0.27798296E+00 0.44313402E+03</pdfrwt>
<pdfrwt beam="2">  1       -2 0.36040926E-02 0.44313402E+03</pdfrwt>
<totfact> 0.30064120E+03</totfact>
</mgrwt>
</event>
<event>
 4    1  0.5056513E-005  0.4918282E+03  0.7818608E-02  0.1015934E+00
          2   -1    0    0  501    0  0.00000000000E+00  0.00000000000E+00  0.25378092778E+03  0.25378092780E+03  0.25500000000E-02 0.  1.
         -2   -1    0    0    0  501 -0.00000000000E+00 -0.00000000000E+00 -0.23829117405E+03  0.23829117407E+03  0.25500000000E-02 0. -1.
    5000001    1    1    2    0    0 -0.12148097020E+03  0.16279357283E+02 -0.68779069021E+02  0.24362718225E+03  0.19900000000E+03 0.  0.
   -5000001    1    1    2    0    0  0.12148097020E+03 -0.16279357283E+02  0.84268822753E+02  0.24844491961E+03  0.19900000000E+03 0.  0.
<mgrwt>
<rscale>  0 0.49182824E+03</rscale>
<asrwt>0</asrwt>
<pdfrwt beam="1">  1        2 0.36254418E-01 0.49182824E+03</pdfrwt>
<pdfrwt beam="2">  1       -2 0.34041596E-01 0.49182824E+03</pdfrwt>
<totfact> 0.11607221E+03</totfact>
</mgrwt>
</event>
<event>
 4    1  0.5056513E-005  0.5509261E+03  0.7818608E-02  0.1001280E+00
          2   -1    0    0  501    0  0.00000000000E+00  0.00000000000E+00  0.13015698315E+03  0.13015698317E+03  0.25500000000E-02 0.  1.
         -2   -1    0    0    0  501 -0.00000000000E+00 -0.00000000000E+00 -0.58298747176E+03  0.58298747177E+03  0.25500000000E-02 0. -1.
    5000001    1    1    2    0    0 -0.11602135562E+03 -0.13792854638E+03 -0.14668687293E+03  0.30594652728E+03  0.19900000000E+03 0.  0.
   -5000001    1    1    2    0    0  0.11602135562E+03  0.13792854638E+03 -0.30614361569E+03  0.40719792766E+03  0.19900000000E+03 0.  0.
<mgrwt>
<rscale>  0 0.55092610E+03</rscale>
<asrwt>0</asrwt>
<pdfrwt beam="1">  1        2 0.18593855E-01 0.55092610E+03</pdfrwt>
<pdfrwt beam="2">  1       -2 0.83283923E-01 0.55092610E+03</pdfrwt>
<totfact> 0.39484482E+02</totfact>
</mgrwt>
</event>
<event>
 4    1  0.5056513E-005  0.6984674E+03  0.7818608E-02  0.9719857E-01
          2   -1    0    0  501    0  0.00000000000E+00  0.00000000000E+00  0.14104405396E+04  0.14104405396E+04  0.25500000000E-02 0.  1.
         -2   -1    0    0    0  501 -0.00000000000E+00 -0.00000000000E+00 -0.86472400335E+02  0.86472400372E+02  0.25500000000E-02 0. -1.
    5000001    1    1    2    0    0  0.15500542200E+03  0.21245622360E+03  0.41576682588E+03  0.53068576512E+03  0.19900000000E+03 0.  0.
   -5000001    1    1    2    0    0 -0.15500542200E+03 -0.21245622360E+03  0.90820131336E+03  0.96622717484E+03  0.19900000000E+03 0.  0.
<mgrwt>
<rscale>  0 0.69846741E+03</rscale>
<asrwt>0</asrwt>
<pdfrwt beam="1">  1        2 0.20149149E+00 0.69846741E+03</pdfrwt>
<pdfrwt beam="2">  1       -2 0.12353201E-01 0.69846741E+03</pdfrwt>
<totfact> 0.80012164E+02</totfact>
</mgrwt>
</event>
<event>
 4    1  0.5056513E-005  0.5812096E+03  0.7818608E-02  0.9945176E-01
         -2   -1    0    0    0  501 -0.00000000000E+00  0.00000000000E+00  0.26096680066E+02  0.26096680190E+02  0.25500000000E-02 0. -1.
          2   -1    0    0  501    0  0.00000000000E+00 -0.00000000000E+00 -0.32360876461E+04  0.32360876461E+04  0.25500000000E-02 0.  1.
    5000001    1    1    2    0    0  0.27121475295E+02  0.16357212419E+03 -0.86550139659E+03  0.90342962190E+03  0.19900000000E+03 0.  0.
   -5000001    1    1    2    0    0 -0.27121475295E+02 -0.16357212419E+03 -0.23444895695E+04  0.23587547044E+04  0.19900000000E+03 0.  0.
<mgrwt>
<rscale>  0 0.58120958E+03</rscale>
<asrwt>0</asrwt>
<pdfrwt beam="1">  1        2 0.46229798E+00 0.58120958E+03</pdfrwt>
<pdfrwt beam="2">  1       -2 0.37280992E-02 0.58120958E+03</pdfrwt>
<totfact> 0.60334329E+02</totfact>
</mgrwt>
</event>
<event>
 4    1  0.5056513E-005  0.5697629E+03  0.7818608E-02  0.9970203E-01
          2   -1    0    0  501    0  0.00000000000E+00  0.00000000000E+00  0.49337497287E+03  0.49337497287E+03  0.25500000000E-02 0. -1.
         -2   -1    0    0    0  501 -0.00000000000E+00 -0.00000000000E+00 -0.16449445232E+03  0.16449445234E+03  0.25500000000E-02 0.  1.
    5000001    1    1    2    0    0 -0.10196553330E+03  0.45051114824E+02 -0.32627153618E+02  0.23041723911E+03  0.19900000000E+03 0.  0.
   -5000001    1    1    2    0    0  0.10196553330E+03 -0.45051114824E+02  0.36150767416E+03  0.42745218610E+03  0.19900000000E+03 0.  0.
<mgrwt>
<rscale>  0 0.56976292E+03</rscale>
<asrwt>0</asrwt>
<pdfrwt beam="1">  1        2 0.70482140E-01 0.56976292E+03</pdfrwt>
<pdfrwt beam="2">  1       -2 0.23499207E-01 0.56976292E+03</pdfrwt>
<totfact> 0.10939272E+03</totfact>
</mgrwt>
</event>
<event>
 4    1  0.5056513E-005  0.7198751E+03  0.7818608E-02  0.9683834E-01
          2   -1    0    0  501    0  0.00000000000E+00  0.00000000000E+00  0.53515512851E+03  0.53515512851E+03  0.25500000000E-02 0.  1.
         -2   -1    0    0    0  501 -0.00000000000E+00 -0.00000000000E+00 -0.24208873794E+03  0.24208873795E+03  0.25500000000E-02 0. -1.
    5000001    1    1    2    0    0  0.17188872569E+03 -0.65983766031E+02  0.40215928176E+03  0.48500791675E+03  0.19900000000E+03 0.  0.
   -5000001    1    1    2    0    0 -0.17188872569E+03  0.65983766031E+02 -0.10909289120E+03  0.29223594972E+03  0.19900000000E+03 0.  0.
<mgrwt>
<rscale>  0 0.71987507E+03</rscale>
<asrwt>0</asrwt>
<pdfrwt beam="1">  1        2 0.76450733E-01 0.71987507E+03</pdfrwt>
<pdfrwt beam="2">  1       -2 0.34584105E-01 0.71987507E+03</pdfrwt>
<totfact> 0.48903668E+02</totfact>
</mgrwt>
</event>
<event>
 4    1  0.5056513E-005  0.6808146E+03  0.7818608E-02  0.9750616E-01
          2   -1    0    0  501    0  0.00000000000E+00  0.00000000000E+00  0.20895970934E+03  0.20895970936E+03  0.25500000000E-02 0.  1.
         -2   -1    0    0    0  501 -0.00000000000E+00 -0.00000000000E+00 -0.55454300652E+03  0.55454300653E+03  0.25500000000E-02 0. -1.
    5000001    1    1    2    0    0 -0.22841344636E+03  0.15524179884E+03 -0.17071562847E+03  0.38081169151E+03  0.19900000000E+03 0.  0.
   -5000001    1    1    2    0    0  0.22841344636E+03 -0.15524179884E+03 -0.17486766871E+03  0.38269102438E+03  0.19900000000E+03 0.  0.
<mgrwt>
<rscale>  0 0.68081465E+03</rscale>
<asrwt>0</asrwt>
<pdfrwt beam="1">  1        2 0.29851387E-01 0.68081465E+03</pdfrwt>
<pdfrwt beam="2">  1       -2 0.79220429E-01 0.68081465E+03</pdfrwt>
<totfact> 0.25536514E+02</totfact>
</mgrwt>
</event>
<event>
 4    1  0.5056513E-005  0.7103852E+03  0.7818608E-02  0.9699635E-01
          2   -1    0    0  501    0  0.00000000000E+00  0.00000000000E+00  0.12781614748E+03  0.12781614750E+03  0.25500000000E-02 0.  1.
         -2   -1    0    0    0  501 -0.00000000000E+00 -0.00000000000E+00 -0.98705681576E+03  0.98705681576E+03  0.25500000000E-02 0. -1.
    5000001    1    1    2    0    0  0.25589583217E+03 -0.14516395831E+03 -0.43331685470E+03  0.56028541680E+03  0.19900000000E+03 0.  0.
   -5000001    1    1    2    0    0 -0.25589583217E+03  0.14516395831E+03 -0.42592381358E+03  0.55458754646E+03  0.19900000000E+03 0.  0.
<mgrwt>
<rscale>  0 0.71038525E+03</rscale>
<asrwt>0</asrwt>
<pdfrwt beam="1">  1        2 0.18259450E-01 0.71038525E+03</pdfrwt>
<pdfrwt beam="2">  1       -2 0.14100811E+00 0.71038525E+03</pdfrwt>
<totfact> 0.11290731E+02</totfact>
</mgrwt>
</event>
<event>
 4    1  0.5056513E-005  0.8566719E+03  0.7818608E-02  0.9481426E-01
          2   -1    0    0  501    0  0.00000000000E+00  0.00000000000E+00  0.26805405379E+04  0.26805405379E+04  0.25500000000E-02 0. -1.
         -2   -1    0    0    0  501 -0.00000000000E+00 -0.00000000000E+00 -0.68445780040E+02  0.68445780087E+02  0.25500000000E-02 0.  1.
    5000001    1    1    2    0    0  0.24196198423E+03  0.71961955725E+02  0.39759847297E+03  0.51128237853E+03  0.19900000000E+03 0.  0.
   -5000001    1    1    2    0    0 -0.24196198423E+03 -0.71961955725E+02  0.22144962849E+04  0.22377039395E+04  0.19900000000E+03 0.  0.
<mgrwt>
<rscale>  0 0.85667190E+03</rscale>
<asrwt>0</asrwt>
<pdfrwt beam="1">  1        2 0.38293427E+00 0.85667190E+03</pdfrwt>
<pdfrwt beam="2">  1       -2 0.97779708E-02 0.85667190E+03</pdfrwt>
<totfact> 0.25844934E+02</totfact>
</mgrwt>
</event>
<event>
 4    1  0.5056513E-005  0.7064352E+03  0.7818608E-02  0.9706290E-01
          2   -1    0    0  501    0  0.00000000000E+00  0.00000000000E+00  0.50897608418E+03  0.50897608419E+03  0.25500000000E-02 0.  1.
         -2   -1    0    0    0  501 -0.00000000000E+00 -0.00000000000E+00 -0.24512480169E+03  0.24512480170E+03  0.25500000000E-02 0. -1.
    5000001    1    1    2    0    0  0.24495050054E+03  0.15241014493E+03  0.85004600462E+02  0.36063330696E+03  0.19900000000E+03 0.  0.
   -5000001    1    1    2    0    0 -0.24495050054E+03 -0.15241014493E+03  0.17884668203E+03  0.39346757892E+03  0.19900000000E+03 0.  0.
<mgrwt>
<rscale>  0 0.70643517E+03</rscale>
<asrwt>0</asrwt>
<pdfrwt beam="1">  1        2 0.72710869E-01 0.70643517E+03</pdfrwt>
<pdfrwt beam="2">  1       -2 0.35017829E-01 0.70643517E+03</pdfrwt>
<totfact> 0.50617479E+02</totfact>
</mgrwt>
</event>
<event>
 4    1  0.5056513E-005  0.7039273E+03  0.7818608E-02  0.9710539E-01
          2   -1    0    0  501    0  0.00000000000E+00  0.00000000000E+00  0.17376008806E+04  0.17376008806E+04  0.25500000000E-02 0.  1.
         -2   -1    0    0    0  501 -0.00000000000E+00 -0.00000000000E+00 -0.71292787235E+02  0.71292787281E+02  0.25500000000E-02 0. -1.
    5000001    1    1    2    0    0  0.28845753246E+03  0.26001417585E+02  0.88413480034E+03  0.95140904291E+03  0.19900000000E+03 0.  0.
   -5000001    1    1    2    0    0 -0.28845753246E+03 -0.26001417585E+02  0.78217329302E+03  0.85748462497E+03  0.19900000000E+03 0.  0.
<mgrwt>
<rscale>  0 0.70392730E+03</rscale>
<asrwt>0</asrwt>
<pdfrwt beam="1">  1        2 0.24822875E+00 0.70392730E+03</pdfrwt>
<pdfrwt beam="2">  1       -2 0.10184682E-01 0.70392730E+03</pdfrwt>
<totfact> 0.74256866E+02</totfact>
</mgrwt>
</event>
<event>
 4    1  0.5056513E-005  0.6596237E+03  0.7818608E-02  0.9788887E-01
         -2   -1    0    0    0  501 -0.00000000000E+00  0.00000000000E+00  0.11529513732E+03  0.11529513735E+03  0.25500000000E-02 0. -1.
          2   -1    0    0  501    0  0.00000000000E+00 -0.00000000000E+00 -0.94345559145E+03  0.94345559145E+03  0.25500000000E-02 0.  1.
    5000001    1    1    2    0    0 -0.25583894899E+03  0.68990833263E+01 -0.51136569529E+03  0.60547257534E+03  0.19900000000E+03 0.  0.
   -5000001    1    1    2    0    0  0.25583894899E+03 -0.68990833263E+01 -0.31679475884E+03  0.45327815346E+03  0.19900000000E+03 0.  0.
<mgrwt>
<rscale>  0 0.65962366E+03</rscale>
<asrwt>0</asrwt>
<pdfrwt beam="1">  1        2 0.13477937E+00 0.65962366E+03</pdfrwt>
<pdfrwt beam="2">  1       -2 0.16470734E-01 0.65962366E+03</pdfrwt>
<totfact> 0.91436089E+02</totfact>
</mgrwt>
</event>
<event>
 4    1  0.5056513E-005  0.6000300E+03  0.7818608E-02  0.9905344E-01
          2   -1    0    0  501    0  0.00000000000E+00  0.00000000000E+00  0.33317409344E+03  0.33317409345E+03  0.25500000000E-02 0.  1.
         -2   -1    0    0    0  501 -0.00000000000E+00 -0.00000000000E+00 -0.27015609568E+03  0.27015609569E+03  0.25500000000E-02 0. -1.
    5000001    1    1    2    0    0  0.17378985668E+03 -0.96491513778E+01 -0.11108774396E+03  0.28677082708E+03  0.19900000000E+03 0.  0.
   -5000001    1    1    2    0    0 -0.17378985668E+03  0.96491513778E+01  0.17410574172E+03  0.31655936206E+03  0.19900000000E+03 0.  0.
<mgrwt>
<rscale>  0 0.60003004E+03</rscale>
<asrwt>0</asrwt>
<pdfrwt beam="1">  1        2 0.47596299E-01 0.60003004E+03</pdfrwt>
<pdfrwt beam="2">  1       -2 0.38593728E-01 0.60003004E+03</pdfrwt>
<totfact> 0.67674832E+02</totfact>
</mgrwt>
</event>
<event>
 4    1  0.5056513E-005  0.1391219E+04  0.7818608E-02  0.8960199E-01
         -2   -1    0    0    0  501 -0.00000000000E+00  0.00000000000E+00  0.37745498482E+03  0.37745498483E+03  0.25500000000E-02 0. -1.
          2   -1    0    0  501    0  0.00000000000E+00 -0.00000000000E+00 -0.12819346128E+04  0.12819346128E+04  0.25500000000E-02 0.  1.
    5000001    1    1    2    0    0  0.75089309951E+02 -0.34774840797E+03  0.22006211974E+03  0.46324474768E+03  0.19900000000E+03 0.  0.
   -5000001    1    1    2    0    0 -0.75089309951E+02  0.34774840797E+03 -0.11245417477E+04  0.11961448499E+04  0.19900000000E+03 0.  0.
<mgrwt>
<rscale>  0 0.13912190E+04</rscale>
<asrwt>0</asrwt>
<pdfrwt beam="1">  1        2 0.18313351E+00 0.13912190E+04</pdfrwt>
<pdfrwt beam="2">  1       -2 0.53922141E-01 0.13912190E+04</pdfrwt>
<totfact> 0.60672438E+01</totfact>
</mgrwt>
</event>
<event>
 4    1  0.5056513E-005  0.1790865E+04  0.7818608E-02  0.8711172E-01
          2   -1    0    0  501    0  0.00000000000E+00  0.00000000000E+00  0.89908564045E+03  0.89908564045E+03  0.25500000000E-02 0.  1.
         -2   -1    0    0    0  501 -0.00000000000E+00 -0.00000000000E+00 -0.89179427180E+03  0.89179427180E+03  0.25500000000E-02 0. -1.
    5000001    1    1    2    0    0 -0.33290663313E+03  0.80547618409E+03 -0.47145626565E+02  0.89523316495E+03  0.19900000000E+03 0.  0.
   -5000001    1    1    2    0    0  0.33290663313E+03 -0.80547618409E+03  0.54436995217E+02  0.89564674731E+03  0.19900000000E+03 0.  0.
<mgrwt>
<rscale>  0 0.17908651E+04</rscale>
<asrwt>0</asrwt>
<pdfrwt beam="1">  1        2 0.12844080E+00 0.17908651E+04</pdfrwt>
<pdfrwt beam="2">  1       -2 0.12739918E+00 0.17908651E+04</pdfrwt>
<totfact> 0.14104133E+01</totfact>
</mgrwt>
</event>
<event>
 4    1  0.5056513E-005  0.5711567E+03  0.7818608E-02  0.9967122E-01
         -2   -1    0    0    0  501 -0.00000000000E+00  0.00000000000E+00  0.22452575989E+03  0.22452575991E+03  0.25500000000E-02 0. -1.
          2   -1    0    0  501    0  0.00000000000E+00 -0.00000000000E+00 -0.36323223513E+03  0.36323223514E+03  0.25500000000E-02 0.  1.
    5000001    1    1    2    0    0 -0.19641841601E+03  0.52750730219E+02 -0.94373725050E+02  0.29978364476E+03  0.19900000000E+03 0.  0.
   -5000001    1    1    2    0    0  0.19641841601E+03 -0.52750730219E+02 -0.44332750188E+02  0.28797435029E+03  0.19900000000E+03 0.  0.
<mgrwt>
<rscale>  0 0.57115670E+03</rscale>
<asrwt>0</asrwt>
<pdfrwt beam="1">  1        2 0.51890319E-01 0.57115670E+03</pdfrwt>
<pdfrwt beam="2">  1       -2 0.32075109E-01 0.57115670E+03</pdfrwt>
<totfact> 0.87398260E+02</totfact>
</mgrwt>
</event>
<event>
 4    1  0.5056513E-005  0.6172720E+03  0.7818608E-02  0.9870206E-01
          2   -1    0    0  501    0  0.00000000000E+00  0.00000000000E+00  0.16785079887E+04  0.16785079887E+04  0.25500000000E-02 0.  1.
         -2   -1    0    0    0  501 -0.00000000000E+00 -0.00000000000E+00 -0.56750512050E+02  0.56750512107E+02  0.25500000000E-02 0. -1.
    5000001    1    1    2    0    0  0.42036982269E+02  0.22854996533E+03  0.69658481501E+03  0.76081114545E+03  0.19900000000E+03 0.  0.
   -5000001    1    1    2    0    0 -0.42036982269E+02 -0.22854996533E+03  0.92517266161E+03  0.97444735534E+03  0.19900000000E+03 0.  0.
<mgrwt>
<rscale>  0 0.61727202E+03</rscale>
<asrwt>0</asrwt>
<pdfrwt beam="1">  1        2 0.23978684E+00 0.61727202E+03</pdfrwt>
<pdfrwt beam="2">  1       -2 0.81072167E-02 0.61727202E+03</pdfrwt>
<totfact> 0.11545801E+03</totfact>
</mgrwt>
</event>
<event>
 4    1  0.5056513E-005  0.6958119E+03  0.7818608E-02  0.9724421E-01
         -2   -1    0    0    0  501 -0.00000000000E+00  0.00000000000E+00  0.19411671643E+03  0.19411671645E+03  0.25500000000E-02 0. -1.
          2   -1    0    0  501    0  0.00000000000E+00 -0.00000000000E+00 -0.62353498812E+03  0.62353498813E+03  0.25500000000E-02 0.  1.
    5000001    1    1    2    0    0  0.22790470750E+02  0.28316001397E+03 -0.24664443230E+03  0.42559778554E+03  0.19900000000E+03 0.  0.
   -5000001    1    1    2    0    0 -0.22790470750E+02 -0.28316001397E+03 -0.18277383939E+03  0.39205391904E+03  0.19900000000E+03 0.  0.
<mgrwt>
<rscale>  0 0.69581194E+03</rscale>
<asrwt>0</asrwt>
<pdfrwt beam="1">  1        2 0.89076426E-01 0.69581194E+03</pdfrwt>
<pdfrwt beam="2">  1       -2 0.27730960E-01 0.69581194E+03</pdfrwt>
<totfact> 0.61708868E+02</totfact>
</mgrwt>
</event>
<event>
 4    1  0.5056513E-005  0.4907341E+03  0.7818608E-02  0.1016226E+00
         -2   -1    0    0    0  501 -0.00000000000E+00  0.00000000000E+00  0.23492467725E+03  0.23492467727E+03  0.25500000000E-02 0. -1.
          2   -1    0    0  501    0  0.00000000000E+00 -0.00000000000E+00 -0.25627358525E+03  0.25627358526E+03  0.25500000000E-02 0.  1.
    5000001    1    1    2    0    0  0.10412711188E+03 -0.31390947507E+02  0.83095221396E+02  0.24152362790E+03  0.19900000000E+03 0.  0.
   -5000001    1    1    2    0    0 -0.10412711188E+03  0.31390947507E+02 -0.10444412939E+03  0.24967463463E+03  0.19900000000E+03 0.  0.
<mgrwt>
<rscale>  0 0.49073410E+03</rscale>
<asrwt>0</asrwt>
<pdfrwt beam="1">  1        2 0.36610512E-01 0.49073410E+03</pdfrwt>
<pdfrwt beam="2">  1       -2 0.33560668E-01 0.49073410E+03</pdfrwt>
<totfact> 0.11793238E+03</totfact>
</mgrwt>
</event>
<event>
 4    1  0.5056513E-005  0.7529226E+03  0.7818608E-02  0.9630776E-01
          2   -1    0    0  501    0  0.00000000000E+00  0.00000000000E+00  0.52620135358E+03  0.52620135358E+03  0.25500000000E-02 0.  1.
         -2   -1    0    0    0  501 -0.00000000000E+00 -0.00000000000E+00 -0.26933250339E+03  0.26933250340E+03  0.25500000000E-02 0. -1.
    5000001    1    1    2    0    0  0.29296273699E+03  0.10126864682E+03  0.21054767665E+03  0.42428036513E+03  0.19900000000E+03 0.  0.
   -5000001    1    1    2    0    0 -0.29296273699E+03 -0.10126864682E+03  0.46321173534E+02  0.37125349185E+03  0.19900000000E+03 0.  0.
<mgrwt>
<rscale>  0 0.75292265E+03</rscale>
<asrwt>0</asrwt>
<pdfrwt beam="1">  1        2 0.75171621E-01 0.75292265E+03</pdfrwt>
<pdfrwt beam="2">  1       -2 0.38476073E-01 0.75292265E+03</pdfrwt>
<totfact> 0.40612724E+02</totfact>
</mgrwt>
</event>
<event>
 4    1  0.5056513E-005  0.6229989E+03  0.7818608E-02  0.9858807E-01
         -2   -1    0    0    0  501 -0.00000000000E+00  0.00000000000E+00  0.61689290373E+02  0.61689290426E+02  0.25500000000E-02 0.  1.
          2   -1    0    0  501    0  0.00000000000E+00 -0.00000000000E+00 -0.15729132861E+04  0.15729132861E+04  0.25500000000E-02 0. -1.
    5000001    1    1    2    0    0 -0.22360858752E+03 -0.18047086524E+02 -0.97676295053E+03  0.10217599323E+04  0.19900000000E+03 0.  0.
   -5000001    1    1    2    0    0  0.22360858752E+03  0.18047086524E+02 -0.53446104523E+03  0.61284264426E+03  0.19900000000E+03 0.  0.
<mgrwt>
<rscale>  0 0.62299889E+03</rscale>
<asrwt>0</asrwt>
<pdfrwt beam="1">  1        2 0.22470187E+00 0.62299889E+03</pdfrwt>
<pdfrwt beam="2">  1       -2 0.88127567E-02 0.62299889E+03</pdfrwt>
<totfact> 0.11441247E+03</totfact>
</mgrwt>
</event>
<event>
 4    1  0.5056513E-005  0.6779916E+03  0.7818608E-02  0.9755628E-01
          2   -1    0    0  501    0  0.00000000000E+00  0.00000000000E+00  0.60112538432E+03  0.60112538432E+03  0.25500000000E-02 0.  1.
         -2   -1    0    0    0  501 -0.00000000000E+00 -0.00000000000E+00 -0.19117167980E+03  0.19117167982E+03  0.25500000000E-02 0. -1.
    5000001    1    1    2    0    0 -0.67179622161E+02 -0.13740789215E+03 -0.61306567260E+02  0.25836703669E+03  0.19900000000E+03 0.  0.
   -5000001    1    1    2    0    0  0.67179622161E+02  0.13740789215E+03  0.47126027178E+03  0.53393002745E+03  0.19900000000E+03 0.  0.
<mgrwt>
<rscale>  0 0.67799159E+03</rscale>
<asrwt>0</asrwt>
<pdfrwt beam="1">  1        2 0.85875055E-01 0.67799159E+03</pdfrwt>
<pdfrwt beam="2">  1       -2 0.27310240E-01 0.67799159E+03</pdfrwt>
<totfact> 0.66302739E+02</totfact>
</mgrwt>
</event>
<event>
 4    1  0.5056513E-005  0.4610193E+03  0.7818608E-02  0.1024486E+00
         -2   -1    0    0    0  501 -0.00000000000E+00  0.00000000000E+00  0.54993749096E+02  0.54993749155E+02  0.25500000000E-02 0. -1.
          2   -1    0    0  501    0  0.00000000000E+00 -0.00000000000E+00 -0.96619536247E+03  0.96619536248E+03  0.25500000000E-02 0.  1.
    5000001    1    1    2    0    0 -0.82172098676E+02 -0.66566153673E+02 -0.34821229687E+03  0.41477235962E+03  0.19900000000E+03 0.  0.
   -5000001    1    1    2    0    0  0.82172098676E+02  0.66566153673E+02 -0.56298931651E+03  0.60641675201E+03  0.19900000000E+03 0.  0.
<mgrwt>
<rscale>  0 0.46101933E+03</rscale>
<asrwt>0</asrwt>
<pdfrwt beam="1">  1        2 0.13802790E+00 0.46101933E+03</pdfrwt>
<pdfrwt beam="2">  1       -2 0.78562504E-02 0.46101933E+03</pdfrwt>
<totfact> 0.29825111E+03</totfact>
</mgrwt>
</event>
<event>
 4    1  0.5056513E-005  0.6351910E+03  0.7818608E-02  0.9834971E-01
          2   -1    0    0  501    0  0.00000000000E+00  0.00000000000E+00  0.55449938581E+03  0.55449938581E+03  0.25500000000E-02 0.  1.
         -2   -1    0    0    0  501 -0.00000000000E+00 -0.00000000000E+00 -0.18190623908E+03  0.18190623910E+03  0.25500000000E-02 0. -1.
    5000001    1    1    2    0    0 -0.23894866747E+03 -0.77518962799E+01  0.11197775066E+03  0.33060032400E+03  0.19900000000E+03 0.  0.
   -5000001    1    1    2    0    0  0.23894866747E+03  0.77518962799E+01  0.26061539607E+03  0.40580530092E+03  0.19900000000E+03 0.  0.
<mgrwt>
<rscale>  0 0.63519099E+03</rscale>
<asrwt>0</asrwt>
<pdfrwt beam="1">  1        2 0.79214200E-01 0.63519099E+03</pdfrwt>
<pdfrwt beam="2">  1       -2 0.25986605E-01 0.63519099E+03</pdfrwt>
<totfact> 0.79824041E+02</totfact>
</mgrwt>
</event>
<event>
 4    1  0.5056513E-005  0.5537308E+03  0.7818608E-02  0.1000634E+00
         -2   -1    0    0    0  501 -0.00000000000E+00  0.00000000000E+00  0.68174590689E+02  0.68174590737E+02  0.25500000000E-02 0. -1.
          2   -1    0    0  501    0  0.00000000000E+00 -0.00000000000E+00 -0.11243842906E+04  0.11243842906E+04  0.25500000000E-02 0.  1.
    5000001    1    1    2    0    0 -0.13670997876E+03 -0.11601502529E+03 -0.37728058413E+03  0.46269940949E+03  0.19900000000E+03 0.  0.
   -5000001    1    1    2    0    0  0.13670997876E+03  0.11601502529E+03 -0.67892911582E+03  0.72985947188E+03  0.19900000000E+03 0.  0.
<mgrwt>
<rscale>  0 0.55373076E+03</rscale>
<asrwt>0</asrwt>
<pdfrwt beam="1">  1        2 0.16062632E+00 0.55373076E+03</pdfrwt>
<pdfrwt beam="2">  1       -2 0.97392280E-02 0.55373076E+03</pdfrwt>
<totfact> 0.17041031E+03</totfact>
</mgrwt>
</event>
<event>
 4    1  0.5056513E-005  0.4833574E+03  0.7818608E-02  0.1018217E+00
          2   -1    0    0  501    0  0.00000000000E+00  0.00000000000E+00  0.26787594811E+03  0.26787594812E+03  0.25500000000E-02 0.  1.
         -2   -1    0    0    0  501 -0.00000000000E+00 -0.00000000000E+00 -0.21804342826E+03  0.21804342827E+03  0.25500000000E-02 0. -1.
    5000001    1    1    2    0    0  0.93719654180E+02  0.67675096528E+02  0.99092838408E+02  0.25056672344E+03  0.19900000000E+03 0.  0.
   -5000001    1    1    2    0    0 -0.93719654180E+02 -0.67675096528E+02 -0.49260318555E+02  0.23535265296E+03  0.19900000000E+03 0.  0.
<mgrwt>
<rscale>  0 0.48335738E+03</rscale>
<asrwt>0</asrwt>
<pdfrwt beam="1">  1        2 0.38267993E-01 0.48335738E+03</pdfrwt>
<pdfrwt beam="2">  1       -2 0.31149061E-01 0.48335738E+03</pdfrwt>
<totfact> 0.12903583E+03</totfact>
</mgrwt>
</event>
<event>
 4    1  0.5056513E-005  0.8123283E+03  0.7818608E-02  0.9542342E-01
          2   -1    0    0  501    0  0.00000000000E+00  0.00000000000E+00  0.30603380755E+03  0.30603380756E+03  0.25500000000E-02 0.  1.
         -2   -1    0    0    0  501 -0.00000000000E+00 -0.00000000000E+00 -0.53905588460E+03  0.53905588460E+03  0.25500000000E-02 0. -1.
    5000001    1    1    2    0    0  0.59895272887E+02 -0.23547417812E+03  0.15142760291E+03  0.34866438189E+03  0.19900000000E+03 0.  0.
   -5000001    1    1    2    0    0 -0.59895272887E+02  0.23547417812E+03 -0.38444967995E+03  0.49642531028E+03  0.19900000000E+03 0.  0.
<mgrwt>
<rscale>  0 0.81232832E+03</rscale>
<asrwt>0</asrwt>
<pdfrwt beam="1">  1        2 0.43719116E-01 0.81232832E+03</pdfrwt>
<pdfrwt beam="2">  1       -2 0.77007983E-01 0.81232832E+03</pdfrwt>
<totfact> 0.17684121E+02</totfact>
</mgrwt>
</event>
<event>
 4    1  0.5056513E-005  0.5510627E+03  0.7818608E-02  0.1001248E+00
          2   -1    0    0  501    0  0.00000000000E+00  0.00000000000E+00  0.20220455154E+04  0.20220455154E+04  0.25500000000E-02 0.  1.
         -2   -1    0    0    0  501 -0.00000000000E+00 -0.00000000000E+00 -0.37544908419E+02  0.37544908506E+02  0.25500000000E-02 0. -1.
    5000001    1    1    2    0    0 -0.24356415035E+02 -0.61762848666E+02  0.16598773995E+04  0.16730815479E+04  0.19900000000E+03 0.  0.
   -5000001    1    1    2    0    0  0.24356415035E+02  0.61762848666E+02  0.32462320750E+03  0.38650887606E+03  0.19900000000E+03 0.  0.
<mgrwt>
<rscale>  0 0.55106266E+03</rscale>
<asrwt>0</asrwt>
<pdfrwt beam="1">  1        2 0.28886375E+00 0.55106266E+03</pdfrwt>
<pdfrwt beam="2">  1       -2 0.53635564E-02 0.55106266E+03</pdfrwt>
<totfact> 0.14895254E+03</totfact>
</mgrwt>
</event>
<event>
 4    1  0.5056513E-005  0.7065894E+03  0.7818608E-02  0.9706029E-01
         -2   -1    0    0    0  501 -0.00000000000E+00  0.00000000000E+00  0.52903302337E+02  0.52903302399E+02  0.25500000000E-02 0.  1.
          2   -1    0    0  501    0  0.00000000000E+00 -0.00000000000E+00 -0.23593453498E+04  0.23593453498E+04  0.25500000000E-02 0. -1.
    5000001    1    1    2    0    0 -0.25667344753E+03 -0.48007996894E+02 -0.70770435222E+03  0.78014900921E+03  0.19900000000E+03 0.  0.
   -5000001    1    1    2    0    0  0.25667344753E+03  0.48007996894E+02 -0.15987376953E+04  0.16320996430E+04  0.19900000000E+03 0.  0.
<mgrwt>
<rscale>  0 0.70658944E+03</rscale>
<asrwt>0</asrwt>
<pdfrwt beam="1">  1        2 0.33704927E+00 0.70658944E+03</pdfrwt>
<pdfrwt beam="2">  1       -2 0.75576161E-02 0.70658944E+03</pdfrwt>
<totfact> 0.58112011E+02</totfact>
</mgrwt>
</event>
<event>
 4    1  0.5056513E-005  0.6139160E+03  0.7818608E-02  0.9876948E-01
         -2   -1    0    0    0  501 -0.00000000000E+00  0.00000000000E+00  0.47717783861E+02  0.47717783930E+02  0.25500000000E-02 0. -1.
          2   -1    0    0  501    0  0.00000000000E+00 -0.00000000000E+00 -0.19745933586E+04  0.19745933586E+04  0.25500000000E-02 0.  1.
    5000001    1    1    2    0    0 -0.11615459916E+03 -0.19172914567E+03 -0.11812051519E+04  0.12186462025E+04  0.19900000000E+03 0.  0.
   -5000001    1    1    2    0    0  0.11615459916E+03  0.19172914567E+03 -0.74567042290E+03  0.80366494000E+03  0.19900000000E+03 0.  0.
<mgrwt>
<rscale>  0 0.61391602E+03</rscale>
<asrwt>0</asrwt>
<pdfrwt beam="1">  1        2 0.28208471E+00 0.61391602E+03</pdfrwt>
<pdfrwt beam="2">  1       -2 0.68168275E-02 0.61391602E+03</pdfrwt>
<totfact> 0.10773875E+03</totfact>
</mgrwt>
</event>
<event>
 4    1  0.5056513E-005  0.7011145E+03  0.7818608E-02  0.9715328E-01
          2   -1    0    0  501    0  0.00000000000E+00  0.00000000000E+00  0.40152072333E+03  0.40152072334E+03  0.25500000000E-02 0.  1.
         -2   -1    0    0    0  501 -0.00000000000E+00 -0.00000000000E+00 -0.30606233735E+03  0.30606233736E+03  0.25500000000E-02 0. -1.
    5000001    1    1    2    0    0  0.16690694301E+03  0.22422105431E+03  0.12019951897E+03  0.36356833358E+03  0.19900000000E+03 0.  0.
   -5000001    1    1    2    0    0 -0.16690694301E+03 -0.22422105431E+03 -0.24741132991E+02  0.34401472713E+03  0.19900000000E+03 0.  0.
<mgrwt>
<rscale>  0 0.70111446E+03</rscale>
<asrwt>0</asrwt>
<pdfrwt beam="1">  1        2 0.57360103E-01 0.70111446E+03</pdfrwt>
<pdfrwt beam="2">  1       -2 0.43723191E-01 0.70111446E+03</pdfrwt>
<totfact> 0.43024279E+02</totfact>
</mgrwt>
</event>
<event>
 4    1  0.5056513E-005  0.6048536E+03  0.7818608E-02  0.9895387E-01
          2   -1    0    0  501    0  0.00000000000E+00  0.00000000000E+00  0.20657019555E+04  0.20657019555E+04  0.25500000000E-02 0.  1.
         -2   -1    0    0    0  501 -0.00000000000E+00 -0.00000000000E+00 -0.44276465268E+02  0.44276465341E+02  0.25500000000E-02 0. -1.
    5000001    1    1    2    0    0  0.10390361131E+03 -0.18215254349E+03  0.70094118186E+03  0.75821833925E+03  0.19900000000E+03 0.  0.
   -5000001    1    1    2    0    0 -0.10390361131E+03  0.18215254349E+03  0.13204843084E+04  0.13517600816E+04  0.19900000000E+03 0.  0.
<mgrwt>
<rscale>  0 0.60485364E+03</rscale>
<asrwt>0</asrwt>
<pdfrwt beam="1">  1        2 0.29510019E+00 0.60485364E+03</pdfrwt>
<pdfrwt beam="2">  1       -2 0.63252113E-02 0.60485364E+03</pdfrwt>
<totfact> 0.10914611E+03</totfact>
</mgrwt>
</event>
<event>
 4    1  0.5056513E-005  0.5997311E+03  0.7818608E-02  0.9905964E-01
         -2   -1    0    0    0  501 -0.00000000000E+00  0.00000000000E+00  0.83932957647E+03  0.83932957647E+03  0.25500000000E-02 0. -1.
          2   -1    0    0  501    0  0.00000000000E+00 -0.00000000000E+00 -0.10713235599E+03  0.10713235602E+03  0.25500000000E-02 0.  1.
    5000001    1    1    2    0    0 -0.11017681582E+03 -0.18663943982E+03  0.45737405482E+03  0.54384302630E+03  0.19900000000E+03 0.  0.
   -5000001    1    1    2    0    0  0.11017681582E+03  0.18663943982E+03  0.27482316566E+03  0.40261890619E+03  0.19900000000E+03 0.  0.
<mgrwt>
<rscale>  0 0.59973112E+03</rscale>
<asrwt>0</asrwt>
<pdfrwt beam="1">  1        2 0.15304623E-01 0.59973112E+03</pdfrwt>
<pdfrwt beam="2">  1       -2 0.11990422E+00 0.59973112E+03</pdfrwt>
<totfact> 0.21093163E+02</totfact>
</mgrwt>
</event>
<event>
 4    1  0.5056513E-005  0.5969890E+03  0.7818608E-02  0.9911673E-01
         -2   -1    0    0    0  501 -0.00000000000E+00  0.00000000000E+00  0.37743753037E+03  0.37743753037E+03  0.25500000000E-02 0. -1.
          2   -1    0    0  501    0  0.00000000000E+00 -0.00000000000E+00 -0.23606280035E+03  0.23606280037E+03  0.25500000000E-02 0.  1.
    5000001    1    1    2    0    0 -0.13666506021E+03 -0.90918538919E+02 -0.83647668621E+02  0.27118527222E+03  0.19900000000E+03 0.  0.
   -5000001    1    1    2    0    0  0.13666506021E+03  0.90918538919E+02  0.22502239864E+03  0.34231505852E+03  0.19900000000E+03 0.  0.
<mgrwt>
<rscale>  0 0.59698898E+03</rscale>
<asrwt>0</asrwt>
<pdfrwt beam="1">  1        2 0.33723257E-01 0.59698898E+03</pdfrwt>
<pdfrwt beam="2">  1       -2 0.53919647E-01 0.59698898E+03</pdfrwt>
<totfact> 0.50930102E+02</totfact>
</mgrwt>
</event>
<event>
 4    1  0.5056513E-005  0.7415639E+03  0.7818608E-02  0.9648679E-01
         -2   -1    0    0    0  501 -0.00000000000E+00  0.00000000000E+00  0.48962364992E+03  0.48962364993E+03  0.25500000000E-02 0. -1.
          2   -1    0    0  501    0  0.00000000000E+00 -0.00000000000E+00 -0.28078553302E+03  0.28078553303E+03  0.25500000000E-02 0.  1.
    5000001    1    1    2    0    0  0.31103939880E+03 -0.21582007971E+02  0.77589191937E+02  0.37793170465E+03  0.19900000000E+03 0.  0.
   -5000001    1    1    2    0    0 -0.31103939880E+03  0.21582007971E+02  0.13124892497E+03  0.39247747831E+03  0.19900000000E+03 0.  0.
<mgrwt>
<rscale>  0 0.74156385E+03</rscale>
<asrwt>0</asrwt>
<pdfrwt beam="1">  1        2 0.40112219E-01 0.74156385E+03</pdfrwt>
<pdfrwt beam="2">  1       -2 0.69946236E-01 0.74156385E+03</pdfrwt>
<totfact> 0.24114488E+02</totfact>
</mgrwt>
</event>
<event>
 4    1  0.5056513E-005  0.6969007E+03  0.7818608E-02  0.9722547E-01
         -2   -1    0    0    0  501 -0.00000000000E+00  0.00000000000E+00  0.42899633209E+02  0.42899633285E+02  0.25500000000E-02 0. -1.
          2   -1    0    0  501    0  0.00000000000E+00 -0.00000000000E+00 -0.28302724560E+04  0.28302724560E+04  0.25500000000E-02 0.  1.
    5000001    1    1    2    0    0 -0.21001522133E+03 -0.19263380255E+03 -0.14948817126E+04  0.15347594306E+04  0.19900000000E+03 0.  0.
   -5000001    1    1    2    0    0  0.21001522133E+03  0.19263380255E+03 -0.12924911102E+04  0.13384126587E+04  0.19900000000E+03 0.  0.
<mgrwt>
<rscale>  0 0.69690071E+03</rscale>
<asrwt>0</asrwt>
<pdfrwt beam="1">  1        2 0.40432452E+00 0.69690071E+03</pdfrwt>
<pdfrwt beam="2">  1       -2 0.61285208E-02 0.69690071E+03</pdfrwt>
<totfact> 0.46070265E+02</totfact>
</mgrwt>
</event>
<event>
 4    1  0.5056513E-005  0.4899545E+03  0.7818608E-02  0.1016435E+00
         -2   -1    0    0    0  501 -0.00000000000E+00  0.00000000000E+00  0.43230214892E+02  0.43230214967E+02  0.25500000000E-02 0. -1.
          2   -1    0    0  501    0  0.00000000000E+00 -0.00000000000E+00 -0.13882388164E+04  0.13882388164E+04  0.25500000000E-02 0.  1.
    5000001    1    1    2    0    0 -0.81936674827E+02  0.64291321056E+02 -0.38675287631E+03  0.44724241746E+03  0.19900000000E+03 0.  0.
   -5000001    1    1    2    0    0  0.81936674827E+02 -0.64291321056E+02 -0.95825572519E+03  0.98422661389E+03  0.19900000000E+03 0.  0.
<mgrwt>
<rscale>  0 0.48995454E+03</rscale>
<asrwt>0</asrwt>
<pdfrwt beam="1">  1        2 0.19831980E+00 0.48995454E+03</pdfrwt>
<pdfrwt beam="2">  1       -2 0.61757458E-02 0.48995454E+03</pdfrwt>
<totfact> 0.25173032E+03</totfact>
</mgrwt>
</event>
<event>
 4    1  0.5056513E-005  0.5430469E+03  0.7818608E-02  0.1003116E+00
         -2   -1    0    0    0  501 -0.00000000000E+00  0.00000000000E+00  0.66999127243E+02  0.66999127291E+02  0.25500000000E-02 0. -1.
          2   -1    0    0  501    0  0.00000000000E+00 -0.00000000000E+00 -0.11003870725E+04  0.11003870725E+04  0.25500000000E-02 0.  1.
    5000001    1    1    2    0    0  0.14109440134E+03  0.14002254167E+02 -0.77123371196E+03  0.80901553241E+03  0.19900000000E+03 0.  0.
   -5000001    1    1    2    0    0 -0.14109440134E+03 -0.14002254167E+02 -0.26215423332E+03  0.35837066741E+03  0.19900000000E+03 0.  0.
<mgrwt>
<rscale>  0 0.54304686E+03</rscale>
<asrwt>0</asrwt>
<pdfrwt beam="1">  1        2 0.15719814E+00 0.54304686E+03</pdfrwt>
<pdfrwt beam="2">  1       -2 0.95713045E-02 0.54304686E+03</pdfrwt>
<totfact> 0.18096605E+03</totfact>
</mgrwt>
</event>
<event>
 4    1  0.5056513E-005  0.4369298E+03  0.7818608E-02  0.1031693E+00
         -2   -1    0    0    0  501 -0.00000000000E+00  0.00000000000E+00  0.50521533835E+02  0.50521533899E+02  0.25500000000E-02 0. -1.
          2   -1    0    0  501    0  0.00000000000E+00 -0.00000000000E+00 -0.94468447461E+03  0.94468447461E+03  0.25500000000E-02 0.  1.
    5000001    1    1    2    0    0 -0.46925071505E+01  0.87344019724E+02 -0.49671870539E+03  0.54220058068E+03  0.19900000000E+03 0.  0.
   -5000001    1    1    2    0    0  0.46925071505E+01 -0.87344019724E+02 -0.39744423538E+03  0.45300542783E+03  0.19900000000E+03 0.  0.
<mgrwt>
<rscale>  0 0.43692978E+03</rscale>
<asrwt>0</asrwt>
<pdfrwt beam="1">  1        2 0.13495491E+00 0.43692978E+03</pdfrwt>
<pdfrwt beam="2">  1       -2 0.72173626E-02 0.43692978E+03</pdfrwt>
<totfact> 0.35139147E+03</totfact>
</mgrwt>
</event>
<event>
 4    1  0.5056513E-005  0.8027373E+03  0.7818608E-02  0.9556063E-01
          2   -1    0    0  501    0  0.00000000000E+00  0.00000000000E+00  0.10869319003E+04  0.10869319003E+04  0.25500000000E-02 0.  1.
         -2   -1    0    0    0  501 -0.00000000000E+00 -0.00000000000E+00 -0.14821240553E+03  0.14821240555E+03  0.25500000000E-02 0. -1.
    5000001    1    1    2    0    0  0.28558559910E+03  0.17833127498E+02  0.16309710641E+03  0.38481011027E+03  0.19900000000E+03 0.  0.
   -5000001    1    1    2    0    0 -0.28558559910E+03 -0.17833127498E+02  0.77562238832E+03  0.85033419554E+03  0.19900000000E+03 0.  0.
<mgrwt>
<rscale>  0 0.80273730E+03</rscale>
<asrwt>0</asrwt>
<pdfrwt beam="1">  1        2 0.15527599E+00 0.80273730E+03</pdfrwt>
<pdfrwt beam="2">  1       -2 0.21173200E-01 0.80273730E+03</pdfrwt>
<totfact> 0.48136501E+02</totfact>
</mgrwt>
</event>
<event>
 4    1  0.5056513E-005  0.5655528E+03  0.7818608E-02  0.9979568E-01
         -2   -1    0    0    0  501 -0.00000000000E+00  0.00000000000E+00  0.13939209184E+03  0.13939209186E+03  0.25500000000E-02 0. -1.
          2   -1    0    0  501    0  0.00000000000E+00 -0.00000000000E+00 -0.57365147992E+03  0.57365147992E+03  0.25500000000E-02 0.  1.
    5000001    1    1    2    0    0  0.19476606241E+03  0.48507758192E+02 -0.22802354539E+03  0.36315638357E+03  0.19900000000E+03 0.  0.
   -5000001    1    1    2    0    0 -0.19476606241E+03 -0.48507758192E+02 -0.20623584269E+03  0.34988718822E+03  0.19900000000E+03 0.  0.
<mgrwt>
<rscale>  0 0.56555276E+03</rscale>
<asrwt>0</asrwt>
<pdfrwt beam="1">  1        2 0.81950210E-01 0.56555276E+03</pdfrwt>
<pdfrwt beam="2">  1       -2 0.19913156E-01 0.56555276E+03</pdfrwt>
<totfact> 0.12310092E+03</totfact>
</mgrwt>
</event>
<event>
 4    1  0.5056513E-005  0.7532998E+03  0.7818608E-02  0.9630188E-01
         -2   -1    0    0    0  501 -0.00000000000E+00  0.00000000000E+00  0.66698584924E+02  0.66698584973E+02  0.25500000000E-02 0. -1.
          2   -1    0    0  501    0  0.00000000000E+00 -0.00000000000E+00 -0.21269590097E+04  0.21269590097E+04  0.25500000000E-02 0.  1.
    5000001    1    1    2    0    0  0.29908258616E+03 -0.10829309032E+03 -0.11261122011E+04  0.11869740841E+04  0.19900000000E+03 0.  0.
   -5000001    1    1    2    0    0 -0.29908258616E+03  0.10829309032E+03 -0.93414822368E+03  0.10066835106E+04  0.19900000000E+03 0.  0.
<mgrwt>
<rscale>  0 0.75329982E+03</rscale>
<asrwt>0</asrwt>
<pdfrwt beam="1">  1        2 0.30385125E+00 0.75329982E+03</pdfrwt>
<pdfrwt beam="2">  1       -2 0.95283705E-02 0.75329982E+03</pdfrwt>
<totfact> 0.52384558E+02</totfact>
</mgrwt>
</event>
<event>
 4    1  0.5056513E-005  0.8453496E+03  0.7818608E-02  0.9496600E-01
          2   -1    0    0  501    0  0.00000000000E+00  0.00000000000E+00  0.21522753316E+04  0.21522753316E+04  0.25500000000E-02 0.  1.
         -2   -1    0    0    0  501 -0.00000000000E+00 -0.00000000000E+00 -0.83007022305E+02  0.83007022345E+02  0.25500000000E-02 0. -1.
    5000001    1    1    2    0    0  0.44046720022E+01  0.30048570061E+03  0.16184116249E+04  0.16580615926E+04  0.19900000000E+03 0.  0.
   -5000001    1    1    2    0    0 -0.44046720022E+01 -0.30048570061E+03  0.45085668438E+03  0.57722076128E+03  0.19900000000E+03 0.  0.
<mgrwt>
<rscale>  0 0.84534955E+03</rscale>
<asrwt>0</asrwt>
<pdfrwt beam="1">  1        2 0.30746789E+00 0.84534955E+03</pdfrwt>
<pdfrwt beam="2">  1       -2 0.11858147E-01 0.84534955E+03</pdfrwt>
<totfact> 0.35318693E+02</totfact>
</mgrwt>
</event>
<event>
 4    1  0.5056513E-005  0.6000314E+03  0.7818608E-02  0.9905341E-01
          2   -1    0    0  501    0  0.00000000000E+00  0.00000000000E+00  0.74499835249E+03  0.74499835249E+03  0.25500000000E-02 0. -1.
         -2   -1    0    0    0  501 -0.00000000000E+00 -0.00000000000E+00 -0.12081828491E+03  0.12081828493E+03  0.25500000000E-02 0.  1.
    5000001    1    1    2    0    0  0.10388268895E+03 -0.14780652105E+03  0.50444179849E+03  0.57157756149E+03  0.19900000000E+03 0.  0.
   -5000001    1    1    2    0    0 -0.10388268895E+03  0.14780652105E+03  0.11973826909E+03  0.29423907594E+03  0.19900000000E+03 0.  0.
<mgrwt>
<rscale>  0 0.60003141E+03</rscale>
<asrwt>0</asrwt>
<pdfrwt beam="1">  1        2 0.10642834E+00 0.60003141E+03</pdfrwt>
<pdfrwt beam="2">  1       -2 0.17259755E-01 0.60003141E+03</pdfrwt>
<totfact> 0.11501932E+03</totfact>
</mgrwt>
</event>
<event>
 4    1  0.5056513E-005  0.6683321E+03  0.7818608E-02  0.9772976E-01
         -2   -1    0    0    0  501 -0.00000000000E+00  0.00000000000E+00  0.13431877561E+04  0.13431877561E+04  0.25500000000E-02 0. -1.
          2   -1    0    0  501    0  0.00000000000E+00 -0.00000000000E+00 -0.83135779555E+02  0.83135779594E+02  0.25500000000E-02 0.  1.
    5000001    1    1    2    0    0 -0.18161739666E+03  0.10256299888E+03  0.99070374122E+03  0.10317940446E+04  0.19900000000E+03 0.  0.
   -5000001    1    1    2    0    0  0.18161739666E+03 -0.10256299888E+03  0.26934823532E+03  0.39452949113E+03  0.19900000000E+03 0.  0.
<mgrwt>
<rscale>  0 0.66833214E+03</rscale>
<asrwt>0</asrwt>
<pdfrwt beam="1">  1        2 0.11876539E-01 0.66833214E+03</pdfrwt>
<pdfrwt beam="2">  1       -2 0.19188397E+00 0.66833214E+03</pdfrwt>
<totfact> 0.82205857E+01</totfact>
</mgrwt>
</event>
<event>
 4    1  0.5056513E-005  0.1001867E+04  0.7818608E-02  0.9306500E-01
         -2   -1    0    0    0  501 -0.00000000000E+00  0.00000000000E+00  0.14810376427E+03  0.14810376429E+03  0.25500000000E-02 0. -1.
          2   -1    0    0  501    0  0.00000000000E+00 -0.00000000000E+00 -0.16943141545E+04  0.16943141545E+04  0.25500000000E-02 0.  1.
    5000001    1    1    2    0    0  0.25516892006E+03 -0.39801606717E+02 -0.73715423129E+02  0.33426084016E+03  0.19900000000E+03 0.  0.
   -5000001    1    1    2    0    0 -0.25516892006E+03  0.39801606717E+02 -0.14724949671E+04  0.15081570786E+04  0.19900000000E+03 0.  0.
<mgrwt>
<rscale>  0 0.10018669E+04</rscale>
<asrwt>0</asrwt>
<pdfrwt beam="1">  1        2 0.24204487E+00 0.10018669E+04</pdfrwt>
<pdfrwt beam="2">  1       -2 0.21157682E-01 0.10018669E+04</pdfrwt>
<totfact> 0.22283920E+02</totfact>
</mgrwt>
</event>
<event>
 4    1  0.5056513E-005  0.5477553E+03  0.7818608E-02  0.1002015E+00
         -2   -1    0    0    0  501 -0.00000000000E+00  0.00000000000E+00  0.10055211863E+03  0.10055211866E+03  0.25500000000E-02 0. -1.
          2   -1    0    0  501    0  0.00000000000E+00 -0.00000000000E+00 -0.74597094422E+03  0.74597094422E+03  0.25500000000E-02 0.  1.
    5000001    1    1    2    0    0  0.18789267966E+03  0.43911665666E+01 -0.30845969234E+03  0.41239704559E+03  0.19900000000E+03 0.  0.
   -5000001    1    1    2    0    0 -0.18789267966E+03 -0.43911665666E+01 -0.33695913324E+03  0.43412601729E+03  0.19900000000E+03 0.  0.
<mgrwt>
<rscale>  0 0.54775527E+03</rscale>
<asrwt>0</asrwt>
<pdfrwt beam="1">  1        2 0.10656727E+00 0.54775527E+03</pdfrwt>
<pdfrwt beam="2">  1       -2 0.14364589E-01 0.54775527E+03</pdfrwt>
<totfact> 0.15671961E+03</totfact>
</mgrwt>
</event>
<event>
 4    1  0.5056513E-005  0.7305641E+03  0.7818608E-02  0.9666345E-01
         -2   -1    0    0    0  501 -0.00000000000E+00  0.00000000000E+00  0.39498834703E+02  0.39498834785E+02  0.25500000000E-02 0. -1.
          2   -1    0    0  501    0  0.00000000000E+00 -0.00000000000E+00 -0.33780991020E+04  0.33780991020E+04  0.25500000000E-02 0.  1.
    5000001    1    1    2    0    0  0.23813528436E+01 -0.22976985266E+03 -0.26168761134E+04  0.26344717590E+04  0.19900000000E+03 0.  0.
   -5000001    1    1    2    0    0 -0.23813528436E+01  0.22976985266E+03 -0.72172415390E+03  0.78312617780E+03  0.19900000000E+03 0.  0.
<mgrwt>
<rscale>  0 0.73056411E+03</rscale>
<asrwt>0</asrwt>
<pdfrwt beam="1">  1        2 0.48258540E+00 0.73056411E+03</pdfrwt>
<pdfrwt beam="2">  1       -2 0.56426928E-02 0.73056411E+03</pdfrwt>
<totfact> 0.25903588E+02</totfact>
</mgrwt>
</event>
<event>
 4    1  0.5056513E-005  0.9939580E+03  0.7818608E-02  0.9315196E-01
          2   -1    0    0  501    0  0.00000000000E+00  0.00000000000E+00  0.13142690763E+04  0.13142690763E+04  0.25500000000E-02 0.  1.
         -2   -1    0    0    0  501 -0.00000000000E+00 -0.00000000000E+00 -0.18792813349E+03  0.18792813351E+03  0.25500000000E-02 0. -1.
    5000001    1    1    2    0    0 -0.32753969523E+03 -0.16729526767E+03  0.96903235458E+03  0.10554120820E+04  0.19900000000E+03 0.  0.
   -5000001    1    1    2    0    0  0.32753969523E+03  0.16729526767E+03  0.15730858823E+03  0.44678512785E+03  0.19900000000E+03 0.  0.
<mgrwt>
<rscale>  0 0.99395802E+03</rscale>
<asrwt>0</asrwt>
<pdfrwt beam="1">  1        2 0.18775273E+00 0.99395802E+03</pdfrwt>
<pdfrwt beam="2">  1       -2 0.26846875E-01 0.99395802E+03</pdfrwt>
<totfact> 0.23121697E+02</totfact>
</mgrwt>
</event>
<event>
 4    1  0.5056513E-005  0.5117454E+03  0.7818608E-02  0.1010758E+00
         -2   -1    0    0    0  501 -0.00000000000E+00  0.00000000000E+00  0.93185836267E+02  0.93185836302E+02  0.25500000000E-02 0. -1.
          2   -1    0    0  501    0  0.00000000000E+00 -0.00000000000E+00 -0.70258366882E+03  0.70258366882E+03  0.25500000000E-02 0.  1.
    5000001    1    1    2    0    0  0.73037312390E+02  0.73831375122E+02 -0.49568260171E+03  0.54413946980E+03  0.19900000000E+03 0.  0.
   -5000001    1    1    2    0    0 -0.73037312390E+02 -0.73831375122E+02 -0.11371523084E+03  0.25163003533E+03  0.19900000000E+03 0.  0.
<mgrwt>
<rscale>  0 0.51174543E+03</rscale>
<asrwt>0</asrwt>
<pdfrwt beam="1">  1        2 0.10036909E+00 0.51174543E+03</pdfrwt>
<pdfrwt beam="2">  1       -2 0.13312263E-01 0.51174543E+03</pdfrwt>
<totfact> 0.19151223E+03</totfact>
</mgrwt>
</event>
<event>
 4    1  0.5056513E-005  0.5626998E+03  0.7818608E-02  0.9985964E-01
          2   -1    0    0  501    0  0.00000000000E+00  0.00000000000E+00  0.71519896637E+03  0.71519896637E+03  0.25500000000E-02 0.  1.
         -2   -1    0    0    0  501 -0.00000000000E+00 -0.00000000000E+00 -0.11067936567E+03  0.11067936570E+03  0.25500000000E-02 0. -1.
    5000001    1    1    2    0    0 -0.37516596094E+02  0.58308267459E+02  0.28661698657E+02  0.21267308717E+03  0.19900000000E+03 0.  0.
   -5000001    1    1    2    0    0  0.37516596094E+02 -0.58308267459E+02  0.57585790204E+03  0.61320524490E+03  0.19900000000E+03 0.  0.
<mgrwt>
<rscale>  0 0.56269981E+03</rscale>
<asrwt>0</asrwt>
<pdfrwt beam="1">  1        2 0.10217129E+00 0.56269981E+03</pdfrwt>
<pdfrwt beam="2">  1       -2 0.15811337E-01 0.56269981E+03</pdfrwt>
<totfact> 0.14048099E+03</totfact>
</mgrwt>
</event>
<event>
 4    1  0.5056513E-005  0.6991407E+03  0.7818608E-02  0.9718703E-01
         -2   -1    0    0    0  501 -0.00000000000E+00  0.00000000000E+00  0.46788774492E+02  0.46788774561E+02  0.25500000000E-02 0. -1.
          2   -1    0    0  501    0  0.00000000000E+00 -0.00000000000E+00 -0.26117251693E+04  0.26117251693E+04  0.25500000000E-02 0.  1.
    5000001    1    1    2    0    0 -0.13587223953E+03 -0.18780023301E+03 -0.19285454208E+04  0.19525927975E+04  0.19900000000E+03 0.  0.
   -5000001    1    1    2    0    0  0.13587223953E+03  0.18780023301E+03 -0.63639097398E+03  0.70592114628E+03  0.19900000000E+03 0.  0.
<mgrwt>
<rscale>  0 0.69914067E+03</rscale>
<asrwt>0</asrwt>
<pdfrwt beam="1">  1        2 0.37310350E+00 0.69914067E+03</pdfrwt>
<pdfrwt beam="2">  1       -2 0.66841123E-02 0.69914067E+03</pdfrwt>
<totfact> 0.52373720E+02</totfact>
</mgrwt>
</event>
<event>
 4    1  0.5056513E-005  0.7158758E+03  0.7818608E-02  0.9690461E-01
         -2   -1    0    0    0  501 -0.00000000000E+00  0.00000000000E+00  0.70300812636E+02  0.70300812682E+02  0.25500000000E-02 0. -1.
          2   -1    0    0  501    0  0.00000000000E+00 -0.00000000000E+00 -0.18224475510E+04  0.18224475510E+04  0.25500000000E-02 0.  1.
    5000001    1    1    2    0    0  0.15016605932E+03  0.17132180099E+01 -0.19700345747E+03  0.31774855270E+03  0.19900000000E+03 0.  0.
   -5000001    1    1    2    0    0 -0.15016605932E+03 -0.17132180099E+01 -0.15551432809E+04  0.15749998109E+04  0.19900000000E+03 0.  0.
<mgrwt>
<rscale>  0 0.71587581E+03</rscale>
<asrwt>0</asrwt>
<pdfrwt beam="1">  1        2 0.26034962E+00 0.71587581E+03</pdfrwt>
<pdfrwt beam="2">  1       -2 0.10042974E-01 0.71587581E+03</pdfrwt>
<totfact> 0.68738973E+02</totfact>
</mgrwt>
</event>
